Generated by trjconv : CNT in water t=  84.00000
33518
    1C        C    1   2.838   2.763   4.746
    1C        C    2   2.893   2.714   4.866
    1C        C    3   2.831   2.765   4.981
    1C        C    4   2.848   2.769   4.257
    1C        C    5   2.898   2.721   4.380
    1C        C    6   2.851   2.774   4.502
    1C        C    7   3.009   2.635   4.623
    1C        C    8   2.895   2.719   4.624
    1C        C    9   3.078   2.607   4.743
    1C        C   10   3.012   2.638   4.864
    1C        C   11   3.181   2.494   4.976
    1C        C   12   3.060   2.566   4.974
    1C        C   13   2.851   2.772   3.770
    1C        C   14   2.902   2.721   3.891
    1C        C   15   2.849   2.771   4.013
    1C        C   16   3.018   2.642   4.135
    1C        C   17   2.906   2.727   4.135
    1C        C   18   3.080   2.607   4.258
    1C        C   19   3.014   2.639   4.378
    1C        C   20   3.206   2.556   4.502
    1C        C   21   3.073   2.604   4.502
    1C        C   22   3.274   2.530   4.623
    1C        C   23   3.207   2.547   4.746
    1C        C   24   3.412   2.482   4.861
    1C        C   25   3.271   2.504   4.865
    1C        C   26   3.490   2.473   4.977
    1C        C   27   2.845   2.764   3.282
    1C        C   28   2.899   2.718   3.404
    1C        C   29   2.852   2.771   3.526
    1C        C   30   3.017   2.638   3.647
    1C        C   31   2.905   2.724   3.649
    1C        C   32   3.075   2.599   3.770
    1C        C   33   3.012   2.633   3.892
    1C        C   34   3.207   2.547   4.016
    1C        C   35   3.075   2.597   4.014
    1C        C   36   3.277   2.529   4.137
    1C        C   37   3.213   2.559   4.259
    1C        C   38   3.417   2.512   4.381
    1C        C   39   3.278   2.539   4.382
    1C        C   40   3.488   2.498   4.502
    1C        C   41   3.412   2.497   4.621
    1C        C   42   3.630   2.486   4.744
    1C        C   43   3.488   2.486   4.740
    1C        C   44   3.706   2.481   4.862
    1C        C   45   3.629   2.468   4.979
    1C        C   46   2.834   2.745   2.792
    1C        C   47   2.892   2.707   2.915
    1C        C   48   2.842   2.758   3.037
    1C        C   49   3.009   2.630   3.160
    1C        C   50   2.894   2.712   3.160
    1C        C   51   3.074   2.599   3.282
    1C        C   52   3.017   2.641   3.404
    1C        C   53   3.210   2.547   3.524
    1C        C   54   3.081   2.605   3.525
    1C        C   55   3.274   2.525   3.648
    1C        C   56   3.206   2.544   3.770
    1C        C   57   3.413   2.505   3.893
    1C        C   58   3.273   2.528   3.893
    1C        C   59   3.487   2.503   4.013
    1C        C   60   3.416   2.504   4.136
    1C        C   61   3.627   2.495   4.256
    1C        C   62   3.486   2.497   4.259
    1C        C   63   3.700   2.502   4.377
    1C        C   64   3.629   2.495   4.499
    1C        C   65   3.833   2.548   4.618
    1C        C   66   3.699   2.503   4.622
    1C        C   67   3.905   2.560   4.738
    1C        C   68   3.841   2.523   4.858
    1C        C   69   4.047   2.589   4.976
    1C        C   70   3.922   2.527   4.973
    1C        C   71   2.827   2.735   2.303
    1C        C   72   2.881   2.690   2.425
    1C        C   73   2.829   2.741   2.546
    1C        C   74   2.998   2.615   2.672
    1C        C   75   2.881   2.695   2.669
    1C        C   76   3.067   2.590   2.793
    1C        C   77   3.009   2.627   2.916
    1C        C   78   3.199   2.535   3.035
    1C        C   79   3.070   2.593   3.038
    1C        C   80   3.270   2.521   3.156
    1C        C   81   3.206   2.547   3.279
    1C        C   82   3.412   2.495   3.400
    1C        C   83   3.274   2.524   3.401
    1C        C   84   3.481   2.491   3.523
    1C        C   85   3.414   2.503   3.646
    1C        C   86   3.623   2.500   3.766
    1C        C   87   3.482   2.497   3.770
    1C        C   88   3.695   2.511   3.887
    1C        C   89   3.628   2.502   4.011
    1C        C   90   3.834   2.539   4.135
    1C        C   91   3.698   2.502   4.134
    1C        C   92   3.902   2.567   4.255
    1C        C   93   3.835   2.542   4.376
    1C        C   94   4.030   2.631   4.493
    1C        C   95   3.903   2.568   4.497
    1C        C   96   4.090   2.666   4.616
    1C        C   97   4.033   2.622   4.738
    1C        C   98   4.189   2.766   4.862
    1C        C   99   4.096   2.657   4.860
    1C        C  100   4.219   2.835   4.980
    1C        C  101   2.815   2.724   2.068
    1C        C  102   2.988   2.585   2.190
    1C        C  103   2.874   2.672   2.184
    1C        C  104   3.063   2.569   2.310
    1C        C  105   3.000   2.614   2.428
    1C        C  106   3.196   2.538   2.548
    1C        C  107   3.064   2.586   2.551
    1C        C  108   3.267   2.515   2.668
    1C        C  109   3.199   2.539   2.790
    1C        C  110   3.406   2.497   2.911
    1C        C  111   3.266   2.518   2.912
    1C        C  112   3.479   2.495   3.032
    1C        C  113   3.409   2.496   3.155
    1C        C  114   3.621   2.495   3.276
    1C        C  115   3.480   2.485   3.277
    1C        C  116   3.691   2.504   3.398
    1C        C  117   3.623   2.495   3.521
    1C        C  118   3.831   2.538   3.642
    1C        C  119   3.693   2.506   3.643
    1C        C  120   3.897   2.561   3.764
    1C        C  121   3.833   2.542   3.888
    1C        C  122   4.024   2.629   4.009
    1C        C  123   3.899   2.564   4.012
    1C        C  124   4.087   2.669   4.129
    1C        C  125   4.027   2.634   4.252
    1C        C  126   4.201   2.760   4.375
    1C        C  127   4.089   2.675   4.372
    1C        C  128   4.248   2.811   4.498
    1C        C  129   4.195   2.761   4.619
    1C        C  130   4.325   2.931   4.737
    1C        C  131   4.244   2.815   4.740
    1C        C  132   4.355   2.997   4.858
    1C        C  133   4.280   2.960   4.970
    1C        C  134   3.171   2.467   2.080
    1C        C  135   3.036   2.504   2.082
    1C        C  136   3.260   2.482   2.187
    1C        C  137   3.193   2.511   2.308
    1C        C  138   3.404   2.480   2.425
    1C        C  139   3.265   2.504   2.429
    1C        C  140   3.477   2.483   2.546
    1C        C  141   3.407   2.503   2.667
    1C        C  142   3.619   2.494   2.790
    1C        C  143   3.478   2.497   2.789
    1C        C  144   3.694   2.496   2.910
    1C        C  145   3.620   2.495   3.031
    1C        C  146   3.829   2.533   3.152
    1C        C  147   3.691   2.503   3.153
    1C        C  148   3.897   2.552   3.274
    1C        C  149   3.830   2.532   3.397
    1C        C  150   4.023   2.621   3.520
    1C        C  151   3.897   2.558   3.519
    1C        C  152   4.083   2.661   3.641
    1C        C  153   4.021   2.630   3.764
    1C        C  154   4.189   2.760   3.887
    1C        C  155   4.080   2.671   3.886
    1C        C  156   4.245   2.809   4.008
    1C        C  157   4.198   2.757   4.130
    1C        C  158   4.340   2.917   4.251
    1C        C  159   4.250   2.808   4.251
    1C        C  160   4.376   2.982   4.371
    1C        C  161   4.332   2.924   4.493
    1C        C  162   4.436   3.111   4.610
    1C        C  163   4.363   2.990   4.614
    1C        C  164   4.466   3.177   4.731
    1C        C  165   4.433   3.115   4.854
    1C        C  166   4.512   3.315   4.969
    1C        C  167   4.480   3.180   4.968
    1C        C  168   3.476   2.433   2.071
    1C        C  169   3.399   2.455   2.185
    1C        C  170   3.617   2.462   2.307
    1C        C  171   3.475   2.462   2.304
    1C        C  172   3.692   2.484   2.425
    1C        C  173   3.618   2.491   2.546
    1C        C  174   3.826   2.537   2.663
    1C        C  175   3.687   2.509   2.668
    1C        C  176   3.897   2.551   2.785
    1C        C  177   3.830   2.532   2.908
    1C        C  178   4.022   2.620   3.029
    1C        C  179   3.896   2.556   3.030
    1C        C  180   4.084   2.655   3.152
    1C        C  181   4.023   2.618   3.274
    1C        C  182   4.191   2.746   3.396
    1C        C  183   4.081   2.658   3.396
    1C        C  184   4.242   2.798   3.517
    1C        C  185   4.190   2.753   3.641
    1C        C  186   4.330   2.913   3.762
    1C        C  187   4.240   2.804   3.763
    1C        C  188   4.368   2.977   3.882
    1C        C  189   4.332   2.920   4.006
    1C        C  190   4.448   3.098   4.123
    1C        C  191   4.379   2.974   4.128
    1C        C  192   4.470   3.169   4.243
    1C        C  193   4.440   3.107   4.367
    1C        C  194   4.503   3.311   4.487
    1C        C  195   4.465   3.175   4.488
    1C        C  196   4.513   3.381   4.609
    1C        C  197   4.501   3.315   4.733
    1C        C  198   4.557   3.529   4.844
    1C        C  199   4.530   3.389   4.851
    1C        C  200   4.582   3.614   4.956
    1C        C  201   3.615   2.415   2.072
    1C        C  202   3.826   2.505   2.183
    1C        C  203   3.691   2.458   2.186
    1C        C  204   3.899   2.534   2.301
    1C        C  205   3.830   2.511   2.422
    1C        C  206   4.021   2.613   2.541
    1C        C  207   3.897   2.544   2.542
    1C        C  208   4.082   2.655   2.661
    1C        C  209   4.019   2.622   2.783
    1C        C  210   4.191   2.746   2.905
    1C        C  211   4.079   2.660   2.906
    1C        C  212   4.246   2.792   3.027
    1C        C  213   4.193   2.744   3.149
    1C        C  214   4.329   2.904   3.273
    1C        C  215   4.240   2.795   3.273
    1C        C  216   4.368   2.965   3.394
    1C        C  217   4.330   2.908   3.518
    1C        C  218   4.430   3.097   3.635
    1C        C  219   4.371   2.969   3.639
    1C        C  220   4.455   3.168   3.755
    1C        C  221   4.435   3.101   3.879
    1C        C  222   4.499   3.303   3.999
    1C        C  223   4.467   3.165   4.000
    1C        C  224   4.513   3.375   4.119
    1C        C  225   4.500   3.307   4.242
    1C        C  226   4.509   3.521   4.366
    1C        C  227   4.511   3.379   4.363
    1C        C  228   4.507   3.594   4.487
    1C        C  229   4.516   3.522   4.609
    1C        C  230   4.497   3.740   4.726
    1C        C  231   4.531   3.602   4.724
    1C        C  232   4.491   3.815   4.845
    1C        C  233   4.542   3.748   4.958
    1C        C  234   4.016   2.606   2.062
    1C        C  235   3.895   2.537   2.065
    1C        C  236   4.083   2.642   2.180
    1C        C  237   4.024   2.602   2.301
    1C        C  238   4.203   2.726   2.419
    1C        C  239   4.089   2.640   2.421
    1C        C  240   4.253   2.779   2.540
    1C        C  241   4.196   2.738   2.662
    1C        C  242   4.336   2.899   2.781
    1C        C  243   4.239   2.797   2.783
    1C        C  244   4.377   2.955   2.905
    1C        C  245   4.341   2.896   3.028
    1C        C  246   4.437   3.085   3.145
    1C        C  247   4.375   2.958   3.151
    1C        C  248   4.461   3.154   3.266
    1C        C  249   4.430   3.092   3.389
    1C        C  250   4.488   3.297   3.511
    1C        C  251   4.455   3.160   3.511
    1C        C  252   4.504   3.368   3.632
    1C        C  253   4.495   3.303   3.756
    1C        C  254   4.513   3.516   3.873
    1C        C  255   4.508   3.374   3.878
    1C        C  256   4.502   3.585   3.995
    1C        C  257   4.508   3.517   4.119
    1C        C  258   4.481   3.726   4.239
    1C        C  259   4.506   3.587   4.241
    1C        C  260   4.461   3.798   4.359
    1C        C  261   4.479   3.732   4.483
    1C        C  262   4.424   3.938   4.601
    1C        C  263   4.474   3.806   4.603
    1C        C  264   4.391   4.005   4.721
    1C        C  265   4.429   3.942   4.841
    1C        C  266   4.319   4.130   4.958
    1C        C  267   4.394   4.013   4.957
    1C        C  268   4.262   2.769   2.061
    1C        C  269   4.199   2.723   2.177
    1C        C  270   4.347   2.882   2.294
    1C        C  271   4.257   2.772   2.296
    1C        C  272   4.379   2.951   2.413
    1C        C  273   4.340   2.891   2.535
    1C        C  274   4.441   3.077   2.660
    1C        C  275   4.378   2.951   2.657
    1C        C  276   4.471   3.145   2.781
    1C        C  277   4.440   3.081   2.903
    1C        C  278   4.497   3.288   3.021
    1C        C  279   4.466   3.150   3.023
    1C        C  280   4.505   3.360   3.143
    1C        C  281   4.497   3.291   3.266
    1C        C  282   4.508   3.504   3.387
    1C        C  283   4.505   3.363   3.387
    1C        C  284   4.506   3.577   3.508
    1C        C  285   4.510   3.510   3.632
    1C        C  286   4.479   3.725   3.750
    1C        C  287   4.506   3.586   3.750
    1C        C  288   4.463   3.791   3.874
    1C        C  289   4.479   3.724   3.997
    1C        C  290   4.422   3.930   4.114
    1C        C  291   4.467   3.796   4.118
    1C        C  292   4.391   3.997   4.235
    1C        C  293   4.421   3.934   4.358
    1C        C  294   4.313   4.117   4.478
    1C        C  295   4.392   4.000   4.479
    1C        C  296   4.271   4.178   4.598
    1C        C  297   4.319   4.128   4.721
    1C        C  298   4.200   4.315   4.838
    1C        C  299   4.278   4.194   4.840
    1C        C  300   4.167   4.402   4.946
    1C        C  301   4.345   2.880   2.058
    1C        C  302   4.470   3.062   2.171
    1C        C  303   4.395   2.940   2.174
    1C        C  304   4.479   3.136   2.292
    1C        C  305   4.443   3.077   2.415
    1C        C  306   4.497   3.281   2.532
    1C        C  307   4.468   3.142   2.538
    1C        C  308   4.504   3.350   2.654
    1C        C  309   4.499   3.283   2.779
    1C        C  310   4.517   3.498   2.897
    1C        C  311   4.508   3.357   2.899
    1C        C  312   4.510   3.570   3.019
    1C        C  313   4.507   3.501   3.142
    1C        C  314   4.479   3.712   3.260
    1C        C  315   4.500   3.573   3.264
    1C        C  316   4.468   3.785   3.381
    1C        C  317   4.486   3.717   3.503
    1C        C  318   4.421   3.921   3.626
    1C        C  319   4.468   3.788   3.624
    1C        C  320   4.392   3.989   3.746
    1C        C  321   4.418   3.925   3.870
    1C        C  322   4.318   4.112   3.990
    1C        C  323   4.394   3.994   3.991
    1C        C  324   4.277   4.171   4.112
    1C        C  325   4.321   4.119   4.236
    1C        C  326   4.186   4.288   4.351
    1C        C  327   4.275   4.178   4.356
    1C        C  328   4.135   4.339   4.472
    1C        C  329   4.182   4.288   4.595
    1C        C  330   4.021   4.430   4.715
    1C        C  331   4.136   4.347   4.715
    1C        C  332   3.967   4.491   4.831
    1C        C  333   4.048   4.476   4.944
    1C        C  334   4.550   3.262   2.059
    1C        C  335   4.534   3.122   2.058
    1C        C  336   4.527   3.345   2.170
    1C        C  337   4.507   3.275   2.291
    1C        C  338   4.514   3.491   2.408
    1C        C  339   4.516   3.350   2.411
    1C        C  340   4.513   3.564   2.529
    1C        C  341   4.509   3.492   2.651
    1C        C  342   4.482   3.702   2.770
    1C        C  343   4.508   3.564   2.772
    1C        C  344   4.460   3.774   2.890
    1C        C  345   4.482   3.708   3.013
    1C        C  346   4.414   3.909   3.136
    1C        C  347   4.464   3.777   3.135
    1C        C  348   4.384   3.977   3.256
    1C        C  349   4.420   3.918   3.379
    1C        C  350   4.316   4.102   3.501
    1C        C  351   4.391   3.982   3.502
    1C        C  352   4.273   4.163   3.621
    1C        C  353   4.314   4.107   3.744
    1C        C  354   4.176   4.266   3.865
    1C        C  355   4.270   4.161   3.866
    1C        C  356   4.121   4.316   3.986
    1C        C  357   4.179   4.272   4.107
    1C        C  358   4.014   4.409   4.226
    1C        C  359   4.128   4.326   4.228
    1C        C  360   3.956   4.449   4.349
    1C        C  361   4.018   4.417   4.472
    1C        C  362   3.826   4.511   4.589
    1C        C  363   3.955   4.453   4.593
    1C        C  364   3.762   4.546   4.710
    1C        C  365   3.835   4.542   4.831
    1C        C  366   3.621   4.590   4.946
    1C        C  367   3.758   4.563   4.946
    1C        C  368   4.500   3.561   2.050
    1C        C  369   4.512   3.485   2.167
    1C        C  370   4.499   3.702   2.284
    1C        C  371   4.508   3.561   2.285
    1C        C  372   4.478   3.774   2.404
    1C        C  373   4.493   3.703   2.526
    1C        C  374   4.420   3.904   2.646
    1C        C  375   4.469   3.772   2.647
    1C        C  376   4.393   3.972   2.767
    1C        C  377   4.418   3.908   2.890
    1C        C  378   4.311   4.091   3.010
    1C        C  379   4.384   3.971   3.012
    1C        C  380   4.266   4.149   3.131
    1C        C  381   4.307   4.095   3.255
    1C        C  382   4.171   4.254   3.373
    1C        C  383   4.268   4.152   3.378
    1C        C  384   4.118   4.305   3.494
    1C        C  385   4.172   4.262   3.617
    1C        C  386   4.008   4.389   3.740
    1C        C  387   4.125   4.310   3.741
    1C        C  388   3.944   4.428   3.860
    1C        C  389   4.002   4.393   3.983
    1C        C  390   3.815   4.489   4.104
    1C        C  391   3.944   4.432   4.106
    1C        C  392   3.751   4.511   4.228
    1C        C  393   3.823   4.497   4.348
    1C        C  394   3.613   4.541   4.469
    1C        C  395   3.753   4.521   4.469
    1C        C  396   3.545   4.552   4.592
    1C        C  397   3.621   4.559   4.710
    1C        C  398   3.407   4.550   4.836
    1C        C  399   3.546   4.567   4.830
    1C        C  400   3.336   4.523   4.954
    1C        C  401   4.498   3.700   2.045
    1C        C  402   4.454   3.910   2.164
    1C        C  403   4.495   3.775   2.163
    1C        C  404   4.407   3.972   2.282
    1C        C  405   4.427   3.905   2.405
    1C        C  406   4.324   4.095   2.521
    1C        C  407   4.397   3.974   2.525
    1C        C  408   4.274   4.149   2.642
    1C        C  409   4.315   4.090   2.763
    1C        C  410   4.173   4.247   2.884
    1C        C  411   4.270   4.145   2.886
    1C        C  412   4.119   4.298   3.005
    1C        C  413   4.172   4.254   3.128
    1C        C  414   3.998   4.374   3.249
    1C        C  415   4.119   4.301   3.250
    1C        C  416   3.936   4.407   3.372
    1C        C  417   4.002   4.386   3.495
    1C        C  418   3.813   4.477   3.617
    1C        C  419   3.943   4.422   3.618
    1C        C  420   3.746   4.505   3.738
    1C        C  421   3.814   4.483   3.860
    1C        C  422   3.608   4.538   3.982
    1C        C  423   3.747   4.508   3.981
    1C        C  424   3.540   4.536   4.106
    1C        C  425   3.612   4.536   4.227
    1C        C  426   3.399   4.544   4.352
    1C        C  427   3.540   4.549   4.348
    1C        C  428   3.331   4.542   4.476
    1C        C  429   3.404   4.551   4.597
    1C        C  430   3.192   4.511   4.719
    1C        C  431   3.331   4.544   4.717
    1C        C  432   3.119   4.497   4.840
    1C        C  433   3.199   4.498   4.955
    1C        C  434   4.379   4.112   2.047
    1C        C  435   4.447   3.989   2.049
    1C        C  436   4.303   4.162   2.158
    1C        C  437   4.339   4.097   2.279
    1C        C  438   4.181   4.246   2.397
    1C        C  439   4.283   4.149   2.398
    1C        C  440   4.126   4.296   2.517
    1C        C  441   4.176   4.251   2.642
    1C        C  442   4.000   4.371   2.760
    1C        C  443   4.119   4.295   2.763
    1C        C  444   3.940   4.410   2.882
    1C        C  445   4.002   4.377   3.005
    1C        C  446   3.810   4.471   3.127
    1C        C  447   3.936   4.408   3.126
    1C        C  448   3.746   4.493   3.251
    1C        C  449   3.808   4.467   3.375
    1C        C  450   3.604   4.525   3.492
    1C        C  451   3.741   4.494   3.496
    1C        C  452   3.536   4.537   3.615
    1C        C  453   3.608   4.533   3.737
    1C        C  454   3.398   4.545   3.861
    1C        C  455   3.539   4.546   3.859
    1C        C  456   3.328   4.536   3.983
    1C        C  457   3.398   4.537   4.106
    1C        C  458   3.193   4.501   4.233
    1C        C  459   3.330   4.534   4.230
    1C        C  460   3.127   4.482   4.356
    1C        C  461   3.194   4.511   4.478
    1C        C  462   2.994   4.430   4.600
    1C        C  463   3.124   4.487   4.598
    1C        C  464   2.928   4.398   4.720
    1C        C  465   2.986   4.447   4.841
    1C        C  466   2.800   4.335   4.958
    1C        C  467   2.904   4.429   4.957
    1C        C  468   4.119   4.282   2.041
    1C        C  469   4.189   4.249   2.157
    1C        C  470   4.006   4.370   2.274
    1C        C  471   4.129   4.298   2.276
    1C        C  472   3.942   4.403   2.396
    1C        C  473   4.007   4.372   2.518
    1C        C  474   3.809   4.457   2.639
    1C        C  475   3.940   4.406   2.637
    1C        C  476   3.741   4.485   2.760
    1C        C  477   3.810   4.465   2.881
    1C        C  478   3.605   4.515   3.006
    1C        C  479   3.744   4.489   3.004
    1C        C  480   3.533   4.526   3.126
    1C        C  481   3.607   4.520   3.246
    1C        C  482   3.394   4.524   3.372
    1C        C  483   3.536   4.524   3.368
    1C        C  484   3.325   4.527   3.495
    1C        C  485   3.394   4.539   3.618
    1C        C  486   3.189   4.490   3.743
    1C        C  487   3.325   4.530   3.740
    1C        C  488   3.124   4.471   3.866
    1C        C  489   3.192   4.498   3.987
    1C        C  490   3.004   4.406   4.113
    1C        C  491   3.127   4.477   4.110
    1C        C  492   2.942   4.377   4.237
    1C        C  493   2.999   4.424   4.358
    1C        C  494   2.823   4.302   4.479
    1C        C  495   2.935   4.388   4.479
    1C        C  496   2.770   4.255   4.602
    1C        C  497   2.820   4.306   4.724
    1C        C  498   2.662   4.161   4.843
    1C        C  499   2.756   4.267   4.844
    1C        C  500   2.599   4.112   4.958
    1C        C  501   3.999   4.353   2.036
    1C        C  502   3.813   4.464   2.155
    1C        C  503   3.941   4.404   2.153
    1C        C  504   3.740   4.475   2.275
    1C        C  505   3.810   4.452   2.396
    1C        C  506   3.603   4.503   2.518
    1C        C  507   3.741   4.477   2.516
    1C        C  508   3.529   4.509   2.638
    1C        C  509   3.601   4.508   2.759
    1C        C  510   3.393   4.518   2.883
    1C        C  511   3.534   4.519   2.883
    1C        C  512   3.320   4.517   3.004
    1C        C  513   3.391   4.528   3.125
    1C        C  514   3.189   4.485   3.251
    1C        C  515   3.325   4.521   3.249
    1C        C  516   3.122   4.460   3.374
    1C        C  517   3.188   4.490   3.495
    1C        C  518   2.998   4.405   3.623
    1C        C  519   3.125   4.467   3.619
    1C        C  520   2.937   4.372   3.745
    1C        C  521   2.999   4.405   3.868
    1C        C  522   2.834   4.276   3.994
    1C        C  523   2.946   4.363   3.992
    1C        C  524   2.782   4.232   4.118
    1C        C  525   2.832   4.289   4.237
    1C        C  526   2.689   4.133   4.362
    1C        C  527   2.777   4.243   4.360
    1C        C  528   2.646   4.077   4.484
    1C        C  529   2.685   4.143   4.604
    1C        C  530   2.583   3.957   4.727
    1C        C  531   2.640   4.087   4.725
    1C        C  532   2.537   3.899   4.849
    1C        C  533   2.525   3.993   4.956
    1C        C  534   3.618   4.554   2.041
    1C        C  535   3.752   4.514   2.040
    1C        C  536   3.532   4.531   2.152
    1C        C  537   3.601   4.505   2.274
    1C        C  538   3.391   4.512   2.397
    1C        C  539   3.532   4.518   2.396
    1C        C  540   3.315   4.504   2.517
    1C        C  541   3.388   4.510   2.638
    1C        C  542   3.182   4.478   2.763
    1C        C  543   3.321   4.505   2.762
    1C        C  544   3.114   4.462   2.886
    1C        C  545   3.183   4.485   3.007
    1C        C  546   2.992   4.400   3.133
    1C        C  547   3.118   4.465   3.131
    1C        C  548   2.935   4.365   3.257
    1C        C  549   2.993   4.405   3.380
    1C        C  550   2.828   4.273   3.503
    1C        C  551   2.934   4.366   3.503
    1C        C  552   2.781   4.223   3.626
    1C        C  553   2.831   4.278   3.746
    1C        C  554   2.696   4.120   3.874
    1C        C  555   2.784   4.231   3.871
    1C        C  556   2.657   4.059   3.995
    1C        C  557   2.693   4.122   4.116
    1C        C  558   2.602   3.937   4.244
    1C        C  559   2.663   4.064   4.241
    1C        C  560   2.568   3.875   4.367
    1C        C  561   2.592   3.947   4.486
    1C        C  562   2.531   3.746   4.612
    1C        C  563   2.567   3.882   4.609
    1C        C  564   2.519   3.676   4.734
    1C        C  565   2.522   3.757   4.852
    1C        C  566   2.523   3.543   4.975
    1C        C  567   2.526   3.681   4.970
    1C        C  568   3.324   4.469   2.037
    1C        C  569   3.391   4.509   2.153
    1C        C  570   3.183   4.460   2.275
    1C        C  571   3.321   4.495   2.276
    1C        C  572   3.112   4.451   2.397
    1C        C  573   3.177   4.477   2.520
    1C        C  574   2.984   4.395   2.644
    1C        C  575   3.110   4.458   2.643
    1C        C  576   2.927   4.357   2.768
    1C        C  577   2.988   4.397   2.889
    1C        C  578   2.821   4.270   3.013
    1C        C  579   2.931   4.359   3.012
    1C        C  580   2.774   4.220   3.137
    1C        C  581   2.830   4.270   3.256
    1C        C  582   2.690   4.113   3.382
    1C        C  583   2.780   4.223   3.379
    1C        C  584   2.654   4.055   3.505
    1C        C  585   2.690   4.115   3.628
    1C        C  586   2.590   3.934   3.755
    1C        C  587   2.653   4.060   3.753
    1C        C  588   2.562   3.870   3.878
    1C        C  589   2.594   3.933   4.000
    1C        C  590   2.533   3.733   4.125
    1C        C  591   2.570   3.870   4.124
    1C        C  592   2.515   3.666   4.248
    1C        C  593   2.526   3.740   4.368
    1C        C  594   2.512   3.531   4.495
    1C        C  595   2.519   3.672   4.492
    1C        C  596   2.509   3.460   4.617
    1C        C  597   2.510   3.535   4.737
    1C        C  598   2.530   3.324   4.860
    1C        C  599   2.526   3.465   4.859
    1C        C  600   2.533   3.244   4.975
    1C        C  601   3.194   4.423   2.040
    1C        C  602   2.976   4.396   2.156
    1C        C  603   3.114   4.434   2.154
    1C        C  604   2.917   4.357   2.279
    1C        C  605   2.983   4.393   2.399
    1C        C  606   2.812   4.271   2.528
    1C        C  607   2.923   4.358   2.522
    1C        C  608   2.761   4.219   2.649
    1C        C  609   2.817   4.269   2.768
    1C        C  610   2.681   4.109   2.893
    1C        C  611   2.770   4.219   2.892
    1C        C  612   2.645   4.052   3.017
    1C        C  613   2.684   4.111   3.139
    1C        C  614   2.589   3.924   3.262
    1C        C  615   2.646   4.053   3.262
    1C        C  616   2.569   3.860   3.387
    1C        C  617   2.592   3.928   3.508
    1C        C  618   2.529   3.730   3.634
    1C        C  619   2.566   3.867   3.633
    1C        C  620   2.517   3.662   3.757
    1C        C  621   2.525   3.733   3.879
    1C        C  622   2.503   3.524   4.006
    1C        C  623   2.518   3.665   4.002
    1C        C  624   2.505   3.454   4.128
    1C        C  625   2.507   3.525   4.250
    1C        C  626   2.536   3.319   4.377
    1C        C  627   2.508   3.458   4.374
    1C        C  628   2.556   3.252   4.499
    1C        C  629   2.530   3.321   4.620
    1C        C  630   2.592   3.115   4.741
    1C        C  631   2.549   3.250   4.741
    1C        C  632   2.618   3.048   4.864
    1C        C  633   2.559   3.106   4.981
    1C        C  634   2.776   4.304   2.051
    1C        C  635   2.887   4.390   2.044
    1C        C  636   2.746   4.227   2.165
    1C        C  637   2.806   4.268   2.286
    1C        C  638   2.677   4.103   2.405
    1C        C  639   2.759   4.217   2.409
    1C        C  640   2.639   4.043   2.528
    1C        C  641   2.681   4.102   2.649
    1C        C  642   2.580   3.919   2.773
    1C        C  643   2.642   4.046   2.773
    1C        C  644   2.555   3.856   2.897
    1C        C  645   2.587   3.923   3.017
    1C        C  646   2.523   3.722   3.145
    1C        C  647   2.564   3.857   3.140
    1C        C  648   2.508   3.655   3.268
    1C        C  649   2.531   3.724   3.390
    1C        C  650   2.509   3.517   3.516
    1C        C  651   2.513   3.658   3.514
    1C        C  652   2.514   3.448   3.640
    1C        C  653   2.512   3.521   3.761
    1C        C  654   2.530   3.312   3.888
    1C        C  655   2.514   3.452   3.885
    1C        C  656   2.549   3.245   4.011
    1C        C  657   2.534   3.316   4.133
    1C        C  658   2.605   3.117   4.256
    1C        C  659   2.555   3.249   4.256
    1C        C  660   2.640   3.056   4.378
    1C        C  661   2.605   3.119   4.500
    1C        C  662   2.711   2.936   4.622
    1C        C  663   2.629   3.051   4.621
    1C        C  664   2.748   2.873   4.743
    1C        C  665   2.697   2.929   4.863
    1C        C  666   2.736   2.866   4.982
    1C        C  667   2.673   4.024   2.048
    1C        C  668   2.678   4.104   2.163
    1C        C  669   2.584   3.910   2.287
    1C        C  670   2.641   4.041   2.283
    1C        C  671   2.550   3.845   2.408
    1C        C  672   2.580   3.915   2.527
    1C        C  673   2.516   3.717   2.656
    1C        C  674   2.556   3.852   2.651
    1C        C  675   2.504   3.648   2.779
    1C        C  676   2.520   3.719   2.900
    1C        C  677   2.504   3.510   3.027
    1C        C  678   2.512   3.651   3.023
    1C        C  679   2.506   3.441   3.150
    1C        C  680   2.504   3.514   3.271
    1C        C  681   2.530   3.305   3.397
    1C        C  682   2.512   3.445   3.394
    1C        C  683   2.548   3.241   3.521
    1C        C  684   2.533   3.308   3.645
    1C        C  685   2.606   3.112   3.769
    1C        C  686   2.546   3.240   3.768
    1C        C  687   2.638   3.052   3.893
    1C        C  688   2.601   3.113   4.014
    1C        C  689   2.717   2.934   4.136
    1C        C  690   2.635   3.049   4.135
    1C        C  691   2.756   2.875   4.259
    1C        C  692   2.712   2.935   4.379
    1C        C  693   2.754   2.877   4.501
    1C        C  694   2.626   3.892   2.051
    1C        C  695   2.522   3.704   2.170
    1C        C  696   2.570   3.837   2.168
    1C        C  697   2.497   3.637   2.292
    1C        C  698   2.509   3.710   2.412
    1C        C  699   2.491   3.502   2.539
    1C        C  700   2.499   3.643   2.536
    1C        C  701   2.497   3.434   2.663
    1C        C  702   2.492   3.507   2.783
    1C        C  703   2.528   3.299   2.906
    1C        C  704   2.499   3.437   2.905
    1C        C  705   2.547   3.232   3.029
    1C        C  706   2.533   3.303   3.151
    1C        C  707   2.597   3.104   3.279
    1C        C  708   2.550   3.237   3.275
    1C        C  709   2.630   3.043   3.402
    1C        C  710   2.598   3.109   3.523
    1C        C  711   2.711   2.930   3.646
    1C        C  712   2.631   3.047   3.646
    1C        C  713   2.754   2.874   3.768
    1C        C  714   2.712   2.932   3.890
    1C        C  715   2.759   2.879   4.013
    1C        C  716   2.445   3.497   2.060
    1C        C  717   2.485   3.631   2.056
    1C        C  718   2.459   3.419   2.179
    1C        C  719   2.476   3.496   2.297
    1C        C  720   2.515   3.288   2.423
    1C        C  721   2.488   3.427   2.420
    1C        C  722   2.545   3.224   2.545
    1C        C  723   2.528   3.296   2.665
    1C        C  724   2.588   3.090   2.790
    1C        C  725   2.547   3.226   2.787
    1C        C  726   2.621   3.030   2.913
    1C        C  727   2.597   3.100   3.033
    1C        C  728   2.710   2.924   3.157
    1C        C  729   2.628   3.040   3.157
    1C        C  730   2.750   2.868   3.280
    1C        C  731   2.707   2.925   3.402
    1C        C  732   2.750   2.869   3.525
    1C        C  733   2.494   3.198   2.067
    1C        C  734   2.485   3.278   2.181
    1C        C  735   2.582   3.085   2.303
    1C        C  736   2.523   3.215   2.303
    1C        C  737   2.619   3.024   2.425
    1C        C  738   2.594   3.092   2.547
    1C        C  739   2.696   2.907   2.669
    1C        C  740   2.618   3.025   2.669
    1C        C  741   2.739   2.850   2.791
    1C        C  742   2.698   2.911   2.912
    1C        C  743   2.751   2.867   3.035
    1C        C  744   2.544   3.068   2.070
    1C        C  745   2.682   2.896   2.185
    1C        C  746   2.601   3.011   2.184
    1C        C  747   2.732   2.841   2.305
    1C        C  748   2.689   2.902   2.426
    1C        C  749   2.734   2.846   2.547
    1C        C  750   2.730   2.834   2.069
    1C        C  751   3.674   2.307   1.990
    1C        O  752   3.714   2.200   2.044
    1C        O  753   3.714   2.320   1.856
    1C        C  754   4.607   3.049   1.951
    1C        O  755   4.543   2.997   1.856
    1C        O  756   4.718   2.971   1.982
    1C        C  757   4.446   4.221   1.973
    1C        O  758   4.555   4.252   2.028
    1C        O  759   4.445   4.226   1.833
    1C        C  760   3.582   4.661   1.944
    1C        O  761   3.611   4.781   1.964
    1C        O  762   3.562   4.633   1.808
    1C        C  763   2.863   4.509   1.960
    1C        O  764   2.945   4.543   1.871
    1C        O  765   2.777   4.612   2.001
    1C        C  766   2.350   3.469   1.950
    1C        O  767   2.388   3.417   1.841
    1C        O  768   2.222   3.425   1.982
    1C        C  769   4.701   3.585   5.038
    1C        O  770   4.685   3.547   5.157
    1C        O  771   4.824   3.562   4.975
    1C        C  772   4.277   4.453   5.032
    1C        O  773   4.267   4.437   5.156
    1C        O  774   4.361   4.556   4.989
    1C        C  775   4.140   2.540   5.081
    1C        O  776   4.198   2.430   5.067
    1C        O  777   4.151   2.584   5.214
    1C        C  778   2.892   4.542   5.052
    1C        O  779   2.801   4.629   5.042
    1C        O  780   2.953   4.537   5.178
    1C        C  781   2.466   3.025   5.063
    1C        O  782   2.357   2.989   5.012
    1C        O  783   2.487   2.998   5.197
    1C        C  784   2.420   4.004   5.060
    1C        O  785   2.303   4.036   5.026
    1C        O  786   2.439   3.980   5.197
    1C        C  787   2.950   2.402   2.018
    1C        O  788   2.945   2.405   1.892
    1C        O  789   2.890   2.303   2.095
    1C        C  790   3.178   2.388   5.079
    1C        O  791   3.120   2.279   5.056
    1C        O  792   3.183   2.425   5.214
    1C        H  793   4.281   3.022   5.057
    1C        H  794   4.254   2.772   5.058
    1C        H  795   4.544   3.127   5.036
    1C        H  796   4.554   3.361   5.056
    1C        H  797   4.569   3.810   5.041
    1C        H  798   4.442   3.989   5.049
    1C        H  799   4.346   4.200   5.034
    1C        H  800   4.031   4.540   5.027
    1C        H  801   3.790   4.514   5.035
    1C        H  802   3.582   4.668   5.008
    1C        H  803   3.391   4.499   5.043
    1C        H  804   3.151   4.509   5.049
    1C        H  805   3.915   2.441   5.036
    1C        H  806   3.675   2.441   5.071
    1C        H  807   2.996   2.562   5.060
    1C        H  808   3.445   2.496   5.071
    1C        H  809   2.863   2.727   5.076
    1C        H  810   2.696   2.889   5.079
    1C        H  811   2.573   3.289   5.064
    1C        H  812   2.509   3.494   5.070
    1C        H  813   2.541   3.731   5.063
    1C        H  814   2.618   4.154   5.055
    1C        H  815   2.750   4.316   5.051
    1C        H  816   2.699   2.868   1.972
    1C        H  817   2.838   2.677   1.975
    1C        H  818   3.222   2.449   1.988
    1C        H  819   3.441   2.474   1.979
    1C        H  820   3.866   2.500   1.969
    1C        H  821   4.069   2.605   1.969
    1C        H  822   4.272   2.697   1.982
    1C        H  823   4.347   2.936   1.966
    1C        H  824   4.574   3.308   1.965
    1C        H  825   4.435   3.524   1.974
    1C        H  826   4.459   3.745   1.955
    1C        H  827   3.811   4.563   1.965
    1C        H  828   3.959   4.371   1.939
    1C        H  829   4.166   4.275   1.945
    1C        H  830   4.505   3.960   1.964
    1C        H  831   2.684   3.827   1.989
    1C        H  832   2.748   4.044   1.975
    1C        H  833   2.701   4.311   1.976
    1C        H  834   3.354   4.501   1.939
    1C        H  835   3.152   4.370   1.956
    1C        H  836   2.512   3.005   1.990
    1C        H  837   2.438   3.217   1.977
    1C        H  838   2.535   3.650   1.963
    2V3OU   H29  839   2.805   3.549   1.376
    2V3OU   C27  840   2.778   3.498   1.472
    2V3OU   H27  841   2.717   3.573   1.527
    2V3OU   H28  842   2.728   3.398   1.463
    2V3OU   O11  843   2.903   3.477   1.538
    2V3OU   C15  844   2.917   3.390   1.645
    2V3OU   C13  845   3.045   3.372   1.699
    2V3OU   C14  846   3.068   3.269   1.791
    2V3OU   C16  847   2.967   3.184   1.836
    2V3OU    H6  848   2.987   3.098   1.900
    2V3OU   C12  849   3.209   3.225   1.804
    2V3OU    O2  850   3.235   3.119   1.864
    2V3OU   C10  851   3.319   3.302   1.746
    2V3OU    C8  852   3.451   3.268   1.774
    2V3OU   O10  853   3.483   3.144   1.821
    2V3OU   H26  854   3.404   3.115   1.869
    2V3OU    C6  855   3.562   3.346   1.729
    2V3OU    C5  856   3.536   3.462   1.656
    2V3OU    C4  857   3.700   3.291   1.724
    2V3OU    H4  858   3.723   3.221   1.810
    2V3OU    H5  859   3.707   3.223   1.634
    2V3OU    C2  860   3.813   3.394   1.718
    2V3OU    O6  861   3.805   3.476   1.835
    2V3OU   H21  862   3.753   3.555   1.813
    2V3OU    C3  863   3.777   3.491   1.605
    2V3OU    H2  864   3.857   3.568   1.595
    2V3OU    H3  865   3.780   3.433   1.509
    2V3OU   C25  866   3.946   3.321   1.697
    2V3OU    O7  867   3.997   3.286   1.590
    2V3OU   C26  868   4.023   3.284   1.823
    2V3OU   H22  869   4.064   3.375   1.875
    2V3OU   H23  870   4.115   3.226   1.796
    2V3OU    O8  871   3.956   3.207   1.920
    2V3OU   H24  872   3.928   3.263   1.995
    2V3OU    C1  873   3.643   3.560   1.620
    2V3OU    H1  874   3.621   3.616   1.524
    2V3OU    O3  875   3.658   3.654   1.726
    2V3OU   C19  876   3.613   3.789   1.711
    2V3OU    H9  877   3.520   3.791   1.647
    2V3OU    O4  878   3.709   3.850   1.628
    2V3OU   C20  879   3.841   3.876   1.675
    2V3OU   H10  880   3.887   3.774   1.691
    2V3OU   C24  881   3.606   3.851   1.850
    2V3OU   H16  882   3.535   3.793   1.915
    2V3OU   H17  883   3.563   3.951   1.821
    2V3OU   C23  884   3.747   3.873   1.906
    2V3OU   H15  885   3.790   3.769   1.924
    2V3OU    N1  886   3.735   3.949   2.029
    2V3OU   H19  887   3.802   3.915   2.095
    2V3OU   H20  888   3.642   3.928   2.059
    2V3OU   C21  889   3.845   3.948   1.810
    2V3OU   H11  890   3.950   3.932   1.849
    2V3OU    O5  891   3.814   4.086   1.817
    2V3OU   H18  892   3.774   4.101   1.905
    2V3OU   C22  893   3.910   3.949   1.561
    2V3OU   H12  894   3.856   4.045   1.536
    2V3OU   H13  895   3.904   3.887   1.469
    2V3OU   H14  896   4.018   3.959   1.587
    2V3OU   C11  897   3.153   3.466   1.663
    2V3OU    O1  898   3.127   3.584   1.630
    2V3OU    C9  899   3.294   3.423   1.676
    2V3OU    C7  900   3.400   3.504   1.637
    2V3OU    O9  901   3.383   3.614   1.556
    2V3OU   H25  902   3.288   3.630   1.562
    2V3OU   C17  903   2.814   3.311   1.700
    2V3OU    H7  904   2.711   3.337   1.676
    2V3OU   C18  905   2.837   3.209   1.792
    2V3OU    H8  906   2.752   3.142   1.811
    3SOL     OW  907   1.502   3.200   0.962
    3SOL    HW1  908   1.462   3.175   1.051
    3SOL    HW2  909   1.547   3.289   0.969
    4SOL     OW  910   5.772   0.407   2.115
    4SOL    HW1  911   5.712   0.484   2.138
    4SOL    HW2  912   5.860   0.418   2.161
    5SOL     OW  913   3.416   1.727   1.004
    5SOL    HW1  914   3.341   1.716   0.939
    5SOL    HW2  915   3.384   1.779   1.083
    6SOL     OW  916   2.654   1.806   1.389
    6SOL    HW1  917   2.585   1.837   1.455
    6SOL    HW2  918   2.684   1.714   1.413
    7SOL     OW  919   6.227   1.472   1.685
    7SOL    HW1  920   6.326   1.471   1.671
    7SOL    HW2  921   6.184   1.404   1.626
    8SOL     OW  922   2.837   1.010   4.481
    8SOL    HW1  923   2.796   1.077   4.420
    8SOL    HW2  924   2.937   1.014   4.474
    9SOL     OW  925   1.414   3.805   5.597
    9SOL    HW1  926   1.471   3.725   5.577
    9SOL    HW2  927   1.472   3.886   5.608
   10SOL     OW  928   0.945   3.725   6.996
   10SOL    HW1  929   0.919   3.705   0.073
   10SOL    HW2  930   0.876   3.784   6.954
   11SOL     OW  931   3.805   6.756   6.943
   11SOL    HW1  932   3.860   6.825   6.990
   11SOL    HW2  933   3.799   6.674   7.001
   12SOL     OW  934   5.554   6.208   2.506
   12SOL    HW1  935   5.480   6.186   2.443
   12SOL    HW2  936   5.523   6.196   2.600
   13SOL     OW  937   2.548   6.269   3.494
   13SOL    HW1  938   2.645   6.266   3.518
   13SOL    HW2  939   2.522   6.362   3.471
   14SOL     OW  940   3.537   6.101   0.709
   14SOL    HW1  941   3.566   6.019   0.758
   14SOL    HW2  942   3.616   6.141   0.662
   15SOL     OW  943   1.379   6.878   6.958
   15SOL    HW1  944   1.327   6.793   6.947
   15SOL    HW2  945   1.449   6.864   0.011
   16SOL     OW  946   6.126   2.329   6.005
   16SOL    HW1  947   6.069   2.315   6.086
   16SOL    HW2  948   6.201   2.390   6.028
   17SOL     OW  949   5.338   6.546   4.566
   17SOL    HW1  950   5.248   6.576   4.533
   17SOL    HW2  951   5.405   6.556   4.493
   18SOL     OW  952   1.738   1.959   6.074
   18SOL    HW1  953   1.809   2.028   6.064
   18SOL    HW2  954   1.674   1.986   6.145
   19SOL     OW  955   0.739   6.964   2.486
   19SOL    HW1  956   0.673   6.958   2.411
   19SOL    HW2  957   0.749   6.874   2.528
   20SOL     OW  958   3.469   1.814   3.602
   20SOL    HW1  959   3.453   1.804   3.504
   20SOL    HW2  960   3.516   1.901   3.620
   21SOL     OW  961   2.785   2.351   1.287
   21SOL    HW1  962   2.790   2.268   1.232
   21SOL    HW2  963   2.839   2.340   1.370
   22SOL     OW  964   1.599   6.376   5.808
   22SOL    HW1  965   1.685   6.350   5.852
   22SOL    HW2  966   1.618   6.434   5.729
   23SOL     OW  967   4.014   6.484   4.579
   23SOL    HW1  968   4.083   6.556   4.583
   23SOL    HW2  969   4.014   6.433   4.666
   24SOL     OW  970   4.860   1.188   5.117
   24SOL    HW1  971   4.806   1.145   5.045
   24SOL    HW2  972   4.950   1.213   5.082
   25SOL     OW  973   3.656   5.736   0.411
   25SOL    HW1  974   3.616   5.648   0.436
   25SOL    HW2  975   3.680   5.736   0.314
   26SOL     OW  976   6.514   1.574   2.438
   26SOL    HW1  977   6.495   1.477   2.456
   26SOL    HW2  978   6.596   1.581   2.381
   27SOL     OW  979   5.954   6.703   2.755
   27SOL    HW1  980   6.000   6.782   2.796
   27SOL    HW2  981   6.000   6.678   2.670
   28SOL     OW  982   3.809   0.763   0.337
   28SOL    HW1  983   3.907   0.783   0.340
   28SOL    HW2  984   3.794   0.664   0.341
   29SOL     OW  985   4.469   2.277   1.337
   29SOL    HW1  986   4.372   2.295   1.320
   29SOL    HW2  987   4.490   2.295   1.433
   30SOL     OW  988   3.539   0.954   4.744
   30SOL    HW1  989   3.467   0.899   4.785
   30SOL    HW2  990   3.523   1.051   4.764
   31SOL     OW  991   0.208   0.822   5.331
   31SOL    HW1  992   0.259   0.740   5.356
   31SOL    HW2  993   0.253   0.868   5.255
   32SOL     OW  994   0.113   2.030   1.058
   32SOL    HW1  995   0.156   1.952   1.103
   32SOL    HW2  996   0.062   2.084   1.125
   33SOL     OW  997   2.121   2.339   6.123
   33SOL    HW1  998   2.212   2.299   6.135
   33SOL    HW2  999   2.130   2.438   6.115
   34SOL     OW 1000   1.477   0.702   4.841
   34SOL    HW1 1001   1.493   0.746   4.752
   34SOL    HW2 1002   1.423   0.619   4.828
   35SOL     OW 1003   5.235   1.424   6.707
   35SOL    HW1 1004   5.199   1.336   6.737
   35SOL    HW2 1005   5.163   1.474   6.657
   36SOL     OW 1006   1.693   1.824   5.436
   36SOL    HW1 1007   1.703   1.793   5.341
   36SOL    HW2 1008   1.720   1.920   5.442
   37SOL     OW 1009   3.117   6.899   1.587
   37SOL    HW1 1010   3.099   6.996   1.602
   37SOL    HW2 1011   3.160   6.887   1.497
   38SOL     OW 1012   7.004   6.445   3.424
   38SOL    HW1 1013   6.987   6.539   3.393
   38SOL    HW2 1014   0.051   6.446   3.501
   39SOL     OW 1015   6.706   3.063   5.053
   39SOL    HW1 1016   6.611   3.071   5.025
   39SOL    HW2 1017   6.732   3.141   5.110
   40SOL     OW 1018   6.428   1.181   2.166
   40SOL    HW1 1019   6.523   1.153   2.179
   40SOL    HW2 1020   6.368   1.102   2.175
   41SOL     OW 1021   1.076   6.793   5.368
   41SOL    HW1 1022   1.165   6.816   5.327
   41SOL    HW2 1023   1.071   6.694   5.381
   42SOL     OW 1024   3.753   1.096   0.371
   42SOL    HW1 1025   3.821   1.169   0.376
   42SOL    HW2 1026   3.787   1.016   0.420
   43SOL     OW 1027   5.468   6.073   5.161
   43SOL    HW1 1028   5.567   6.080   5.169
   43SOL    HW2 1029   5.428   6.058   5.251
   44SOL     OW 1030   0.619   2.810   5.885
   44SOL    HW1 1031   0.539   2.766   5.927
   44SOL    HW2 1032   0.692   2.818   5.954
   45SOL     OW 1033   2.349   0.736   1.686
   45SOL    HW1 1034   2.411   0.750   1.609
   45SOL    HW2 1035   2.271   0.681   1.656
   46SOL     OW 1036   1.579   4.008   4.716
   46SOL    HW1 1037   1.576   4.101   4.679
   46SOL    HW2 1038   1.569   4.011   4.815
   47SOL     OW 1039   6.711   4.676   3.644
   47SOL    HW1 1040   6.811   4.676   3.645
   47SOL    HW2 1041   6.679   4.654   3.552
   48SOL     OW 1042   0.027   2.510   5.183
   48SOL    HW1 1043   0.042   2.454   5.102
   48SOL    HW2 1044   7.011   2.452   5.257
   49SOL     OW 1045   4.633   2.309   0.849
   49SOL    HW1 1046   4.704   2.240   0.866
   49SOL    HW2 1047   4.646   2.387   0.909
   50SOL     OW 1048   6.800   4.323   4.363
   50SOL    HW1 1049   6.840   4.235   4.341
   50SOL    HW2 1050   6.872   4.388   4.389
   51SOL     OW 1051   3.454   4.917   2.705
   51SOL    HW1 1052   3.502   4.920   2.618
   51SOL    HW2 1053   3.455   5.009   2.746
   52SOL     OW 1054   2.412   1.767   2.206
   52SOL    HW1 1055   2.511   1.774   2.221
   52SOL    HW2 1056   2.395   1.713   2.124
   53SOL     OW 1057   5.233   6.975   4.224
   53SOL    HW1 1058   5.199   6.881   4.231
   53SOL    HW2 1059   5.165   0.014   4.177
   54SOL     OW 1060   3.764   5.167   5.920
   54SOL    HW1 1061   3.725   5.254   5.949
   54SOL    HW2 1062   3.794   5.174   5.824
   55SOL     OW 1063   3.899   2.368   6.493
   55SOL    HW1 1064   3.991   2.387   6.528
   55SOL    HW2 1065   3.835   2.434   6.532
   56SOL     OW 1066   0.976   0.351   2.234
   56SOL    HW1 1067   0.972   0.307   2.324
   56SOL    HW2 1068   0.919   0.434   2.236
   57SOL     OW 1069   5.798   0.820   0.300
   57SOL    HW1 1070   5.858   0.858   0.230
   57SOL    HW2 1071   5.839   0.833   0.390
   58SOL     OW 1072   0.512   5.890   6.986
   58SOL    HW1 1073   0.596   5.938   7.011
   58SOL    HW2 1074   0.435   5.932   0.016
   59SOL     OW 1075   1.628   0.292   5.813
   59SOL    HW1 1076   1.704   0.274   5.876
   59SOL    HW2 1077   1.546   0.316   5.866
   60SOL     OW 1078   4.378   0.004   5.101
   60SOL    HW1 1079   4.323   0.063   5.161
   60SOL    HW2 1080   4.466   7.002   5.144
   61SOL     OW 1081   4.769   0.303   4.309
   61SOL    HW1 1082   4.839   0.318   4.379
   61SOL    HW2 1083   4.766   0.383   4.249
   62SOL     OW 1084   1.987   0.673   4.377
   62SOL    HW1 1085   2.010   0.640   4.469
   62SOL    HW2 1086   1.942   0.601   4.325
   63SOL     OW 1087   6.777   2.906   3.072
   63SOL    HW1 1088   6.817   2.919   3.163
   63SOL    HW2 1089   6.777   2.993   3.023
   64SOL     OW 1090   0.019   3.689   5.900
   64SOL    HW1 1091   7.011   3.785   5.907
   64SOL    HW2 1092   0.109   3.681   5.858
   65SOL     OW 1093   6.703   4.729   5.788
   65SOL    HW1 1094   6.732   4.811   5.738
   65SOL    HW2 1095   6.778   4.663   5.792
   66SOL     OW 1096   3.040   0.634   0.733
   66SOL    HW1 1097   3.033   0.724   0.775
   66SOL    HW2 1098   3.023   0.642   0.634
   67SOL     OW 1099   5.077   5.898   4.829
   67SOL    HW1 1100   5.053   5.852   4.914
   67SOL    HW2 1101   5.008   5.879   4.759
   68SOL     OW 1102   6.039   2.274   5.732
   68SOL    HW1 1103   6.014   2.348   5.669
   68SOL    HW2 1104   6.054   2.313   5.823
   69SOL     OW 1105   2.856   3.880   6.340
   69SOL    HW1 1106   2.834   3.789   6.374
   69SOL    HW2 1107   2.949   3.904   6.368
   70SOL     OW 1108   6.913   5.364   2.572
   70SOL    HW1 1109   6.813   5.362   2.571
   70SOL    HW2 1110   6.947   5.317   2.490
   71SOL     OW 1111   1.489   2.828   2.829
   71SOL    HW1 1112   1.549   2.824   2.908
   71SOL    HW2 1113   1.466   2.924   2.809
   72SOL     OW 1114   2.573   5.467   3.694
   72SOL    HW1 1115   2.573   5.368   3.708
   72SOL    HW2 1116   2.528   5.512   3.771
   73SOL     OW 1117   4.485   2.176   0.274
   73SOL    HW1 1118   4.409   2.239   0.283
   73SOL    HW2 1119   4.470   2.116   0.195
   74SOL     OW 1120   5.380   5.826   6.519
   74SOL    HW1 1121   5.445   5.753   6.543
   74SOL    HW2 1122   5.402   5.861   6.428
   75SOL     OW 1123   3.847   5.822   5.768
   75SOL    HW1 1124   3.894   5.755   5.711
   75SOL    HW2 1125   3.748   5.816   5.752
   76SOL     OW 1126   2.698   2.680   1.657
   76SOL    HW1 1127   2.782   2.704   1.707
   76SOL    HW2 1128   2.722   2.653   1.564
   77SOL     OW 1129   5.997   5.755   5.721
   77SOL    HW1 1130   6.032   5.662   5.715
   77SOL    HW2 1131   6.038   5.811   5.649
   78SOL     OW 1132   6.641   6.603   5.893
   78SOL    HW1 1133   6.701   6.611   5.973
   78SOL    HW2 1134   6.546   6.615   5.922
   79SOL     OW 1135   2.988   0.019   0.464
   79SOL    HW1 1136   3.019   0.062   0.549
   79SOL    HW2 1137   2.908   0.067   0.430
   80SOL     OW 1138   0.309   1.318   4.309
   80SOL    HW1 1139   0.370   1.383   4.355
   80SOL    HW2 1140   0.230   1.367   4.271
   81SOL     OW 1141   1.678   1.016   2.676
   81SOL    HW1 1142   1.624   0.969   2.746
   81SOL    HW2 1143   1.775   1.011   2.700
   82SOL     OW 1144   6.593   4.481   5.985
   82SOL    HW1 1145   6.612   4.492   6.083
   82SOL    HW2 1146   6.558   4.568   5.948
   83SOL     OW 1147   0.381   6.573   0.567
   83SOL    HW1 1148   0.348   6.596   0.659
   83SOL    HW2 1149   0.330   6.627   0.499
   84SOL     OW 1150   5.166   4.041   1.535
   84SOL    HW1 1151   5.141   4.015   1.442
   84SOL    HW2 1152   5.163   3.960   1.594
   85SOL     OW 1153   1.359   2.316   5.418
   85SOL    HW1 1154   1.329   2.403   5.456
   85SOL    HW2 1155   1.308   2.241   5.461
   86SOL     OW 1156   0.693   0.546   5.708
   86SOL    HW1 1157   0.683   0.598   5.793
   86SOL    HW2 1158   0.757   0.593   5.648
   87SOL     OW 1159   4.887   1.595   0.653
   87SOL    HW1 1160   4.897   1.537   0.572
   87SOL    HW2 1161   4.860   1.687   0.626
   88SOL     OW 1162   5.460   1.254   0.901
   88SOL    HW1 1163   5.559   1.246   0.885
   88SOL    HW2 1164   5.425   1.333   0.851
   89SOL     OW 1165   1.785   2.685   6.370
   89SOL    HW1 1166   1.718   2.759   6.363
   89SOL    HW2 1167   1.841   2.699   6.453
   90SOL     OW 1168   5.475   6.014   4.138
   90SOL    HW1 1169   5.407   6.038   4.208
   90SOL    HW2 1170   5.444   6.048   4.049
   91SOL     OW 1171   4.935   4.631   5.135
   91SOL    HW1 1172   4.962   4.548   5.086
   91SOL    HW2 1173   4.863   4.677   5.085
   92SOL     OW 1174   3.510   4.870   1.445
   92SOL    HW1 1175   3.413   4.856   1.466
   92SOL    HW2 1176   3.566   4.822   1.512
   93SOL     OW 1177   3.290   5.814   6.133
   93SOL    HW1 1178   3.197   5.789   6.160
   93SOL    HW2 1179   3.328   5.743   6.074
   94SOL     OW 1180   2.929   5.716   0.258
   94SOL    HW1 1181   2.937   5.735   0.161
   94SOL    HW2 1182   2.880   5.629   0.271
   95SOL     OW 1183   0.338   0.118   4.221
   95SOL    HW1 1184   0.358   0.199   4.276
   95SOL    HW2 1185   0.239   0.106   4.215
   96SOL     OW 1186   2.195   0.245   5.425
   96SOL    HW1 1187   2.274   0.265   5.482
   96SOL    HW2 1188   2.146   0.166   5.463
   97SOL     OW 1189   5.978   3.261   4.439
   97SOL    HW1 1190   5.962   3.198   4.514
   97SOL    HW2 1191   5.900   3.324   4.430
   98SOL     OW 1192   4.955   2.296   6.025
   98SOL    HW1 1193   4.908   2.345   5.952
   98SOL    HW2 1194   5.043   2.262   5.991
   99SOL     OW 1195   4.182   1.887   0.961
   99SOL    HW1 1196   4.105   1.950   0.970
   99SOL    HW2 1197   4.265   1.930   0.995
  100SOL     OW 1198   0.836   5.787   6.698
  100SOL    HW1 1199   0.736   5.796   6.693
  100SOL    HW2 1200   0.863   5.699   6.658
  101SOL     OW 1201   1.736   6.103   3.676
  101SOL    HW1 1202   1.709   6.072   3.584
  101SOL    HW2 1203   1.740   6.024   3.737
  102SOL     OW 1204   3.678   0.312   3.669
  102SOL    HW1 1205   3.737   0.392   3.669
  102SOL    HW2 1206   3.588   0.338   3.704
  103SOL     OW 1207   3.899   2.278   1.303
  103SOL    HW1 1208   3.955   2.360   1.292
  103SOL    HW2 1209   3.815   2.301   1.353
  104SOL     OW 1210   6.946   5.883   2.144
  104SOL    HW1 1211   0.001   5.850   2.205
  104SOL    HW2 1212   6.961   5.846   2.052
  105SOL     OW 1213   5.358   0.997   6.201
  105SOL    HW1 1214   5.377   1.029   6.108
  105SOL    HW2 1215   5.396   1.063   6.266
  106SOL     OW 1216   3.019   6.538   6.559
  106SOL    HW1 1217   2.959   6.593   6.501
  106SOL    HW2 1218   3.111   6.535   6.520
  107SOL     OW 1219   2.151   2.624   0.468
  107SOL    HW1 1220   2.209   2.608   0.548
  107SOL    HW2 1221   2.061   2.658   0.499
  108SOL     OW 1222   5.015   4.478   6.070
  108SOL    HW1 1223   5.105   4.520   6.065
  108SOL    HW2 1224   4.968   4.487   5.982
  109SOL     OW 1225   6.936   0.480   0.722
  109SOL    HW1 1226   6.840   0.471   0.696
  109SOL    HW2 1227   6.946   0.462   0.820
  110SOL     OW 1228   3.607   5.896   5.331
  110SOL    HW1 1229   3.689   5.932   5.375
  110SOL    HW2 1230   3.540   5.969   5.319
  111SOL     OW 1231   3.815   0.974   3.377
  111SOL    HW1 1232   3.735   0.924   3.410
  111SOL    HW2 1233   3.876   0.911   3.329
  112SOL     OW 1234   6.785   6.636   6.121
  112SOL    HW1 1235   6.768   6.557   6.179
  112SOL    HW2 1236   6.884   6.653   6.115
  113SOL     OW 1237   0.236   4.645   3.604
  113SOL    HW1 1238   0.267   4.740   3.598
  113SOL    HW2 1239   0.212   4.624   3.698
  114SOL     OW 1240   0.617   6.757   0.234
  114SOL    HW1 1241   0.700   6.812   0.244
  114SOL    HW2 1242   0.631   6.685   0.167
  115SOL     OW 1243   5.304   1.656   4.587
  115SOL    HW1 1244   5.221   1.712   4.592
  115SOL    HW2 1245   5.339   1.658   4.493
  116SOL     OW 1246   6.154   4.366   2.110
  116SOL    HW1 1247   6.101   4.363   2.025
  116SOL    HW2 1248   6.142   4.455   2.154
  117SOL     OW 1249   1.747   0.140   6.370
  117SOL    HW1 1250   1.774   0.216   6.310
  117SOL    HW2 1251   1.667   0.094   6.332
  118SOL     OW 1252   0.478   0.814   2.272
  118SOL    HW1 1253   0.440   0.898   2.310
  118SOL    HW2 1254   0.453   0.807   2.176
  119SOL     OW 1255   6.830   2.715   5.717
  119SOL    HW1 1256   6.836   2.814   5.725
  119SOL    HW2 1257   6.778   2.691   5.634
  120SOL     OW 1258   5.675   6.741   0.663
  120SOL    HW1 1259   5.733   6.801   0.609
  120SOL    HW2 1260   5.654   6.659   0.611
  121SOL     OW 1261   2.342   3.567   5.884
  121SOL    HW1 1262   2.353   3.656   5.928
  121SOL    HW2 1263   2.430   3.536   5.848
  122SOL     OW 1264   0.782   3.470   4.360
  122SOL    HW1 1265   0.728   3.546   4.395
  122SOL    HW2 1266   0.830   3.426   4.436
  123SOL     OW 1267   0.517   1.797   1.214
  123SOL    HW1 1268   0.511   1.699   1.228
  123SOL    HW2 1269   0.569   1.816   1.131
  124SOL     OW 1270   4.459   3.303   0.706
  124SOL    HW1 1271   4.391   3.282   0.775
  124SOL    HW2 1272   4.529   3.232   0.705
  125SOL     OW 1273   1.763   2.448   1.871
  125SOL    HW1 1274   1.845   2.505   1.866
  125SOL    HW2 1275   1.790   2.353   1.885
  126SOL     OW 1276   3.198   4.861   1.353
  126SOL    HW1 1277   3.102   4.841   1.331
  126SOL    HW2 1278   3.255   4.840   1.274
  127SOL     OW 1279   0.112   5.883   5.896
  127SOL    HW1 1280   0.087   5.934   5.814
  127SOL    HW2 1281   0.153   5.795   5.869
  128SOL     OW 1282   4.805   2.607   1.416
  128SOL    HW1 1283   4.739   2.567   1.352
  128SOL    HW2 1284   4.864   2.535   1.452
  129SOL     OW 1285   3.146   3.717   6.656
  129SOL    HW1 1286   3.055   3.675   6.652
  129SOL    HW2 1287   3.210   3.664   6.601
  130SOL     OW 1288   1.281   1.142   4.519
  130SOL    HW1 1289   1.229   1.227   4.524
  130SOL    HW2 1290   1.309   1.125   4.425
  131SOL     OW 1291   4.798   1.459   3.111
  131SOL    HW1 1292   4.837   1.545   3.078
  131SOL    HW2 1293   4.789   1.462   3.210
  132SOL     OW 1294   1.283   2.535   1.707
  132SOL    HW1 1295   1.304   2.618   1.758
  132SOL    HW2 1296   1.367   2.484   1.689
  133SOL     OW 1297   6.530   5.748   2.543
  133SOL    HW1 1298   6.544   5.749   2.444
  133SOL    HW2 1299   6.434   5.761   2.564
  134SOL     OW 1300   0.001   3.758   2.691
  134SOL    HW1 1301   0.029   3.854   2.679
  134SOL    HW2 1302   6.960   3.750   2.771
  135SOL     OW 1303   4.829   1.784   4.013
  135SOL    HW1 1304   4.890   1.707   4.029
  135SOL    HW2 1305   4.816   1.835   4.098
  136SOL     OW 1306   5.020   3.942   5.639
  136SOL    HW1 1307   5.114   3.970   5.620
  136SOL    HW2 1308   4.958   3.984   5.572
  137SOL     OW 1309   4.113   6.968   5.748
  137SOL    HW1 1310   4.139   6.985   5.653
  137SOL    HW2 1311   4.153   0.021   5.807
  138SOL     OW 1312   6.742   5.290   4.833
  138SOL    HW1 1313   6.695   5.206   4.807
  138SOL    HW2 1314   6.791   5.276   4.920
  139SOL     OW 1315   2.940   4.976   5.141
  139SOL    HW1 1316   2.848   4.941   5.157
  139SOL    HW2 1317   3.003   4.899   5.131
  140SOL     OW 1318   5.761   5.063   4.712
  140SOL    HW1 1319   5.830   5.072   4.640
  140SOL    HW2 1320   5.807   5.038   4.798
  141SOL     OW 1321   1.425   1.932   4.460
  141SOL    HW1 1322   1.345   1.891   4.503
  141SOL    HW2 1323   1.479   1.980   4.530
  142SOL     OW 1324   1.718   5.934   1.355
  142SOL    HW1 1325   1.659   5.903   1.281
  142SOL    HW2 1326   1.754   6.025   1.334
  143SOL     OW 1327   5.456   4.497   2.357
  143SOL    HW1 1328   5.410   4.495   2.268
  143SOL    HW2 1329   5.389   4.511   2.430
  144SOL     OW 1330   2.129   6.847   6.763
  144SOL    HW1 1331   2.154   6.804   6.849
  144SOL    HW2 1332   2.116   6.777   6.693
  145SOL     OW 1333   0.114   6.025   0.888
  145SOL    HW1 1334   0.016   6.033   0.874
  145SOL    HW2 1335   0.160   6.012   0.800
  146SOL     OW 1336   5.289   6.061   0.992
  146SOL    HW1 1337   5.213   6.075   1.055
  146SOL    HW2 1338   5.255   6.063   0.898
  147SOL     OW 1339   6.829   2.474   0.922
  147SOL    HW1 1340   6.875   2.512   0.842
  147SOL    HW2 1341   6.852   2.529   1.003
  148SOL     OW 1342   1.440   5.221   5.699
  148SOL    HW1 1343   1.381   5.159   5.750
  148SOL    HW2 1344   1.507   5.168   5.647
  149SOL     OW 1345   3.289   1.120   4.647
  149SOL    HW1 1346   3.297   1.186   4.722
  149SOL    HW2 1347   3.226   1.047   4.674
  150SOL     OW 1348   0.373   4.967   6.842
  150SOL    HW1 1349   0.429   4.903   6.894
  150SOL    HW2 1350   0.342   4.922   6.758
  151SOL     OW 1351   3.977   1.943   1.530
  151SOL    HW1 1352   3.932   1.936   1.619
  151SOL    HW2 1353   4.054   2.006   1.537
  152SOL     OW 1354   2.748   0.780   4.314
  152SOL    HW1 1355   2.826   0.744   4.264
  152SOL    HW2 1356   2.775   0.862   4.364
  153SOL     OW 1357   1.942   1.015   2.773
  153SOL    HW1 1358   1.924   0.941   2.837
  153SOL    HW2 1359   2.034   1.004   2.735
  154SOL     OW 1360   6.582   2.493   2.008
  154SOL    HW1 1361   6.570   2.394   2.000
  154SOL    HW2 1362   6.533   2.525   2.089
  155SOL     OW 1363   6.864   0.421   2.825
  155SOL    HW1 1364   6.952   0.377   2.809
  155SOL    HW2 1365   6.877   0.498   2.888
  156SOL     OW 1366   6.193   1.928   0.628
  156SOL    HW1 1367   6.236   1.977   0.551
  156SOL    HW2 1368   6.095   1.944   0.627
  157SOL     OW 1369   5.979   3.522   2.543
  157SOL    HW1 1370   5.915   3.448   2.565
  157SOL    HW2 1371   6.019   3.558   2.627
  158SOL     OW 1372   2.463   1.000   2.926
  158SOL    HW1 1373   2.460   1.098   2.905
  158SOL    HW2 1374   2.486   0.949   2.843
  159SOL     OW 1375   4.750   4.111   2.106
  159SOL    HW1 1376   4.680   4.161   2.054
  159SOL    HW2 1377   4.725   4.109   2.203
  160SOL     OW 1378   6.461   4.106   5.766
  160SOL    HW1 1379   6.556   4.137   5.769
  160SOL    HW2 1380   6.400   4.183   5.786
  161SOL     OW 1381   1.964   4.869   5.042
  161SOL    HW1 1382   1.938   4.831   5.131
  161SOL    HW2 1383   1.884   4.910   4.999
  162SOL     OW 1384   4.423   5.701   0.920
  162SOL    HW1 1385   4.451   5.754   1.000
  162SOL    HW2 1386   4.327   5.673   0.930
  163SOL     OW 1387   4.777   0.344   2.245
  163SOL    HW1 1388   4.684   0.379   2.235
  163SOL    HW2 1389   4.842   0.409   2.206
  164SOL     OW 1390   6.051   3.542   1.100
  164SOL    HW1 1391   5.977   3.475   1.109
  164SOL    HW2 1392   6.037   3.597   1.017
  165SOL     OW 1393   4.696   2.903   6.576
  165SOL    HW1 1394   4.698   2.919   6.674
  165SOL    HW2 1395   4.758   2.968   6.530
  166SOL     OW 1396   0.546   6.858   2.321
  166SOL    HW1 1397   0.516   6.787   2.384
  166SOL    HW2 1398   0.570   6.816   2.233
  167SOL     OW 1399   6.449   2.955   0.007
  167SOL    HW1 1400   6.534   3.007   7.011
  167SOL    HW2 1401   6.399   2.952   6.938
  168SOL     OW 1402   2.319   5.095   0.890
  168SOL    HW1 1403   2.299   5.003   0.856
  168SOL    HW2 1404   2.380   5.089   0.969
  169SOL     OW 1405   2.062   0.106   1.832
  169SOL    HW1 1406   1.982   0.052   1.854
  169SOL    HW2 1407   2.077   0.105   1.733
  170SOL     OW 1408   0.261   1.540   3.365
  170SOL    HW1 1409   0.343   1.577   3.410
  170SOL    HW2 1410   0.238   1.597   3.287
  171SOL     OW 1411   3.824   3.924   0.191
  171SOL    HW1 1412   3.802   3.985   0.116
  171SOL    HW2 1413   3.837   3.977   0.275
  172SOL     OW 1414   6.767   2.459   5.199
  172SOL    HW1 1415   6.683   2.479   5.149
  172SOL    HW2 1416   6.824   2.541   5.204
  173SOL     OW 1417   0.255   0.107   4.851
  173SOL    HW1 1418   0.207   0.028   4.889
  173SOL    HW2 1419   0.349   0.080   4.828
  174SOL     OW 1420   2.581   5.166   3.549
  174SOL    HW1 1421   2.625   5.093   3.497
  174SOL    HW2 1422   2.486   5.176   3.519
  175SOL     OW 1423   1.824   5.575   2.616
  175SOL    HW1 1424   1.765   5.501   2.583
  175SOL    HW2 1425   1.833   5.644   2.545
  176SOL     OW 1426   1.997   3.961   0.989
  176SOL    HW1 1427   1.899   3.944   1.002
  176SOL    HW2 1428   2.047   3.933   1.070
  177SOL     OW 1429   4.810   2.181   2.335
  177SOL    HW1 1430   4.880   2.144   2.395
  177SOL    HW2 1431   4.792   2.116   2.260
  178SOL     OW 1432   5.261   4.791   6.830
  178SOL    HW1 1433   5.251   4.889   6.847
  178SOL    HW2 1434   5.231   4.770   6.737
  179SOL     OW 1435   3.028   0.161   0.692
  179SOL    HW1 1436   3.123   0.189   0.704
  179SOL    HW2 1437   2.976   0.238   0.655
  180SOL     OW 1438   0.420   1.362   6.677
  180SOL    HW1 1439   0.346   1.300   6.649
  180SOL    HW2 1440   0.454   1.412   6.598
  181SOL     OW 1441   3.733   3.239   5.567
  181SOL    HW1 1442   3.767   3.257   5.475
  181SOL    HW2 1443   3.809   3.209   5.625
  182SOL     OW 1444   3.901   2.119   4.860
  182SOL    HW1 1445   3.870   2.178   4.935
  182SOL    HW2 1446   3.839   2.041   4.851
  183SOL     OW 1447   4.879   1.433   1.807
  183SOL    HW1 1448   4.942   1.464   1.736
  183SOL    HW2 1449   4.881   1.496   1.884
  184SOL     OW 1450   0.234   4.914   3.102
  184SOL    HW1 1451   0.144   4.950   3.129
  184SOL    HW2 1452   0.229   4.881   3.008
  185SOL     OW 1453   1.965   3.672   5.664
  185SOL    HW1 1454   1.925   3.761   5.682
  185SOL    HW2 1455   2.036   3.681   5.594
  186SOL     OW 1456   5.513   0.289   3.211
  186SOL    HW1 1457   5.445   0.228   3.168
  186SOL    HW2 1458   5.589   0.235   3.246
  187SOL     OW 1459   5.602   1.030   4.124
  187SOL    HW1 1460   5.631   0.948   4.173
  187SOL    HW2 1461   5.558   1.094   4.187
  188SOL     OW 1462   5.992   2.455   3.388
  188SOL    HW1 1463   5.934   2.523   3.342
  188SOL    HW2 1464   5.942   2.415   3.465
  189SOL     OW 1465   1.943   4.444   2.531
  189SOL    HW1 1466   2.020   4.487   2.486
  189SOL    HW2 1467   1.975   4.395   2.612
  190SOL     OW 1468   3.854   1.040   5.530
  190SOL    HW1 1469   3.764   1.067   5.495
  190SOL    HW2 1470   3.916   1.023   5.453
  191SOL     OW 1471   5.845   5.308   6.700
  191SOL    HW1 1472   5.873   5.331   6.793
  191SOL    HW2 1473   5.778   5.375   6.668
  192SOL     OW 1474   6.772   0.794   2.113
  192SOL    HW1 1475   6.705   0.730   2.151
  192SOL    HW2 1476   6.856   0.791   2.167
  193SOL     OW 1477   5.481   3.780   6.869
  193SOL    HW1 1478   5.482   3.768   6.968
  193SOL    HW2 1479   5.389   3.807   6.840
  194SOL     OW 1480   3.442   0.400   3.759
  194SOL    HW1 1481   3.449   0.490   3.801
  194SOL    HW2 1482   3.349   0.365   3.771
  195SOL     OW 1483   1.061   5.911   3.325
  195SOL    HW1 1484   0.963   5.933   3.333
  195SOL    HW2 1485   1.111   5.952   3.401
  196SOL     OW 1486   1.328   2.072   0.191
  196SOL    HW1 1487   1.273   2.147   0.154
  196SOL    HW2 1488   1.275   1.987   0.184
  197SOL     OW 1489   1.544   0.972   0.881
  197SOL    HW1 1490   1.460   0.984   0.829
  197SOL    HW2 1491   1.603   0.907   0.834
  198SOL     OW 1492   3.360   2.141   3.635
  198SOL    HW1 1493   3.298   2.106   3.566
  198SOL    HW2 1494   3.307   2.171   3.715
  199SOL     OW 1495   1.223   2.781   3.753
  199SOL    HW1 1496   1.158   2.818   3.687
  199SOL    HW2 1497   1.216   2.681   3.754
  200SOL     OW 1498   0.148   2.920   0.521
  200SOL    HW1 1499   0.117   2.970   0.440
  200SOL    HW2 1500   0.229   2.866   0.499
  201SOL     OW 1501   0.613   0.837   6.220
  201SOL    HW1 1502   0.683   0.792   6.275
  201SOL    HW2 1503   0.531   0.779   6.217
  202SOL     OW 1504   4.599   0.004   6.922
  202SOL    HW1 1505   4.566   0.060   6.846
  202SOL    HW2 1506   4.521   6.977   6.966
  203SOL     OW 1507   5.821   2.942   5.697
  203SOL    HW1 1508   5.855   3.036   5.706
  203SOL    HW2 1509   5.795   2.925   5.602
  204SOL     OW 1510   6.466   1.055   5.866
  204SOL    HW1 1511   6.441   1.131   5.927
  204SOL    HW2 1512   6.492   0.976   5.922
  205SOL     OW 1513   1.070   2.766   2.192
  205SOL    HW1 1514   1.095   2.860   2.169
  205SOL    HW2 1515   0.970   2.757   2.188
  206SOL     OW 1516   0.522   2.943   0.908
  206SOL    HW1 1517   0.466   2.953   0.990
  206SOL    HW2 1518   0.506   3.020   0.847
  207SOL     OW 1519   5.088   2.108   3.784
  207SOL    HW1 1520   5.080   2.121   3.883
  207SOL    HW2 1521   5.036   2.027   3.757
  208SOL     OW 1522   1.279   4.125   4.309
  208SOL    HW1 1523   1.287   4.210   4.257
  208SOL    HW2 1524   1.268   4.048   4.247
  209SOL     OW 1525   6.486   4.142   2.671
  209SOL    HW1 1526   6.564   4.100   2.718
  209SOL    HW2 1527   6.413   4.159   2.737
  210SOL     OW 1528   5.196   2.576   0.466
  210SOL    HW1 1529   5.106   2.586   0.423
  210SOL    HW2 1530   5.267   2.606   0.403
  211SOL     OW 1531   0.245   1.121   3.317
  211SOL    HW1 1532   0.332   1.088   3.352
  211SOL    HW2 1533   0.237   1.099   3.220
  212SOL     OW 1534   2.084   3.636   3.176
  212SOL    HW1 1535   2.111   3.705   3.243
  212SOL    HW2 1536   2.042   3.558   3.222
  213SOL     OW 1537   1.756   4.889   1.095
  213SOL    HW1 1538   1.663   4.889   1.059
  213SOL    HW2 1539   1.784   4.982   1.119
  214SOL     OW 1540   4.034   5.967   2.641
  214SOL    HW1 1541   3.963   5.937   2.577
  214SOL    HW2 1542   4.053   5.894   2.707
  215SOL     OW 1543   2.382   4.762   2.312
  215SOL    HW1 1544   2.465   4.788   2.262
  215SOL    HW2 1545   2.403   4.755   2.410
  216SOL     OW 1546   1.107   6.943   2.503
  216SOL    HW1 1547   1.074   6.865   2.555
  216SOL    HW2 1548   1.125   0.003   2.565
  217SOL     OW 1549   1.798   4.167   6.160
  217SOL    HW1 1550   1.793   4.244   6.224
  217SOL    HW2 1551   1.707   4.128   6.148
  218SOL     OW 1552   0.598   2.290   5.006
  218SOL    HW1 1553   0.610   2.270   5.103
  218SOL    HW2 1554   0.686   2.286   4.959
  219SOL     OW 1555   3.940   1.605   0.705
  219SOL    HW1 1556   3.975   1.697   0.687
  219SOL    HW2 1557   3.885   1.606   0.788
  220SOL     OW 1558   3.133   6.665   0.954
  220SOL    HW1 1559   3.060   6.632   0.895
  220SOL    HW2 1560   3.219   6.620   0.929
  221SOL     OW 1561   4.943   6.155   1.501
  221SOL    HW1 1562   4.891   6.229   1.543
  221SOL    HW2 1563   4.928   6.070   1.551
  222SOL     OW 1564   2.098   4.673   6.057
  222SOL    HW1 1565   1.999   4.657   6.048
  222SOL    HW2 1566   2.147   4.614   5.993
  223SOL     OW 1567   6.148   2.593   5.196
  223SOL    HW1 1568   6.157   2.529   5.272
  223SOL    HW2 1569   6.236   2.636   5.177
  224SOL     OW 1570   2.282   1.802   5.943
  224SOL    HW1 1571   2.211   1.794   5.873
  224SOL    HW2 1572   2.324   1.893   5.937
  225SOL     OW 1573   4.642   5.092   6.272
  225SOL    HW1 1574   4.741   5.091   6.288
  225SOL    HW2 1575   4.611   4.999   6.251
  226SOL     OW 1576   1.266   2.105   6.648
  226SOL    HW1 1577   1.321   2.107   6.732
  226SOL    HW2 1578   1.201   2.180   6.650
  227SOL     OW 1579   1.258   3.916   2.140
  227SOL    HW1 1580   1.192   3.939   2.212
  227SOL    HW2 1581   1.282   3.820   2.147
  228SOL     OW 1582   1.693   6.985   2.547
  228SOL    HW1 1583   1.736   0.014   2.469
  228SOL    HW2 1584   1.661   0.037   2.612
  229SOL     OW 1585   5.153   5.422   6.371
  229SOL    HW1 1586   5.237   5.464   6.337
  229SOL    HW2 1587   5.088   5.410   6.295
  230SOL     OW 1588   4.736   5.848   5.265
  230SOL    HW1 1589   4.733   5.840   5.165
  230SOL    HW2 1590   4.826   5.880   5.293
  231SOL     OW 1591   5.343   1.164   0.047
  231SOL    HW1 1592   5.352   1.104   6.985
  231SOL    HW2 1593   5.423   1.223   0.054
  232SOL     OW 1594   1.707   3.080   5.783
  232SOL    HW1 1595   1.786   3.130   5.747
  232SOL    HW2 1596   1.737   3.011   5.848
  233SOL     OW 1597   2.637   1.231   3.327
  233SOL    HW1 1598   2.585   1.145   3.322
  233SOL    HW2 1599   2.573   1.308   3.330
  234SOL     OW 1600   4.697   1.531   6.573
  234SOL    HW1 1601   4.746   1.501   6.655
  234SOL    HW2 1602   4.762   1.545   6.498
  235SOL     OW 1603   4.477   2.519   2.080
  235SOL    HW1 1604   4.452   2.602   2.130
  235SOL    HW2 1605   4.506   2.449   2.146
  236SOL     OW 1606   4.384   4.321   6.299
  236SOL    HW1 1607   4.464   4.271   6.265
  236SOL    HW2 1608   4.384   4.414   6.262
  237SOL     OW 1609   6.165   3.930   2.868
  237SOL    HW1 1610   6.211   4.019   2.867
  237SOL    HW2 1611   6.210   3.870   2.934
  238SOL     OW 1612   6.589   1.298   0.255
  238SOL    HW1 1613   6.522   1.363   0.220
  238SOL    HW2 1614   6.677   1.344   0.268
  239SOL     OW 1615   0.681   3.785   0.178
  239SOL    HW1 1616   0.715   3.877   0.196
  239SOL    HW2 1617   0.756   3.719   0.192
  240SOL     OW 1618   6.091   2.767   3.064
  240SOL    HW1 1619   6.046   2.825   2.996
  240SOL    HW2 1620   6.130   2.824   3.136
  241SOL     OW 1621   2.802   1.539   3.955
  241SOL    HW1 1622   2.778   1.576   3.864
  241SOL    HW2 1623   2.846   1.611   4.008
  242SOL     OW 1624   3.863   3.532   3.330
  242SOL    HW1 1625   3.956   3.559   3.353
  242SOL    HW2 1626   3.829   3.590   3.256
  243SOL     OW 1627   4.744   2.442   6.166
  243SOL    HW1 1628   4.725   2.359   6.218
  243SOL    HW2 1629   4.820   2.426   6.104
  244SOL     OW 1630   5.317   3.705   5.468
  244SOL    HW1 1631   5.408   3.720   5.430
  244SOL    HW2 1632   5.248   3.744   5.406
  245SOL     OW 1633   3.556   2.028   2.313
  245SOL    HW1 1634   3.545   1.932   2.340
  245SOL    HW2 1635   3.651   2.055   2.327
  246SOL     OW 1636   6.044   1.181   3.071
  246SOL    HW1 1637   6.074   1.128   2.992
  246SOL    HW2 1638   6.121   1.236   3.105
  247SOL     OW 1639   2.088   1.297   1.205
  247SOL    HW1 1640   2.034   1.381   1.195
  247SOL    HW2 1641   2.109   1.261   1.114
  248SOL     OW 1642   1.642   1.997   2.025
  248SOL    HW1 1643   1.649   2.028   2.120
  248SOL    HW2 1644   1.551   1.960   2.009
  249SOL     OW 1645   5.901   6.511   5.031
  249SOL    HW1 1646   5.816   6.498   5.081
  249SOL    HW2 1647   5.904   6.450   4.952
  250SOL     OW 1648   3.180   2.466   1.419
  250SOL    HW1 1649   3.251   2.476   1.490
  250SOL    HW2 1650   3.222   2.432   1.335
  251SOL     OW 1651   4.223   4.096   5.960
  251SOL    HW1 1652   4.276   4.085   5.875
  251SOL    HW2 1653   4.126   4.105   5.937
  252SOL     OW 1654   5.992   6.265   5.737
  252SOL    HW1 1655   6.076   6.311   5.765
  252SOL    HW2 1656   5.994   6.170   5.768
  253SOL     OW 1657   4.497   5.761   6.041
  253SOL    HW1 1658   4.434   5.716   5.977
  253SOL    HW2 1659   4.589   5.763   6.001
  254SOL     OW 1660   5.761   2.725   4.537
  254SOL    HW1 1661   5.757   2.689   4.630
  254SOL    HW2 1662   5.783   2.651   4.473
  255SOL     OW 1663   1.861   4.434   5.702
  255SOL    HW1 1664   1.908   4.347   5.716
  255SOL    HW2 1665   1.928   4.506   5.681
  256SOL     OW 1666   4.932   2.732   4.840
  256SOL    HW1 1667   4.834   2.714   4.842
  256SOL    HW2 1668   4.980   2.650   4.807
  257SOL     OW 1669   4.893   6.069   3.113
  257SOL    HW1 1670   4.948   5.988   3.133
  257SOL    HW2 1671   4.804   6.061   3.158
  258SOL     OW 1672   2.114   3.761   6.213
  258SOL    HW1 1673   2.117   3.703   6.295
  258SOL    HW2 1674   2.052   3.720   6.146
  259SOL     OW 1675   4.019   0.104   3.500
  259SOL    HW1 1676   4.002   0.079   3.595
  259SOL    HW2 1677   3.933   0.136   3.459
  260SOL     OW 1678   3.868   5.325   3.232
  260SOL    HW1 1679   3.828   5.280   3.312
  260SOL    HW2 1680   3.959   5.359   3.254
  261SOL     OW 1681   4.382   4.898   0.429
  261SOL    HW1 1682   4.308   4.921   0.367
  261SOL    HW2 1683   4.356   4.920   0.523
  262SOL     OW 1684   2.047   4.041   0.226
  262SOL    HW1 1685   2.079   4.099   0.301
  262SOL    HW2 1686   2.123   3.984   0.194
  263SOL     OW 1687   1.332   6.439   4.120
  263SOL    HW1 1688   1.357   6.350   4.083
  263SOL    HW2 1689   1.397   6.466   4.191
  264SOL     OW 1690   0.276   3.149   6.875
  264SOL    HW1 1691   0.279   3.079   6.947
  264SOL    HW2 1692   0.367   3.186   6.862
  265SOL     OW 1693   6.612   0.234   4.271
  265SOL    HW1 1694   6.599   0.140   4.301
  265SOL    HW2 1695   6.631   0.292   4.350
  266SOL     OW 1696   4.228   1.370   5.409
  266SOL    HW1 1697   4.258   1.449   5.462
  266SOL    HW2 1698   4.136   1.386   5.373
  267SOL     OW 1699   1.619   0.888   5.438
  267SOL    HW1 1700   1.613   0.788   5.440
  267SOL    HW2 1701   1.699   0.916   5.384
  268SOL     OW 1702   3.231   1.363   1.028
  268SOL    HW1 1703   3.236   1.359   0.928
  268SOL    HW2 1704   3.253   1.273   1.065
  269SOL     OW 1705   4.245   1.941   6.842
  269SOL    HW1 1706   4.289   1.855   6.817
  269SOL    HW2 1707   4.169   1.960   6.780
  270SOL     OW 1708   6.743   0.120   0.212
  270SOL    HW1 1709   6.816   0.058   0.183
  270SOL    HW2 1710   6.766   0.160   0.301
  271SOL     OW 1711   0.098   2.330   5.598
  271SOL    HW1 1712   0.094   2.307   5.501
  271SOL    HW2 1713   0.082   2.428   5.610
  272SOL     OW 1714   3.139   6.138   3.788
  272SOL    HW1 1715   3.191   6.223   3.782
  272SOL    HW2 1716   3.152   6.084   3.704
  273SOL     OW 1717   1.677   5.400   5.598
  273SOL    HW1 1718   1.742   5.351   5.540
  273SOL    HW2 1719   1.584   5.374   5.574
  274SOL     OW 1720   4.400   0.930   3.808
  274SOL    HW1 1721   4.385   1.008   3.747
  274SOL    HW2 1722   4.328   0.928   3.877
  275SOL     OW 1723   6.843   6.550   2.621
  275SOL    HW1 1724   6.899   6.468   2.638
  275SOL    HW2 1725   6.896   6.615   2.567
  276SOL     OW 1726   0.264   0.523   4.840
  276SOL    HW1 1727   0.259   0.457   4.765
  276SOL    HW2 1728   0.258   0.474   4.928
  277SOL     OW 1729   2.330   3.198   0.493
  277SOL    HW1 1730   2.417   3.189   0.542
  277SOL    HW2 1731   2.336   3.149   0.406
  278SOL     OW 1732   0.272   2.068   2.543
  278SOL    HW1 1733   0.193   2.129   2.551
  278SOL    HW2 1734   0.341   2.110   2.483
  279SOL     OW 1735   5.778   2.746   4.030
  279SOL    HW1 1736   5.707   2.804   4.070
  279SOL    HW2 1737   5.782   2.761   3.932
  280SOL     OW 1738   1.599   4.490   2.004
  280SOL    HW1 1739   1.658   4.479   1.924
  280SOL    HW2 1740   1.655   4.485   2.087
  281SOL     OW 1741   2.327   3.924   0.620
  281SOL    HW1 1742   2.368   3.835   0.601
  281SOL    HW2 1743   2.228   3.915   0.622
  282SOL     OW 1744   3.433   1.806   6.117
  282SOL    HW1 1745   3.376   1.808   6.035
  282SOL    HW2 1746   3.429   1.896   6.162
  283SOL     OW 1747   5.021   2.973   6.192
  283SOL    HW1 1748   4.962   2.927   6.126
  283SOL    HW2 1749   5.116   2.946   6.176
  284SOL     OW 1750   0.634   3.518   3.898
  284SOL    HW1 1751   0.605   3.599   3.950
  284SOL    HW2 1752   0.725   3.490   3.928
  285SOL     OW 1753   5.663   4.585   4.348
  285SOL    HW1 1754   5.648   4.636   4.433
  285SOL    HW2 1755   5.645   4.488   4.364
  286SOL     OW 1756   3.406   3.318   6.887
  286SOL    HW1 1757   3.362   3.375   6.956
  286SOL    HW2 1758   3.471   3.373   6.835
  287SOL     OW 1759   2.249   3.638   0.268
  287SOL    HW1 1760   2.191   3.650   0.348
  287SOL    HW2 1761   2.311   3.561   0.282
  288SOL     OW 1762   5.130   1.927   0.020
  288SOL    HW1 1763   5.143   2.009   6.980
  288SOL    HW2 1764   5.215   1.905   0.068
  289SOL     OW 1765   2.890   5.241   6.152
  289SOL    HW1 1766   2.794   5.220   6.136
  289SOL    HW2 1767   2.898   5.334   6.189
  290SOL     OW 1768   6.919   2.143   5.704
  290SOL    HW1 1769   6.957   2.051   5.693
  290SOL    HW2 1770   6.991   2.211   5.687
  291SOL     OW 1771   6.945   1.886   2.929
  291SOL    HW1 1772   6.922   1.925   3.018
  291SOL    HW2 1773   6.939   1.957   2.859
  292SOL     OW 1774   1.990   0.293   3.263
  292SOL    HW1 1775   1.955   0.341   3.343
  292SOL    HW2 1776   1.920   0.291   3.192
  293SOL     OW 1777   3.971   5.362   3.826
  293SOL    HW1 1778   3.981   5.374   3.727
  293SOL    HW2 1779   3.899   5.422   3.860
  294SOL     OW 1780   4.420   5.973   6.205
  294SOL    HW1 1781   4.472   5.972   6.291
  294SOL    HW2 1782   4.454   5.901   6.145
  295SOL     OW 1783   5.207   0.525   4.622
  295SOL    HW1 1784   5.216   0.594   4.551
  295SOL    HW2 1785   5.171   0.568   4.706
  296SOL     OW 1786   2.447   2.156   3.646
  296SOL    HW1 1787   2.431   2.100   3.727
  296SOL    HW2 1788   2.466   2.096   3.568
  297SOL     OW 1789   1.532   4.229   3.038
  297SOL    HW1 1790   1.572   4.211   3.128
  297SOL    HW2 1791   1.606   4.243   2.971
  298SOL     OW 1792   6.210   5.337   1.133
  298SOL    HW1 1793   6.220   5.389   1.049
  298SOL    HW2 1794   6.213   5.239   1.112
  299SOL     OW 1795   6.580   2.480   4.415
  299SOL    HW1 1796   6.660   2.539   4.415
  299SOL    HW2 1797   6.600   2.395   4.366
  300SOL     OW 1798   6.254   0.086   2.622
  300SOL    HW1 1799   6.341   0.079   2.574
  300SOL    HW2 1800   6.212   0.175   2.602
  301SOL     OW 1801   5.481   3.952   6.093
  301SOL    HW1 1802   5.441   3.913   6.176
  301SOL    HW2 1803   5.439   4.041   6.074
  302SOL     OW 1804   0.963   6.577   3.409
  302SOL    HW1 1805   1.024   6.502   3.386
  302SOL    HW2 1806   0.940   6.629   3.326
  303SOL     OW 1807   5.470   0.617   3.940
  303SOL    HW1 1808   5.511   0.577   4.022
  303SOL    HW2 1809   5.437   0.544   3.880
  304SOL     OW 1810   2.999   0.320   3.289
  304SOL    HW1 1811   2.954   0.284   3.207
  304SOL    HW2 1812   3.017   0.418   3.279
  305SOL     OW 1813   1.260   3.594   1.216
  305SOL    HW1 1814   1.302   3.659   1.279
  305SOL    HW2 1815   1.186   3.545   1.262
  306SOL     OW 1816   2.292   0.432   3.489
  306SOL    HW1 1817   2.228   0.391   3.554
  306SOL    HW2 1818   2.308   0.368   3.414
  307SOL     OW 1819   3.739   0.200   1.490
  307SOL    HW1 1820   3.735   0.109   1.448
  307SOL    HW2 1821   3.803   0.258   1.440
  308SOL     OW 1822   0.814   5.507   4.309
  308SOL    HW1 1823   0.882   5.577   4.289
  308SOL    HW2 1824   0.848   5.446   4.380
  309SOL     OW 1825   4.152   5.191   5.325
  309SOL    HW1 1826   4.184   5.276   5.283
  309SOL    HW2 1827   4.219   5.160   5.393
  310SOL     OW 1828   0.363   6.663   6.272
  310SOL    HW1 1829   0.284   6.602   6.277
  310SOL    HW2 1830   0.427   6.631   6.203
  311SOL     OW 1831   0.358   0.330   1.298
  311SOL    HW1 1832   0.422   0.405   1.313
  311SOL    HW2 1833   0.356   0.271   1.379
  312SOL     OW 1834   4.113   1.822   4.969
  312SOL    HW1 1835   4.055   1.861   5.041
  312SOL    HW2 1836   4.178   1.891   4.938
  313SOL     OW 1837   0.926   4.048   1.333
  313SOL    HW1 1838   0.867   4.040   1.414
  313SOL    HW2 1839   0.928   3.961   1.284
  314SOL     OW 1840   3.746   6.388   0.773
  314SOL    HW1 1841   3.695   6.474   0.776
  314SOL    HW2 1842   3.842   6.407   0.750
  315SOL     OW 1843   0.868   2.816   3.234
  315SOL    HW1 1844   0.874   2.840   3.331
  315SOL    HW2 1845   0.826   2.726   3.224
  316SOL     OW 1846   2.763   2.378   4.097
  316SOL    HW1 1847   2.672   2.420   4.107
  316SOL    HW2 1848   2.810   2.379   4.186
  317SOL     OW 1849   6.798   2.025   6.714
  317SOL    HW1 1850   6.822   2.096   6.780
  317SOL    HW2 1851   6.862   1.949   6.722
  318SOL     OW 1852   2.633   5.174   0.860
  318SOL    HW1 1853   2.714   5.230   0.840
  318SOL    HW2 1854   2.551   5.224   0.836
  319SOL     OW 1855   1.167   6.662   0.206
  319SOL    HW1 1856   1.084   6.682   0.258
  319SOL    HW2 1857   1.142   6.642   0.111
  320SOL     OW 1858   5.456   3.751   0.599
  320SOL    HW1 1859   5.490   3.826   0.543
  320SOL    HW2 1860   5.517   3.672   0.591
  321SOL     OW 1861   2.028   1.484   0.821
  321SOL    HW1 1862   2.010   1.413   0.752
  321SOL    HW2 1863   1.992   1.571   0.788
  322SOL     OW 1864   3.498   2.935   4.437
  322SOL    HW1 1865   3.530   2.845   4.469
  322SOL    HW2 1866   3.538   2.955   4.348
  323SOL     OW 1867   0.493   4.831   1.928
  323SOL    HW1 1868   0.408   4.778   1.918
  323SOL    HW2 1869   0.567   4.784   1.881
  324SOL     OW 1870   0.569   2.948   4.510
  324SOL    HW1 1871   0.548   3.046   4.508
  324SOL    HW2 1872   0.606   2.920   4.421
  325SOL     OW 1873   2.220   3.018   2.658
  325SOL    HW1 1874   2.271   2.932   2.651
  325SOL    HW2 1875   2.171   3.035   2.572
  326SOL     OW 1876   1.853   4.560   6.143
  326SOL    HW1 1877   1.766   4.574   6.095
  326SOL    HW2 1878   1.842   4.584   6.239
  327SOL     OW 1879   6.439   5.608   5.517
  327SOL    HW1 1880   6.453   5.694   5.566
  327SOL    HW2 1881   6.442   5.532   5.582
  328SOL     OW 1882   3.501   6.009   2.087
  328SOL    HW1 1883   3.521   5.968   1.998
  328SOL    HW2 1884   3.514   5.940   2.159
  329SOL     OW 1885   3.007   3.090   2.632
  329SOL    HW1 1886   2.999   3.038   2.547
  329SOL    HW2 1887   2.941   3.166   2.632
  330SOL     OW 1888   3.813   0.544   1.247
  330SOL    HW1 1889   3.819   0.599   1.330
  330SOL    HW2 1890   3.725   0.496   1.245
  331SOL     OW 1891   4.908   5.076   6.347
  331SOL    HW1 1892   4.976   5.144   6.321
  331SOL    HW2 1893   4.923   4.992   6.296
  332SOL     OW 1894   3.922   1.648   2.970
  332SOL    HW1 1895   3.989   1.598   3.025
  332SOL    HW2 1896   3.835   1.598   2.971
  333SOL     OW 1897   3.635   6.217   6.338
  333SOL    HW1 1898   3.544   6.174   6.336
  333SOL    HW2 1899   3.702   6.156   6.297
  334SOL     OW 1900   4.359   6.746   2.740
  334SOL    HW1 1901   4.324   6.728   2.648
  334SOL    HW2 1902   4.387   6.842   2.746
  335SOL     OW 1903   3.164   6.938   3.660
  335SOL    HW1 1904   3.081   6.992   3.672
  335SOL    HW2 1905   3.245   6.996   3.675
  336SOL     OW 1906   3.114   0.936   4.730
  336SOL    HW1 1907   3.132   0.844   4.695
  336SOL    HW2 1908   3.015   0.950   4.736
  337SOL     OW 1909   6.540   3.968   1.290
  337SOL    HW1 1910   6.625   3.926   1.322
  337SOL    HW2 1911   6.533   3.959   1.191
  338SOL     OW 1912   3.689   2.581   1.161
  338SOL    HW1 1913   3.711   2.545   1.071
  338SOL    HW2 1914   3.745   2.662   1.179
  339SOL     OW 1915   4.397   6.345   3.491
  339SOL    HW1 1916   4.360   6.434   3.465
  339SOL    HW2 1917   4.469   6.320   3.426
  340SOL     OW 1918   4.692   4.179   4.322
  340SOL    HW1 1919   4.722   4.119   4.397
  340SOL    HW2 1920   4.719   4.138   4.235
  341SOL     OW 1921   5.642   5.377   4.995
  341SOL    HW1 1922   5.602   5.394   4.905
  341SOL    HW2 1923   5.742   5.371   4.987
  342SOL     OW 1924   6.357   3.939   0.668
  342SOL    HW1 1925   6.258   3.938   0.665
  342SOL    HW2 1926   6.390   3.851   0.702
  343SOL     OW 1927   3.230   0.602   2.782
  343SOL    HW1 1928   3.264   0.696   2.787
  343SOL    HW2 1929   3.237   0.559   2.871
  344SOL     OW 1930   3.122   5.122   0.323
  344SOL    HW1 1931   3.140   5.215   0.356
  344SOL    HW2 1932   3.027   5.116   0.293
  345SOL     OW 1933   0.459   6.947   5.355
  345SOL    HW1 1934   0.544   6.898   5.372
  345SOL    HW2 1935   0.479   0.027   5.338
  346SOL     OW 1936   1.659   6.921   3.560
  346SOL    HW1 1937   1.601   6.953   3.634
  346SOL    HW2 1938   1.660   6.821   3.559
  347SOL     OW 1939   5.220   6.378   6.504
  347SOL    HW1 1940   5.186   6.404   6.414
  347SOL    HW2 1941   5.242   6.281   6.505
  348SOL     OW 1942   3.601   5.829   2.362
  348SOL    HW1 1943   3.506   5.857   2.353
  348SOL    HW2 1944   3.611   5.768   2.441
  349SOL     OW 1945   1.485   5.092   2.107
  349SOL    HW1 1946   1.408   5.138   2.061
  349SOL    HW2 1947   1.561   5.156   2.118
  350SOL     OW 1948   4.918   3.087   0.974
  350SOL    HW1 1949   4.856   3.157   0.938
  350SOL    HW2 1950   4.907   3.081   1.073
  351SOL     OW 1951   3.372   2.224   0.384
  351SOL    HW1 1952   3.343   2.142   0.335
  351SOL    HW2 1953   3.338   2.305   0.336
  352SOL     OW 1954   3.344   1.193   6.566
  352SOL    HW1 1955   3.331   1.207   6.468
  352SOL    HW2 1956   3.268   1.140   6.603
  353SOL     OW 1957   2.392   6.452   0.917
  353SOL    HW1 1958   2.421   6.533   0.967
  353SOL    HW2 1959   2.426   6.456   0.823
  354SOL     OW 1960   4.519   1.393   1.655
  354SOL    HW1 1961   4.613   1.376   1.625
  354SOL    HW2 1962   4.515   1.393   1.755
  355SOL     OW 1963   0.516   2.474   1.929
  355SOL    HW1 1964   0.474   2.391   1.965
  355SOL    HW2 1965   0.448   2.527   1.879
  356SOL     OW 1966   4.128   5.417   3.306
  356SOL    HW1 1967   4.220   5.383   3.324
  356SOL    HW2 1968   4.131   5.486   3.234
  357SOL     OW 1969   0.979   4.887   5.291
  357SOL    HW1 1970   0.923   4.951   5.239
  357SOL    HW2 1971   1.013   4.933   5.373
  358SOL     OW 1972   5.477   0.766   1.509
  358SOL    HW1 1973   5.394   0.711   1.516
  358SOL    HW2 1974   5.477   0.816   1.423
  359SOL     OW 1975   1.191   1.447   2.123
  359SOL    HW1 1976   1.099   1.448   2.162
  359SOL    HW2 1977   1.253   1.498   2.183
  360SOL     OW 1978   3.984   6.464   0.675
  360SOL    HW1 1979   3.986   6.564   0.676
  360SOL    HW2 1980   4.030   6.430   0.593
  361SOL     OW 1981   4.329   0.352   3.076
  361SOL    HW1 1982   4.263   0.278   3.090
  361SOL    HW2 1983   4.367   0.380   3.163
  362SOL     OW 1984   2.540   3.287   0.955
  362SOL    HW1 1985   2.550   3.271   1.053
  362SOL    HW2 1986   2.508   3.203   0.911
  363SOL     OW 1987   4.814   4.942   4.391
  363SOL    HW1 1988   4.858   4.987   4.469
  363SOL    HW2 1989   4.742   4.881   4.424
  364SOL     OW 1990   1.650   5.052   5.851
  364SOL    HW1 1991   1.589   4.974   5.865
  364SOL    HW2 1992   1.669   5.096   5.939
  365SOL     OW 1993   4.585   6.265   2.933
  365SOL    HW1 1994   4.656   6.326   2.970
  365SOL    HW2 1995   4.612   6.233   2.842
  366SOL     OW 1996   5.689   0.284   6.821
  366SOL    HW1 1997   5.747   0.202   6.824
  366SOL    HW2 1998   5.698   0.334   6.907
  367SOL     OW 1999   5.153   2.620   1.253
  367SOL    HW1 2000   5.237   2.628   1.199
  367SOL    HW2 2001   5.087   2.564   1.204
  368SOL     OW 2002   1.185   4.729   5.331
  368SOL    HW1 2003   1.087   4.741   5.318
  368SOL    HW2 2004   1.230   4.720   5.242
  369SOL     OW 2005   0.457   3.903   1.648
  369SOL    HW1 2006   0.400   3.847   1.707
  369SOL    HW2 2007   0.402   3.976   1.606
  370SOL     OW 2008   3.852   1.272   6.278
  370SOL    HW1 2009   3.884   1.228   6.361
  370SOL    HW2 2010   3.930   1.291   6.218
  371SOL     OW 2011   4.295   2.975   6.379
  371SOL    HW1 2012   4.217   2.950   6.436
  371SOL    HW2 2013   4.331   3.064   6.409
  372SOL     OW 2014   1.470   5.459   5.827
  372SOL    HW1 2015   1.443   5.375   5.780
  372SOL    HW2 2016   1.491   5.530   5.760
  373SOL     OW 2017   6.801   6.690   0.599
  373SOL    HW1 2018   6.724   6.684   0.536
  373SOL    HW2 2019   6.809   6.783   0.634
  374SOL     OW 2020   3.671   1.028   1.604
  374SOL    HW1 2021   3.713   0.938   1.618
  374SOL    HW2 2022   3.738   1.090   1.563
  375SOL     OW 2023   0.049   4.725   2.620
  375SOL    HW1 2024   0.110   4.646   2.624
  375SOL    HW2 2025   0.098   4.804   2.584
  376SOL     OW 2026   2.228   2.479   4.295
  376SOL    HW1 2027   2.258   2.481   4.391
  376SOL    HW2 2028   2.289   2.534   4.240
  377SOL     OW 2029   4.785   1.925   3.773
  377SOL    HW1 2030   4.799   1.885   3.863
  377SOL    HW2 2031   4.857   1.895   3.711
  378SOL     OW 2032   5.281   2.419   4.466
  378SOL    HW1 2033   5.303   2.434   4.562
  378SOL    HW2 2034   5.357   2.372   4.422
  379SOL     OW 2035   6.619   3.664   1.204
  379SOL    HW1 2036   6.626   3.564   1.206
  379SOL    HW2 2037   6.679   3.703   1.275
  380SOL     OW 2038   0.847   2.214   0.315
  380SOL    HW1 2039   0.808   2.267   0.390
  380SOL    HW2 2040   0.783   2.141   0.289
  381SOL     OW 2041   3.257   3.891   0.486
  381SOL    HW1 2042   3.342   3.866   0.532
  381SOL    HW2 2043   3.272   3.896   0.388
  382SOL     OW 2044   2.267   5.401   0.965
  382SOL    HW1 2045   2.268   5.301   0.956
  382SOL    HW2 2046   2.225   5.441   0.884
  383SOL     OW 2047   6.386   2.615   6.797
  383SOL    HW1 2048   6.414   2.595   6.891
  383SOL    HW2 2049   6.352   2.709   6.791
  384SOL     OW 2050   1.869   5.547   5.043
  384SOL    HW1 2051   1.810   5.550   5.123
  384SOL    HW2 2052   1.815   5.569   4.961
  385SOL     OW 2053   5.169   5.609   1.111
  385SOL    HW1 2054   5.194   5.513   1.099
  385SOL    HW2 2055   5.252   5.666   1.108
  386SOL     OW 2056   3.216   6.351   5.255
  386SOL    HW1 2057   3.254   6.354   5.347
  386SOL    HW2 2058   3.256   6.425   5.200
  387SOL     OW 2059   6.896   0.337   5.606
  387SOL    HW1 2060   6.926   0.326   5.701
  387SOL    HW2 2061   6.801   0.309   5.597
  388SOL     OW 2062   6.957   2.083   5.016
  388SOL    HW1 2063   6.932   2.076   4.919
  388SOL    HW2 2064   0.009   2.014   5.037
  389SOL     OW 2065   3.877   4.747   1.370
  389SOL    HW1 2066   3.947   4.676   1.372
  389SOL    HW2 2067   3.819   4.738   1.450
  390SOL     OW 2068   4.371   2.571   0.353
  390SOL    HW1 2069   4.331   2.607   0.437
  390SOL    HW2 2070   4.454   2.622   0.330
  391SOL     OW 2071   3.864   3.968   4.335
  391SOL    HW1 2072   3.925   3.976   4.256
  391SOL    HW2 2073   3.783   3.915   4.309
  392SOL     OW 2074   1.111   3.743   1.852
  392SOL    HW1 2075   1.058   3.738   1.937
  392SOL    HW2 2076   1.184   3.810   1.863
  393SOL     OW 2077   1.139   4.801   1.603
  393SOL    HW1 2078   1.229   4.779   1.639
  393SOL    HW2 2079   1.081   4.719   1.605
  394SOL     OW 2080   6.267   1.320   6.330
  394SOL    HW1 2081   6.304   1.287   6.416
  394SOL    HW2 2082   6.325   1.289   6.254
  395SOL     OW 2083   5.894   5.065   0.961
  395SOL    HW1 2084   5.844   5.097   1.041
  395SOL    HW2 2085   5.848   5.096   0.878
  396SOL     OW 2086   1.562   0.167   1.457
  396SOL    HW1 2087   1.564   0.232   1.382
  396SOL    HW2 2088   1.499   0.199   1.527
  397SOL     OW 2089   4.161   2.065   5.481
  397SOL    HW1 2090   4.162   2.137   5.550
  397SOL    HW2 2091   4.145   1.976   5.525
  398SOL     OW 2092   1.249   0.733   3.525
  398SOL    HW1 2093   1.157   0.751   3.491
  398SOL    HW2 2094   1.291   0.818   3.556
  399SOL     OW 2095   5.608   5.907   4.361
  399SOL    HW1 2096   5.568   5.955   4.283
  399SOL    HW2 2097   5.703   5.936   4.373
  400SOL     OW 2098   5.904   0.038   4.342
  400SOL    HW1 2099   5.816   0.015   4.384
  400SOL    HW2 2100   5.917   7.000   4.260
  401SOL     OW 2101   0.662   5.581   5.718
  401SOL    HW1 2102   0.641   5.608   5.624
  401SOL    HW2 2103   0.737   5.516   5.718
  402SOL     OW 2104   5.663   1.488   3.442
  402SOL    HW1 2105   5.708   1.428   3.508
  402SOL    HW2 2106   5.573   1.514   3.477
  403SOL     OW 2107   2.979   1.141   5.289
  403SOL    HW1 2108   2.920   1.141   5.209
  403SOL    HW2 2109   2.950   1.213   5.352
  404SOL     OW 2110   3.670   5.279   2.804
  404SOL    HW1 2111   3.757   5.232   2.785
  404SOL    HW2 2112   3.653   5.278   2.903
  405SOL     OW 2113   2.095   4.565   4.615
  405SOL    HW1 2114   2.171   4.580   4.678
  405SOL    HW2 2115   2.102   4.629   4.538
  406SOL     OW 2116   0.194   6.923   6.214
  406SOL    HW1 2117   0.207   6.986   6.291
  406SOL    HW2 2118   0.265   6.853   6.215
  407SOL     OW 2119   2.396   2.737   4.243
  407SOL    HW1 2120   2.424   2.683   4.164
  407SOL    HW2 2121   2.394   2.834   4.218
  408SOL     OW 2122   1.793   1.214   3.424
  408SOL    HW1 2123   1.814   1.136   3.365
  408SOL    HW2 2124   1.816   1.191   3.519
  409SOL     OW 2125   0.421   3.615   2.528
  409SOL    HW1 2126   0.445   3.522   2.502
  409SOL    HW2 2127   0.349   3.612   2.598
  410SOL     OW 2128   1.469   1.535   1.391
  410SOL    HW1 2129   1.469   1.503   1.296
  410SOL    HW2 2130   1.563   1.549   1.421
  411SOL     OW 2131   6.992   2.749   1.741
  411SOL    HW1 2132   0.023   2.680   1.796
  411SOL    HW2 2133   0.009   2.840   1.764
  412SOL     OW 2134   1.402   5.128   2.353
  412SOL    HW1 2135   1.437   5.085   2.270
  412SOL    HW2 2136   1.302   5.125   2.351
  413SOL     OW 2137   6.011   6.299   2.659
  413SOL    HW1 2138   6.094   6.354   2.674
  413SOL    HW2 2139   5.946   6.352   2.606
  414SOL     OW 2140   1.640   6.548   2.897
  414SOL    HW1 2141   1.640   6.605   2.814
  414SOL    HW2 2142   1.708   6.476   2.887
  415SOL     OW 2143   6.359   1.170   6.872
  415SOL    HW1 2144   6.374   1.259   6.916
  415SOL    HW2 2145   6.446   1.132   6.842
  416SOL     OW 2146   5.728   3.695   5.711
  416SOL    HW1 2147   5.657   3.629   5.735
  416SOL    HW2 2148   5.808   3.647   5.676
  417SOL     OW 2149   1.970   2.020   6.502
  417SOL    HW1 2150   1.889   2.058   6.547
  417SOL    HW2 2151   1.951   1.926   6.473
  418SOL     OW 2152   3.758   0.292   4.735
  418SOL    HW1 2153   3.705   0.211   4.758
  418SOL    HW2 2154   3.817   0.273   4.656
  419SOL     OW 2155   6.758   0.250   0.486
  419SOL    HW1 2156   6.848   0.292   0.479
  419SOL    HW2 2157   6.750   0.202   0.573
  420SOL     OW 2158   3.864   0.458   0.334
  420SOL    HW1 2159   3.950   0.485   0.376
  420SOL    HW2 2160   3.880   0.432   0.238
  421SOL     OW 2161   4.596   4.357   2.272
  421SOL    HW1 2162   4.568   4.320   2.183
  421SOL    HW2 2163   4.640   4.285   2.326
  422SOL     OW 2164   5.364   2.772   1.984
  422SOL    HW1 2165   5.421   2.720   1.920
  422SOL    HW2 2166   5.350   2.864   1.949
  423SOL     OW 2167   2.741   0.921   6.123
  423SOL    HW1 2168   2.712   0.906   6.028
  423SOL    HW2 2169   2.790   1.008   6.129
  424SOL     OW 2170   1.159   3.607   3.821
  424SOL    HW1 2171   1.212   3.538   3.869
  424SOL    HW2 2172   1.099   3.562   3.754
  425SOL     OW 2173   3.556   1.009   6.682
  425SOL    HW1 2174   3.512   1.077   6.624
  425SOL    HW2 2175   3.528   1.024   6.777
  426SOL     OW 2176   2.948   1.783   4.015
  426SOL    HW1 2177   2.892   1.859   4.049
  426SOL    HW2 2178   3.034   1.779   4.066
  427SOL     OW 2179   4.313   2.263   3.147
  427SOL    HW1 2180   4.274   2.241   3.237
  427SOL    HW2 2181   4.333   2.178   3.099
  428SOL     OW 2182   2.630   1.938   5.935
  428SOL    HW1 2183   2.688   1.964   5.858
  428SOL    HW2 2184   2.687   1.916   6.014
  429SOL     OW 2185   6.914   5.659   4.303
  429SOL    HW1 2186   6.835   5.614   4.261
  429SOL    HW2 2187   6.914   5.640   4.401
  430SOL     OW 2188   1.736   0.230   4.269
  430SOL    HW1 2189   1.640   0.219   4.242
  430SOL    HW2 2190   1.793   0.170   4.213
  431SOL     OW 2191   2.378   1.653   1.936
  431SOL    HW1 2192   2.419   1.602   1.860
  431SOL    HW2 2193   2.278   1.644   1.932
  432SOL     OW 2194   4.429   1.838   1.125
  432SOL    HW1 2195   4.373   1.775   1.179
  432SOL    HW2 2196   4.490   1.786   1.066
  433SOL     OW 2197   1.671   4.797   0.725
  433SOL    HW1 2198   1.631   4.841   0.644
  433SOL    HW2 2199   1.640   4.703   0.730
  434SOL     OW 2200   5.079   5.027   3.456
  434SOL    HW1 2201   5.084   4.973   3.539
  434SOL    HW2 2202   5.155   5.092   3.454
  435SOL     OW 2203   3.786   2.904   5.730
  435SOL    HW1 2204   3.760   2.970   5.800
  435SOL    HW2 2205   3.858   2.844   5.765
  436SOL     OW 2206   5.001   6.409   2.735
  436SOL    HW1 2207   4.941   6.367   2.666
  436SOL    HW2 2208   5.096   6.405   2.703
  437SOL     OW 2209   6.659   0.789   4.887
  437SOL    HW1 2210   6.687   0.884   4.900
  437SOL    HW2 2211   6.560   0.783   4.880
  438SOL     OW 2212   0.868   4.815   2.456
  438SOL    HW1 2213   0.821   4.825   2.544
  438SOL    HW2 2214   0.823   4.871   2.387
  439SOL     OW 2215   0.187   0.815   4.856
  439SOL    HW1 2216   0.216   0.720   4.848
  439SOL    HW2 2217   0.250   0.874   4.805
  440SOL     OW 2218   3.932   1.286   0.542
  440SOL    HW1 2219   4.025   1.313   0.565
  440SOL    HW2 2220   3.871   1.308   0.618
  441SOL     OW 2221   0.694   4.725   2.175
  441SOL    HW1 2222   0.641   4.702   2.094
  441SOL    HW2 2223   0.790   4.704   2.160
  442SOL     OW 2224   4.750   3.093   5.458
  442SOL    HW1 2225   4.761   3.144   5.372
  442SOL    HW2 2226   4.676   3.134   5.511
  443SOL     OW 2227   5.022   2.797   2.527
  443SOL    HW1 2228   5.083   2.818   2.603
  443SOL    HW2 2229   5.065   2.824   2.441
  444SOL     OW 2230   4.768   1.666   1.988
  444SOL    HW1 2231   4.813   1.696   2.072
  444SOL    HW2 2232   4.774   1.739   1.920
  445SOL     OW 2233   1.813   5.018   2.662
  445SOL    HW1 2234   1.840   4.923   2.673
  445SOL    HW2 2235   1.721   5.022   2.621
  446SOL     OW 2236   5.815   0.196   1.536
  446SOL    HW1 2237   5.767   0.112   1.512
  446SOL    HW2 2238   5.751   0.273   1.533
  447SOL     OW 2239   6.115   4.377   1.028
  447SOL    HW1 2240   6.148   4.407   1.118
  447SOL    HW2 2241   6.087   4.456   0.974
  448SOL     OW 2242   3.548   6.729   3.739
  448SOL    HW1 2243   3.526   6.663   3.667
  448SOL    HW2 2244   3.477   6.727   3.810
  449SOL     OW 2245   1.833   4.093   4.440
  449SOL    HW1 2246   1.825   4.177   4.494
  449SOL    HW2 2247   1.835   4.014   4.500
  450SOL     OW 2248   6.590   4.486   3.481
  450SOL    HW1 2249   6.506   4.482   3.536
  450SOL    HW2 2250   6.565   4.501   3.385
  451SOL     OW 2251   1.057   1.931   0.732
  451SOL    HW1 2252   1.019   1.944   0.823
  451SOL    HW2 2253   1.124   1.856   0.734
  452SOL     OW 2254   5.075   5.495   2.978
  452SOL    HW1 2255   5.054   5.422   2.913
  452SOL    HW2 2256   5.036   5.472   3.068
  453SOL     OW 2257   3.448   0.939   6.928
  453SOL    HW1 2258   3.509   0.919   7.005
  453SOL    HW2 2259   3.361   0.891   6.941
  454SOL     OW 2260   6.879   3.241   5.857
  454SOL    HW1 2261   6.851   3.329   5.819
  454SOL    HW2 2262   6.978   3.239   5.868
  455SOL     OW 2263   5.345   5.059   6.030
  455SOL    HW1 2264   5.271   5.102   6.082
  455SOL    HW2 2265   5.423   5.041   6.090
  456SOL     OW 2266   2.855   1.128   2.336
  456SOL    HW1 2267   2.798   1.095   2.411
  456SOL    HW2 2268   2.887   1.050   2.282
  457SOL     OW 2269   2.567   6.539   6.993
  457SOL    HW1 2270   2.638   6.568   0.040
  457SOL    HW2 2271   2.544   6.614   6.932
  458SOL     OW 2272   3.605   1.129   2.546
  458SOL    HW1 2273   3.674   1.061   2.523
  458SOL    HW2 2274   3.647   1.220   2.545
  459SOL     OW 2275   3.275   0.551   3.521
  459SOL    HW1 2276   3.349   0.485   3.503
  459SOL    HW2 2277   3.199   0.533   3.459
  460SOL     OW 2278   0.771   1.713   6.543
  460SOL    HW1 2279   0.843   1.648   6.567
  460SOL    HW2 2280   0.683   1.678   6.577
  461SOL     OW 2281   1.404   5.521   5.395
  461SOL    HW1 2282   1.377   5.576   5.316
  461SOL    HW2 2283   1.382   5.425   5.378
  462SOL     OW 2284   3.571   4.161   4.814
  462SOL    HW1 2285   3.477   4.184   4.789
  462SOL    HW2 2286   3.607   4.232   4.875
  463SOL     OW 2287   5.293   6.138   4.318
  463SOL    HW1 2288   5.312   6.177   4.408
  463SOL    HW2 2289   5.277   6.211   4.252
  464SOL     OW 2290   3.675   5.007   6.317
  464SOL    HW1 2291   3.580   4.999   6.350
  464SOL    HW2 2292   3.681   4.968   6.225
  465SOL     OW 2293   0.752   4.099   0.575
  465SOL    HW1 2294   0.713   4.010   0.599
  465SOL    HW2 2295   0.793   4.093   0.483
  466SOL     OW 2296   3.964   5.125   4.168
  466SOL    HW1 2297   3.974   5.051   4.102
  466SOL    HW2 2298   4.020   5.105   4.249
  467SOL     OW 2299   6.178   0.359   2.601
  467SOL    HW1 2300   6.106   0.413   2.558
  467SOL    HW2 2301   6.153   0.339   2.696
  468SOL     OW 2302   2.650   5.802   6.445
  468SOL    HW1 2303   2.725   5.737   6.455
  468SOL    HW2 2304   2.563   5.753   6.440
  469SOL     OW 2305   2.884   4.788   4.813
  469SOL    HW1 2306   2.847   4.749   4.898
  469SOL    HW2 2307   2.820   4.770   4.738
  470SOL     OW 2308   2.163   4.697   2.564
  470SOL    HW1 2309   2.159   4.646   2.479
  470SOL    HW2 2310   2.246   4.673   2.614
  471SOL     OW 2311   1.662   2.209   4.066
  471SOL    HW1 2312   1.597   2.135   4.085
  471SOL    HW2 2313   1.636   2.255   3.982
  472SOL     OW 2314   5.113   3.462   6.720
  472SOL    HW1 2315   5.056   3.452   6.802
  472SOL    HW2 2316   5.100   3.384   6.660
  473SOL     OW 2317   6.062   3.094   2.347
  473SOL    HW1 2318   6.057   3.193   2.364
  473SOL    HW2 2319   6.147   3.073   2.298
  474SOL     OW 2320   4.688   5.671   4.284
  474SOL    HW1 2321   4.780   5.687   4.320
  474SOL    HW2 2322   4.628   5.641   4.358
  475SOL     OW 2323   5.623   1.660   0.607
  475SOL    HW1 2324   5.700   1.696   0.660
  475SOL    HW2 2325   5.539   1.707   0.635
  476SOL     OW 2326   1.365   3.954   6.973
  476SOL    HW1 2327   1.316   3.867   6.967
  476SOL    HW2 2328   1.385   3.987   6.881
  477SOL     OW 2329   1.645   4.807   3.517
  477SOL    HW1 2330   1.684   4.825   3.608
  477SOL    HW2 2331   1.633   4.894   3.468
  478SOL     OW 2332   5.222   6.120   2.882
  478SOL    HW1 2333   5.158   6.180   2.931
  478SOL    HW2 2334   5.171   6.053   2.828
  479SOL     OW 2335   3.623   4.124   3.186
  479SOL    HW1 2336   3.580   4.173   3.261
  479SOL    HW2 2337   3.568   4.135   3.103
  480SOL     OW 2338   1.251   1.148   2.762
  480SOL    HW1 2339   1.244   1.135   2.664
  480SOL    HW2 2340   1.323   1.215   2.782
  481SOL     OW 2341   6.661   0.337   0.921
  481SOL    HW1 2342   6.659   0.251   0.869
  481SOL    HW2 2343   6.737   0.335   0.985
  482SOL     OW 2344   4.396   4.845   2.407
  482SOL    HW1 2345   4.440   4.783   2.342
  482SOL    HW2 2346   4.309   4.877   2.369
  483SOL     OW 2347   5.864   2.279   4.111
  483SOL    HW1 2348   5.785   2.246   4.163
  483SOL    HW2 2349   5.856   2.249   4.016
  484SOL     OW 2350   2.501   4.683   3.647
  484SOL    HW1 2351   2.546   4.604   3.690
  484SOL    HW2 2352   2.410   4.696   3.687
  485SOL     OW 2353   5.555   2.920   1.476
  485SOL    HW1 2354   5.558   3.008   1.429
  485SOL    HW2 2355   5.464   2.881   1.469
  486SOL     OW 2356   5.779   6.467   5.807
  486SOL    HW1 2357   5.699   6.485   5.751
  486SOL    HW2 2358   5.837   6.400   5.762
  487SOL     OW 2359   0.251   0.334   6.318
  487SOL    HW1 2360   0.153   0.312   6.323
  487SOL    HW2 2361   0.288   0.303   6.230
  488SOL     OW 2362   2.395   5.586   3.284
  488SOL    HW1 2363   2.469   5.521   3.300
  488SOL    HW2 2364   2.348   5.604   3.370
  489SOL     OW 2365   1.947   5.666   5.732
  489SOL    HW1 2366   2.001   5.749   5.742
  489SOL    HW2 2367   1.992   5.604   5.667
  490SOL     OW 2368   0.915   4.029   4.651
  490SOL    HW1 2369   0.946   4.078   4.569
  490SOL    HW2 2370   0.995   3.993   4.700
  491SOL     OW 2371   6.942   2.828   0.653
  491SOL    HW1 2372   6.868   2.790   0.598
  491SOL    HW2 2373   6.995   2.892   0.598
  492SOL     OW 2374   1.280   3.092   5.268
  492SOL    HW1 2375   1.297   3.074   5.171
  492SOL    HW2 2376   1.253   3.007   5.314
  493SOL     OW 2377   1.667   5.054   4.559
  493SOL    HW1 2378   1.732   4.978   4.563
  493SOL    HW2 2379   1.717   5.141   4.560
  494SOL     OW 2380   2.428   6.413   4.172
  494SOL    HW1 2381   2.454   6.475   4.099
  494SOL    HW2 2382   2.500   6.412   4.242
  495SOL     OW 2383   3.856   4.205   6.363
  495SOL    HW1 2384   3.768   4.220   6.409
  495SOL    HW2 2385   3.842   4.206   6.264
  496SOL     OW 2386   5.008   1.391   3.371
  496SOL    HW1 2387   4.984   1.294   3.371
  496SOL    HW2 2388   5.058   1.414   3.455
  497SOL     OW 2389   4.970   1.766   6.884
  497SOL    HW1 2390   4.929   1.836   6.826
  497SOL    HW2 2391   5.037   1.808   6.945
  498SOL     OW 2392   6.985   0.490   1.515
  498SOL    HW1 2393   0.009   0.580   1.501
  498SOL    HW2 2394   6.951   0.483   1.609
  499SOL     OW 2395   2.583   5.759   0.361
  499SOL    HW1 2396   2.617   5.689   0.298
  499SOL    HW2 2397   2.525   5.716   0.430
  500SOL     OW 2398   5.377   1.886   6.421
  500SOL    HW1 2399   5.382   1.875   6.520
  500SOL    HW2 2400   5.435   1.962   6.392
  501SOL     OW 2401   1.350   0.987   4.975
  501SOL    HW1 2402   1.422   0.981   4.906
  501SOL    HW2 2403   1.388   0.966   5.065
  502SOL     OW 2404   2.407   4.358   6.967
  502SOL    HW1 2405   2.457   4.340   0.036
  502SOL    HW2 2406   2.376   4.271   6.928
  503SOL     OW 2407   3.929   5.828   0.798
  503SOL    HW1 2408   3.953   5.863   0.707
  503SOL    HW2 2409   3.920   5.728   0.793
  504SOL     OW 2410   6.390   5.935   1.534
  504SOL    HW1 2411   6.345   5.886   1.609
  504SOL    HW2 2412   6.325   6.001   1.494
  505SOL     OW 2413   5.600   5.595   5.446
  505SOL    HW1 2414   5.640   5.506   5.469
  505SOL    HW2 2415   5.648   5.633   5.367
  506SOL     OW 2416   3.412   4.935   3.328
  506SOL    HW1 2417   3.384   5.010   3.268
  506SOL    HW2 2418   3.340   4.865   3.329
  507SOL     OW 2419   3.086   1.104   1.463
  507SOL    HW1 2420   3.178   1.104   1.503
  507SOL    HW2 2421   3.094   1.105   1.363
  508SOL     OW 2422   0.223   4.668   3.307
  508SOL    HW1 2423   0.314   4.710   3.313
  508SOL    HW2 2424   0.156   4.727   3.352
  509SOL     OW 2425   4.304   6.528   6.348
  509SOL    HW1 2426   4.209   6.512   6.371
  509SOL    HW2 2427   4.328   6.623   6.370
  510SOL     OW 2428   6.470   4.112   0.132
  510SOL    HW1 2429   6.482   4.211   0.142
  510SOL    HW2 2430   6.536   4.064   0.190
  511SOL     OW 2431   0.730   1.546   0.252
  511SOL    HW1 2432   0.799   1.474   0.259
  511SOL    HW2 2433   0.758   1.624   0.309
  512SOL     OW 2434   0.519   2.512   3.826
  512SOL    HW1 2435   0.528   2.596   3.879
  512SOL    HW2 2436   0.600   2.455   3.840
  513SOL     OW 2437   4.939   0.374   3.429
  513SOL    HW1 2438   4.878   0.314   3.378
  513SOL    HW2 2439   4.903   0.467   3.431
  514SOL     OW 2440   5.524   0.922   5.433
  514SOL    HW1 2441   5.547   0.975   5.351
  514SOL    HW2 2442   5.431   0.885   5.424
  515SOL     OW 2443   3.812   0.457   6.531
  515SOL    HW1 2444   3.892   0.462   6.472
  515SOL    HW2 2445   3.837   0.419   6.620
  516SOL     OW 2446   2.211   6.299   2.376
  516SOL    HW1 2447   2.191   6.205   2.404
  516SOL    HW2 2448   2.297   6.301   2.325
  517SOL     OW 2449   3.022   5.167   1.809
  517SOL    HW1 2450   3.049   5.140   1.717
  517SOL    HW2 2451   3.082   5.240   1.841
  518SOL     OW 2452   1.652   4.594   4.239
  518SOL    HW1 2453   1.680   4.646   4.319
  518SOL    HW2 2454   1.702   4.508   4.236
  519SOL     OW 2455   0.136   6.925   2.333
  519SOL    HW1 2456   0.219   6.932   2.388
  519SOL    HW2 2457   0.131   7.003   2.271
  520SOL     OW 2458   2.396   4.224   0.601
  520SOL    HW1 2459   2.488   4.259   0.619
  520SOL    HW2 2460   2.403   4.126   0.577
  521SOL     OW 2461   6.529   6.007   4.859
  521SOL    HW1 2462   6.591   5.978   4.786
  521SOL    HW2 2463   6.555   6.099   4.889
  522SOL     OW 2464   3.778   4.371   0.497
  522SOL    HW1 2465   3.700   4.428   0.522
  522SOL    HW2 2466   3.862   4.424   0.503
  523SOL     OW 2467   0.800   0.243   0.322
  523SOL    HW1 2468   0.814   0.172   0.253
  523SOL    HW2 2469   0.764   0.201   0.406
  524SOL     OW 2470   6.633   1.680   0.589
  524SOL    HW1 2471   6.682   1.768   0.591
  524SOL    HW2 2472   6.696   1.607   0.562
  525SOL     OW 2473   0.604   3.248   3.841
  525SOL    HW1 2474   0.690   3.207   3.871
  525SOL    HW2 2475   0.622   3.338   3.802
  526SOL     OW 2476   3.836   0.236   3.882
  526SOL    HW1 2477   3.853   0.144   3.846
  526SOL    HW2 2478   3.759   0.277   3.833
  527SOL     OW 2479   0.370   1.671   0.896
  527SOL    HW1 2480   0.440   1.607   0.927
  527SOL    HW2 2481   0.359   1.661   0.797
  528SOL     OW 2482   0.072   2.620   4.473
  528SOL    HW1 2483   0.060   2.714   4.506
  528SOL    HW2 2484   7.000   2.580   4.454
  529SOL     OW 2485   1.833   0.117   6.918
  529SOL    HW1 2486   1.768   0.078   6.853
  529SOL    HW2 2487   1.894   0.045   6.951
  530SOL     OW 2488   3.655   5.236   1.149
  530SOL    HW1 2489   3.590   5.165   1.176
  530SOL    HW2 2490   3.739   5.227   1.203
  531SOL     OW 2491   1.349   6.986   0.505
  531SOL    HW1 2492   1.447   7.002   0.511
  531SOL    HW2 2493   1.316   7.011   0.414
  532SOL     OW 2494   1.724   2.181   5.752
  532SOL    HW1 2495   1.670   2.116   5.806
  532SOL    HW2 2496   1.766   2.248   5.813
  533SOL     OW 2497   3.949   0.670   4.066
  533SOL    HW1 2498   3.925   0.666   3.969
  533SOL    HW2 2499   3.947   0.765   4.097
  534SOL     OW 2500   1.503   4.181   1.840
  534SOL    HW1 2501   1.587   4.236   1.843
  534SOL    HW2 2502   1.527   4.087   1.816
  535SOL     OW 2503   4.939   3.308   4.164
  535SOL    HW1 2504   4.985   3.238   4.109
  535SOL    HW2 2505   4.905   3.266   4.248
  536SOL     OW 2506   6.186   6.842   2.045
  536SOL    HW1 2507   6.163   6.747   2.024
  536SOL    HW2 2508   6.173   6.859   2.142
  537SOL     OW 2509   3.173   1.979   2.969
  537SOL    HW1 2510   3.145   1.945   3.059
  537SOL    HW2 2511   3.211   1.904   2.915
  538SOL     OW 2512   3.461   5.016   4.906
  538SOL    HW1 2513   3.403   4.997   4.985
  538SOL    HW2 2514   3.509   5.102   4.918
  539SOL     OW 2515   1.095   0.338   6.537
  539SOL    HW1 2516   1.045   0.352   6.452
  539SOL    HW2 2517   1.188   0.374   6.528
  540SOL     OW 2518   1.563   0.732   5.098
  540SOL    HW1 2519   1.556   0.737   4.998
  540SOL    HW2 2520   1.513   0.652   5.130
  541SOL     OW 2521   5.101   5.798   4.078
  541SOL    HW1 2522   5.076   5.861   4.152
  541SOL    HW2 2523   5.078   5.704   4.105
  542SOL     OW 2524   3.759   6.591   5.426
  542SOL    HW1 2525   3.836   6.649   5.454
  542SOL    HW2 2526   3.785   6.536   5.347
  543SOL     OW 2527   6.517   2.237   3.625
  543SOL    HW1 2528   6.432   2.241   3.573
  543SOL    HW2 2529   6.591   2.278   3.572
  544SOL     OW 2530   1.308   3.402   1.586
  544SOL    HW1 2531   1.352   3.358   1.507
  544SOL    HW2 2532   1.374   3.411   1.660
  545SOL     OW 2533   6.411   6.715   1.424
  545SOL    HW1 2534   6.339   6.773   1.463
  545SOL    HW2 2535   6.425   6.635   1.482
  546SOL     OW 2536   6.984   4.304   2.346
  546SOL    HW1 2537   6.970   4.376   2.414
  546SOL    HW2 2538   0.063   4.303   2.318
  547SOL     OW 2539   5.436   0.208   6.349
  547SOL    HW1 2540   5.388   0.246   6.270
  547SOL    HW2 2541   5.370   0.166   6.411
  548SOL     OW 2542   3.943   2.330   6.846
  548SOL    HW1 2543   4.030   2.302   6.807
  548SOL    HW2 2544   3.952   2.336   6.946
  549SOL     OW 2545   5.457   1.436   1.936
  549SOL    HW1 2546   5.504   1.371   1.877
  549SOL    HW2 2547   5.499   1.526   1.926
  550SOL     OW 2548   0.308   6.050   3.347
  550SOL    HW1 2549   0.366   6.049   3.429
  550SOL    HW2 2550   0.223   6.098   3.367
  551SOL     OW 2551   6.090   0.477   0.595
  551SOL    HW1 2552   6.086   0.526   0.508
  551SOL    HW2 2553   5.998   0.448   0.622
  552SOL     OW 2554   0.672   6.188   5.496
  552SOL    HW1 2555   0.652   6.227   5.586
  552SOL    HW2 2556   0.604   6.221   5.430
  553SOL     OW 2557   3.382   1.691   7.001
  553SOL    HW1 2558   3.401   1.789   6.999
  553SOL    HW2 2559   3.438   1.644   6.933
  554SOL     OW 2560   6.256   6.207   0.912
  554SOL    HW1 2561   6.231   6.177   0.820
  554SOL    HW2 2562   6.247   6.306   0.918
  555SOL     OW 2563   1.836   3.832   5.091
  555SOL    HW1 2564   1.835   3.785   5.002
  555SOL    HW2 2565   1.808   3.768   5.162
  556SOL     OW 2566   5.834   0.088   3.644
  556SOL    HW1 2567   5.799   0.163   3.700
  556SOL    HW2 2568   5.814   0.001   3.689
  557SOL     OW 2569   6.281   4.383   6.892
  557SOL    HW1 2570   6.271   4.387   6.793
  557SOL    HW2 2571   6.371   4.346   6.915
  558SOL     OW 2572   3.281   3.633   2.430
  558SOL    HW1 2573   3.241   3.579   2.504
  558SOL    HW2 2574   3.222   3.628   2.350
  559SOL     OW 2575   6.196   7.002   5.754
  559SOL    HW1 2576   6.119   0.048   5.760
  559SOL    HW2 2577   6.230   6.999   5.660
  560SOL     OW 2578   6.557   3.083   4.213
  560SOL    HW1 2579   6.530   3.039   4.299
  560SOL    HW2 2580   6.498   3.051   4.139
  561SOL     OW 2581   0.585   2.869   0.503
  561SOL    HW1 2582   0.676   2.890   0.537
  561SOL    HW2 2583   0.574   2.907   0.411
  562SOL     OW 2584   4.152   6.808   4.896
  562SOL    HW1 2585   4.233   6.822   4.840
  562SOL    HW2 2586   4.146   6.711   4.921
  563SOL     OW 2587   1.600   0.264   3.973
  563SOL    HW1 2588   1.669   0.203   3.935
  563SOL    HW2 2589   1.515   0.213   3.990
  564SOL     OW 2590   5.927   2.009   6.324
  564SOL    HW1 2591   5.950   2.095   6.280
  564SOL    HW2 2592   5.898   2.026   6.418
  565SOL     OW 2593   3.666   3.612   3.501
  565SOL    HW1 2594   3.742   3.552   3.476
  565SOL    HW2 2595   3.701   3.690   3.553
  566SOL     OW 2596   3.053   0.943   3.788
  566SOL    HW1 2597   2.990   0.897   3.725
  566SOL    HW2 2598   3.029   1.040   3.795
  567SOL     OW 2599   2.706   2.608   5.650
  567SOL    HW1 2600   2.648   2.681   5.685
  567SOL    HW2 2601   2.741   2.633   5.559
  568SOL     OW 2602   0.583   6.327   0.077
  568SOL    HW1 2603   0.598   6.239   0.032
  568SOL    HW2 2604   0.630   6.328   0.165
  569SOL     OW 2605   6.232   4.013   0.183
  569SOL    HW1 2606   6.175   4.094   0.196
  569SOL    HW2 2607   6.325   4.041   0.160
  570SOL     OW 2608   2.774   0.387   6.051
  570SOL    HW1 2609   2.807   0.440   6.129
  570SOL    HW2 2610   2.825   0.414   5.969
  571SOL     OW 2611   1.954   4.456   1.311
  571SOL    HW1 2612   1.899   4.405   1.377
  571SOL    HW2 2613   1.979   4.397   1.235
  572SOL     OW 2614   2.789   0.439   4.638
  572SOL    HW1 2615   2.748   0.466   4.551
  572SOL    HW2 2616   2.720   0.391   4.693
  573SOL     OW 2617   0.179   1.130   5.062
  573SOL    HW1 2618   0.238   1.159   4.986
  573SOL    HW2 2619   0.108   1.068   5.027
  574SOL     OW 2620   2.093   1.572   6.077
  574SOL    HW1 2621   2.175   1.629   6.078
  574SOL    HW2 2622   2.011   1.629   6.079
  575SOL     OW 2623   3.957   3.693   6.971
  575SOL    HW1 2624   4.012   3.641   0.019
  575SOL    HW2 2625   3.867   3.712   7.010
  576SOL     OW 2626   2.155   2.411   2.310
  576SOL    HW1 2627   2.214   2.450   2.239
  576SOL    HW2 2628   2.155   2.470   2.391
  577SOL     OW 2629   0.601   0.964   1.317
  577SOL    HW1 2630   0.567   0.962   1.411
  577SOL    HW2 2631   0.549   0.899   1.262
  578SOL     OW 2632   3.172   6.958   6.508
  578SOL    HW1 2633   3.149   6.986   6.415
  578SOL    HW2 2634   3.270   6.940   6.514
  579SOL     OW 2635   1.969   3.903   1.751
  579SOL    HW1 2636   1.953   3.858   1.839
  579SOL    HW2 2637   2.066   3.925   1.742
  580SOL     OW 2638   4.774   5.690   4.771
  580SOL    HW1 2639   4.865   5.651   4.782
  580SOL    HW2 2640   4.782   5.782   4.733
  581SOL     OW 2641   2.034   2.639   5.228
  581SOL    HW1 2642   2.037   2.617   5.131
  581SOL    HW2 2643   1.978   2.571   5.276
  582SOL     OW 2644   5.019   5.096   4.270
  582SOL    HW1 2645   4.960   5.025   4.308
  582SOL    HW2 2646   4.966   5.180   4.256
  583SOL     OW 2647   3.903   6.091   5.793
  583SOL    HW1 2648   3.883   6.128   5.884
  583SOL    HW2 2649   3.878   5.994   5.791
  584SOL     OW 2650   4.240   0.869   5.415
  584SOL    HW1 2651   4.166   0.919   5.371
  584SOL    HW2 2652   4.328   0.900   5.378
  585SOL     OW 2653   3.521   0.363   1.557
  585SOL    HW1 2654   3.450   0.304   1.520
  585SOL    HW2 2655   3.610   0.320   1.546
  586SOL     OW 2656   3.703   0.755   0.590
  586SOL    HW1 2657   3.750   0.804   0.517
  586SOL    HW2 2658   3.648   0.682   0.550
  587SOL     OW 2659   5.304   2.153   1.859
  587SOL    HW1 2660   5.246   2.226   1.822
  587SOL    HW2 2661   5.264   2.119   1.945
  588SOL     OW 2662   1.984   4.749   3.149
  588SOL    HW1 2663   1.981   4.746   3.049
  588SOL    HW2 2664   2.061   4.693   3.181
  589SOL     OW 2665   3.106   5.370   0.447
  589SOL    HW1 2666   3.118   5.329   0.538
  589SOL    HW2 2667   3.068   5.462   0.457
  590SOL     OW 2668   3.658   2.201   0.385
  590SOL    HW1 2669   3.563   2.189   0.357
  590SOL    HW2 2670   3.693   2.114   0.420
  591SOL     OW 2671   3.200   5.547   3.989
  591SOL    HW1 2672   3.299   5.558   3.994
  591SOL    HW2 2673   3.174   5.521   3.896
  592SOL     OW 2674   3.618   1.656   4.855
  592SOL    HW1 2675   3.543   1.627   4.915
  592SOL    HW2 2676   3.613   1.755   4.841
  593SOL     OW 2677   2.550   1.952   0.013
  593SOL    HW1 2678   2.458   1.972   0.046
  593SOL    HW2 2679   2.616   2.005   0.065
  594SOL     OW 2680   4.836   0.898   2.607
  594SOL    HW1 2681   4.772   0.829   2.574
  594SOL    HW2 2682   4.861   0.960   2.532
  595SOL     OW 2683   5.837   5.564   2.656
  595SOL    HW1 2684   5.778   5.525   2.586
  595SOL    HW2 2685   5.780   5.606   2.728
  596SOL     OW 2686   6.242   4.567   4.420
  596SOL    HW1 2687   6.185   4.632   4.370
  596SOL    HW2 2688   6.325   4.548   4.367
  597SOL     OW 2689   3.107   1.090   6.681
  597SOL    HW1 2690   3.142   1.103   6.774
  597SOL    HW2 2691   3.021   1.039   6.684
  598SOL     OW 2692   3.540   4.138   4.185
  598SOL    HW1 2693   3.443   4.128   4.210
  598SOL    HW2 2694   3.594   4.154   4.268
  599SOL     OW 2695   1.136   5.123   1.261
  599SOL    HW1 2696   1.207   5.164   1.204
  599SOL    HW2 2697   1.145   5.023   1.259
  600SOL     OW 2698   6.598   3.492   5.182
  600SOL    HW1 2699   6.522   3.537   5.135
  600SOL    HW2 2700   6.603   3.526   5.276
  601SOL     OW 2701   1.124   6.173   5.914
  601SOL    HW1 2702   1.221   6.198   5.918
  601SOL    HW2 2703   1.105   6.131   5.825
  602SOL     OW 2704   2.314   0.255   3.273
  602SOL    HW1 2705   2.347   0.269   3.180
  602SOL    HW2 2706   2.231   0.200   3.271
  603SOL     OW 2707   1.600   1.444   4.495
  603SOL    HW1 2708   1.663   1.519   4.479
  603SOL    HW2 2709   1.562   1.413   4.408
  604SOL     OW 2710   6.090   2.722   1.189
  604SOL    HW1 2711   6.096   2.675   1.277
  604SOL    HW2 2712   6.001   2.703   1.148
  605SOL     OW 2713   6.571   6.504   1.538
  605SOL    HW1 2714   6.520   6.443   1.598
  605SOL    HW2 2715   6.571   6.468   1.445
  606SOL     OW 2716   3.654   6.821   4.652
  606SOL    HW1 2717   3.615   6.892   4.594
  606SOL    HW2 2718   3.633   6.731   4.613
  607SOL     OW 2719   1.594   3.227   5.418
  607SOL    HW1 2720   1.585   3.141   5.367
  607SOL    HW2 2721   1.685   3.233   5.458
  608SOL     OW 2722   3.174   1.012   5.665
  608SOL    HW1 2723   3.145   1.106   5.649
  608SOL    HW2 2724   3.106   0.949   5.627
  609SOL     OW 2725   3.050   2.828   1.820
  609SOL    HW1 2726   3.018   2.748   1.770
  609SOL    HW2 2727   3.007   2.911   1.782
  610SOL     OW 2728   4.487   3.412   1.695
  610SOL    HW1 2729   4.485   3.321   1.652
  610SOL    HW2 2730   4.404   3.462   1.669
  611SOL     OW 2731   3.463   0.819   3.148
  611SOL    HW1 2732   3.555   0.858   3.144
  611SOL    HW2 2733   3.468   0.722   3.170
  612SOL     OW 2734   4.379   5.017   4.530
  612SOL    HW1 2735   4.448   4.958   4.573
  612SOL    HW2 2736   4.423   5.071   4.458
  613SOL     OW 2737   4.056   4.672   5.301
  613SOL    HW1 2738   3.972   4.638   5.344
  613SOL    HW2 2739   4.044   4.768   5.277
  614SOL     OW 2740   2.610   6.094   5.874
  614SOL    HW1 2741   2.555   6.064   5.952
  614SOL    HW2 2742   2.705   6.104   5.902
  615SOL     OW 2743   1.100   5.015   2.585
  615SOL    HW1 2744   1.109   5.056   2.494
  615SOL    HW2 2745   1.033   4.941   2.581
  616SOL     OW 2746   6.050   2.818   3.509
  616SOL    HW1 2747   6.110   2.848   3.434
  616SOL    HW2 2748   6.001   2.897   3.546
  617SOL     OW 2749   2.907   6.355   5.846
  617SOL    HW1 2750   2.922   6.381   5.941
  617SOL    HW2 2751   2.809   6.345   5.828
  618SOL     OW 2752   1.806   1.273   2.364
  618SOL    HW1 2753   1.769   1.329   2.439
  618SOL    HW2 2754   1.897   1.241   2.389
  619SOL     OW 2755   0.416   1.517   6.921
  619SOL    HW1 2756   0.420   1.467   6.834
  619SOL    HW2 2757   0.504   1.559   6.940
  620SOL     OW 2758   4.503   3.478   1.327
  620SOL    HW1 2759   4.537   3.537   1.254
  620SOL    HW2 2760   4.516   3.523   1.415
  621SOL     OW 2761   0.505   5.320   1.147
  621SOL    HW1 2762   0.446   5.394   1.180
  621SOL    HW2 2763   0.494   5.310   1.048
  622SOL     OW 2764   0.783   0.809   6.476
  622SOL    HW1 2765   0.838   0.725   6.471
  622SOL    HW2 2766   0.815   0.866   6.551
  623SOL     OW 2767   0.538   4.755   5.764
  623SOL    HW1 2768   0.512   4.778   5.858
  623SOL    HW2 2769   0.632   4.721   5.762
  624SOL     OW 2770   0.699   1.774   1.439
  624SOL    HW1 2771   0.761   1.852   1.445
  624SOL    HW2 2772   0.641   1.783   1.359
  625SOL     OW 2773   1.537   1.284   2.235
  625SOL    HW1 2774   1.630   1.292   2.271
  625SOL    HW2 2775   1.498   1.375   2.223
  626SOL     OW 2776   3.255   0.016   4.478
  626SOL    HW1 2777   3.218   6.960   4.420
  626SOL    HW2 2778   3.319   6.995   4.544
  627SOL     OW 2779   5.057   0.901   0.033
  627SOL    HW1 2780   5.103   0.902   0.122
  627SOL    HW2 2781   5.122   0.922   6.978
  628SOL     OW 2782   5.382   4.106   3.387
  628SOL    HW1 2783   5.390   4.072   3.294
  628SOL    HW2 2784   5.291   4.082   3.423
  629SOL     OW 2785   1.666   6.615   0.419
  629SOL    HW1 2786   1.583   6.669   0.430
  629SOL    HW2 2787   1.683   6.563   0.503
  630SOL     OW 2788   3.013   1.703   1.680
  630SOL    HW1 2789   2.947   1.630   1.701
  630SOL    HW2 2790   2.988   1.785   1.731
  631SOL     OW 2791   1.984   6.739   4.718
  631SOL    HW1 2792   1.950   6.780   4.803
  631SOL    HW2 2793   1.912   6.684   4.677
  632SOL     OW 2794   1.849   0.675   1.456
  632SOL    HW1 2795   1.831   0.760   1.505
  632SOL    HW2 2796   1.778   0.661   1.387
  633SOL     OW 2797   2.138   6.730   5.725
  633SOL    HW1 2798   2.127   6.638   5.762
  633SOL    HW2 2799   2.050   6.763   5.692
  634SOL     OW 2800   3.257   5.881   1.264
  634SOL    HW1 2801   3.217   5.872   1.356
  634SOL    HW2 2802   3.185   5.878   1.196
  635SOL     OW 2803   2.757   0.601   2.430
  635SOL    HW1 2804   2.688   0.590   2.501
  635SOL    HW2 2805   2.833   0.657   2.465
  636SOL     OW 2806   5.148   5.430   0.237
  636SOL    HW1 2807   5.195   5.432   0.325
  636SOL    HW2 2808   5.191   5.494   0.174
  637SOL     OW 2809   5.453   4.707   0.907
  637SOL    HW1 2810   5.544   4.732   0.939
  637SOL    HW2 2811   5.420   4.628   0.959
  638SOL     OW 2812   5.366   1.181   2.276
  638SOL    HW1 2813   5.401   1.088   2.291
  638SOL    HW2 2814   5.435   1.235   2.228
  639SOL     OW 2815   4.674   4.486   2.532
  639SOL    HW1 2816   4.658   4.452   2.439
  639SOL    HW2 2817   4.599   4.458   2.591
  640SOL     OW 2818   2.337   4.283   5.861
  640SOL    HW1 2819   2.422   4.286   5.912
  640SOL    HW2 2820   2.356   4.281   5.763
  641SOL     OW 2821   0.391   5.672   5.509
  641SOL    HW1 2822   0.345   5.586   5.492
  641SOL    HW2 2823   0.490   5.660   5.501
  642SOL     OW 2824   1.484   4.353   5.927
  642SOL    HW1 2825   1.474   4.299   5.843
  642SOL    HW2 2826   1.394   4.366   5.969
  643SOL     OW 2827   5.841   6.174   4.913
  643SOL    HW1 2828   5.777   6.231   4.965
  643SOL    HW2 2829   5.795   6.138   4.832
  644SOL     OW 2830   2.611   6.143   2.285
  644SOL    HW1 2831   2.590   6.067   2.223
  644SOL    HW2 2832   2.678   6.113   2.352
  645SOL     OW 2833   5.762   2.820   3.779
  645SOL    HW1 2834   5.835   2.888   3.775
  645SOL    HW2 2835   5.676   2.862   3.751
  646SOL     OW 2836   1.296   1.949   4.887
  646SOL    HW1 2837   1.239   2.030   4.878
  646SOL    HW2 2838   1.328   1.921   4.796
  647SOL     OW 2839   4.887   3.224   0.425
  647SOL    HW1 2840   4.788   3.209   0.433
  647SOL    HW2 2841   4.907   3.271   0.340
  648SOL     OW 2842   4.885   2.201   3.536
  648SOL    HW1 2843   4.936   2.251   3.467
  648SOL    HW2 2844   4.944   2.132   3.579
  649SOL     OW 2845   4.394   4.587   2.028
  649SOL    HW1 2846   4.465   4.551   1.967
  649SOL    HW2 2847   4.305   4.580   1.982
  650SOL     OW 2848   4.629   3.608   1.112
  650SOL    HW1 2849   4.589   3.698   1.130
  650SOL    HW2 2850   4.682   3.611   1.027
  651SOL     OW 2851   1.156   5.735   6.113
  651SOL    HW1 2852   1.094   5.699   6.183
  651SOL    HW2 2853   1.222   5.664   6.088
  652SOL     OW 2854   4.702   1.567   2.738
  652SOL    HW1 2855   4.740   1.641   2.683
  652SOL    HW2 2856   4.631   1.604   2.799
  653SOL     OW 2857   3.952   5.012   3.472
  653SOL    HW1 2858   3.934   4.957   3.554
  653SOL    HW2 2859   4.036   5.064   3.484
  654SOL     OW 2860   6.750   5.382   0.233
  654SOL    HW1 2861   6.837   5.416   0.197
  654SOL    HW2 2862   6.710   5.316   0.169
  655SOL     OW 2863   6.956   1.178   6.835
  655SOL    HW1 2864   6.918   1.153   6.746
  655SOL    HW2 2865   0.016   1.117   6.857
  656SOL     OW 2866   2.483   6.161   1.746
  656SOL    HW1 2867   2.510   6.065   1.737
  656SOL    HW2 2868   2.559   6.220   1.717
  657SOL     OW 2869   4.241   1.212   6.460
  657SOL    HW1 2870   4.238   1.296   6.515
  657SOL    HW2 2871   4.149   1.174   6.452
  658SOL     OW 2872   3.526   5.066   5.721
  658SOL    HW1 2873   3.594   5.058   5.649
  658SOL    HW2 2874   3.512   4.978   5.765
  659SOL     OW 2875   2.686   0.504   6.765
  659SOL    HW1 2876   2.733   0.591   6.750
  659SOL    HW2 2877   2.704   0.442   6.688
  660SOL     OW 2878   3.626   5.501   3.318
  660SOL    HW1 2879   3.637   5.402   3.333
  660SOL    HW2 2880   3.685   5.551   3.381
  661SOL     OW 2881   5.463   5.836   3.185
  661SOL    HW1 2882   5.433   5.930   3.170
  661SOL    HW2 2883   5.538   5.814   3.123
  662SOL     OW 2884   3.566   1.318   0.532
  662SOL    HW1 2885   3.516   1.264   0.599
  662SOL    HW2 2886   3.650   1.270   0.507
  663SOL     OW 2887   2.131   4.713   4.872
  663SOL    HW1 2888   2.083   4.753   4.950
  663SOL    HW2 2889   2.110   4.616   4.865
  664SOL     OW 2890   5.996   1.337   6.363
  664SOL    HW1 2891   5.955   1.258   6.318
  664SOL    HW2 2892   6.095   1.338   6.344
  665SOL     OW 2893   1.661   4.816   2.141
  665SOL    HW1 2894   1.659   4.912   2.170
  665SOL    HW2 2895   1.621   4.808   2.050
  666SOL     OW 2896   4.049   1.231   1.246
  666SOL    HW1 2897   4.047   1.323   1.206
  666SOL    HW2 2898   4.135   1.186   1.221
  667SOL     OW 2899   0.964   6.479   2.374
  667SOL    HW1 2900   0.868   6.451   2.369
  667SOL    HW2 2901   0.976   6.564   2.324
  668SOL     OW 2902   5.302   3.863   0.781
  668SOL    HW1 2903   5.361   3.820   0.712
  668SOL    HW2 2904   5.340   3.845   0.872
  669SOL     OW 2905   5.190   1.408   2.242
  669SOL    HW1 2906   5.228   1.318   2.263
  669SOL    HW2 2907   5.228   1.476   2.305
  670SOL     OW 2908   2.970   2.152   2.919
  670SOL    HW1 2909   3.029   2.071   2.918
  670SOL    HW2 2910   2.906   2.147   2.842
  671SOL     OW 2911   3.064   0.148   1.654
  671SOL    HW1 2912   3.081   0.226   1.715
  671SOL    HW2 2913   2.967   0.141   1.635
  672SOL     OW 2914   1.453   6.924   2.421
  672SOL    HW1 2915   1.546   6.937   2.455
  672SOL    HW2 2916   1.435   6.989   2.347
  673SOL     OW 2917   5.620   6.481   0.578
  673SOL    HW1 2918   5.707   6.448   0.539
  673SOL    HW2 2919   5.620   6.466   0.677
  674SOL     OW 2920   6.198   0.857   3.892
  674SOL    HW1 2921   6.205   0.849   3.792
  674SOL    HW2 2922   6.259   0.791   3.935
  675SOL     OW 2923   0.310   3.516   2.977
  675SOL    HW1 2924   0.220   3.474   2.989
  675SOL    HW2 2925   0.322   3.539   2.880
  676SOL     OW 2926   2.476   6.609   5.941
  676SOL    HW1 2927   2.447   6.657   5.859
  676SOL    HW2 2928   2.526   6.527   5.916
  677SOL     OW 2929   5.501   1.589   1.374
  677SOL    HW1 2930   5.542   1.540   1.451
  677SOL    HW2 2931   5.521   1.540   1.289
  678SOL     OW 2932   1.050   5.100   3.761
  678SOL    HW1 2933   1.048   5.200   3.757
  678SOL    HW2 2934   1.057   5.063   3.668
  679SOL     OW 2935   4.739   2.041   5.190
  679SOL    HW1 2936   4.689   1.956   5.181
  679SOL    HW2 2937   4.687   2.105   5.247
  680SOL     OW 2938   6.058   6.548   4.269
  680SOL    HW1 2939   5.998   6.498   4.332
  680SOL    HW2 2940   6.149   6.558   4.311
  681SOL     OW 2941   4.719   5.215   2.663
  681SOL    HW1 2942   4.647   5.204   2.595
  681SOL    HW2 2943   4.787   5.143   2.651
  682SOL     OW 2944   0.520   1.015   3.248
  682SOL    HW1 2945   0.523   0.971   3.337
  682SOL    HW2 2946   0.612   1.048   3.225
  683SOL     OW 2947   3.618   3.829   1.373
  683SOL    HW1 2948   3.645   3.831   1.469
  683SOL    HW2 2949   3.570   3.913   1.350
  684SOL     OW 2950   6.418   1.531   6.140
  684SOL    HW1 2951   6.472   1.596   6.193
  684SOL    HW2 2952   6.322   1.534   6.170
  685SOL     OW 2953   3.220   0.450   3.021
  685SOL    HW1 2954   3.130   0.424   3.057
  685SOL    HW2 2955   3.270   0.367   2.995
  686SOL     OW 2956   4.135   0.065   4.806
  686SOL    HW1 2957   4.087   0.053   4.719
  686SOL    HW2 2958   4.151   6.993   4.847
  687SOL     OW 2959   0.908   1.772   3.460
  687SOL    HW1 2960   1.002   1.760   3.491
  687SOL    HW2 2961   0.896   1.865   3.425
  688SOL     OW 2962   6.474   1.581   6.630
  688SOL    HW1 2963   6.503   1.500   6.682
  688SOL    HW2 2964   6.499   1.664   6.680
  689SOL     OW 2965   1.742   5.746   5.551
  689SOL    HW1 2966   1.731   5.843   5.571
  689SOL    HW2 2967   1.804   5.705   5.617
  690SOL     OW 2968   5.481   3.481   2.496
  690SOL    HW1 2969   5.519   3.390   2.513
  690SOL    HW2 2970   5.500   3.509   2.402
  691SOL     OW 2971   5.686   1.718   0.944
  691SOL    HW1 2972   5.781   1.746   0.954
  691SOL    HW2 2973   5.635   1.742   1.026
  692SOL     OW 2974   1.806   0.158   4.762
  692SOL    HW1 2975   1.798   0.203   4.851
  692SOL    HW2 2976   1.747   0.205   4.696
  693SOL     OW 2977   5.472   5.864   3.718
  693SOL    HW1 2978   5.465   5.783   3.660
  693SOL    HW2 2979   5.400   5.862   3.787
  694SOL     OW 2980   4.913   6.485   5.058
  694SOL    HW1 2981   4.910   6.580   5.088
  694SOL    HW2 2982   4.900   6.480   4.959
  695SOL     OW 2983   4.102   0.219   4.049
  695SOL    HW1 2984   4.057   0.179   3.969
  695SOL    HW2 2985   4.142   0.307   4.025
  696SOL     OW 2986   5.334   4.042   3.052
  696SOL    HW1 2987   5.412   3.997   3.007
  696SOL    HW2 2988   5.351   4.140   3.056
  697SOL     OW 2989   1.064   6.319   2.176
  697SOL    HW1 2990   1.154   6.285   2.203
  697SOL    HW2 2991   1.026   6.375   2.251
  698SOL     OW 2992   5.595   6.757   0.038
  698SOL    HW1 2993   5.571   6.826   6.987
  698SOL    HW2 2994   5.694   6.751   0.045
  699SOL     OW 2995   3.343   2.841   1.319
  699SOL    HW1 2996   3.328   2.887   1.232
  699SOL    HW2 2997   3.409   2.892   1.373
  700SOL     OW 2998   3.847   0.392   4.214
  700SOL    HW1 2999   3.945   0.381   4.230
  700SOL    HW2 3000   3.829   0.392   4.115
  701SOL     OW 3001   4.552   5.163   1.586
  701SOL    HW1 3002   4.494   5.146   1.666
  701SOL    HW2 3003   4.580   5.259   1.586
  702SOL     OW 3004   3.462   0.819   4.476
  702SOL    HW1 3005   3.478   0.874   4.558
  702SOL    HW2 3006   3.441   0.725   4.503
  703SOL     OW 3007   3.638   2.215   0.064
  703SOL    HW1 3008   3.710   2.260   0.117
  703SOL    HW2 3009   3.554   2.269   0.068
  704SOL     OW 3010   2.040   2.264   5.463
  704SOL    HW1 3011   2.033   2.277   5.562
  704SOL    HW2 3012   1.992   2.339   5.416
  705SOL     OW 3013   0.249   6.566   5.222
  705SOL    HW1 3014   0.310   6.491   5.195
  705SOL    HW2 3015   0.275   6.649   5.174
  706SOL     OW 3016   4.669   1.222   5.338
  706SOL    HW1 3017   4.729   1.185   5.267
  706SOL    HW2 3018   4.724   1.255   5.414
  707SOL     OW 3019   3.130   5.279   4.259
  707SOL    HW1 3020   3.223   5.245   4.274
  707SOL    HW2 3021   3.095   5.318   4.344
  708SOL     OW 3022   4.492   6.176   3.944
  708SOL    HW1 3023   4.459   6.102   3.885
  708SOL    HW2 3024   4.414   6.228   3.978
  709SOL     OW 3025   2.139   0.201   1.257
  709SOL    HW1 3026   2.048   0.206   1.298
  709SOL    HW2 3027   2.188   0.121   1.293
  710SOL     OW 3028   4.700   2.991   1.622
  710SOL    HW1 3029   4.634   3.006   1.695
  710SOL    HW2 3030   4.789   2.966   1.661
  711SOL     OW 3031   6.947   2.376   6.699
  711SOL    HW1 3032   6.886   2.385   6.621
  711SOL    HW2 3033   6.985   2.466   6.722
  712SOL     OW 3034   5.218   4.138   0.646
  712SOL    HW1 3035   5.158   4.061   0.666
  712SOL    HW2 3036   5.224   4.151   0.547
  713SOL     OW 3037   3.894   3.203   4.921
  713SOL    HW1 3038   3.939   3.146   4.851
  713SOL    HW2 3039   3.816   3.154   4.959
  714SOL     OW 3040   5.135   5.750   2.987
  714SOL    HW1 3041   5.138   5.653   2.961
  714SOL    HW2 3042   5.170   5.806   2.912
  715SOL     OW 3043   6.444   4.927   5.465
  715SOL    HW1 3044   6.381   4.854   5.492
  715SOL    HW2 3045   6.538   4.892   5.464
  716SOL     OW 3046   1.296   2.220   2.994
  716SOL    HW1 3047   1.201   2.229   2.965
  716SOL    HW2 3048   1.356   2.263   2.926
  717SOL     OW 3049   5.456   4.637   4.129
  717SOL    HW1 3050   5.393   4.559   4.132
  717SOL    HW2 3051   5.537   4.615   4.183
  718SOL     OW 3052   5.590   2.328   5.056
  718SOL    HW1 3053   5.624   2.268   5.127
  718SOL    HW2 3054   5.491   2.342   5.069
  719SOL     OW 3055   5.228   6.707   3.952
  719SOL    HW1 3056   5.172   6.626   3.968
  719SOL    HW2 3057   5.186   6.786   3.997
  720SOL     OW 3058   2.202   1.245   0.702
  720SOL    HW1 3059   2.171   1.228   0.796
  720SOL    HW2 3060   2.297   1.277   0.703
  721SOL     OW 3061   0.089   1.721   2.797
  721SOL    HW1 3062   0.099   1.627   2.827
  721SOL    HW2 3063   0.008   1.762   2.838
  722SOL     OW 3064   5.098   6.735   0.561
  722SOL    HW1 3065   5.096   6.832   0.588
  722SOL    HW2 3066   5.183   6.717   0.512
  723SOL     OW 3067   2.472   6.140   4.058
  723SOL    HW1 3068   2.540   6.212   4.040
  723SOL    HW2 3069   2.383   6.182   4.077
  724SOL     OW 3070   1.246   1.639   3.949
  724SOL    HW1 3071   1.339   1.614   3.922
  724SOL    HW2 3072   1.238   1.739   3.952
  725SOL     OW 3073   1.371   4.035   2.932
  725SOL    HW1 3074   1.280   4.076   2.935
  725SOL    HW2 3075   1.438   4.099   2.972
  726SOL     OW 3076   1.434   3.873   0.968
  726SOL    HW1 3077   1.459   3.820   1.049
  726SOL    HW2 3078   1.511   3.875   0.904
  727SOL     OW 3079   3.744   5.462   5.021
  727SOL    HW1 3080   3.689   5.535   5.062
  727SOL    HW2 3081   3.687   5.409   4.958
  728SOL     OW 3082   6.559   3.104   3.636
  728SOL    HW1 3083   6.498   3.028   3.656
  728SOL    HW2 3084   6.590   3.145   3.722
  729SOL     OW 3085   0.345   4.224   0.735
  729SOL    HW1 3086   0.319   4.227   0.639
  729SOL    HW2 3087   0.425   4.282   0.751
  730SOL     OW 3088   3.832   0.540   3.187
  730SOL    HW1 3089   3.763   0.510   3.122
  730SOL    HW2 3090   3.791   0.550   3.277
  731SOL     OW 3091   4.706   5.060   5.492
  731SOL    HW1 3092   4.643   5.059   5.415
  731SOL    HW2 3093   4.799   5.074   5.458
  732SOL     OW 3094   3.623   1.793   5.565
  732SOL    HW1 3095   3.567   1.722   5.610
  732SOL    HW2 3096   3.562   1.858   5.519
  733SOL     OW 3097   6.025   5.709   3.028
  733SOL    HW1 3098   6.048   5.613   3.037
  733SOL    HW2 3099   6.106   5.761   3.001
  734SOL     OW 3100   6.496   6.674   2.483
  734SOL    HW1 3101   6.475   6.578   2.466
  734SOL    HW2 3102   6.493   6.692   2.581
  735SOL     OW 3103   4.522   0.095   2.353
  735SOL    HW1 3104   4.567   0.038   2.285
  735SOL    HW2 3105   4.555   0.072   2.444
  736SOL     OW 3106   2.139   1.321   3.743
  736SOL    HW1 3107   2.195   1.240   3.727
  736SOL    HW2 3108   2.127   1.334   3.841
  737SOL     OW 3109   3.942   0.528   5.987
  737SOL    HW1 3110   3.948   0.430   6.007
  737SOL    HW2 3111   4.024   0.575   6.020
  738SOL     OW 3112   1.736   4.361   0.299
  738SOL    HW1 3113   1.800   4.389   0.227
  738SOL    HW2 3114   1.787   4.326   0.377
  739SOL     OW 3115   3.102   6.857   4.328
  739SOL    HW1 3116   3.052   6.907   4.257
  739SOL    HW2 3117   3.079   6.760   4.322
  740SOL     OW 3118   4.932   3.188   2.700
  740SOL    HW1 3119   4.872   3.109   2.712
  740SOL    HW2 3120   5.017   3.174   2.751
  741SOL     OW 3121   2.605   0.921   3.131
  741SOL    HW1 3122   2.570   0.943   3.040
  741SOL    HW2 3123   2.555   0.974   3.200
  742SOL     OW 3124   2.280   6.784   1.884
  742SOL    HW1 3125   2.251   6.688   1.885
  742SOL    HW2 3126   2.370   6.792   1.925
  743SOL     OW 3127   0.667   6.681   3.182
  743SOL    HW1 3128   0.657   6.636   3.271
  743SOL    HW2 3129   0.765   6.691   3.162
  744SOL     OW 3130   5.235   1.573   0.434
  744SOL    HW1 3131   5.147   1.525   0.438
  744SOL    HW2 3132   5.294   1.529   0.366
  745SOL     OW 3133   2.078   0.041   4.470
  745SOL    HW1 3134   2.062   0.133   4.433
  745SOL    HW2 3135   2.084   0.046   4.570
  746SOL     OW 3136   6.729   4.810   6.049
  746SOL    HW1 3137   6.712   4.909   6.051
  746SOL    HW2 3138   6.714   4.775   5.957
  747SOL     OW 3139   4.967   5.633   2.762
  747SOL    HW1 3140   4.999   5.593   2.848
  747SOL    HW2 3141   4.891   5.579   2.726
  748SOL     OW 3142   5.067   5.124   1.836
  748SOL    HW1 3143   5.081   5.222   1.821
  748SOL    HW2 3144   4.969   5.104   1.831
  749SOL     OW 3145   4.894   3.870   4.295
  749SOL    HW1 3146   4.932   3.908   4.210
  749SOL    HW2 3147   4.884   3.771   4.286
  750SOL     OW 3148   2.304   2.013   2.570
  750SOL    HW1 3149   2.321   1.979   2.477
  750SOL    HW2 3150   2.307   1.936   2.634
  751SOL     OW 3151   3.819   0.370   0.707
  751SOL    HW1 3152   3.873   0.449   0.677
  751SOL    HW2 3153   3.774   0.328   0.627
  752SOL     OW 3154   3.570   2.586   5.428
  752SOL    HW1 3155   3.512   2.539   5.495
  752SOL    HW2 3156   3.649   2.528   5.406
  753SOL     OW 3157   3.881   4.050   4.601
  753SOL    HW1 3158   3.916   4.027   4.510
  753SOL    HW2 3159   3.957   4.066   4.663
  754SOL     OW 3160   5.785   0.560   0.243
  754SOL    HW1 3161   5.779   0.659   0.260
  754SOL    HW2 3162   5.867   0.524   0.288
  755SOL     OW 3163   4.194   4.227   5.327
  755SOL    HW1 3164   4.238   4.296   5.270
  755SOL    HW2 3165   4.108   4.263   5.364
  756SOL     OW 3166   2.534   5.580   6.179
  756SOL    HW1 3167   2.527   5.641   6.099
  756SOL    HW2 3168   2.474   5.501   6.166
  757SOL     OW 3169   2.989   6.057   2.181
  757SOL    HW1 3170   2.993   5.994   2.258
  757SOL    HW2 3171   2.974   6.005   2.097
  758SOL     OW 3172   4.559   0.822   4.293
  758SOL    HW1 3173   4.469   0.848   4.329
  758SOL    HW2 3174   4.595   0.897   4.237
  759SOL     OW 3175   0.678   2.990   3.582
  759SOL    HW1 3176   0.724   3.056   3.641
  759SOL    HW2 3177   0.580   3.005   3.585
  760SOL     OW 3178   6.152   5.409   3.047
  760SOL    HW1 3179   6.153   5.434   3.144
  760SOL    HW2 3180   6.240   5.433   3.006
  761SOL     OW 3181   3.938   4.106   6.086
  761SOL    HW1 3182   3.841   4.088   6.069
  761SOL    HW2 3183   3.982   4.022   6.118
  762SOL     OW 3184   3.139   5.441   3.752
  762SOL    HW1 3185   3.178   5.356   3.716
  762SOL    HW2 3186   3.046   5.453   3.716
  763SOL     OW 3187   5.469   0.816   0.538
  763SOL    HW1 3188   5.396   0.856   0.594
  763SOL    HW2 3189   5.533   0.888   0.511
  764SOL     OW 3190   5.578   6.904   5.972
  764SOL    HW1 3191   5.531   6.819   5.996
  764SOL    HW2 3192   5.522   6.957   5.908
  765SOL     OW 3193   6.697   6.923   0.678
  765SOL    HW1 3194   6.636   6.872   0.739
  765SOL    HW2 3195   6.645   6.955   0.599
  766SOL     OW 3196   2.596   2.188   4.863
  766SOL    HW1 3197   2.498   2.182   4.883
  766SOL    HW2 3198   2.646   2.203   4.948
  767SOL     OW 3199   6.429   5.211   4.802
  767SOL    HW1 3200   6.476   5.239   4.718
  767SOL    HW2 3201   6.333   5.237   4.797
  768SOL     OW 3202   2.092   5.428   2.785
  768SOL    HW1 3203   2.054   5.342   2.751
  768SOL    HW2 3204   2.020   5.497   2.787
  769SOL     OW 3205   2.312   2.126   4.965
  769SOL    HW1 3206   2.234   2.188   4.966
  769SOL    HW2 3207   2.377   2.152   5.037
  770SOL     OW 3208   1.252   4.550   5.843
  770SOL    HW1 3209   1.257   4.595   5.754
  770SOL    HW2 3210   1.232   4.618   5.914
  771SOL     OW 3211   1.581   5.066   2.559
  771SOL    HW1 3212   1.514   5.072   2.485
  771SOL    HW2 3213   1.540   5.022   2.639
  772SOL     OW 3214   5.676   4.392   0.705
  772SOL    HW1 3215   5.692   4.485   0.740
  772SOL    HW2 3216   5.762   4.341   0.706
  773SOL     OW 3217   1.484   3.837   3.499
  773SOL    HW1 3218   1.577   3.873   3.504
  773SOL    HW2 3219   1.419   3.913   3.503
  774SOL     OW 3220   2.677   0.401   3.268
  774SOL    HW1 3221   2.597   0.462   3.267
  774SOL    HW2 3222   2.697   0.372   3.175
  775SOL     OW 3223   1.154   4.057   2.341
  775SOL    HW1 3224   1.206   4.141   2.357
  775SOL    HW2 3225   1.073   4.057   2.400
  776SOL     OW 3226   2.798   5.506   6.258
  776SOL    HW1 3227   2.704   5.514   6.227
  776SOL    HW2 3228   2.858   5.560   6.198
  777SOL     OW 3229   2.290   3.994   6.502
  777SOL    HW1 3230   2.213   3.962   6.558
  777SOL    HW2 3231   2.335   3.917   6.458
  778SOL     OW 3232   2.690   6.062   6.908
  778SOL    HW1 3233   2.595   6.096   6.910
  778SOL    HW2 3234   2.742   6.107   6.980
  779SOL     OW 3235   6.916   2.496   3.302
  779SOL    HW1 3236   6.992   2.526   3.360
  779SOL    HW2 3237   6.951   2.439   3.228
  780SOL     OW 3238   0.323   2.299   4.267
  780SOL    HW1 3239   0.302   2.368   4.337
  780SOL    HW2 3240   0.315   2.341   4.177
  781SOL     OW 3241   0.262   4.481   0.051
  781SOL    HW1 3242   0.227   4.558   0.104
  781SOL    HW2 3243   0.246   4.396   0.102
  782SOL     OW 3244   1.908   3.425   4.673
  782SOL    HW1 3245   1.975   3.359   4.710
  782SOL    HW2 3246   1.835   3.375   4.627
  783SOL     OW 3247   6.601   4.909   6.659
  783SOL    HW1 3248   6.527   4.851   6.694
  783SOL    HW2 3249   6.680   4.902   6.720
  784SOL     OW 3250   2.361   5.817   1.124
  784SOL    HW1 3251   2.390   5.725   1.151
  784SOL    HW2 3252   2.401   5.884   1.186
  785SOL     OW 3253   0.975   0.460   3.919
  785SOL    HW1 3254   1.071   0.439   3.940
  785SOL    HW2 3255   0.933   0.380   3.877
  786SOL     OW 3256   6.095   1.059   4.038
  786SOL    HW1 3257   6.166   1.125   4.060
  786SOL    HW2 3258   6.126   1.000   3.964
  787SOL     OW 3259   2.024   0.009   0.734
  787SOL    HW1 3260   2.081   0.059   0.799
  787SOL    HW2 3261   2.067   0.012   0.644
  788SOL     OW 3262   2.153   2.334   1.705
  788SOL    HW1 3263   2.071   2.390   1.719
  788SOL    HW2 3264   2.129   2.253   1.652
  789SOL     OW 3265   4.648   4.760   2.602
  789SOL    HW1 3266   4.643   4.670   2.560
  789SOL    HW2 3267   4.741   4.776   2.635
  790SOL     OW 3268   0.971   2.406   2.548
  790SOL    HW1 3269   1.028   2.361   2.479
  790SOL    HW2 3270   0.892   2.448   2.503
  791SOL     OW 3271   3.109   5.790   4.053
  791SOL    HW1 3272   3.018   5.766   4.086
  791SOL    HW2 3273   3.161   5.706   4.033
  792SOL     OW 3274   1.613   0.388   0.186
  792SOL    HW1 3275   1.514   0.388   0.195
  792SOL    HW2 3276   1.640   0.453   0.115
  793SOL     OW 3277   2.983   6.016   3.974
  793SOL    HW1 3278   3.024   6.056   3.892
  793SOL    HW2 3279   3.043   5.945   4.010
  794SOL     OW 3280   3.823   3.350   2.392
  794SOL    HW1 3281   3.725   3.368   2.400
  794SOL    HW2 3282   3.837   3.254   2.366
  795SOL     OW 3283   3.688   0.439   6.216
  795SOL    HW1 3284   3.635   0.492   6.283
  795SOL    HW2 3285   3.781   0.426   6.249
  796SOL     OW 3286   0.726   2.781   0.821
  796SOL    HW1 3287   0.710   2.710   0.890
  796SOL    HW2 3288   0.645   2.838   0.813
  797SOL     OW 3289   4.638   0.444   0.787
  797SOL    HW1 3290   4.687   0.357   0.792
  797SOL    HW2 3291   4.581   0.445   0.705
  798SOL     OW 3292   4.828   6.607   1.040
  798SOL    HW1 3293   4.777   6.528   1.006
  798SOL    HW2 3294   4.797   6.631   1.132
  799SOL     OW 3295   2.451   1.973   5.462
  799SOL    HW1 3296   2.438   2.006   5.555
  799SOL    HW2 3297   2.433   2.047   5.397
  800SOL     OW 3298   6.042   3.193   2.766
  800SOL    HW1 3299   6.052   3.293   2.761
  800SOL    HW2 3300   6.089   3.159   2.847
  801SOL     OW 3301   2.249   5.834   6.002
  801SOL    HW1 3302   2.220   5.865   5.912
  801SOL    HW2 3303   2.168   5.805   6.054
  802SOL     OW 3304   5.429   2.247   0.015
  802SOL    HW1 3305   5.335   2.238   6.998
  802SOL    HW2 3306   5.453   2.166   0.068
  803SOL     OW 3307   2.466   1.440   4.860
  803SOL    HW1 3308   2.520   1.424   4.777
  803SOL    HW2 3309   2.397   1.368   4.869
  804SOL     OW 3310   5.175   0.211   2.968
  804SOL    HW1 3311   5.213   0.282   2.908
  804SOL    HW2 3312   5.080   0.233   2.990
  805SOL     OW 3313   3.371   1.154   4.052
  805SOL    HW1 3314   3.281   1.174   4.091
  805SOL    HW2 3315   3.411   1.076   4.100
  806SOL     OW 3316   2.336   6.154   5.237
  806SOL    HW1 3317   2.301   6.234   5.189
  806SOL    HW2 3318   2.433   6.167   5.258
  807SOL     OW 3319   1.462   6.130   6.190
  807SOL    HW1 3320   1.441   6.194   6.115
  807SOL    HW2 3321   1.461   6.036   6.155
  808SOL     OW 3322   5.222   2.799   6.106
  808SOL    HW1 3323   5.287   2.828   6.036
  808SOL    HW2 3324   5.243   2.706   6.134
  809SOL     OW 3325   2.126   4.894   0.051
  809SOL    HW1 3326   2.122   4.994   0.053
  809SOL    HW2 3327   2.050   4.857   0.105
  810SOL     OW 3328   3.610   3.100   6.854
  810SOL    HW1 3329   3.615   3.092   6.754
  810SOL    HW2 3330   3.532   3.158   6.879
  811SOL     OW 3331   6.124   4.968   4.705
  811SOL    HW1 3332   6.184   4.895   4.672
  811SOL    HW2 3333   6.172   5.055   4.699
  812SOL     OW 3334   0.413   3.467   1.984
  812SOL    HW1 3335   0.461   3.497   2.067
  812SOL    HW2 3336   0.464   3.393   1.941
  813SOL     OW 3337   1.693   2.094   5.160
  813SOL    HW1 3338   1.671   2.164   5.229
  813SOL    HW2 3339   1.609   2.047   5.133
  814SOL     OW 3340   0.789   5.201   2.762
  814SOL    HW1 3341   0.781   5.102   2.753
  814SOL    HW2 3342   0.717   5.245   2.707
  815SOL     OW 3343   4.515   1.814   4.824
  815SOL    HW1 3344   4.469   1.892   4.868
  815SOL    HW2 3345   4.448   1.760   4.773
  816SOL     OW 3346   6.158   4.831   6.791
  816SOL    HW1 3347   6.101   4.768   6.843
  816SOL    HW2 3348   6.108   4.863   6.710
  817SOL     OW 3349   0.654   4.521   0.031
  817SOL    HW1 3350   0.611   4.467   0.103
  817SOL    HW2 3351   0.752   4.527   0.047
  818SOL     OW 3352   6.764   1.986   4.704
  818SOL    HW1 3353   6.782   2.084   4.713
  818SOL    HW2 3354   6.846   1.940   4.669
  819SOL     OW 3355   4.924   2.902   1.796
  819SOL    HW1 3356   4.983   2.841   1.849
  819SOL    HW2 3357   4.834   2.906   1.838
  820SOL     OW 3358   2.615   1.522   5.238
  820SOL    HW1 3359   2.585   1.440   5.287
  820SOL    HW2 3360   2.652   1.588   5.304
  821SOL     OW 3361   5.026   3.211   6.558
  821SOL    HW1 3362   4.984   3.139   6.504
  821SOL    HW2 3363   5.108   3.175   6.604
  822SOL     OW 3364   0.486   5.017   3.440
  822SOL    HW1 3365   0.433   4.980   3.517
  822SOL    HW2 3366   0.581   4.987   3.448
  823SOL     OW 3367   1.090   3.449   4.825
  823SOL    HW1 3368   1.011   3.388   4.827
  823SOL    HW2 3369   1.099   3.489   4.733
  824SOL     OW 3370   4.644   0.748   6.655
  824SOL    HW1 3371   4.567   0.800   6.691
  824SOL    HW2 3372   4.725   0.807   6.651
  825SOL     OW 3373   6.058   5.855   0.909
  825SOL    HW1 3374   6.058   5.756   0.925
  825SOL    HW2 3375   6.149   5.885   0.882
  826SOL     OW 3376   3.865   2.059   0.263
  826SOL    HW1 3377   3.964   2.045   0.264
  826SOL    HW2 3378   3.844   2.153   0.289
  827SOL     OW 3379   4.012   3.912   5.577
  827SOL    HW1 3380   4.014   3.854   5.495
  827SOL    HW2 3381   4.089   3.975   5.575
  828SOL     OW 3382   6.976   6.583   6.327
  828SOL    HW1 3383   6.894   6.527   6.340
  828SOL    HW2 3384   0.039   6.534   6.362
  829SOL     OW 3385   3.343   3.326   2.520
  829SOL    HW1 3386   3.248   3.299   2.530
  829SOL    HW2 3387   3.378   3.360   2.608
  830SOL     OW 3388   7.015   4.493   0.245
  830SOL    HW1 3389   7.000   4.433   0.167
  830SOL    HW2 3390   6.927   4.513   0.289
  831SOL     OW 3391   4.818   0.263   1.786
  831SOL    HW1 3392   4.892   0.196   1.792
  831SOL    HW2 3393   4.762   0.242   1.705
  832SOL     OW 3394   2.946   1.545   4.742
  832SOL    HW1 3395   2.916   1.552   4.838
  832SOL    HW2 3396   3.042   1.572   4.735
  833SOL     OW 3397   3.739   2.659   0.161
  833SOL    HW1 3398   3.820   2.712   0.135
  833SOL    HW2 3399   3.689   2.633   0.079
  834SOL     OW 3400   6.074   2.968   0.504
  834SOL    HW1 3401   6.078   2.975   0.604
  834SOL    HW2 3402   5.987   2.928   0.477
  835SOL     OW 3403   0.277   0.305   4.633
  835SOL    HW1 3404   0.186   0.308   4.592
  835SOL    HW2 3405   0.276   0.243   4.711
  836SOL     OW 3406   5.051   0.681   4.825
  836SOL    HW1 3407   5.117   0.669   4.899
  836SOL    HW2 3408   4.963   0.710   4.864
  837SOL     OW 3409   1.544   0.584   0.526
  837SOL    HW1 3410   1.467   0.626   0.573
  837SOL    HW2 3411   1.627   0.635   0.545
  838SOL     OW 3412   1.141   5.666   3.197
  838SOL    HW1 3413   1.136   5.762   3.226
  838SOL    HW2 3414   1.049   5.630   3.184
  839SOL     OW 3415   1.491   1.999   0.403
  839SOL    HW1 3416   1.559   2.065   0.436
  839SOL    HW2 3417   1.445   2.036   0.323
  840SOL     OW 3418   4.853   5.286   6.957
  840SOL    HW1 3419   4.845   5.351   0.016
  840SOL    HW2 3420   4.817   5.328   6.874
  841SOL     OW 3421   2.815   4.620   0.287
  841SOL    HW1 3422   2.726   4.641   0.326
  841SOL    HW2 3423   2.885   4.623   0.358
  842SOL     OW 3424   4.095   5.676   0.492
  842SOL    HW1 3425   4.169   5.654   0.429
  842SOL    HW2 3426   4.116   5.637   0.582
  843SOL     OW 3427   0.961   0.839   2.218
  843SOL    HW1 3428   0.883   0.815   2.277
  843SOL    HW2 3429   0.967   0.938   2.210
  844SOL     OW 3430   6.776   0.787   1.475
  844SOL    HW1 3431   6.838   0.859   1.504
  844SOL    HW2 3432   6.825   0.699   1.471
  845SOL     OW 3433   3.305   1.464   2.736
  845SOL    HW1 3434   3.393   1.493   2.700
  845SOL    HW2 3435   3.233   1.524   2.701
  846SOL     OW 3436   2.961   1.978   0.741
  846SOL    HW1 3437   2.958   1.931   0.829
  846SOL    HW2 3438   3.048   2.026   0.732
  847SOL     OW 3439   2.542   3.737   1.532
  847SOL    HW1 3440   2.486   3.812   1.496
  847SOL    HW2 3441   2.545   3.744   1.632
  848SOL     OW 3442   6.886   5.959   0.454
  848SOL    HW1 3443   6.843   5.964   0.544
  848SOL    HW2 3444   6.969   5.903   0.459
  849SOL     OW 3445   6.260   3.608   6.732
  849SOL    HW1 3446   6.263   3.517   6.772
  849SOL    HW2 3447   6.190   3.611   6.661
  850SOL     OW 3448   0.995   0.485   5.376
  850SOL    HW1 3449   0.950   0.438   5.300
  850SOL    HW2 3450   1.091   0.504   5.352
  851SOL     OW 3451   6.018   3.602   6.184
  851SOL    HW1 3452   6.046   3.677   6.243
  851SOL    HW2 3453   5.936   3.627   6.134
  852SOL     OW 3454   0.481   4.055   1.997
  852SOL    HW1 3455   0.413   3.992   1.960
  852SOL    HW2 3456   0.571   4.012   1.993
  853SOL     OW 3457   2.659   2.336   0.037
  853SOL    HW1 3458   2.732   2.335   6.986
  853SOL    HW2 3459   2.572   2.357   7.009
  854SOL     OW 3460   5.772   6.074   6.085
  854SOL    HW1 3461   5.732   6.166   6.082
  854SOL    HW2 3462   5.848   6.070   6.020
  855SOL     OW 3463   5.482   1.478   0.287
  855SOL    HW1 3464   5.536   1.443   0.364
  855SOL    HW2 3465   5.476   1.578   0.293
  856SOL     OW 3466   1.427   5.282   1.418
  856SOL    HW1 3467   1.491   5.209   1.443
  856SOL    HW2 3468   1.347   5.277   1.478
  857SOL     OW 3469   0.053   5.836   5.156
  857SOL    HW1 3470   0.104   5.905   5.105
  857SOL    HW2 3471   0.047   5.862   5.252
  858SOL     OW 3472   4.637   3.154   6.988
  858SOL    HW1 3473   4.604   3.161   0.065
  858SOL    HW2 3474   4.693   3.234   6.966
  859SOL     OW 3475   4.936   6.773   5.151
  859SOL    HW1 3476   4.958   6.870   5.164
  859SOL    HW2 3477   4.849   6.753   5.196
  860SOL     OW 3478   4.852   3.048   6.389
  860SOL    HW1 3479   4.799   3.121   6.344
  860SOL    HW2 3480   4.918   3.010   6.325
  861SOL     OW 3481   2.023   5.659   1.778
  861SOL    HW1 3482   1.976   5.586   1.729
  861SOL    HW2 3483   2.038   5.736   1.716
  862SOL     OW 3484   0.348   3.952   3.958
  862SOL    HW1 3485   0.274   3.987   3.900
  862SOL    HW2 3486   0.432   3.943   3.903
  863SOL     OW 3487   6.200   0.711   1.000
  863SOL    HW1 3488   6.124   0.756   0.955
  863SOL    HW2 3489   6.285   0.758   0.976
  864SOL     OW 3490   5.622   6.295   4.407
  864SOL    HW1 3491   5.575   6.312   4.320
  864SOL    HW2 3492   5.554   6.280   4.479
  865SOL     OW 3493   1.381   5.984   5.166
  865SOL    HW1 3494   1.364   5.963   5.262
  865SOL    HW2 3495   1.421   5.904   5.121
  866SOL     OW 3496   3.687   0.163   1.861
  866SOL    HW1 3497   3.758   0.227   1.835
  866SOL    HW2 3498   3.625   0.148   1.784
  867SOL     OW 3499   5.532   2.308   6.064
  867SOL    HW1 3500   5.615   2.326   6.117
  867SOL    HW2 3501   5.470   2.250   6.117
  868SOL     OW 3502   0.188   1.893   2.251
  868SOL    HW1 3503   0.167   1.880   2.348
  868SOL    HW2 3504   0.202   1.991   2.233
  869SOL     OW 3505   0.117   3.879   3.527
  869SOL    HW1 3506   0.085   3.785   3.539
  869SOL    HW2 3507   0.115   3.902   3.429
  870SOL     OW 3508   3.605   5.333   1.904
  870SOL    HW1 3509   3.554   5.280   1.971
  870SOL    HW2 3510   3.545   5.354   1.826
  871SOL     OW 3511   4.678   1.504   3.376
  871SOL    HW1 3512   4.597   1.561   3.391
  871SOL    HW2 3513   4.655   1.408   3.391
  872SOL     OW 3514   0.544   2.231   4.570
  872SOL    HW1 3515   0.626   2.174   4.575
  872SOL    HW2 3516   0.559   2.304   4.502
  873SOL     OW 3517   4.409   6.813   6.270
  873SOL    HW1 3518   4.484   6.866   6.309
  873SOL    HW2 3519   4.414   6.815   6.171
  874SOL     OW 3520   4.710   4.012   1.276
  874SOL    HW1 3521   4.781   3.941   1.277
  874SOL    HW2 3522   4.637   3.987   1.338
  875SOL     OW 3523   5.128   5.478   1.506
  875SOL    HW1 3524   5.214   5.468   1.456
  875SOL    HW2 3525   5.053   5.493   1.442
  876SOL     OW 3526   6.876   6.802   1.331
  876SOL    HW1 3527   6.961   6.852   1.314
  876SOL    HW2 3528   6.882   6.711   1.289
  877SOL     OW 3529   1.970   3.038   6.233
  877SOL    HW1 3530   1.943   3.126   6.196
  877SOL    HW2 3531   1.929   3.025   6.323
  878SOL     OW 3532   4.397   6.378   4.269
  878SOL    HW1 3533   4.431   6.447   4.333
  878SOL    HW2 3534   4.303   6.354   4.293
  879SOL     OW 3535   5.787   0.051   0.837
  879SOL    HW1 3536   5.865   0.038   0.898
  879SOL    HW2 3537   5.801   7.016   0.753
  880SOL     OW 3538   2.924   3.513   2.379
  880SOL    HW1 3539   2.891   3.440   2.319
  880SOL    HW2 3540   2.937   3.596   2.326
  881SOL     OW 3541   4.161   1.753   0.435
  881SOL    HW1 3542   4.253   1.730   0.465
  881SOL    HW2 3543   4.104   1.774   0.515
  882SOL     OW 3544   1.224   3.244   4.531
  882SOL    HW1 3545   1.245   3.276   4.438
  882SOL    HW2 3546   1.310   3.228   4.580
  883SOL     OW 3547   2.500   0.075   2.499
  883SOL    HW1 3548   2.473   6.996   2.508
  883SOL    HW2 3549   2.421   0.128   2.466
  884SOL     OW 3550   4.669   3.576   5.842
  884SOL    HW1 3551   4.671   3.631   5.759
  884SOL    HW2 3552   4.746   3.601   5.901
  885SOL     OW 3553   3.833   2.798   6.133
  885SOL    HW1 3554   3.896   2.722   6.151
  885SOL    HW2 3555   3.751   2.763   6.088
  886SOL     OW 3556   3.356   0.131   6.707
  886SOL    HW1 3557   3.439   0.164   6.661
  886SOL    HW2 3558   3.343   0.183   6.792
  887SOL     OW 3559   4.924   1.374   4.306
  887SOL    HW1 3560   4.945   1.343   4.399
  887SOL    HW2 3561   4.922   1.474   4.304
  888SOL     OW 3562   6.770   6.602   3.112
  888SOL    HW1 3563   6.858   6.606   3.160
  888SOL    HW2 3564   6.698   6.573   3.175
  889SOL     OW 3565   0.561   3.385   6.701
  889SOL    HW1 3566   0.587   3.479   6.723
  889SOL    HW2 3567   0.636   3.323   6.727
  890SOL     OW 3568   2.594   4.809   4.030
  890SOL    HW1 3569   2.608   4.901   4.067
  890SOL    HW2 3570   2.543   4.815   3.944
  891SOL     OW 3571   5.092   5.878   1.411
  891SOL    HW1 3572   5.054   5.888   1.503
  891SOL    HW2 3573   5.019   5.854   1.347
  892SOL     OW 3574   2.735   4.258   0.413
  892SOL    HW1 3575   2.817   4.315   0.406
  892SOL    HW2 3576   2.693   4.270   0.503
  893SOL     OW 3577   2.271   6.559   2.496
  893SOL    HW1 3578   2.313   6.549   2.586
  893SOL    HW2 3579   2.247   6.469   2.460
  894SOL     OW 3580   0.968   4.167   0.976
  894SOL    HW1 3581   1.058   4.156   1.018
  894SOL    HW2 3582   0.898   4.126   1.034
  895SOL     OW 3583   0.707   5.572   3.814
  895SOL    HW1 3584   0.627   5.525   3.851
  895SOL    HW2 3585   0.764   5.507   3.764
  896SOL     OW 3586   6.828   6.677   5.695
  896SOL    HW1 3587   6.837   6.773   5.722
  896SOL    HW2 3588   6.741   6.641   5.729
  897SOL     OW 3589   5.315   0.960   6.874
  897SOL    HW1 3590   5.287   0.959   6.778
  897SOL    HW2 3591   5.406   0.919   6.883
  898SOL     OW 3592   4.092   6.018   2.993
  898SOL    HW1 3593   4.191   6.021   2.978
  898SOL    HW2 3594   4.063   6.100   3.041
  899SOL     OW 3595   0.281   4.793   0.372
  899SOL    HW1 3596   0.296   4.712   0.429
  899SOL    HW2 3597   0.368   4.819   0.329
  900SOL     OW 3598   5.200   5.319   0.586
  900SOL    HW1 3599   5.272   5.250   0.592
  900SOL    HW2 3600   5.241   5.408   0.568
  901SOL     OW 3601   1.331   1.114   2.461
  901SOL    HW1 3602   1.417   1.065   2.444
  901SOL    HW2 3603   1.344   1.212   2.446
  902SOL     OW 3604   6.160   3.669   1.884
  902SOL    HW1 3605   6.088   3.661   1.953
  902SOL    HW2 3606   6.247   3.685   1.929
  903SOL     OW 3607   0.102   2.613   0.804
  903SOL    HW1 3608   0.189   2.638   0.846
  903SOL    HW2 3609   0.066   2.692   0.753
  904SOL     OW 3610   2.848   1.566   2.518
  904SOL    HW1 3611   2.793   1.649   2.509
  904SOL    HW2 3612   2.788   1.489   2.539
  905SOL     OW 3613   6.097   3.074   6.435
  905SOL    HW1 3614   6.128   3.082   6.340
  905SOL    HW2 3615   6.142   3.144   6.490
  906SOL     OW 3616   6.281   3.898   6.938
  906SOL    HW1 3617   6.222   3.819   6.919
  906SOL    HW2 3618   6.256   3.937   0.010
  907SOL     OW 3619   5.133   4.071   6.977
  907SOL    HW1 3620   5.066   4.088   6.905
  907SOL    HW2 3621   5.168   4.158   7.012
  908SOL     OW 3622   1.930   4.157   2.397
  908SOL    HW1 3623   1.999   4.133   2.329
  908SOL    HW2 3624   1.934   4.255   2.415
  909SOL     OW 3625   5.322   5.058   6.624
  909SOL    HW1 3626   5.313   4.983   6.558
  909SOL    HW2 3627   5.252   5.127   6.606
  910SOL     OW 3628   2.287   3.611   0.800
  910SOL    HW1 3629   2.330   3.539   0.855
  910SOL    HW2 3630   2.192   3.621   0.827
  911SOL     OW 3631   1.232   5.083   6.296
  911SOL    HW1 3632   1.134   5.083   6.276
  911SOL    HW2 3633   1.245   5.089   6.395
  912SOL     OW 3634   4.790   2.020   2.765
  912SOL    HW1 3635   4.876   1.982   2.732
  912SOL    HW2 3636   4.776   1.995   2.860
  913SOL     OW 3637   4.872   6.694   3.023
  913SOL    HW1 3638   4.803   6.766   3.018
  913SOL    HW2 3639   4.949   6.717   2.962
  914SOL     OW 3640   3.026   6.894   0.155
  914SOL    HW1 3641   3.020   6.991   0.131
  914SOL    HW2 3642   3.079   6.883   0.239
  915SOL     OW 3643   5.655   5.330   0.473
  915SOL    HW1 3644   5.739   5.382   0.488
  915SOL    HW2 3645   5.657   5.291   0.381
  916SOL     OW 3646   1.097   2.185   2.341
  916SOL    HW1 3647   1.180   2.186   2.286
  916SOL    HW2 3648   1.019   2.163   2.282
  917SOL     OW 3649   6.553   6.658   0.941
  917SOL    HW1 3650   6.536   6.692   1.033
  917SOL    HW2 3651   6.651   6.646   0.927
  918SOL     OW 3652   2.163   5.384   0.338
  918SOL    HW1 3653   2.068   5.381   0.307
  918SOL    HW2 3654   2.195   5.479   0.339
  919SOL     OW 3655   5.713   2.436   4.808
  919SOL    HW1 3656   5.749   2.386   4.729
  919SOL    HW2 3657   5.680   2.371   4.877
  920SOL     OW 3658   2.806   5.161   2.092
  920SOL    HW1 3659   2.782   5.108   2.011
  920SOL    HW2 3660   2.793   5.105   2.173
  921SOL     OW 3661   4.813   5.073   5.066
  921SOL    HW1 3662   4.892   5.084   5.006
  921SOL    HW2 3663   4.748   5.147   5.048
  922SOL     OW 3664   3.454   2.907   3.635
  922SOL    HW1 3665   3.547   2.888   3.664
  922SOL    HW2 3666   3.450   2.910   3.535
  923SOL     OW 3667   2.122   3.659   5.293
  923SOL    HW1 3668   2.027   3.640   5.316
  923SOL    HW2 3669   2.179   3.583   5.323
  924SOL     OW 3670   0.302   3.996   2.856
  924SOL    HW1 3671   0.276   4.011   2.760
  924SOL    HW2 3672   0.379   3.932   2.861
  925SOL     OW 3673   6.849   1.807   0.021
  925SOL    HW1 3674   6.900   1.723   0.044
  925SOL    HW2 3675   6.913   1.884   0.016
  926SOL     OW 3676   1.387   1.589   2.282
  926SOL    HW1 3677   1.346   1.679   2.294
  926SOL    HW2 3678   1.486   1.595   2.293
  927SOL     OW 3679   5.749   3.623   3.611
  927SOL    HW1 3680   5.804   3.699   3.576
  927SOL    HW2 3681   5.701   3.652   3.694
  928SOL     OW 3682   2.759   4.697   6.113
  928SOL    HW1 3683   2.772   4.663   6.206
  928SOL    HW2 3684   2.825   4.769   6.094
  929SOL     OW 3685   6.576   1.157   5.145
  929SOL    HW1 3686   6.632   1.232   5.110
  929SOL    HW2 3687   6.617   1.070   5.119
  930SOL     OW 3688   5.789   5.005   5.949
  930SOL    HW1 3689   5.857   5.012   6.022
  930SOL    HW2 3690   5.719   5.075   5.962
  931SOL     OW 3691   6.368   1.758   3.365
  931SOL    HW1 3692   6.271   1.751   3.390
  931SOL    HW2 3693   6.390   1.852   3.342
  932SOL     OW 3694   3.715   0.616   3.436
  932SOL    HW1 3695   3.655   0.695   3.431
  932SOL    HW2 3696   3.735   0.595   3.532
  933SOL     OW 3697   1.167   5.522   1.370
  933SOL    HW1 3698   1.149   5.424   1.383
  933SOL    HW2 3699   1.241   5.550   1.431
  934SOL     OW 3700   1.224   3.845   0.225
  934SOL    HW1 3701   1.158   3.821   0.155
  934SOL    HW2 3702   1.312   3.803   0.205
  935SOL     OW 3703   5.853   3.102   3.989
  935SOL    HW1 3704   5.941   3.063   3.962
  935SOL    HW2 3705   5.856   3.125   4.086
  936SOL     OW 3706   1.586   6.947   6.005
  936SOL    HW1 3707   1.545   6.863   5.970
  936SOL    HW2 3708   1.590   7.015   5.931
  937SOL     OW 3709   4.094   1.632   5.840
  937SOL    HW1 3710   4.015   1.578   5.869
  937SOL    HW2 3711   4.079   1.665   5.747
  938SOL     OW 3712   5.795   5.609   4.344
  938SOL    HW1 3713   5.697   5.592   4.331
  938SOL    HW2 3714   5.812   5.639   4.438
  939SOL     OW 3715   0.024   6.745   6.003
  939SOL    HW1 3716   0.071   6.832   6.014
  939SOL    HW2 3717   0.090   6.674   5.979
  940SOL     OW 3718   1.959   4.705   6.929
  940SOL    HW1 3719   2.040   4.763   6.924
  940SOL    HW2 3720   1.922   4.707   0.005
  941SOL     OW 3721   3.582   0.697   0.163
  941SOL    HW1 3722   3.657   0.732   0.219
  941SOL    HW2 3723   3.499   0.748   0.182
  942SOL     OW 3724   0.169   5.409   0.652
  942SOL    HW1 3725   0.186   5.453   0.563
  942SOL    HW2 3726   0.222   5.324   0.658
  943SOL     OW 3727   3.360   5.605   1.950
  943SOL    HW1 3728   3.422   5.626   1.875
  943SOL    HW2 3729   3.413   5.574   2.029
  944SOL     OW 3730   6.364   6.840   3.803
  944SOL    HW1 3731   6.290   6.801   3.858
  944SOL    HW2 3732   6.448   6.840   3.856
  945SOL     OW 3733   1.038   5.740   0.108
  945SOL    HW1 3734   0.962   5.746   0.044
  945SOL    HW2 3735   1.006   5.761   0.200
  946SOL     OW 3736   5.099   2.837   4.339
  946SOL    HW1 3737   5.152   2.755   4.318
  946SOL    HW2 3738   5.160   2.916   4.343
  947SOL     OW 3739   3.948   3.926   3.996
  947SOL    HW1 3740   3.990   3.836   3.982
  947SOL    HW2 3741   3.990   3.993   3.935
  948SOL     OW 3742   4.447   0.733   2.646
  948SOL    HW1 3743   4.372   0.715   2.583
  948SOL    HW2 3744   4.531   0.692   2.611
  949SOL     OW 3745   2.840   6.877   6.097
  949SOL    HW1 3746   2.800   6.953   6.149
  949SOL    HW2 3747   2.783   6.857   6.018
  950SOL     OW 3748   6.850   0.427   1.960
  950SOL    HW1 3749   6.766   0.382   1.993
  950SOL    HW2 3750   6.913   0.357   1.926
  951SOL     OW 3751   2.416   6.422   3.171
  951SOL    HW1 3752   2.393   6.515   3.140
  951SOL    HW2 3753   2.413   6.419   3.271
  952SOL     OW 3754   3.115   1.248   2.712
  952SOL    HW1 3755   3.146   1.343   2.724
  952SOL    HW2 3756   3.193   1.191   2.688
  953SOL     OW 3757   6.461   4.725   5.905
  953SOL    HW1 3758   6.536   4.733   5.840
  953SOL    HW2 3759   6.406   4.808   5.903
  954SOL     OW 3760   4.293   5.695   2.983
  954SOL    HW1 3761   4.374   5.636   2.983
  954SOL    HW2 3762   4.225   5.658   3.046
  955SOL     OW 3763   1.847   4.994   6.894
  955SOL    HW1 3764   1.770   5.055   6.878
  955SOL    HW2 3765   1.820   4.900   6.872
  956SOL     OW 3766   5.027   0.533   1.177
  956SOL    HW1 3767   5.035   0.594   1.098
  956SOL    HW2 3768   4.930   0.514   1.194
  957SOL     OW 3769   5.767   0.911   3.635
  957SOL    HW1 3770   5.796   0.937   3.542
  957SOL    HW2 3771   5.807   0.974   3.701
  958SOL     OW 3772   5.272   6.831   1.765
  958SOL    HW1 3773   5.181   6.798   1.789
  958SOL    HW2 3774   5.289   6.918   1.810
  959SOL     OW 3775   4.037   6.782   4.213
  959SOL    HW1 3776   4.011   6.773   4.309
  959SOL    HW2 3777   4.008   6.872   4.179
  960SOL     OW 3778   1.444   0.238   6.770
  960SOL    HW1 3779   1.463   0.288   6.685
  960SOL    HW2 3780   1.487   0.148   6.766
  961SOL     OW 3781   3.475   6.925   2.975
  961SOL    HW1 3782   3.493   6.903   3.071
  961SOL    HW2 3783   3.418   6.853   2.934
  962SOL     OW 3784   6.124   0.661   5.076
  962SOL    HW1 3785   6.222   0.651   5.089
  962SOL    HW2 3786   6.090   0.733   5.137
  963SOL     OW 3787   5.331   3.388   1.230
  963SOL    HW1 3788   5.251   3.417   1.178
  963SOL    HW2 3789   5.331   3.289   1.240
  964SOL     OW 3790   4.631   4.777   5.441
  964SOL    HW1 3791   4.630   4.863   5.491
  964SOL    HW2 3792   4.544   4.764   5.394
  965SOL     OW 3793   5.650   2.658   3.393
  965SOL    HW1 3794   5.596   2.672   3.310
  965SOL    HW2 3795   5.653   2.560   3.415
  966SOL     OW 3796   4.410   1.518   4.678
  966SOL    HW1 3797   4.437   1.506   4.582
  966SOL    HW2 3798   4.464   1.456   4.735
  967SOL     OW 3799   4.679   3.838   6.343
  967SOL    HW1 3800   4.631   3.784   6.413
  967SOL    HW2 3801   4.644   3.813   6.253
  968SOL     OW 3802   3.973   0.316   1.292
  968SOL    HW1 3803   3.993   0.334   1.388
  968SOL    HW2 3804   3.936   0.399   1.250
  969SOL     OW 3805   2.986   4.128   6.629
  969SOL    HW1 3806   3.007   4.142   6.726
  969SOL    HW2 3807   3.003   4.033   6.605
  970SOL     OW 3808   5.296   6.845   6.107
  970SOL    HW1 3809   5.369   6.783   6.078
  970SOL    HW2 3810   5.249   6.806   6.187
  971SOL     OW 3811   5.212   3.609   3.123
  971SOL    HW1 3812   5.222   3.552   3.205
  971SOL    HW2 3813   5.202   3.550   3.043
  972SOL     OW 3814   0.165   3.071   0.749
  972SOL    HW1 3815   0.103   3.145   0.724
  972SOL    HW2 3816   0.167   3.003   0.675
  973SOL     OW 3817   0.300   2.963   6.051
  973SOL    HW1 3818   0.289   3.063   6.045
  973SOL    HW2 3819   0.228   2.925   6.109
  974SOL     OW 3820   6.990   5.055   2.825
  974SOL    HW1 3821   6.986   5.154   2.836
  974SOL    HW2 3822   0.067   5.024   2.836
  975SOL     OW 3823   3.186   1.031   1.757
  975SOL    HW1 3824   3.111   1.097   1.767
  975SOL    HW2 3825   3.273   1.079   1.757
  976SOL     OW 3826   0.001   3.385   3.135
  976SOL    HW1 3827   6.976   3.419   3.219
  976SOL    HW2 3828   6.952   3.389   3.060
  977SOL     OW 3829   6.579   0.626   2.251
  977SOL    HW1 3830   6.547   0.532   2.247
  977SOL    HW2 3831   6.579   0.657   2.346
  978SOL     OW 3832   5.261   3.212   2.093
  978SOL    HW1 3833   5.337   3.262   2.053
  978SOL    HW2 3834   5.195   3.189   2.022
  979SOL     OW 3835   0.463   4.126   0.090
  979SOL    HW1 3836   0.526   4.162   0.158
  979SOL    HW2 3837   0.369   4.137   0.121
  980SOL     OW 3838   3.586   1.358   4.455
  980SOL    HW1 3839   3.601   1.319   4.545
  980SOL    HW2 3840   3.506   1.315   4.412
  981SOL     OW 3841   6.856   6.995   5.423
  981SOL    HW1 3842   6.785   0.045   5.402
  981SOL    HW2 3843   6.878   6.942   5.341
  982SOL     OW 3844   5.999   1.266   5.578
  982SOL    HW1 3845   5.931   1.332   5.544
  982SOL    HW2 3846   6.084   1.277   5.526
  983SOL     OW 3847   0.513   5.125   4.137
  983SOL    HW1 3848   0.465   5.174   4.210
  983SOL    HW2 3849   0.608   5.158   4.132
  984SOL     OW 3850   0.193   3.503   3.848
  984SOL    HW1 3851   0.120   3.455   3.801
  984SOL    HW2 3852   0.154   3.559   3.922
  985SOL     OW 3853   6.301   4.675   5.270
  985SOL    HW1 3854   6.353   4.641   5.349
  985SOL    HW2 3855   6.266   4.767   5.290
  986SOL     OW 3856   4.966   5.214   1.311
  986SOL    HW1 3857   5.036   5.217   1.383
  986SOL    HW2 3858   4.930   5.306   1.296
  987SOL     OW 3859   4.643   4.433   4.380
  987SOL    HW1 3860   4.614   4.465   4.290
  987SOL    HW2 3861   4.660   4.334   4.376
  988SOL     OW 3862   2.388   4.353   1.846
  988SOL    HW1 3863   2.445   4.412   1.902
  988SOL    HW2 3864   2.443   4.315   1.771
  989SOL     OW 3865   1.304   1.500   0.706
  989SOL    HW1 3866   1.369   1.461   0.642
  989SOL    HW2 3867   1.255   1.426   0.753
  990SOL     OW 3868   3.765   0.209   4.382
  990SOL    HW1 3869   3.834   0.142   4.353
  990SOL    HW2 3870   3.775   0.293   4.328
  991SOL     OW 3871   6.658   5.328   3.388
  991SOL    HW1 3872   6.600   5.406   3.405
  991SOL    HW2 3873   6.754   5.352   3.407
  992SOL     OW 3874   6.935   2.352   0.530
  992SOL    HW1 3875   6.948   2.305   0.617
  992SOL    HW2 3876   7.012   2.415   0.514
  993SOL     OW 3877   1.591   5.129   6.787
  993SOL    HW1 3878   1.614   5.124   6.884
  993SOL    HW2 3879   1.493   5.145   6.777
  994SOL     OW 3880   3.347   6.239   6.851
  994SOL    HW1 3881   3.250   6.263   6.852
  994SOL    HW2 3882   3.394   6.286   6.926
  995SOL     OW 3883   6.260   4.373   6.121
  995SOL    HW1 3884   6.261   4.331   6.030
  995SOL    HW2 3885   6.322   4.452   6.121
  996SOL     OW 3886   3.634   5.607   4.637
  996SOL    HW1 3887   3.563   5.640   4.699
  996SOL    HW2 3888   3.715   5.666   4.644
  997SOL     OW 3889   1.633   6.357   3.354
  997SOL    HW1 3890   1.644   6.260   3.375
  997SOL    HW2 3891   1.536   6.378   3.343
  998SOL     OW 3892   5.102   0.690   6.282
  998SOL    HW1 3893   5.036   0.740   6.339
  998SOL    HW2 3894   5.080   0.707   6.185
  999SOL     OW 3895   5.022   3.677   2.624
  999SOL    HW1 3896   4.995   3.580   2.620
  999SOL    HW2 3897   5.116   3.687   2.594
 1000SOL     OW 3898   4.932   2.390   1.525
 1000SOL    HW1 3899   5.032   2.399   1.522
 1000SOL    HW2 3900   4.907   2.332   1.602
 1001SOL     OW 3901   2.871   0.022   2.335
 1001SOL    HW1 3902   2.845   0.099   2.393
 1001SOL    HW2 3903   2.797   0.004   2.270
 1002SOL     OW 3904   5.245   2.359   1.137
 1002SOL    HW1 3905   5.316   2.404   1.083
 1002SOL    HW2 3906   5.157   2.370   1.091
 1003SOL     OW 3907   0.517   0.567   3.182
 1003SOL    HW1 3908   0.546   0.612   3.267
 1003SOL    HW2 3909   0.516   0.633   3.108
 1004SOL     OW 3910   5.272   1.731   3.830
 1004SOL    HW1 3911   5.182   1.695   3.805
 1004SOL    HW2 3912   5.343   1.675   3.788
 1005SOL     OW 3913   1.296   4.869   2.064
 1005SOL    HW1 3914   1.327   4.779   2.095
 1005SOL    HW2 3915   1.365   4.937   2.089
 1006SOL     OW 3916   2.356   3.816   1.149
 1006SOL    HW1 3917   2.343   3.865   1.062
 1006SOL    HW2 3918   2.406   3.732   1.132
 1007SOL     OW 3919   4.510   0.997   6.717
 1007SOL    HW1 3920   4.579   1.039   6.657
 1007SOL    HW2 3921   4.430   1.055   6.721
 1008SOL     OW 3922   0.296   4.928   5.687
 1008SOL    HW1 3923   0.259   4.995   5.752
 1008SOL    HW2 3924   0.385   4.895   5.719
 1009SOL     OW 3925   0.205   5.607   5.767
 1009SOL    HW1 3926   0.249   5.583   5.680
 1009SOL    HW2 3927   0.239   5.548   5.839
 1010SOL     OW 3928   2.460   3.075   0.831
 1010SOL    HW1 3929   2.460   2.975   0.828
 1010SOL    HW2 3930   2.510   3.111   0.752
 1011SOL     OW 3931   6.981   5.199   2.353
 1011SOL    HW1 3932   6.924   5.117   2.342
 1011SOL    HW2 3933   7.015   5.228   2.264
 1012SOL     OW 3934   4.757   6.847   3.494
 1012SOL    HW1 3935   4.743   6.866   3.397
 1012SOL    HW2 3936   4.707   6.915   3.549
 1013SOL     OW 3937   6.993   6.901   6.800
 1013SOL    HW1 3938   0.052   6.916   6.737
 1013SOL    HW2 3939   6.980   6.802   6.814
 1014SOL     OW 3940   1.140   4.353   5.538
 1014SOL    HW1 3941   1.191   4.295   5.474
 1014SOL    HW2 3942   1.200   4.426   5.571
 1015SOL     OW 3943   3.033   6.512   6.867
 1015SOL    HW1 3944   3.005   6.543   6.776
 1015SOL    HW2 3945   3.061   6.590   6.922
 1016SOL     OW 3946   6.264   4.161   1.786
 1016SOL    HW1 3947   6.361   4.167   1.761
 1016SOL    HW2 3948   6.228   4.072   1.758
 1017SOL     OW 3949   2.123   1.592   1.901
 1017SOL    HW1 3950   2.143   1.542   1.985
 1017SOL    HW2 3951   2.146   1.535   1.822
 1018SOL     OW 3952   6.671   6.474   4.752
 1018SOL    HW1 3953   6.601   6.425   4.700
 1018SOL    HW2 3954   6.756   6.474   4.700
 1019SOL     OW 3955   6.449   4.524   0.769
 1019SOL    HW1 3956   6.360   4.483   0.748
 1019SOL    HW2 3957   6.438   4.590   0.844
 1020SOL     OW 3958   5.719   1.255   0.724
 1020SOL    HW1 3959   5.687   1.331   0.669
 1020SOL    HW2 3960   5.798   1.284   0.779
 1021SOL     OW 3961   0.364   6.789   1.230
 1021SOL    HW1 3962   0.436   6.839   1.279
 1021SOL    HW2 3963   0.401   6.749   1.147
 1022SOL     OW 3964   2.930   5.761   7.010
 1022SOL    HW1 3965   2.862   5.784   6.941
 1022SOL    HW2 3966   2.985   5.684   6.978
 1023SOL     OW 3967   0.773   1.129   3.117
 1023SOL    HW1 3968   0.830   1.165   3.043
 1023SOL    HW2 3969   0.819   1.144   3.204
 1024SOL     OW 3970   1.713   1.819   4.222
 1024SOL    HW1 3971   1.631   1.876   4.215
 1024SOL    HW2 3972   1.787   1.859   4.169
 1025SOL     OW 3973   4.459   3.903   0.247
 1025SOL    HW1 3974   4.364   3.932   0.235
 1025SOL    HW2 3975   4.500   3.957   0.321
 1026SOL     OW 3976   2.959   2.303   1.495
 1026SOL    HW1 3977   3.036   2.357   1.461
 1026SOL    HW2 3978   2.989   2.251   1.575
 1027SOL     OW 3979   0.997   6.902   0.766
 1027SOL    HW1 3980   0.935   6.902   0.688
 1027SOL    HW2 3981   0.947   6.876   0.848
 1028SOL     OW 3982   1.486   5.937   2.235
 1028SOL    HW1 3983   1.577   5.912   2.201
 1028SOL    HW2 3984   1.495   5.977   2.326
 1029SOL     OW 3985   0.675   1.284   5.944
 1029SOL    HW1 3986   0.677   1.253   5.849
 1029SOL    HW2 3987   0.698   1.382   5.948
 1030SOL     OW 3988   3.352   3.192   1.399
 1030SOL    HW1 3989   3.392   3.127   1.464
 1030SOL    HW2 3990   3.368   3.160   1.306
 1031SOL     OW 3991   3.919   2.811   0.895
 1031SOL    HW1 3992   3.839   2.753   0.879
 1031SOL    HW2 3993   3.893   2.907   0.885
 1032SOL     OW 3994   2.236   1.754   6.361
 1032SOL    HW1 3995   2.143   1.751   6.396
 1032SOL    HW2 3996   2.295   1.698   6.420
 1033SOL     OW 3997   0.553   6.387   1.998
 1033SOL    HW1 3998   0.543   6.390   2.098
 1033SOL    HW2 3999   0.625   6.451   1.971
 1034SOL     OW 4000   2.687   0.383   4.252
 1034SOL    HW1 4001   2.737   0.321   4.311
 1034SOL    HW2 4002   2.646   0.456   4.307
 1035SOL     OW 4003   1.524   1.367   6.444
 1035SOL    HW1 4004   1.512   1.466   6.441
 1035SOL    HW2 4005   1.570   1.342   6.529
 1036SOL     OW 4006   4.768   1.297   1.122
 1036SOL    HW1 4007   4.759   1.383   1.171
 1036SOL    HW2 4008   4.846   1.302   1.059
 1037SOL     OW 4009   1.460   3.033   1.786
 1037SOL    HW1 4010   1.444   3.017   1.883
 1037SOL    HW2 4011   1.523   2.964   1.750
 1038SOL     OW 4012   2.476   5.800   6.993
 1038SOL    HW1 4013   2.512   5.834   6.906
 1038SOL    HW2 4014   2.541   5.735   0.015
 1039SOL     OW 4015   3.404   2.856   2.795
 1039SOL    HW1 4016   3.499   2.846   2.765
 1039SOL    HW2 4017   3.346   2.876   2.715
 1040SOL     OW 4018   3.661   1.947   3.202
 1040SOL    HW1 4019   3.668   1.853   3.233
 1040SOL    HW2 4020   3.716   1.958   3.119
 1041SOL     OW 4021   6.898   5.852   6.214
 1041SOL    HW1 4022   6.908   5.917   6.138
 1041SOL    HW2 4023   6.811   5.803   6.205
 1042SOL     OW 4024   5.348   4.349   3.056
 1042SOL    HW1 4025   5.430   4.395   3.092
 1042SOL    HW2 4026   5.296   4.413   3.000
 1043SOL     OW 4027   2.926   2.092   3.518
 1043SOL    HW1 4028   3.013   2.101   3.469
 1043SOL    HW2 4029   2.876   2.013   3.482
 1044SOL     OW 4030   5.684   4.983   1.442
 1044SOL    HW1 4031   5.623   5.018   1.371
 1044SOL    HW2 4032   5.714   5.059   1.500
 1045SOL     OW 4033   2.258   0.425   2.195
 1045SOL    HW1 4034   2.230   0.383   2.109
 1045SOL    HW2 4035   2.204   0.507   2.213
 1046SOL     OW 4036   3.170   1.637   0.862
 1046SOL    HW1 4037   3.114   1.619   0.781
 1046SOL    HW2 4038   3.204   1.550   0.899
 1047SOL     OW 4039   3.908   6.023   3.766
 1047SOL    HW1 4040   3.894   6.088   3.841
 1047SOL    HW2 4041   3.898   6.071   3.678
 1048SOL     OW 4042   1.353   6.049   2.789
 1048SOL    HW1 4043   1.272   5.993   2.804
 1048SOL    HW2 4044   1.375   6.099   2.873
 1049SOL     OW 4045   4.056   5.944   4.853
 1049SOL    HW1 4046   3.993   5.867   4.865
 1049SOL    HW2 4047   4.146   5.910   4.826
 1050SOL     OW 4048   3.191   5.496   2.759
 1050SOL    HW1 4049   3.235   5.469   2.673
 1050SOL    HW2 4050   3.249   5.467   2.836
 1051SOL     OW 4051   0.915   0.960   6.225
 1051SOL    HW1 4052   0.854   0.919   6.294
 1051SOL    HW2 4053   0.863   0.974   6.140
 1052SOL     OW 4054   3.128   1.023   0.151
 1052SOL    HW1 4055   3.209   0.968   0.134
 1052SOL    HW2 4056   3.046   0.968   0.134
 1053SOL     OW 4057   5.044   2.390   3.771
 1053SOL    HW1 4058   4.949   2.373   3.744
 1053SOL    HW2 4059   5.086   2.304   3.801
 1054SOL     OW 4060   3.436   4.876   6.151
 1054SOL    HW1 4061   3.376   4.943   6.193
 1054SOL    HW2 4062   3.521   4.920   6.122
 1055SOL     OW 4063   5.088   5.763   6.406
 1055SOL    HW1 4064   5.041   5.691   6.458
 1055SOL    HW2 4065   5.180   5.775   6.443
 1056SOL     OW 4066   3.003   3.745   0.037
 1056SOL    HW1 4067   3.006   3.760   0.135
 1056SOL    HW2 4068   2.939   3.810   7.012
 1057SOL     OW 4069   2.981   2.346   0.977
 1057SOL    HW1 4070   3.070   2.301   0.973
 1057SOL    HW2 4071   2.975   2.400   1.061
 1058SOL     OW 4072   2.922   2.216   2.646
 1058SOL    HW1 4073   2.884   2.235   2.555
 1058SOL    HW2 4074   3.017   2.248   2.650
 1059SOL     OW 4075   2.312   6.509   1.893
 1059SOL    HW1 4076   2.325   6.410   1.881
 1059SOL    HW2 4077   2.298   6.530   1.990
 1060SOL     OW 4078   6.131   6.795   5.277
 1060SOL    HW1 4079   6.186   6.847   5.342
 1060SOL    HW2 4080   6.144   6.697   5.293
 1061SOL     OW 4081   0.134   3.868   6.330
 1061SOL    HW1 4082   0.146   3.857   6.429
 1061SOL    HW2 4083   0.037   3.862   6.308
 1062SOL     OW 4084   3.563   6.482   4.893
 1062SOL    HW1 4085   3.527   6.410   4.953
 1062SOL    HW2 4086   3.540   6.571   4.930
 1063SOL     OW 4087   3.134   6.817   5.275
 1063SOL    HW1 4088   3.082   6.815   5.190
 1063SOL    HW2 4089   3.129   6.728   5.320
 1064SOL     OW 4090   1.350   3.765   0.477
 1064SOL    HW1 4091   1.360   3.771   0.378
 1064SOL    HW2 4092   1.420   3.703   0.513
 1065SOL     OW 4093   4.801   0.671   4.405
 1065SOL    HW1 4094   4.795   0.703   4.311
 1065SOL    HW2 4095   4.726   0.607   4.423
 1066SOL     OW 4096   5.514   6.484   1.881
 1066SOL    HW1 4097   5.539   6.509   1.974
 1066SOL    HW2 4098   5.505   6.384   1.875
 1067SOL     OW 4099   2.641   1.645   0.139
 1067SOL    HW1 4100   2.645   1.678   0.233
 1067SOL    HW2 4101   2.729   1.605   0.114
 1068SOL     OW 4102   6.873   3.414   1.883
 1068SOL    HW1 4103   6.897   3.424   1.979
 1068SOL    HW2 4104   6.956   3.392   1.831
 1069SOL     OW 4105   6.445   3.750   1.883
 1069SOL    HW1 4106   6.439   3.840   1.927
 1069SOL    HW2 4107   6.490   3.686   1.945
 1070SOL     OW 4108   1.227   6.608   2.189
 1070SOL    HW1 4109   1.254   6.606   2.285
 1070SOL    HW2 4110   1.268   6.530   2.141
 1071SOL     OW 4111   0.073   3.026   5.542
 1071SOL    HW1 4112   0.085   3.059   5.636
 1071SOL    HW2 4113   0.162   3.026   5.496
 1072SOL     OW 4114   1.617   1.561   2.034
 1072SOL    HW1 4115   1.699   1.582   1.981
 1072SOL    HW2 4116   1.632   1.587   2.130
 1073SOL     OW 4117   4.395   2.451   3.708
 1073SOL    HW1 4118   4.388   2.478   3.804
 1073SOL    HW2 4119   4.361   2.358   3.696
 1074SOL     OW 4120   2.799   4.787   1.783
 1074SOL    HW1 4121   2.825   4.702   1.829
 1074SOL    HW2 4122   2.796   4.861   1.851
 1075SOL     OW 4123   6.114   4.249   5.621
 1075SOL    HW1 4124   6.124   4.205   5.532
 1075SOL    HW2 4125   6.017   4.265   5.640
 1076SOL     OW 4126   2.002   4.416   4.970
 1076SOL    HW1 4127   2.101   4.417   4.981
 1076SOL    HW2 4128   1.976   4.336   4.915
 1077SOL     OW 4129   0.143   6.960   0.164
 1077SOL    HW1 4130   0.071   6.898   0.133
 1077SOL    HW2 4131   0.151   0.019   0.099
 1078SOL     OW 4132   6.293   6.849   4.247
 1078SOL    HW1 4133   6.231   6.773   4.269
 1078SOL    HW2 4134   6.266   6.889   4.160
 1079SOL     OW 4135   0.731   0.100   1.851
 1079SOL    HW1 4136   0.744   0.111   1.949
 1079SOL    HW2 4137   0.802   0.151   1.802
 1080SOL     OW 4138   3.328   6.407   6.413
 1080SOL    HW1 4139   3.342   6.339   6.486
 1080SOL    HW2 4140   3.403   6.402   6.348
 1081SOL     OW 4141   6.908   5.986   4.479
 1081SOL    HW1 4142   6.882   5.946   4.567
 1081SOL    HW2 4143   6.861   5.939   4.405
 1082SOL     OW 4144   4.495   6.436   6.638
 1082SOL    HW1 4145   4.406   6.479   6.618
 1082SOL    HW2 4146   4.527   6.386   6.558
 1083SOL     OW 4147   5.218   4.296   1.644
 1083SOL    HW1 4148   5.252   4.276   1.736
 1083SOL    HW2 4149   5.194   4.211   1.598
 1084SOL     OW 4150   6.382   0.605   5.144
 1084SOL    HW1 4151   6.439   0.664   5.202
 1084SOL    HW2 4152   6.414   0.511   5.151
 1085SOL     OW 4153   1.596   3.775   4.569
 1085SOL    HW1 4154   1.557   3.781   4.477
 1085SOL    HW2 4155   1.601   3.866   4.610
 1086SOL     OW 4156   5.974   5.400   0.895
 1086SOL    HW1 4157   5.878   5.414   0.918
 1086SOL    HW2 4158   6.031   5.454   0.957
 1087SOL     OW 4159   3.171   0.588   5.474
 1087SOL    HW1 4160   3.170   0.522   5.549
 1087SOL    HW2 4161   3.234   0.557   5.403
 1088SOL     OW 4162   6.444   4.942   3.419
 1088SOL    HW1 4163   6.519   4.884   3.385
 1088SOL    HW2 4164   6.481   5.012   3.480
 1089SOL     OW 4165   6.579   4.628   4.628
 1089SOL    HW1 4166   6.623   4.669   4.548
 1089SOL    HW2 4167   6.580   4.694   4.703
 1090SOL     OW 4168   5.446   2.095   5.121
 1090SOL    HW1 4169   5.493   2.030   5.062
 1090SOL    HW2 4170   5.360   2.055   5.154
 1091SOL     OW 4171   2.185   2.630   2.532
 1091SOL    HW1 4172   2.235   2.700   2.584
 1091SOL    HW2 4173   2.087   2.636   2.554
 1092SOL     OW 4174   0.445   6.047   1.212
 1092SOL    HW1 4175   0.398   6.094   1.137
 1092SOL    HW2 4176   0.424   5.949   1.209
 1093SOL     OW 4177   2.058   0.316   2.904
 1093SOL    HW1 4178   2.006   0.331   2.820
 1093SOL    HW2 4179   2.013   0.364   2.980
 1094SOL     OW 4180   0.961   0.258   3.205
 1094SOL    HW1 4181   0.867   0.292   3.215
 1094SOL    HW2 4182   1.019   0.297   3.277
 1095SOL     OW 4183   5.043   3.411   0.576
 1095SOL    HW1 4184   5.097   3.487   0.542
 1095SOL    HW2 4185   5.003   3.362   0.498
 1096SOL     OW 4186   2.834   5.869   1.431
 1096SOL    HW1 4187   2.761   5.813   1.392
 1096SOL    HW2 4188   2.815   5.966   1.414
 1097SOL     OW 4189   3.292   5.408   4.621
 1097SOL    HW1 4190   3.241   5.323   4.629
 1097SOL    HW2 4191   3.385   5.388   4.590
 1098SOL     OW 4192   6.027   4.626   0.908
 1098SOL    HW1 4193   6.055   4.700   0.969
 1098SOL    HW2 4194   5.962   4.660   0.840
 1099SOL     OW 4195   4.354   6.631   5.525
 1099SOL    HW1 4196   4.289   6.688   5.475
 1099SOL    HW2 4197   4.397   6.566   5.462
 1100SOL     OW 4198   3.552   1.728   4.329
 1100SOL    HW1 4199   3.599   1.690   4.408
 1100SOL    HW2 4200   3.495   1.658   4.286
 1101SOL     OW 4201   5.733   3.154   6.720
 1101SOL    HW1 4202   5.687   3.213   6.787
 1101SOL    HW2 4203   5.810   3.203   6.679
 1102SOL     OW 4204   2.870   1.047   3.430
 1102SOL    HW1 4205   2.869   1.051   3.530
 1102SOL    HW2 4206   2.792   1.099   3.394
 1103SOL     OW 4207   2.814   6.603   0.381
 1103SOL    HW1 4208   2.777   6.659   0.307
 1103SOL    HW2 4209   2.839   6.662   0.458
 1104SOL     OW 4210   0.600   3.153   4.186
 1104SOL    HW1 4211   0.690   3.145   4.144
 1104SOL    HW2 4212   0.587   3.246   4.219
 1105SOL     OW 4213   5.309   1.244   5.553
 1105SOL    HW1 4214   5.278   1.278   5.642
 1105SOL    HW2 4215   5.234   1.195   5.509
 1106SOL     OW 4216   0.043   1.365   0.449
 1106SOL    HW1 4217   0.134   1.393   0.419
 1106SOL    HW2 4218   6.999   1.363   0.370
 1107SOL     OW 4219   0.994   1.540   6.605
 1107SOL    HW1 4220   1.066   1.610   6.608
 1107SOL    HW2 4221   1.006   1.475   6.680
 1108SOL     OW 4222   2.534   6.926   3.487
 1108SOL    HW1 4223   2.560   0.002   3.512
 1108SOL    HW2 4224   2.531   6.917   3.388
 1109SOL     OW 4225   4.638   2.100   4.773
 1109SOL    HW1 4226   4.592   2.108   4.862
 1109SOL    HW2 4227   4.577   2.053   4.709
 1110SOL     OW 4228   2.746   0.838   2.303
 1110SOL    HW1 4229   2.773   0.823   2.208
 1110SOL    HW2 4230   2.741   0.750   2.350
 1111SOL     OW 4231   5.702   4.043   6.651
 1111SOL    HW1 4232   5.608   4.074   6.638
 1111SOL    HW2 4233   5.743   4.095   6.727
 1112SOL     OW 4234   5.224   0.526   2.056
 1112SOL    HW1 4235   5.163   0.480   1.991
 1112SOL    HW2 4236   5.245   0.466   2.132
 1113SOL     OW 4237   5.654   4.367   2.549
 1113SOL    HW1 4238   5.592   4.357   2.471
 1113SOL    HW2 4239   5.749   4.362   2.518
 1114SOL     OW 4240   3.799   4.054   5.273
 1114SOL    HW1 4241   3.710   4.017   5.245
 1114SOL    HW2 4242   3.872   3.998   5.234
 1115SOL     OW 4243   2.946   4.544   5.632
 1115SOL    HW1 4244   3.014   4.539   5.559
 1115SOL    HW2 4245   2.878   4.472   5.619
 1116SOL     OW 4246   4.460   6.738   6.539
 1116SOL    HW1 4247   4.500   6.807   6.479
 1116SOL    HW2 4248   4.378   6.775   6.582
 1117SOL     OW 4249   1.908   2.537   1.316
 1117SOL    HW1 4250   1.959   2.508   1.235
 1117SOL    HW2 4251   1.929   2.633   1.336
 1118SOL     OW 4252   3.897   4.825   0.465
 1118SOL    HW1 4253   3.830   4.828   0.540
 1118SOL    HW2 4254   3.859   4.871   0.385
 1119SOL     OW 4255   2.746   5.000   4.265
 1119SOL    HW1 4256   2.730   5.057   4.345
 1119SOL    HW2 4257   2.774   5.057   4.188
 1120SOL     OW 4258   6.711   3.969   0.717
 1120SOL    HW1 4259   6.775   3.958   0.793
 1120SOL    HW2 4260   6.675   4.062   0.717
 1121SOL     OW 4261   6.788   5.036   4.002
 1121SOL    HW1 4262   6.774   4.997   3.911
 1121SOL    HW2 4263   6.880   5.015   4.033
 1122SOL     OW 4264   5.669   2.780   1.704
 1122SOL    HW1 4265   5.603   2.707   1.686
 1122SOL    HW2 4266   5.676   2.840   1.625
 1123SOL     OW 4267   3.860   1.224   3.299
 1123SOL    HW1 4268   3.848   1.125   3.310
 1123SOL    HW2 4269   3.892   1.264   3.384
 1124SOL     OW 4270   2.333   2.641   4.527
 1124SOL    HW1 4271   2.408   2.599   4.577
 1124SOL    HW2 4272   2.366   2.679   4.441
 1125SOL     OW 4273   2.227   4.005   3.560
 1125SOL    HW1 4274   2.265   3.957   3.639
 1125SOL    HW2 4275   2.219   4.103   3.581
 1126SOL     OW 4276   3.859   4.889   4.580
 1126SOL    HW1 4277   3.839   4.877   4.483
 1126SOL    HW2 4278   3.781   4.932   4.625
 1127SOL     OW 4279   5.844   0.142   2.435
 1127SOL    HW1 4280   5.889   0.227   2.464
 1127SOL    HW2 4281   5.837   0.080   2.513
 1128SOL     OW 4282   5.240   1.418   4.113
 1128SOL    HW1 4283   5.317   1.481   4.106
 1128SOL    HW2 4284   5.238   1.378   4.205
 1129SOL     OW 4285   1.352   1.047   0.669
 1129SOL    HW1 4286   1.279   1.078   0.608
 1129SOL    HW2 4287   1.357   0.947   0.666
 1130SOL     OW 4288   1.936   4.855   1.836
 1130SOL    HW1 4289   1.917   4.949   1.867
 1130SOL    HW2 4290   1.860   4.823   1.778
 1131SOL     OW 4291   1.144   5.180   4.317
 1131SOL    HW1 4292   1.226   5.156   4.370
 1131SOL    HW2 4293   1.171   5.223   4.232
 1132SOL     OW 4294   2.299   1.430   2.864
 1132SOL    HW1 4295   2.333   1.372   2.937
 1132SOL    HW2 4296   2.376   1.470   2.814
 1133SOL     OW 4297   0.698   6.836   5.450
 1133SOL    HW1 4298   0.667   6.892   5.527
 1133SOL    HW2 4299   0.756   6.892   5.390
 1134SOL     OW 4300   3.755   6.953   1.370
 1134SOL    HW1 4301   3.841   6.942   1.421
 1134SOL    HW2 4302   3.710   6.865   1.359
 1135SOL     OW 4303   2.131   5.361   3.485
 1135SOL    HW1 4304   2.223   5.325   3.470
 1135SOL    HW2 4305   2.064   5.305   3.436
 1136SOL     OW 4306   1.374   5.604   1.524
 1136SOL    HW1 4307   1.403   5.696   1.552
 1136SOL    HW2 4308   1.452   5.555   1.486
 1137SOL     OW 4309   1.068   5.330   5.348
 1137SOL    HW1 4310   1.036   5.419   5.379
 1137SOL    HW2 4311   1.145   5.300   5.405
 1138SOL     OW 4312   2.124   3.468   4.501
 1138SOL    HW1 4313   2.136   3.564   4.475
 1138SOL    HW2 4314   2.042   3.458   4.558
 1139SOL     OW 4315   3.032   5.442   4.737
 1139SOL    HW1 4316   3.099   5.512   4.712
 1139SOL    HW2 4317   3.050   5.359   4.685
 1140SOL     OW 4318   1.591   1.655   0.923
 1140SOL    HW1 4319   1.527   1.731   0.914
 1140SOL    HW2 4320   1.613   1.618   0.832
 1141SOL     OW 4321   6.776   4.572   6.216
 1141SOL    HW1 4322   6.773   4.655   6.159
 1141SOL    HW2 4323   6.818   4.593   6.304
 1142SOL     OW 4324   2.410   6.310   2.192
 1142SOL    HW1 4325   2.486   6.264   2.238
 1142SOL    HW2 4326   2.361   6.244   2.135
 1143SOL     OW 4327   0.972   4.263   1.767
 1143SOL    HW1 4328   1.054   4.207   1.752
 1143SOL    HW2 4329   0.895   4.204   1.792
 1144SOL     OW 4330   5.757   4.486   1.273
 1144SOL    HW1 4331   5.778   4.580   1.301
 1144SOL    HW2 4332   5.788   4.423   1.344
 1145SOL     OW 4333   5.773   0.664   1.202
 1145SOL    HW1 4334   5.706   0.729   1.167
 1145SOL    HW2 4335   5.827   0.628   1.126
 1146SOL     OW 4336   0.682   0.702   1.058
 1146SOL    HW1 4337   0.731   0.770   1.003
 1146SOL    HW2 4338   0.740   0.622   1.071
 1147SOL     OW 4339   2.385   6.490   1.288
 1147SOL    HW1 4340   2.343   6.518   1.374
 1147SOL    HW2 4341   2.314   6.461   1.224
 1148SOL     OW 4342   4.587   5.277   3.437
 1148SOL    HW1 4343   4.679   5.250   3.407
 1148SOL    HW2 4344   4.595   5.355   3.500
 1149SOL     OW 4345   4.472   3.221   1.426
 1149SOL    HW1 4346   4.472   3.320   1.408
 1149SOL    HW2 4347   4.565   3.192   1.450
 1150SOL     OW 4348   1.795   3.944   0.256
 1150SOL    HW1 4349   1.889   3.971   0.240
 1150SOL    HW2 4350   1.750   3.925   0.169
 1151SOL     OW 4351   6.111   5.497   3.948
 1151SOL    HW1 4352   6.095   5.578   3.891
 1151SOL    HW2 4353   6.042   5.494   4.020
 1152SOL     OW 4354   3.973   6.218   6.636
 1152SOL    HW1 4355   3.923   6.168   6.707
 1152SOL    HW2 4356   3.938   6.191   6.546
 1153SOL     OW 4357   5.746   6.963   1.475
 1153SOL    HW1 4358   5.752   6.957   1.375
 1153SOL    HW2 4359   5.666   6.912   1.506
 1154SOL     OW 4360   1.788   2.604   0.991
 1154SOL    HW1 4361   1.875   2.556   1.000
 1154SOL    HW2 4362   1.797   2.676   0.922
 1155SOL     OW 4363   2.597   6.779   4.320
 1155SOL    HW1 4364   2.510   6.729   4.320
 1155SOL    HW2 4365   2.663   6.733   4.379
 1156SOL     OW 4366   2.410   1.764   3.648
 1156SOL    HW1 4367   2.441   1.829   3.579
 1156SOL    HW2 4368   2.392   1.813   3.734
 1157SOL     OW 4369   3.555   0.722   6.760
 1157SOL    HW1 4370   3.633   0.739   6.699
 1157SOL    HW2 4371   3.522   0.808   6.798
 1158SOL     OW 4372   5.830   4.846   3.244
 1158SOL    HW1 4373   5.908   4.901   3.216
 1158SOL    HW2 4374   5.751   4.867   3.185
 1159SOL     OW 4375   6.229   5.665   1.296
 1159SOL    HW1 4376   6.163   5.676   1.370
 1159SOL    HW2 4377   6.281   5.749   1.285
 1160SOL     OW 4378   5.323   1.717   0.656
 1160SOL    HW1 4379   5.274   1.665   0.586
 1160SOL    HW2 4380   5.318   1.815   0.635
 1161SOL     OW 4381   0.409   5.412   0.904
 1161SOL    HW1 4382   0.345   5.336   0.893
 1161SOL    HW2 4383   0.484   5.403   0.838
 1162SOL     OW 4384   2.909   2.259   4.595
 1162SOL    HW1 4385   2.935   2.292   4.504
 1162SOL    HW2 4386   2.843   2.322   4.636
 1163SOL     OW 4387   5.572   3.213   1.928
 1163SOL    HW1 4388   5.591   3.150   1.853
 1163SOL    HW2 4389   5.534   3.162   2.006
 1164SOL     OW 4390   4.647   1.810   5.504
 1164SOL    HW1 4391   4.549   1.825   5.517
 1164SOL    HW2 4392   4.666   1.789   5.409
 1165SOL     OW 4393   3.932   6.440   3.628
 1165SOL    HW1 4394   3.988   6.451   3.710
 1165SOL    HW2 4395   3.900   6.530   3.598
 1166SOL     OW 4396   2.857   4.512   6.302
 1166SOL    HW1 4397   2.855   4.497   6.401
 1166SOL    HW2 4398   2.830   4.428   6.255
 1167SOL     OW 4399   5.337   4.995   2.690
 1167SOL    HW1 4400   5.400   4.950   2.753
 1167SOL    HW2 4401   5.295   4.926   2.631
 1168SOL     OW 4402   6.057   0.943   3.368
 1168SOL    HW1 4403   5.984   1.011   3.369
 1168SOL    HW2 4404   6.018   0.851   3.370
 1169SOL     OW 4405   5.462   1.068   5.696
 1169SOL    HW1 4406   5.440   1.152   5.647
 1169SOL    HW2 4407   5.467   0.992   5.630
 1170SOL     OW 4408   5.223   6.483   4.235
 1170SOL    HW1 4409   5.186   6.435   4.156
 1170SOL    HW2 4410   5.323   6.484   4.230
 1171SOL     OW 4411   0.906   6.839   1.467
 1171SOL    HW1 4412   0.933   6.795   1.381
 1171SOL    HW2 4413   0.862   6.772   1.526
 1172SOL     OW 4414   6.925   3.445   6.345
 1172SOL    HW1 4415   6.964   3.437   6.254
 1172SOL    HW2 4416   6.998   3.461   6.412
 1173SOL     OW 4417   3.753   1.573   0.486
 1173SOL    HW1 4418   3.803   1.617   0.411
 1173SOL    HW2 4419   3.811   1.571   0.568
 1174SOL     OW 4420   2.717   3.444   0.824
 1174SOL    HW1 4421   2.655   3.387   0.877
 1174SOL    HW2 4422   2.807   3.400   0.819
 1175SOL     OW 4423   3.132   3.029   4.077
 1175SOL    HW1 4424   3.204   2.962   4.092
 1175SOL    HW2 4425   3.169   3.107   4.025
 1176SOL     OW 4426   5.748   3.646   6.132
 1176SOL    HW1 4427   5.685   3.646   6.209
 1176SOL    HW2 4428   5.774   3.740   6.110
 1177SOL     OW 4429   6.906   1.719   4.512
 1177SOL    HW1 4430   6.899   1.644   4.577
 1177SOL    HW2 4431   7.002   1.745   4.501
 1178SOL     OW 4432   3.511   5.299   0.181
 1178SOL    HW1 4433   3.437   5.232   0.180
 1178SOL    HW2 4434   3.497   5.366   0.108
 1179SOL     OW 4435   1.915   5.553   0.298
 1179SOL    HW1 4436   1.868   5.533   0.212
 1179SOL    HW2 4437   1.994   5.611   0.280
 1180SOL     OW 4438   3.202   5.714   0.730
 1180SOL    HW1 4439   3.132   5.683   0.666
 1180SOL    HW2 4440   3.176   5.803   0.767
 1181SOL     OW 4441   0.331   6.039   0.705
 1181SOL    HW1 4442   0.371   5.955   0.669
 1181SOL    HW2 4443   0.401   6.093   0.751
 1182SOL     OW 4444   4.760   4.917   2.947
 1182SOL    HW1 4445   4.809   4.934   3.032
 1182SOL    HW2 4446   4.690   4.848   2.962
 1183SOL     OW 4447   2.309   3.132   5.778
 1183SOL    HW1 4448   2.318   3.132   5.877
 1183SOL    HW2 4449   2.374   3.067   5.738
 1184SOL     OW 4450   0.963   6.936   6.093
 1184SOL    HW1 4451   0.884   6.968   6.145
 1184SOL    HW2 4452   0.940   6.850   6.047
 1185SOL     OW 4453   6.885   1.541   6.680
 1185SOL    HW1 4454   6.933   1.456   6.658
 1185SOL    HW2 4455   6.787   1.527   6.674
 1186SOL     OW 4456   5.704   6.364   5.128
 1186SOL    HW1 4457   5.716   6.273   5.168
 1186SOL    HW2 4458   5.611   6.372   5.092
 1187SOL     OW 4459   5.810   0.560   6.264
 1187SOL    HW1 4460   5.885   0.522   6.209
 1187SOL    HW2 4461   5.832   0.549   6.361
 1188SOL     OW 4462   2.807   6.664   5.826
 1188SOL    HW1 4463   2.809   6.604   5.906
 1188SOL    HW2 4464   2.827   6.611   5.744
 1189SOL     OW 4465   5.792   3.041   3.259
 1189SOL    HW1 4466   5.744   3.127   3.243
 1189SOL    HW2 4467   5.753   2.996   3.340
 1190SOL     OW 4468   1.650   6.001   2.892
 1190SOL    HW1 4469   1.560   6.020   2.854
 1190SOL    HW2 4470   1.686   5.916   2.852
 1191SOL     OW 4471   4.149   5.393   2.355
 1191SOL    HW1 4472   4.109   5.353   2.437
 1191SOL    HW2 4473   4.248   5.402   2.367
 1192SOL     OW 4474   5.348   6.205   3.918
 1192SOL    HW1 4475   5.274   6.271   3.929
 1192SOL    HW2 4476   5.328   6.146   3.839
 1193SOL     OW 4477   6.260   5.368   4.152
 1193SOL    HW1 4478   6.351   5.338   4.124
 1193SOL    HW2 4479   6.214   5.410   4.074
 1194SOL     OW 4480   3.891   0.837   1.154
 1194SOL    HW1 4481   3.989   0.853   1.161
 1194SOL    HW2 4482   3.867   0.755   1.208
 1195SOL     OW 4483   5.219   2.268   3.163
 1195SOL    HW1 4484   5.305   2.265   3.215
 1195SOL    HW2 4485   5.217   2.192   3.098
 1196SOL     OW 4486   6.165   6.589   5.004
 1196SOL    HW1 4487   6.073   6.555   5.025
 1196SOL    HW2 4488   6.161   6.686   4.982
 1197SOL     OW 4489   2.148   6.244   0.037
 1197SOL    HW1 4490   2.077   6.297   7.007
 1197SOL    HW2 4491   2.225   6.304   0.060
 1198SOL     OW 4492   1.624   2.764   0.432
 1198SOL    HW1 4493   1.718   2.739   0.456
 1198SOL    HW2 4494   1.564   2.687   0.451
 1199SOL     OW 4495   5.396   4.190   2.149
 1199SOL    HW1 4496   5.367   4.268   2.205
 1199SOL    HW2 4497   5.493   4.173   2.162
 1200SOL     OW 4498   3.279   3.819   1.782
 1200SOL    HW1 4499   3.360   3.781   1.826
 1200SOL    HW2 4500   3.275   3.918   1.801
 1201SOL     OW 4501   1.582   2.027   4.642
 1201SOL    HW1 4502   1.656   1.961   4.627
 1201SOL    HW2 4503   1.608   2.090   4.715
 1202SOL     OW 4504   0.438   5.494   6.502
 1202SOL    HW1 4505   0.390   5.545   6.573
 1202SOL    HW2 4506   0.393   5.509   6.414
 1203SOL     OW 4507   4.415   5.606   5.799
 1203SOL    HW1 4508   4.503   5.572   5.764
 1203SOL    HW2 4509   4.373   5.535   5.855
 1204SOL     OW 4510   2.106   0.060   2.410
 1204SOL    HW1 4511   2.073   7.002   2.466
 1204SOL    HW2 4512   2.059   0.058   2.321
 1205SOL     OW 4513   5.352   4.528   1.985
 1205SOL    HW1 4514   5.308   4.584   1.915
 1205SOL    HW2 4515   5.446   4.507   1.958
 1206SOL     OW 4516   3.188   3.604   5.286
 1206SOL    HW1 4517   3.153   3.611   5.193
 1206SOL    HW2 4518   3.267   3.543   5.288
 1207SOL     OW 4519   1.756   6.432   1.889
 1207SOL    HW1 4520   1.824   6.365   1.861
 1207SOL    HW2 4521   1.716   6.474   1.808
 1208SOL     OW 4522   3.437   3.858   6.402
 1208SOL    HW1 4523   3.425   3.770   6.356
 1208SOL    HW2 4524   3.484   3.921   6.342
 1209SOL     OW 4525   4.019   6.344   5.523
 1209SOL    HW1 4526   4.050   6.376   5.433
 1209SOL    HW2 4527   4.032   6.245   5.530
 1210SOL     OW 4528   3.337   1.084   3.446
 1210SOL    HW1 4529   3.299   1.120   3.532
 1210SOL    HW2 4530   3.431   1.116   3.435
 1211SOL     OW 4531   1.134   3.528   0.149
 1211SOL    HW1 4532   1.203   3.548   0.079
 1211SOL    HW2 4533   1.153   3.439   0.190
 1212SOL     OW 4534   1.079   6.618   6.940
 1212SOL    HW1 4535   1.057   6.625   6.843
 1212SOL    HW2 4536   1.104   6.523   6.962
 1213SOL     OW 4537   5.335   3.124   0.783
 1213SOL    HW1 4538   5.421   3.082   0.813
 1213SOL    HW2 4539   5.340   3.144   0.685
 1214SOL     OW 4540   0.198   2.307   1.911
 1214SOL    HW1 4541   0.162   2.231   1.858
 1214SOL    HW2 4542   0.263   2.273   1.979
 1215SOL     OW 4543   1.463   5.381   4.382
 1215SOL    HW1 4544   1.430   5.437   4.307
 1215SOL    HW2 4545   1.410   5.400   4.465
 1216SOL     OW 4546   4.176   6.703   0.098
 1216SOL    HW1 4547   4.195   6.721   0.001
 1216SOL    HW2 4548   4.161   6.605   0.111
 1217SOL     OW 4549   2.547   4.336   0.175
 1217SOL    HW1 4550   2.624   4.387   0.138
 1217SOL    HW2 4551   2.581   4.266   0.239
 1218SOL     OW 4552   1.763   4.554   3.849
 1218SOL    HW1 4553   1.777   4.558   3.750
 1218SOL    HW2 4554   1.687   4.612   3.875
 1219SOL     OW 4555   4.378   6.005   2.931
 1219SOL    HW1 4556   4.449   6.013   2.862
 1219SOL    HW2 4557   4.358   5.908   2.948
 1220SOL     OW 4558   1.364   4.515   2.956
 1220SOL    HW1 4559   1.430   4.466   2.898
 1220SOL    HW2 4560   1.278   4.465   2.957
 1221SOL     OW 4561   5.768   3.938   6.128
 1221SOL    HW1 4562   5.674   3.930   6.097
 1221SOL    HW2 4563   5.770   3.946   6.227
 1222SOL     OW 4564   6.693   6.687   6.636
 1222SOL    HW1 4565   6.740   6.601   6.618
 1222SOL    HW2 4566   6.707   6.750   6.560
 1223SOL     OW 4567   3.244   6.352   0.474
 1223SOL    HW1 4568   3.249   6.321   0.568
 1223SOL    HW2 4569   3.238   6.273   0.413
 1224SOL     OW 4570   3.189   0.592   2.258
 1224SOL    HW1 4571   3.222   0.572   2.166
 1224SOL    HW2 4572   3.128   0.519   2.289
 1225SOL     OW 4573   2.490   4.119   6.673
 1225SOL    HW1 4574   2.431   4.082   6.602
 1225SOL    HW2 4575   2.440   4.125   6.760
 1226SOL     OW 4576   1.990   4.312   1.049
 1226SOL    HW1 4577   1.897   4.331   1.017
 1226SOL    HW2 4578   2.048   4.292   0.970
 1227SOL     OW 4579   0.333   3.260   6.468
 1227SOL    HW1 4580   0.263   3.301   6.408
 1227SOL    HW2 4581   0.331   3.305   6.557
 1228SOL     OW 4582   3.698   1.439   5.525
 1228SOL    HW1 4583   3.718   1.397   5.613
 1228SOL    HW2 4584   3.783   1.465   5.480
 1229SOL     OW 4585   3.970   4.423   6.442
 1229SOL    HW1 4586   3.917   4.341   6.421
 1229SOL    HW2 4587   3.919   4.480   6.507
 1230SOL     OW 4588   4.525   6.450   3.714
 1230SOL    HW1 4589   4.448   6.478   3.772
 1230SOL    HW2 4590   4.499   6.369   3.662
 1231SOL     OW 4591   1.769   4.356   4.222
 1231SOL    HW1 4592   1.809   4.296   4.290
 1231SOL    HW2 4593   1.814   4.341   4.133
 1232SOL     OW 4594   1.989   2.477   4.470
 1232SOL    HW1 4595   1.926   2.531   4.414
 1232SOL    HW2 4596   2.077   2.470   4.424
 1233SOL     OW 4597   0.919   3.289   4.509
 1233SOL    HW1 4598   1.015   3.302   4.533
 1233SOL    HW2 4599   0.906   3.197   4.472
 1234SOL     OW 4600   6.343   4.282   4.384
 1234SOL    HW1 4601   6.375   4.353   4.321
 1234SOL    HW2 4602   6.338   4.320   4.477
 1235SOL     OW 4603   6.228   6.048   4.471
 1235SOL    HW1 4604   6.263   6.009   4.556
 1235SOL    HW2 4605   6.303   6.088   4.419
 1236SOL     OW 4606   5.214   0.611   0.192
 1236SOL    HW1 4607   5.236   0.634   0.098
 1236SOL    HW2 4608   5.165   0.687   0.235
 1237SOL     OW 4609   3.043   4.532   6.946
 1237SOL    HW1 4610   3.083   4.513   6.856
 1237SOL    HW2 4611   3.114   4.524   7.016
 1238SOL     OW 4612   1.852   1.656   1.600
 1238SOL    HW1 4613   1.841   1.710   1.516
 1238SOL    HW2 4614   1.763   1.647   1.646
 1239SOL     OW 4615   0.002   6.460   6.694
 1239SOL    HW1 4616   6.971   6.525   6.752
 1239SOL    HW2 4617   0.090   6.436   6.736
 1240SOL     OW 4618   4.638   6.166   1.946
 1240SOL    HW1 4619   4.542   6.183   1.970
 1240SOL    HW2 4620   4.691   6.249   1.959
 1241SOL     OW 4621   6.217   3.185   3.401
 1241SOL    HW1 4622   6.162   3.229   3.472
 1241SOL    HW2 4623   6.311   3.222   3.405
 1242SOL     OW 4624   2.414   3.784   6.905
 1242SOL    HW1 4625   2.488   3.770   6.970
 1242SOL    HW2 4626   2.433   3.865   6.849
 1243SOL     OW 4627   2.675   5.435   5.389
 1243SOL    HW1 4628   2.706   5.490   5.311
 1243SOL    HW2 4629   2.587   5.468   5.422
 1244SOL     OW 4630   0.667   0.711   3.364
 1244SOL    HW1 4631   0.684   0.632   3.423
 1244SOL    HW2 4632   0.662   0.794   3.419
 1245SOL     OW 4633   3.022   3.407   6.205
 1245SOL    HW1 4634   2.978   3.461   6.133
 1245SOL    HW2 4635   3.117   3.389   6.180
 1246SOL     OW 4636   1.104   6.408   2.816
 1246SOL    HW1 4637   1.019   6.427   2.767
 1246SOL    HW2 4638   1.103   6.314   2.849
 1247SOL     OW 4639   1.792   6.583   6.801
 1247SOL    HW1 4640   1.772   6.654   6.733
 1247SOL    HW2 4641   1.825   6.625   6.885
 1248SOL     OW 4642   1.951   5.580   3.521
 1248SOL    HW1 4643   1.989   5.673   3.530
 1248SOL    HW2 4644   2.026   5.516   3.503
 1249SOL     OW 4645   6.147   3.314   3.088
 1249SOL    HW1 4646   6.208   3.280   3.160
 1249SOL    HW2 4647   6.074   3.247   3.073
 1250SOL     OW 4648   0.907   4.991   4.724
 1250SOL    HW1 4649   1.001   4.963   4.705
 1250SOL    HW2 4650   0.855   4.994   4.639
 1251SOL     OW 4651   3.734   0.218   5.312
 1251SOL    HW1 4652   3.806   0.162   5.272
 1251SOL    HW2 4653   3.673   0.252   5.240
 1252SOL     OW 4654   3.568   3.327   6.665
 1252SOL    HW1 4655   3.610   3.237   6.653
 1252SOL    HW2 4656   3.474   3.324   6.632
 1253SOL     OW 4657   4.032   5.780   2.828
 1253SOL    HW1 4658   3.994   5.834   2.903
 1253SOL    HW2 4659   4.085   5.704   2.866
 1254SOL     OW 4660   6.656   1.516   2.731
 1254SOL    HW1 4661   6.740   1.531   2.784
 1254SOL    HW2 4662   6.672   1.445   2.663
 1255SOL     OW 4663   6.001   6.875   6.964
 1255SOL    HW1 4664   5.958   6.823   0.021
 1255SOL    HW2 4665   6.017   6.815   6.886
 1256SOL     OW 4666   4.293   1.203   3.682
 1256SOL    HW1 4667   4.292   1.271   3.609
 1256SOL    HW2 4668   4.225   1.132   3.663
 1257SOL     OW 4669   6.028   1.659   3.951
 1257SOL    HW1 4670   6.090   1.620   4.019
 1257SOL    HW2 4671   6.008   1.754   3.974
 1258SOL     OW 4672   0.022   6.940   3.557
 1258SOL    HW1 4673   6.950   6.913   3.522
 1258SOL    HW2 4674   0.089   6.940   3.482
 1259SOL     OW 4675   4.419   2.378   5.302
 1259SOL    HW1 4676   4.426   2.477   5.288
 1259SOL    HW2 4677   4.339   2.344   5.252
 1260SOL     OW 4678   1.064   1.008   6.459
 1260SOL    HW1 4679   1.020   0.985   6.372
 1260SOL    HW2 4680   1.143   1.066   6.442
 1261SOL     OW 4681   6.570   4.199   0.825
 1261SOL    HW1 4682   6.470   4.202   0.823
 1261SOL    HW2 4683   6.607   4.287   0.797
 1262SOL     OW 4684   5.359   5.945   2.427
 1262SOL    HW1 4685   5.330   6.040   2.419
 1262SOL    HW2 4686   5.303   5.898   2.494
 1263SOL     OW 4687   0.940   2.034   3.355
 1263SOL    HW1 4688   1.013   2.103   3.361
 1263SOL    HW2 4689   0.859   2.075   3.312
 1264SOL     OW 4690   0.843   2.633   5.330
 1264SOL    HW1 4691   0.874   2.601   5.241
 1264SOL    HW2 4692   0.748   2.606   5.343
 1265SOL     OW 4693   5.492   6.573   5.368
 1265SOL    HW1 4694   5.465   6.520   5.288
 1265SOL    HW2 4695   5.555   6.645   5.340
 1266SOL     OW 4696   1.671   1.392   4.895
 1266SOL    HW1 4697   1.752   1.429   4.851
 1266SOL    HW2 4698   1.608   1.467   4.917
 1267SOL     OW 4699   3.495   0.419   3.441
 1267SOL    HW1 4700   3.584   0.464   3.446
 1267SOL    HW2 4701   3.503   0.334   3.389
 1268SOL     OW 4702   4.215   2.736   5.578
 1268SOL    HW1 4703   4.179   2.647   5.606
 1268SOL    HW2 4704   4.315   2.732   5.578
 1269SOL     OW 4705   6.210   1.949   4.254
 1269SOL    HW1 4706   6.167   2.038   4.269
 1269SOL    HW2 4707   6.239   1.911   4.341
 1270SOL     OW 4708   6.221   5.731   2.642
 1270SOL    HW1 4709   6.175   5.643   2.645
 1270SOL    HW2 4710   6.237   5.764   2.735
 1271SOL     OW 4711   1.822   1.422   1.237
 1271SOL    HW1 4712   1.808   1.386   1.329
 1271SOL    HW2 4713   1.769   1.368   1.172
 1272SOL     OW 4714   6.265   3.518   6.098
 1272SOL    HW1 4715   6.181   3.547   6.145
 1272SOL    HW2 4716   6.242   3.448   6.030
 1273SOL     OW 4717   1.074   4.517   4.987
 1273SOL    HW1 4718   0.983   4.527   5.029
 1273SOL    HW2 4719   1.140   4.575   5.035
 1274SOL     OW 4720   0.130   5.214   3.193
 1274SOL    HW1 4721   0.055   5.152   3.169
 1274SOL    HW2 4722   0.138   5.286   3.124
 1275SOL     OW 4723   1.919   1.504   3.069
 1275SOL    HW1 4724   1.914   1.406   3.088
 1275SOL    HW2 4725   1.906   1.554   3.155
 1276SOL     OW 4726   5.631   5.040   4.306
 1276SOL    HW1 4727   5.559   4.989   4.258
 1276SOL    HW2 4728   5.696   4.976   4.347
 1277SOL     OW 4729   1.085   6.120   0.344
 1277SOL    HW1 4730   1.051   6.214   0.340
 1277SOL    HW2 4731   1.184   6.121   0.354
 1278SOL     OW 4732   0.964   6.183   2.923
 1278SOL    HW1 4733   0.954   6.232   3.010
 1278SOL    HW2 4734   0.889   6.209   2.862
 1279SOL     OW 4735   2.428   2.605   1.623
 1279SOL    HW1 4736   2.376   2.605   1.709
 1279SOL    HW2 4737   2.523   2.632   1.642
 1280SOL     OW 4738   1.957   2.308   3.902
 1280SOL    HW1 4739   2.000   2.280   3.988
 1280SOL    HW2 4740   1.979   2.403   3.883
 1281SOL     OW 4741   4.837   6.170   4.754
 1281SOL    HW1 4742   4.921   6.161   4.701
 1281SOL    HW2 4743   4.834   6.262   4.795
 1282SOL     OW 4744   6.925   2.576   1.204
 1282SOL    HW1 4745   6.907   2.533   1.292
 1282SOL    HW2 4746   0.006   2.587   1.191
 1283SOL     OW 4747   0.090   3.125   4.822
 1283SOL    HW1 4748   0.139   3.167   4.746
 1283SOL    HW2 4749   0.073   3.194   4.893
 1284SOL     OW 4750   4.210   2.170   1.582
 1284SOL    HW1 4751   4.173   2.213   1.664
 1284SOL    HW2 4752   4.297   2.124   1.604
 1285SOL     OW 4753   4.563   0.989   5.490
 1285SOL    HW1 4754   4.585   1.084   5.470
 1285SOL    HW2 4755   4.647   0.940   5.514
 1286SOL     OW 4756   5.534   2.412   1.387
 1286SOL    HW1 4757   5.581   2.430   1.301
 1286SOL    HW2 4758   5.592   2.355   1.445
 1287SOL     OW 4759   6.699   5.047   4.689
 1287SOL    HW1 4760   6.777   4.986   4.680
 1287SOL    HW2 4761   6.681   5.092   4.601
 1288SOL     OW 4762   4.670   4.262   0.040
 1288SOL    HW1 4763   4.580   4.269   7.014
 1288SOL    HW2 4764   4.698   4.166   0.042
 1289SOL     OW 4765   6.720   0.003   1.706
 1289SOL    HW1 4766   6.682   6.944   1.654
 1289SOL    HW2 4767   6.748   6.989   1.796
 1290SOL     OW 4768   1.495   6.690   5.485
 1290SOL    HW1 4769   1.428   6.765   5.484
 1290SOL    HW2 4770   1.476   6.628   5.409
 1291SOL     OW 4771   6.477   4.580   3.247
 1291SOL    HW1 4772   6.394   4.623   3.281
 1291SOL    HW2 4773   6.508   4.628   3.165
 1292SOL     OW 4774   0.900   6.813   1.900
 1292SOL    HW1 4775   0.909   6.744   1.972
 1292SOL    HW2 4776   0.934   6.901   1.934
 1293SOL     OW 4777   4.429   1.409   0.068
 1293SOL    HW1 4778   4.528   1.417   0.085
 1293SOL    HW2 4779   4.394   1.328   0.115
 1294SOL     OW 4780   1.977   4.210   4.731
 1294SOL    HW1 4781   2.027   4.215   4.645
 1294SOL    HW2 4782   2.012   4.134   4.785
 1295SOL     OW 4783   6.174   4.528   0.700
 1295SOL    HW1 4784   6.179   4.593   0.624
 1295SOL    HW2 4785   6.099   4.553   0.761
 1296SOL     OW 4786   5.516   0.095   5.779
 1296SOL    HW1 4787   5.601   0.123   5.823
 1296SOL    HW2 4788   5.473   0.175   5.736
 1297SOL     OW 4789   0.662   0.768   1.899
 1297SOL    HW1 4790   0.576   0.728   1.931
 1297SOL    HW2 4791   0.735   0.699   1.905
 1298SOL     OW 4792   5.117   0.085   2.130
 1298SOL    HW1 4793   5.126   7.010   2.092
 1298SOL    HW2 4794   5.207   0.126   2.139
 1299SOL     OW 4795   0.837   3.796   4.509
 1299SOL    HW1 4796   0.858   3.864   4.578
 1299SOL    HW2 4797   0.921   3.766   4.464
 1300SOL     OW 4798   1.006   5.002   1.786
 1300SOL    HW1 4799   1.030   5.075   1.849
 1300SOL    HW2 4800   0.984   5.041   1.696
 1301SOL     OW 4801   0.274   0.264   0.553
 1301SOL    HW1 4802   0.247   0.360   0.546
 1301SOL    HW2 4803   0.322   0.237   0.469
 1302SOL     OW 4804   5.879   0.105   5.117
 1302SOL    HW1 4805   5.847   0.023   5.070
 1302SOL    HW2 4806   5.844   0.186   5.069
 1303SOL     OW 4807   3.416   6.502   1.576
 1303SOL    HW1 4808   3.432   6.445   1.495
 1303SOL    HW2 4809   3.499   6.506   1.631
 1304SOL     OW 4810   0.990   0.952   0.583
 1304SOL    HW1 4811   0.971   1.019   0.655
 1304SOL    HW2 4812   0.936   0.869   0.599
 1305SOL     OW 4813   4.603   3.159   6.282
 1305SOL    HW1 4814   4.552   3.131   6.363
 1305SOL    HW2 4815   4.539   3.186   6.210
 1306SOL     OW 4816   2.812   5.418   4.065
 1306SOL    HW1 4817   2.755   5.418   3.983
 1306SOL    HW2 4818   2.862   5.332   4.071
 1307SOL     OW 4819   2.692   2.252   3.496
 1307SOL    HW1 4820   2.772   2.193   3.483
 1307SOL    HW2 4821   2.639   2.221   3.574
 1308SOL     OW 4822   0.716   4.291   6.264
 1308SOL    HW1 4823   0.628   4.287   6.215
 1308SOL    HW2 4824   0.736   4.201   6.304
 1309SOL     OW 4825   5.645   4.671   6.662
 1309SOL    HW1 4826   5.619   4.680   6.759
 1309SOL    HW2 4827   5.721   4.607   6.654
 1310SOL     OW 4828   1.554   3.955   3.240
 1310SOL    HW1 4829   1.527   4.031   3.299
 1310SOL    HW2 4830   1.517   3.870   3.277
 1311SOL     OW 4831   6.233   5.451   0.480
 1311SOL    HW1 4832   6.329   5.451   0.455
 1311SOL    HW2 4833   6.203   5.357   0.497
 1312SOL     OW 4834   2.462   0.884   6.199
 1312SOL    HW1 4835   2.559   0.885   6.175
 1312SOL    HW2 4836   2.410   0.840   6.126
 1313SOL     OW 4837   6.490   6.101   2.542
 1313SOL    HW1 4838   6.575   6.153   2.551
 1313SOL    HW2 4839   6.512   6.005   2.520
 1314SOL     OW 4840   2.467   1.653   5.036
 1314SOL    HW1 4841   2.462   1.587   4.961
 1314SOL    HW2 4842   2.504   1.608   5.117
 1315SOL     OW 4843   5.973   1.472   3.337
 1315SOL    HW1 4844   5.938   1.424   3.256
 1315SOL    HW2 4845   6.010   1.561   3.309
 1316SOL     OW 4846   4.768   0.267   6.770
 1316SOL    HW1 4847   4.739   0.281   6.864
 1316SOL    HW2 4848   4.801   0.353   6.731
 1317SOL     OW 4849   3.317   3.552   5.954
 1317SOL    HW1 4850   3.242   3.617   5.941
 1317SOL    HW2 4851   3.315   3.484   5.880
 1318SOL     OW 4852   1.907   2.164   6.030
 1318SOL    HW1 4853   1.967   2.111   5.970
 1318SOL    HW2 4854   1.953   2.249   6.056
 1319SOL     OW 4855   6.625   0.012   1.217
 1319SOL    HW1 4856   6.575   0.057   1.292
 1319SOL    HW2 4857   6.596   0.051   1.130
 1320SOL     OW 4858   3.281   3.354   5.756
 1320SOL    HW1 4859   3.287   3.421   5.682
 1320SOL    HW2 4860   3.372   3.314   5.772
 1321SOL     OW 4861   6.377   2.698   0.487
 1321SOL    HW1 4862   6.421   2.685   0.576
 1321SOL    HW2 4863   6.366   2.795   0.468
 1322SOL     OW 4864   3.254   1.962   0.555
 1322SOL    HW1 4865   3.330   1.932   0.612
 1322SOL    HW2 4866   3.287   1.980   0.462
 1323SOL     OW 4867   3.435   6.992   0.598
 1323SOL    HW1 4868   3.507   6.934   0.560
 1323SOL    HW2 4869   3.372   6.936   0.651
 1324SOL     OW 4870   1.919   3.760   6.832
 1324SOL    HW1 4871   1.838   3.708   6.860
 1324SOL    HW2 4872   1.975   3.780   6.913
 1325SOL     OW 4873   2.879   5.839   5.377
 1325SOL    HW1 4874   2.892   5.857   5.280
 1325SOL    HW2 4875   2.903   5.744   5.397
 1326SOL     OW 4876   4.790   2.725   4.025
 1326SOL    HW1 4877   4.807   2.735   3.927
 1326SOL    HW2 4878   4.834   2.801   4.074
 1327SOL     OW 4879   5.393   5.603   2.182
 1327SOL    HW1 4880   5.414   5.508   2.157
 1327SOL    HW2 4881   5.329   5.604   2.258
 1328SOL     OW 4882   2.008   2.930   4.973
 1328SOL    HW1 4883   2.033   2.837   5.000
 1328SOL    HW2 4884   2.031   2.993   5.047
 1329SOL     OW 4885   1.176   3.113   3.852
 1329SOL    HW1 4886   1.084   3.134   3.820
 1329SOL    HW2 4887   1.238   3.105   3.774
 1330SOL     OW 4888   6.471   2.809   1.761
 1330SOL    HW1 4889   6.453   2.714   1.787
 1330SOL    HW2 4890   6.505   2.859   1.840
 1331SOL     OW 4891   4.537   1.733   3.679
 1331SOL    HW1 4892   4.438   1.727   3.693
 1331SOL    HW2 4893   4.566   1.828   3.688
 1332SOL     OW 4894   1.697   6.307   0.142
 1332SOL    HW1 4895   1.616   6.364   0.153
 1332SOL    HW2 4896   1.774   6.348   0.191
 1333SOL     OW 4897   4.010   3.920   3.360
 1333SOL    HW1 4898   4.007   3.987   3.435
 1333SOL    HW2 4899   3.954   3.953   3.284
 1334SOL     OW 4900   6.845   3.815   1.844
 1334SOL    HW1 4901   6.933   3.771   1.858
 1334SOL    HW2 4902   6.782   3.788   1.917
 1335SOL     OW 4903   1.306   3.884   2.725
 1335SOL    HW1 4904   1.316   3.944   2.804
 1335SOL    HW2 4905   1.373   3.908   2.655
 1336SOL     OW 4906   2.966   0.382   5.299
 1336SOL    HW1 4907   2.983   0.286   5.277
 1336SOL    HW2 4908   2.912   0.424   5.225
 1337SOL     OW 4909   6.309   1.050   3.368
 1337SOL    HW1 4910   6.302   1.132   3.311
 1337SOL    HW2 4911   6.221   1.001   3.368
 1338SOL     OW 4912   6.647   4.224   5.149
 1338SOL    HW1 4913   6.701   4.221   5.065
 1338SOL    HW2 4914   6.630   4.131   5.182
 1339SOL     OW 4915   0.066   0.244   0.143
 1339SOL    HW1 4916   0.154   0.266   0.100
 1339SOL    HW2 4917   0.015   0.328   0.158
 1340SOL     OW 4918   4.306   2.531   1.446
 1340SOL    HW1 4919   4.383   2.595   1.449
 1340SOL    HW2 4920   4.234   2.563   1.508
 1341SOL     OW 4921   4.711   6.125   0.115
 1341SOL    HW1 4922   4.708   6.156   0.020
 1341SOL    HW2 4923   4.696   6.026   0.119
 1342SOL     OW 4924   2.298   6.835   1.611
 1342SOL    HW1 4925   2.280   6.827   1.709
 1342SOL    HW2 4926   2.394   6.857   1.597
 1343SOL     OW 4927   5.791   5.721   3.227
 1343SOL    HW1 4928   5.886   5.740   3.203
 1343SOL    HW2 4929   5.784   5.629   3.266
 1344SOL     OW 4930   0.642   0.717   4.578
 1344SOL    HW1 4931   0.726   0.684   4.535
 1344SOL    HW2 4932   0.650   0.708   4.677
 1345SOL     OW 4933   0.161   6.302   0.207
 1345SOL    HW1 4934   0.086   6.272   0.147
 1345SOL    HW2 4935   0.175   6.234   0.279
 1346SOL     OW 4936   3.058   5.666   4.985
 1346SOL    HW1 4937   3.021   5.582   5.025
 1346SOL    HW2 4938   3.056   5.739   5.053
 1347SOL     OW 4939   1.268   0.033   6.264
 1347SOL    HW1 4940   1.199   6.989   6.301
 1347SOL    HW2 4941   1.227   0.092   6.195
 1348SOL     OW 4942   0.947   6.208   5.665
 1348SOL    HW1 4943   0.986   6.119   5.689
 1348SOL    HW2 4944   0.961   6.225   5.567
 1349SOL     OW 4945   4.830   3.014   3.820
 1349SOL    HW1 4946   4.815   2.920   3.787
 1349SOL    HW2 4947   4.872   3.012   3.911
 1350SOL     OW 4948   4.200   4.050   6.785
 1350SOL    HW1 4949   4.160   4.111   6.854
 1350SOL    HW2 4950   4.128   3.993   6.745
 1351SOL     OW 4951   0.255   2.685   5.182
 1351SOL    HW1 4952   0.185   2.615   5.191
 1351SOL    HW2 4953   0.303   2.673   5.095
 1352SOL     OW 4954   6.907   0.499   2.357
 1352SOL    HW1 4955   6.974   0.431   2.326
 1352SOL    HW2 4956   6.816   0.472   2.327
 1353SOL     OW 4957   0.501   1.180   0.595
 1353SOL    HW1 4958   0.543   1.178   0.504
 1353SOL    HW2 4959   0.565   1.221   0.660
 1354SOL     OW 4960   5.194   4.873   2.977
 1354SOL    HW1 4961   5.140   4.885   3.061
 1354SOL    HW2 4962   5.273   4.814   2.997
 1355SOL     OW 4963   6.132   3.175   6.198
 1355SOL    HW1 4964   6.206   3.183   6.131
 1355SOL    HW2 4965   6.093   3.266   6.216
 1356SOL     OW 4966   3.211   3.372   0.904
 1356SOL    HW1 4967   3.205   3.418   0.993
 1356SOL    HW2 4968   3.307   3.356   0.881
 1357SOL     OW 4969   0.411   3.569   4.660
 1357SOL    HW1 4970   0.463   3.494   4.700
 1357SOL    HW2 4971   0.460   3.605   4.581
 1358SOL     OW 4972   2.003   6.966   0.019
 1358SOL    HW1 4973   2.098   6.977   0.050
 1358SOL    HW2 4974   1.990   6.873   7.001
 1359SOL     OW 4975   6.993   4.604   2.054
 1359SOL    HW1 4976   6.951   4.515   2.038
 1359SOL    HW2 4977   6.977   4.663   1.976
 1360SOL     OW 4978   2.177   2.318   0.036
 1360SOL    HW1 4979   2.181   2.368   0.123
 1360SOL    HW2 4980   2.094   2.343   7.004
 1361SOL     OW 4981   0.327   4.985   5.142
 1361SOL    HW1 4982   0.273   4.905   5.117
 1361SOL    HW2 4983   0.351   4.979   5.239
 1362SOL     OW 4984   3.069   3.011   2.874
 1362SOL    HW1 4985   3.164   2.979   2.881
 1362SOL    HW2 4986   3.048   3.032   2.779
 1363SOL     OW 4987   1.052   6.189   4.333
 1363SOL    HW1 4988   1.047   6.089   4.331
 1363SOL    HW2 4989   1.081   6.222   4.243
 1364SOL     OW 4990   4.214   4.046   0.995
 1364SOL    HW1 4991   4.297   3.992   0.982
 1364SOL    HW2 4992   4.196   4.055   1.093
 1365SOL     OW 4993   0.573   3.089   6.859
 1365SOL    HW1 4994   0.499   3.024   6.874
 1365SOL    HW2 4995   0.623   3.065   6.776
 1366SOL     OW 4996   3.395   0.060   5.152
 1366SOL    HW1 4997   3.342   0.124   5.208
 1366SOL    HW2 4998   3.476   0.107   5.117
 1367SOL     OW 4999   2.374   1.241   2.621
 1367SOL    HW1 5000   2.276   1.255   2.637
 1367SOL    HW2 5001   2.426   1.318   2.659
 1368SOL     OW 5002   5.218   6.423   3.461
 1368SOL    HW1 5003   5.134   6.464   3.494
 1368SOL    HW2 5004   5.296   6.478   3.491
 1369SOL     OW 5005   1.356   1.136   3.169
 1369SOL    HW1 5006   1.322   1.083   3.091
 1369SOL    HW2 5007   1.313   1.227   3.169
 1370SOL     OW 5008   2.341   0.608   1.380
 1370SOL    HW1 5009   2.420   0.548   1.395
 1370SOL    HW2 5010   2.372   0.696   1.346
 1371SOL     OW 5011   4.104   0.574   6.617
 1371SOL    HW1 5012   4.068   0.505   6.553
 1371SOL    HW2 5013   4.167   0.634   6.568
 1372SOL     OW 5014   3.069   2.113   2.099
 1372SOL    HW1 5015   3.149   2.136   2.153
 1372SOL    HW2 5016   3.005   2.191   2.098
 1373SOL     OW 5017   1.383   6.183   0.716
 1373SOL    HW1 5018   1.342   6.255   0.772
 1373SOL    HW2 5019   1.460   6.221   0.664
 1374SOL     OW 5020   5.005   2.900   0.181
 1374SOL    HW1 5021   4.910   2.869   0.186
 1374SOL    HW2 5022   5.034   2.934   0.270
 1375SOL     OW 5023   0.283   3.989   5.283
 1375SOL    HW1 5024   0.360   3.926   5.272
 1375SOL    HW2 5025   0.314   4.083   5.268
 1376SOL     OW 5026   4.739   1.331   2.640
 1376SOL    HW1 5027   4.719   1.421   2.679
 1376SOL    HW2 5028   4.791   1.342   2.555
 1377SOL     OW 5029   0.957   5.583   4.619
 1377SOL    HW1 5030   0.954   5.483   4.627
 1377SOL    HW2 5031   0.969   5.623   4.710
 1378SOL     OW 5032   2.130   2.104   6.711
 1378SOL    HW1 5033   2.088   2.078   6.624
 1378SOL    HW2 5034   2.184   2.187   6.698
 1379SOL     OW 5035   4.018   6.074   0.982
 1379SOL    HW1 5036   3.929   6.121   0.981
 1379SOL    HW2 5037   4.041   6.046   0.888
 1380SOL     OW 5038   6.420   6.356   2.956
 1380SOL    HW1 5039   6.506   6.406   2.943
 1380SOL    HW2 5040   6.407   6.292   2.881
 1381SOL     OW 5041   6.089   0.531   1.432
 1381SOL    HW1 5042   6.032   0.554   1.511
 1381SOL    HW2 5043   6.087   0.432   1.417
 1382SOL     OW 5044   0.132   4.919   6.254
 1382SOL    HW1 5045   0.137   5.017   6.274
 1382SOL    HW2 5046   0.140   4.866   6.339
 1383SOL     OW 5047   2.466   7.003   0.551
 1383SOL    HW1 5048   2.548   7.010   0.494
 1383SOL    HW2 5049   2.468   6.918   0.603
 1384SOL     OW 5050   2.758   1.900   2.247
 1384SOL    HW1 5051   2.716   1.957   2.176
 1384SOL    HW2 5052   2.857   1.894   2.232
 1385SOL     OW 5053   5.217   2.953   3.264
 1385SOL    HW1 5054   5.191   2.871   3.214
 1385SOL    HW2 5055   5.168   2.955   3.352
 1386SOL     OW 5056   2.444   2.576   4.006
 1386SOL    HW1 5057   2.499   2.576   3.923
 1386SOL    HW2 5058   2.419   2.483   4.030
 1387SOL     OW 5059   2.152   0.353   4.707
 1387SOL    HW1 5060   2.244   0.391   4.700
 1387SOL    HW2 5061   2.155   0.269   4.761
 1388SOL     OW 5062   5.962   1.278   4.828
 1388SOL    HW1 5063   6.032   1.323   4.884
 1388SOL    HW2 5064   5.975   1.179   4.833
 1389SOL     OW 5065   6.383   0.911   4.299
 1389SOL    HW1 5066   6.310   0.863   4.347
 1389SOL    HW2 5067   6.393   1.003   4.336
 1390SOL     OW 5068   4.472   2.344   1.869
 1390SOL    HW1 5069   4.376   2.359   1.843
 1390SOL    HW2 5070   4.498   2.410   1.939
 1391SOL     OW 5071   5.667   1.577   4.710
 1391SOL    HW1 5072   5.684   1.675   4.718
 1391SOL    HW2 5073   5.753   1.529   4.695
 1392SOL     OW 5074   4.635   6.029   5.744
 1392SOL    HW1 5075   4.590   6.090   5.679
 1392SOL    HW2 5076   4.630   5.934   5.711
 1393SOL     OW 5077   4.873   0.521   6.981
 1393SOL    HW1 5078   4.862   0.594   0.031
 1393SOL    HW2 5079   4.912   0.441   0.008
 1394SOL     OW 5080   4.411   0.621   3.914
 1394SOL    HW1 5081   4.416   0.713   3.875
 1394SOL    HW2 5082   4.493   0.570   3.890
 1395SOL     OW 5083   1.313   5.537   2.188
 1395SOL    HW1 5084   1.256   5.597   2.245
 1395SOL    HW2 5085   1.299   5.560   2.091
 1396SOL     OW 5086   1.459   0.964   3.558
 1396SOL    HW1 5087   1.533   0.920   3.610
 1396SOL    HW2 5088   1.479   1.061   3.548
 1397SOL     OW 5089   0.788   5.381   4.751
 1397SOL    HW1 5090   0.757   5.356   4.660
 1397SOL    HW2 5091   0.769   5.305   4.814
 1398SOL     OW 5092   1.981   6.405   6.868
 1398SOL    HW1 5093   1.909   6.469   6.842
 1398SOL    HW2 5094   2.049   6.400   6.795
 1399SOL     OW 5095   3.809   6.992   0.416
 1399SOL    HW1 5096   3.837   6.908   0.370
 1399SOL    HW2 5097   3.710   7.004   0.406
 1400SOL     OW 5098   0.597   1.200   5.119
 1400SOL    HW1 5099   0.613   1.116   5.170
 1400SOL    HW2 5100   0.684   1.246   5.100
 1401SOL     OW 5101   5.311   0.391   2.793
 1401SOL    HW1 5102   5.310   0.489   2.775
 1401SOL    HW2 5103   5.399   0.364   2.831
 1402SOL     OW 5104   6.869   4.532   2.554
 1402SOL    HW1 5105   6.827   4.504   2.640
 1402SOL    HW2 5106   6.935   4.605   2.572
 1403SOL     OW 5107   3.127   3.042   6.559
 1403SOL    HW1 5108   3.178   3.021   6.642
 1403SOL    HW2 5109   3.080   3.130   6.570
 1404SOL     OW 5110   4.321   6.222   0.343
 1404SOL    HW1 5111   4.384   6.275   0.400
 1404SOL    HW2 5112   4.319   6.127   0.376
 1405SOL     OW 5113   0.817   3.867   0.821
 1405SOL    HW1 5114   0.810   3.932   0.896
 1405SOL    HW2 5115   0.749   3.889   0.751
 1406SOL     OW 5116   1.963   3.224   0.361
 1406SOL    HW1 5117   2.003   3.289   0.425
 1406SOL    HW2 5118   1.863   3.225   0.371
 1407SOL     OW 5119   0.917   3.031   1.705
 1407SOL    HW1 5120   0.900   2.946   1.655
 1407SOL    HW2 5121   1.007   3.027   1.748
 1408SOL     OW 5122   5.444   6.490   0.998
 1408SOL    HW1 5123   5.512   6.430   0.957
 1408SOL    HW2 5124   5.393   6.537   0.926
 1409SOL     OW 5125   6.425   1.528   5.862
 1409SOL    HW1 5126   6.328   1.502   5.867
 1409SOL    HW2 5127   6.463   1.533   5.955
 1410SOL     OW 5128   3.341   0.352   6.935
 1410SOL    HW1 5129   3.355   0.376   0.014
 1410SOL    HW2 5130   3.420   0.382   6.881
 1411SOL     OW 5131   3.473   4.795   6.910
 1411SOL    HW1 5132   3.392   4.774   6.856
 1411SOL    HW2 5133   3.497   4.717   6.967
 1412SOL     OW 5134   2.364   2.140   0.364
 1412SOL    HW1 5135   2.415   2.205   0.420
 1412SOL    HW2 5136   2.343   2.059   0.418
 1413SOL     OW 5137   2.124   1.811   5.321
 1413SOL    HW1 5138   2.076   1.727   5.346
 1413SOL    HW2 5139   2.222   1.799   5.338
 1414SOL     OW 5140   0.480   4.650   2.336
 1414SOL    HW1 5141   0.495   4.637   2.435
 1414SOL    HW2 5142   0.567   4.669   2.291
 1415SOL     OW 5143   2.930   1.953   4.683
 1415SOL    HW1 5144   2.999   2.015   4.720
 1415SOL    HW2 5145   2.852   2.005   4.650
 1416SOL     OW 5146   4.407   0.155   4.882
 1416SOL    HW1 5147   4.314   0.166   4.848
 1416SOL    HW2 5148   4.409   0.080   4.949
 1417SOL     OW 5149   3.503   3.594   4.582
 1417SOL    HW1 5150   3.536   3.516   4.635
 1417SOL    HW2 5151   3.461   3.660   4.644
 1418SOL     OW 5152   3.607   3.981   6.196
 1418SOL    HW1 5153   3.549   4.036   6.135
 1418SOL    HW2 5154   3.653   3.909   6.143
 1419SOL     OW 5155   1.543   6.195   2.183
 1419SOL    HW1 5156   1.598   6.197   2.267
 1419SOL    HW2 5157   1.524   6.100   2.159
 1420SOL     OW 5158   2.771   6.367   2.184
 1420SOL    HW1 5159   2.866   6.356   2.214
 1420SOL    HW2 5160   2.712   6.306   2.238
 1421SOL     OW 5161   1.562   5.290   6.478
 1421SOL    HW1 5162   1.530   5.292   6.573
 1421SOL    HW2 5163   1.645   5.235   6.472
 1422SOL     OW 5164   1.692   2.913   6.492
 1422SOL    HW1 5165   1.617   2.955   6.440
 1422SOL    HW2 5166   1.663   2.900   6.587
 1423SOL     OW 5167   4.122   0.758   5.151
 1423SOL    HW1 5168   4.106   0.706   5.235
 1423SOL    HW2 5169   4.173   0.701   5.086
 1424SOL     OW 5170   6.365   3.127   1.236
 1424SOL    HW1 5171   6.328   3.056   1.176
 1424SOL    HW2 5172   6.441   3.173   1.189
 1425SOL     OW 5173   5.471   6.985   3.772
 1425SOL    HW1 5174   5.446   6.898   3.731
 1425SOL    HW2 5175   5.432   6.990   3.864
 1426SOL     OW 5176   4.222   0.817   6.972
 1426SOL    HW1 5177   4.157   0.840   6.900
 1426SOL    HW2 5178   4.174   0.772   0.030
 1427SOL     OW 5179   1.639   0.463   4.149
 1427SOL    HW1 5180   1.722   0.455   4.205
 1427SOL    HW2 5181   1.632   0.385   4.087
 1428SOL     OW 5182   1.485   3.516   4.158
 1428SOL    HW1 5183   1.454   3.611   4.167
 1428SOL    HW2 5184   1.577   3.507   4.195
 1429SOL     OW 5185   6.235   0.518   2.236
 1429SOL    HW1 5186   6.311   0.510   2.171
 1429SOL    HW2 5187   6.267   0.567   2.317
 1430SOL     OW 5188   2.158   3.732   4.375
 1430SOL    HW1 5189   2.257   3.723   4.381
 1430SOL    HW2 5190   2.134   3.817   4.329
 1431SOL     OW 5191   3.160   1.777   0.198
 1431SOL    HW1 5192   3.095   1.791   0.124
 1431SOL    HW2 5193   3.237   1.722   0.165
 1432SOL     OW 5194   3.771   0.150   2.220
 1432SOL    HW1 5195   3.745   0.134   2.315
 1432SOL    HW2 5196   3.689   0.162   2.165
 1433SOL     OW 5197   3.063   1.464   4.160
 1433SOL    HW1 5198   3.095   1.532   4.093
 1433SOL    HW2 5199   2.968   1.485   4.185
 1434SOL     OW 5200   5.459   4.313   0.542
 1434SOL    HW1 5201   5.534   4.363   0.585
 1434SOL    HW2 5202   5.442   4.228   0.592
 1435SOL     OW 5203   1.439   0.040   3.992
 1435SOL    HW1 5204   1.527   7.010   3.997
 1435SOL    HW2 5205   1.389   0.026   4.077
 1436SOL     OW 5206   5.663   1.039   0.530
 1436SOL    HW1 5207   5.722   1.120   0.529
 1436SOL    HW2 5208   5.637   1.018   0.624
 1437SOL     OW 5209   3.804   1.011   0.766
 1437SOL    HW1 5210   3.779   0.919   0.736
 1437SOL    HW2 5211   3.722   1.062   0.790
 1438SOL     OW 5212   2.313   0.233   2.379
 1438SOL    HW1 5213   2.294   0.300   2.307
 1438SOL    HW2 5214   2.228   0.190   2.409
 1439SOL     OW 5215   0.200   5.153   6.938
 1439SOL    HW1 5216   0.115   5.128   6.890
 1439SOL    HW2 5217   0.276   5.098   6.903
 1440SOL     OW 5218   3.617   2.984   2.690
 1440SOL    HW1 5219   3.709   2.998   2.654
 1440SOL    HW2 5220   3.550   2.997   2.617
 1441SOL     OW 5221   6.334   2.239   4.953
 1441SOL    HW1 5222   6.322   2.140   4.965
 1441SOL    HW2 5223   6.335   2.261   4.856
 1442SOL     OW 5224   5.250   0.180   0.104
 1442SOL    HW1 5225   5.288   0.272   0.093
 1442SOL    HW2 5226   5.285   0.121   0.031
 1443SOL     OW 5227   1.505   2.652   3.581
 1443SOL    HW1 5228   1.436   2.712   3.623
 1443SOL    HW2 5229   1.542   2.590   3.650
 1444SOL     OW 5230   5.001   0.020   5.187
 1444SOL    HW1 5231   4.953   0.040   5.102
 1444SOL    HW2 5232   4.999   0.100   5.247
 1445SOL     OW 5233   6.789   2.031   0.329
 1445SOL    HW1 5234   6.782   2.130   0.339
 1445SOL    HW2 5235   6.801   1.989   0.418
 1446SOL     OW 5236   3.735   6.763   0.932
 1446SOL    HW1 5237   3.655   6.823   0.925
 1446SOL    HW2 5238   3.806   6.808   0.986
 1447SOL     OW 5239   6.176   1.424   4.916
 1447SOL    HW1 5240   6.194   1.443   5.013
 1447SOL    HW2 5241   6.217   1.496   4.860
 1448SOL     OW 5242   5.125   0.668   6.857
 1448SOL    HW1 5243   5.090   0.693   6.766
 1448SOL    HW2 5244   5.068   0.710   6.927
 1449SOL     OW 5245   4.842   6.207   1.058
 1449SOL    HW1 5246   4.762   6.248   1.015
 1449SOL    HW2 5247   4.924   6.233   1.006
 1450SOL     OW 5248   5.682   2.389   3.446
 1450SOL    HW1 5249   5.727   2.309   3.409
 1450SOL    HW2 5250   5.697   2.393   3.545
 1451SOL     OW 5251   1.794   6.446   2.170
 1451SOL    HW1 5252   1.788   6.546   2.172
 1451SOL    HW2 5253   1.762   6.412   2.081
 1452SOL     OW 5254   3.894   0.590   5.334
 1452SOL    HW1 5255   3.817   0.560   5.391
 1452SOL    HW2 5256   3.980   0.571   5.381
 1453SOL     OW 5257   4.391   4.629   4.261
 1453SOL    HW1 5258   4.367   4.707   4.203
 1453SOL    HW2 5259   4.343   4.637   4.349
 1454SOL     OW 5260   4.774   4.606   0.817
 1454SOL    HW1 5261   4.813   4.525   0.861
 1454SOL    HW2 5262   4.836   4.639   0.746
 1455SOL     OW 5263   2.642   1.822   1.755
 1455SOL    HW1 5264   2.553   1.822   1.709
 1455SOL    HW2 5265   2.707   1.875   1.700
 1456SOL     OW 5266   6.173   5.263   4.767
 1456SOL    HW1 5267   6.116   5.237   4.689
 1456SOL    HW2 5268   6.156   5.359   4.791
 1457SOL     OW 5269   2.101   0.091   3.427
 1457SOL    HW1 5270   2.142   0.026   3.363
 1457SOL    HW2 5271   2.063   0.169   3.377
 1458SOL     OW 5272   0.308   6.018   0.095
 1458SOL    HW1 5273   0.213   6.019   0.127
 1458SOL    HW2 5274   0.348   6.108   0.109
 1459SOL     OW 5275   2.571   7.004   0.872
 1459SOL    HW1 5276   2.652   0.007   0.817
 1459SOL    HW2 5277   2.597   6.943   0.947
 1460SOL     OW 5278   0.862   0.067   0.102
 1460SOL    HW1 5279   0.902   0.006   0.170
 1460SOL    HW2 5280   0.888   0.036   0.010
 1461SOL     OW 5281   4.420   5.378   2.339
 1461SOL    HW1 5282   4.445   5.379   2.436
 1461SOL    HW2 5283   4.449   5.292   2.298
 1462SOL     OW 5284   4.956   0.482   5.279
 1462SOL    HW1 5285   4.945   0.569   5.327
 1462SOL    HW2 5286   4.992   0.499   5.187
 1463SOL     OW 5287   0.410   1.478   5.350
 1463SOL    HW1 5288   0.382   1.389   5.316
 1463SOL    HW2 5289   0.361   1.499   5.435
 1464SOL     OW 5290   0.167   1.114   1.568
 1464SOL    HW1 5291   0.233   1.040   1.580
 1464SOL    HW2 5292   0.178   1.153   1.477
 1465SOL     OW 5293   0.908   0.263   4.742
 1465SOL    HW1 5294   0.957   0.242   4.657
 1465SOL    HW2 5295   0.810   0.274   4.722
 1466SOL     OW 5296   5.500   5.104   4.840
 1466SOL    HW1 5297   5.422   5.061   4.794
 1466SOL    HW2 5298   5.581   5.093   4.783
 1467SOL     OW 5299   5.586   3.631   3.353
 1467SOL    HW1 5300   5.561   3.535   3.357
 1467SOL    HW2 5301   5.675   3.644   3.396
 1468SOL     OW 5302   5.706   6.834   2.254
 1468SOL    HW1 5303   5.695   6.927   2.291
 1468SOL    HW2 5304   5.743   6.839   2.161
 1469SOL     OW 5305   0.623   1.090   2.536
 1469SOL    HW1 5306   0.532   1.058   2.561
 1469SOL    HW2 5307   0.690   1.050   2.599
 1470SOL     OW 5308   6.818   0.997   3.054
 1470SOL    HW1 5309   6.792   0.966   3.145
 1470SOL    HW2 5310   6.787   1.091   3.041
 1471SOL     OW 5311   6.192   0.507   1.187
 1471SOL    HW1 5312   6.197   0.584   1.124
 1471SOL    HW2 5313   6.169   0.540   1.279
 1472SOL     OW 5314   4.242   5.698   5.079
 1472SOL    HW1 5315   4.239   5.621   5.143
 1472SOL    HW2 5316   4.223   5.783   5.128
 1473SOL     OW 5317   5.876   4.139   3.099
 1473SOL    HW1 5318   5.840   4.047   3.117
 1473SOL    HW2 5319   5.819   4.185   3.032
 1474SOL     OW 5320   4.685   5.056   4.072
 1474SOL    HW1 5321   4.692   5.156   4.077
 1474SOL    HW2 5322   4.767   5.016   4.114
 1475SOL     OW 5323   6.126   0.732   3.605
 1475SOL    HW1 5324   6.065   0.716   3.528
 1475SOL    HW2 5325   6.221   0.717   3.576
 1476SOL     OW 5326   6.612   2.399   1.553
 1476SOL    HW1 5327   6.627   2.373   1.458
 1476SOL    HW2 5328   6.654   2.488   1.571
 1477SOL     OW 5329   2.533   5.861   3.623
 1477SOL    HW1 5330   2.443   5.822   3.605
 1477SOL    HW2 5331   2.600   5.823   3.560
 1478SOL     OW 5332   6.981   4.550   1.563
 1478SOL    HW1 5333   6.985   4.532   1.465
 1478SOL    HW2 5334   0.053   4.531   1.604
 1479SOL     OW 5335   0.896   4.873   0.591
 1479SOL    HW1 5336   0.871   4.793   0.646
 1479SOL    HW2 5337   0.814   4.911   0.548
 1480SOL     OW 5338   2.818   1.108   0.309
 1480SOL    HW1 5339   2.819   1.198   0.352
 1480SOL    HW2 5340   2.729   1.094   0.265
 1481SOL     OW 5341   0.208   2.521   6.015
 1481SOL    HW1 5342   0.191   2.556   6.107
 1481SOL    HW2 5343   0.136   2.456   5.990
 1482SOL     OW 5344   5.409   0.810   6.549
 1482SOL    HW1 5345   5.388   0.790   6.454
 1482SOL    HW2 5346   5.324   0.828   6.599
 1483SOL     OW 5347   6.618   2.661   6.653
 1483SOL    HW1 5348   6.628   2.756   6.681
 1483SOL    HW2 5349   6.533   2.624   6.689
 1484SOL     OW 5350   6.894   6.822   3.007
 1484SOL    HW1 5351   6.870   6.862   2.919
 1484SOL    HW2 5352   6.836   6.743   3.026
 1485SOL     OW 5353   5.755   2.407   3.711
 1485SOL    HW1 5354   5.818   2.352   3.767
 1485SOL    HW2 5355   5.785   2.502   3.710
 1486SOL     OW 5356   5.466   2.544   1.655
 1486SOL    HW1 5357   5.504   2.479   1.720
 1486SOL    HW2 5358   5.468   2.505   1.563
 1487SOL     OW 5359   6.435   1.273   6.070
 1487SOL    HW1 5360   6.347   1.243   6.036
 1487SOL    HW2 5361   6.434   1.373   6.082
 1488SOL     OW 5362   4.905   1.678   3.342
 1488SOL    HW1 5363   4.811   1.678   3.376
 1488SOL    HW2 5364   4.945   1.587   3.353
 1489SOL     OW 5365   3.917   5.210   4.654
 1489SOL    HW1 5366   3.889   5.198   4.749
 1489SOL    HW2 5367   4.001   5.159   4.637
 1490SOL     OW 5368   2.300   2.764   1.096
 1490SOL    HW1 5369   2.355   2.756   1.179
 1490SOL    HW2 5370   2.203   2.763   1.121
 1491SOL     OW 5371   6.715   2.219   5.333
 1491SOL    HW1 5372   6.739   2.299   5.278
 1491SOL    HW2 5373   6.618   2.199   5.322
 1492SOL     OW 5374   5.817   2.896   2.215
 1492SOL    HW1 5375   5.738   2.904   2.154
 1492SOL    HW2 5376   5.864   2.984   2.219
 1493SOL     OW 5377   6.090   1.784   4.889
 1493SOL    HW1 5378   6.018   1.717   4.910
 1493SOL    HW2 5379   6.053   1.854   4.827
 1494SOL     OW 5380   5.903   1.958   4.429
 1494SOL    HW1 5381   5.977   2.011   4.387
 1494SOL    HW2 5382   5.889   1.873   4.378
 1495SOL     OW 5383   0.889   3.064   3.098
 1495SOL    HW1 5384   0.869   2.980   3.149
 1495SOL    HW2 5385   0.902   3.041   3.001
 1496SOL     OW 5386   0.809   0.563   2.962
 1496SOL    HW1 5387   0.844   0.595   3.049
 1496SOL    HW2 5388   0.709   0.574   2.960
 1497SOL     OW 5389   5.101   4.344   5.748
 1497SOL    HW1 5390   5.116   4.395   5.663
 1497SOL    HW2 5391   5.182   4.352   5.806
 1498SOL     OW 5392   2.130   5.701   0.302
 1498SOL    HW1 5393   2.153   5.726   0.208
 1498SOL    HW2 5394   2.160   5.775   0.363
 1499SOL     OW 5395   0.729   4.344   4.777
 1499SOL    HW1 5396   0.823   4.377   4.788
 1499SOL    HW2 5397   0.673   4.415   4.733
 1500SOL     OW 5398   4.652   6.710   5.265
 1500SOL    HW1 5399   4.637   6.669   5.175
 1500SOL    HW2 5400   4.601   6.658   5.333
 1501SOL     OW 5401   4.155   0.330   6.801
 1501SOL    HW1 5402   4.193   0.422   6.795
 1501SOL    HW2 5403   4.135   0.296   6.708
 1502SOL     OW 5404   0.136   6.166   6.668
 1502SOL    HW1 5405   0.184   6.248   6.700
 1502SOL    HW2 5406   0.117   6.176   6.570
 1503SOL     OW 5407   3.278   4.382   5.491
 1503SOL    HW1 5408   3.345   4.323   5.447
 1503SOL    HW2 5409   3.197   4.389   5.433
 1504SOL     OW 5410   2.743   6.383   4.191
 1504SOL    HW1 5411   2.698   6.370   4.279
 1504SOL    HW2 5412   2.744   6.480   4.168
 1505SOL     OW 5413   4.959   5.653   2.294
 1505SOL    HW1 5414   4.945   5.557   2.270
 1505SOL    HW2 5415   4.943   5.711   2.214
 1506SOL     OW 5416   0.964   6.824   2.922
 1506SOL    HW1 5417   0.943   6.726   2.915
 1506SOL    HW2 5418   1.061   6.839   2.905
 1507SOL     OW 5419   2.907   2.364   6.436
 1507SOL    HW1 5420   3.000   2.374   6.473
 1507SOL    HW2 5421   2.913   2.338   6.340
 1508SOL     OW 5422   4.234   0.189   0.470
 1508SOL    HW1 5423   4.243   0.120   0.398
 1508SOL    HW2 5424   4.138   0.215   0.479
 1509SOL     OW 5425   5.509   1.409   0.014
 1509SOL    HW1 5426   5.594   1.361   7.012
 1509SOL    HW2 5427   5.510   1.443   0.108
 1510SOL     OW 5428   0.443   1.870   3.354
 1510SOL    HW1 5429   0.346   1.885   3.332
 1510SOL    HW2 5430   0.450   1.822   3.441
 1511SOL     OW 5431   1.877   2.695   0.557
 1511SOL    HW1 5432   1.811   2.717   0.629
 1511SOL    HW2 5433   1.874   2.597   0.537
 1512SOL     OW 5434   6.116   0.671   2.635
 1512SOL    HW1 5435   6.028   0.696   2.595
 1512SOL    HW2 5436   6.139   0.736   2.707
 1513SOL     OW 5437   3.822   0.970   2.467
 1513SOL    HW1 5438   3.822   0.877   2.430
 1513SOL    HW2 5439   3.883   1.027   2.412
 1514SOL     OW 5440   4.826   1.257   6.370
 1514SOL    HW1 5441   4.815   1.171   6.321
 1514SOL    HW2 5442   4.818   1.334   6.306
 1515SOL     OW 5443   6.327   5.527   5.296
 1515SOL    HW1 5444   6.401   5.477   5.251
 1515SOL    HW2 5445   6.360   5.563   5.383
 1516SOL     OW 5446   0.457   0.975   0.821
 1516SOL    HW1 5447   0.457   1.043   0.748
 1516SOL    HW2 5448   0.364   0.960   0.853
 1517SOL     OW 5449   3.612   5.189   3.706
 1517SOL    HW1 5450   3.519   5.214   3.732
 1517SOL    HW2 5451   3.665   5.167   3.788
 1518SOL     OW 5452   0.536   4.932   1.001
 1518SOL    HW1 5453   0.521   4.860   1.069
 1518SOL    HW2 5454   0.632   4.959   1.002
 1519SOL     OW 5455   0.114   4.117   1.156
 1519SOL    HW1 5456   0.151   4.027   1.176
 1519SOL    HW2 5457   0.134   4.179   1.232
 1520SOL     OW 5458   1.589   2.729   2.479
 1520SOL    HW1 5459   1.651   2.798   2.517
 1520SOL    HW2 5460   1.495   2.751   2.504
 1521SOL     OW 5461   2.748   4.278   5.302
 1521SOL    HW1 5462   2.772   4.369   5.268
 1521SOL    HW2 5463   2.831   4.225   5.316
 1522SOL     OW 5464   0.944   2.484   6.402
 1522SOL    HW1 5465   0.950   2.454   6.307
 1522SOL    HW2 5466   0.849   2.479   6.432
 1523SOL     OW 5467   6.625   1.028   0.709
 1523SOL    HW1 5468   6.602   1.009   0.613
 1523SOL    HW2 5469   6.592   1.119   0.733
 1524SOL     OW 5470   6.003   0.671   3.372
 1524SOL    HW1 5471   6.092   0.642   3.337
 1524SOL    HW2 5472   5.949   0.590   3.395
 1525SOL     OW 5473   4.547   1.592   5.999
 1525SOL    HW1 5474   4.552   1.515   6.063
 1525SOL    HW2 5475   4.489   1.566   5.921
 1526SOL     OW 5476   6.638   1.595   6.953
 1526SOL    HW1 5477   6.709   1.525   6.961
 1526SOL    HW2 5478   6.672   1.682   6.990
 1527SOL     OW 5479   2.945   1.672   5.756
 1527SOL    HW1 5480   2.917   1.693   5.662
 1527SOL    HW2 5481   2.874   1.702   5.819
 1528SOL     OW 5482   5.015   5.542   4.118
 1528SOL    HW1 5483   4.967   5.470   4.170
 1528SOL    HW2 5484   5.021   5.514   4.022
 1529SOL     OW 5485   3.025   0.830   5.004
 1529SOL    HW1 5486   2.946   0.814   4.944
 1529SOL    HW2 5487   3.065   0.919   4.982
 1530SOL     OW 5488   3.114   0.018   2.055
 1530SOL    HW1 5489   3.022   0.036   2.021
 1530SOL    HW2 5490   3.136   6.938   2.043
 1531SOL     OW 5491   5.915   0.119   6.285
 1531SOL    HW1 5492   5.899   0.178   6.206
 1531SOL    HW2 5493   5.858   0.036   6.276
 1532SOL     OW 5494   3.274   2.600   5.390
 1532SOL    HW1 5495   3.251   2.530   5.323
 1532SOL    HW2 5496   3.310   2.556   5.473
 1533SOL     OW 5497   5.389   2.752   6.877
 1533SOL    HW1 5498   5.413   2.658   6.902
 1533SOL    HW2 5499   5.304   2.779   6.923
 1534SOL     OW 5500   6.626   0.055   2.037
 1534SOL    HW1 5501   6.577   0.064   1.950
 1534SOL    HW2 5502   6.562   0.027   2.109
 1535SOL     OW 5503   4.863   4.560   4.115
 1535SOL    HW1 5504   4.887   4.472   4.155
 1535SOL    HW2 5505   4.766   4.578   4.130
 1536SOL     OW 5506   3.155   5.212   3.517
 1536SOL    HW1 5507   3.222   5.160   3.570
 1536SOL    HW2 5508   3.202   5.263   3.445
 1537SOL     OW 5509   2.476   5.506   4.206
 1537SOL    HW1 5510   2.571   5.524   4.230
 1537SOL    HW2 5511   2.421   5.502   4.290
 1538SOL     OW 5512   3.392   4.809   6.470
 1538SOL    HW1 5513   3.328   4.882   6.447
 1538SOL    HW2 5514   3.346   4.721   6.459
 1539SOL     OW 5515   3.739   5.502   1.688
 1539SOL    HW1 5516   3.641   5.514   1.671
 1539SOL    HW2 5517   3.761   5.538   1.779
 1540SOL     OW 5518   5.877   0.404   5.409
 1540SOL    HW1 5519   5.909   0.443   5.322
 1540SOL    HW2 5520   5.932   0.441   5.484
 1541SOL     OW 5521   4.624   1.510   0.787
 1541SOL    HW1 5522   4.709   1.516   0.736
 1541SOL    HW2 5523   4.632   1.562   0.873
 1542SOL     OW 5524   1.039   6.329   0.791
 1542SOL    HW1 5525   0.979   6.363   0.863
 1542SOL    HW2 5526   1.133   6.357   0.811
 1543SOL     OW 5527   3.571   3.922   3.376
 1543SOL    HW1 5528   3.654   3.907   3.430
 1543SOL    HW2 5529   3.589   3.995   3.309
 1544SOL     OW 5530   3.362   3.828   2.820
 1544SOL    HW1 5531   3.404   3.913   2.851
 1544SOL    HW2 5532   3.278   3.811   2.870
 1545SOL     OW 5533   6.857   0.469   4.231
 1545SOL    HW1 5534   6.848   0.516   4.319
 1545SOL    HW2 5535   6.799   0.388   4.231
 1546SOL     OW 5536   6.496   6.844   6.301
 1546SOL    HW1 5537   6.434   6.920   6.317
 1546SOL    HW2 5538   6.463   6.791   6.223
 1547SOL     OW 5539   3.199   5.947   0.010
 1547SOL    HW1 5540   3.121   5.953   6.965
 1547SOL    HW2 5541   3.197   5.860   0.058
 1548SOL     OW 5542   5.870   4.209   4.203
 1548SOL    HW1 5543   5.938   4.258   4.258
 1548SOL    HW2 5544   5.862   4.115   4.236
 1549SOL     OW 5545   6.615   2.104   0.656
 1549SOL    HW1 5546   6.603   2.201   0.678
 1549SOL    HW2 5547   6.565   2.082   0.572
 1550SOL     OW 5548   2.285   5.731   2.467
 1550SOL    HW1 5549   2.256   5.636   2.475
 1550SOL    HW2 5550   2.362   5.737   2.404
 1551SOL     OW 5551   0.579   3.828   1.254
 1551SOL    HW1 5552   0.632   3.745   1.236
 1551SOL    HW2 5553   0.482   3.803   1.262
 1552SOL     OW 5554   0.801   6.673   1.672
 1552SOL    HW1 5555   0.813   6.577   1.699
 1552SOL    HW2 5556   0.847   6.732   1.738
 1553SOL     OW 5557   5.587   1.334   6.108
 1553SOL    HW1 5558   5.665   1.292   6.153
 1553SOL    HW2 5559   5.570   1.290   6.020
 1554SOL     OW 5560   2.315   2.236   1.421
 1554SOL    HW1 5561   2.381   2.173   1.380
 1554SOL    HW2 5562   2.359   2.288   1.494
 1555SOL     OW 5563   3.857   0.847   6.956
 1555SOL    HW1 5564   3.849   0.748   6.968
 1555SOL    HW2 5565   3.912   0.866   6.875
 1556SOL     OW 5566   4.239   2.042   6.571
 1556SOL    HW1 5567   4.172   2.068   6.501
 1556SOL    HW2 5568   4.265   1.947   6.558
 1557SOL     OW 5569   1.771   3.690   0.380
 1557SOL    HW1 5570   1.759   3.779   0.336
 1557SOL    HW2 5571   1.704   3.680   0.454
 1558SOL     OW 5572   5.233   2.888   6.489
 1558SOL    HW1 5573   5.138   2.866   6.510
 1558SOL    HW2 5574   5.261   2.968   6.542
 1559SOL     OW 5575   3.226   5.924   3.205
 1559SOL    HW1 5576   3.135   5.936   3.166
 1559SOL    HW2 5577   3.260   6.013   3.236
 1560SOL     OW 5578   3.518   2.283   1.174
 1560SOL    HW1 5579   3.574   2.245   1.101
 1560SOL    HW2 5580   3.554   2.372   1.201
 1561SOL     OW 5581   5.821   6.637   0.910
 1561SOL    HW1 5582   5.789   6.612   0.818
 1561SOL    HW2 5583   5.920   6.625   0.915
 1562SOL     OW 5584   3.495   0.354   2.449
 1562SOL    HW1 5585   3.462   0.272   2.498
 1562SOL    HW2 5586   3.452   0.435   2.488
 1563SOL     OW 5587   2.075   2.281   4.130
 1563SOL    HW1 5588   2.136   2.325   4.196
 1563SOL    HW2 5589   1.983   2.273   4.170
 1564SOL     OW 5590   0.302   0.992   2.929
 1564SOL    HW1 5591   0.246   1.073   2.948
 1564SOL    HW2 5592   0.316   0.941   3.014
 1565SOL     OW 5593   3.977   1.328   4.595
 1565SOL    HW1 5594   4.061   1.328   4.649
 1565SOL    HW2 5595   3.916   1.400   4.629
 1566SOL     OW 5596   6.207   4.108   3.871
 1566SOL    HW1 5597   6.145   4.175   3.831
 1566SOL    HW2 5598   6.192   4.019   3.828
 1567SOL     OW 5599   5.269   0.426   4.980
 1567SOL    HW1 5600   5.177   0.411   4.943
 1567SOL    HW2 5601   5.267   0.506   5.041
 1568SOL     OW 5602   2.878   4.885   1.536
 1568SOL    HW1 5603   2.840   4.834   1.613
 1568SOL    HW2 5604   2.912   4.821   1.467
 1569SOL     OW 5605   2.975   0.758   2.485
 1569SOL    HW1 5606   2.940   0.797   2.570
 1569SOL    HW2 5607   3.074   0.771   2.479
 1570SOL     OW 5608   2.466   6.071   6.101
 1570SOL    HW1 5609   2.499   6.064   6.195
 1570SOL    HW2 5610   2.375   6.029   6.095
 1571SOL     OW 5611   6.646   3.600   3.889
 1571SOL    HW1 5612   6.624   3.526   3.952
 1571SOL    HW2 5613   6.625   3.688   3.932
 1572SOL     OW 5614   2.988   5.689   2.723
 1572SOL    HW1 5615   2.906   5.647   2.683
 1572SOL    HW2 5616   3.044   5.619   2.765
 1573SOL     OW 5617   4.995   6.191   0.136
 1573SOL    HW1 5618   4.896   6.181   0.138
 1573SOL    HW2 5619   5.038   6.100   0.130
 1574SOL     OW 5620   0.747   4.673   2.844
 1574SOL    HW1 5621   0.696   4.675   2.930
 1574SOL    HW2 5622   0.721   4.592   2.792
 1575SOL     OW 5623   6.951   2.777   0.147
 1575SOL    HW1 5624   6.900   2.701   0.107
 1575SOL    HW2 5625   6.893   2.825   0.213
 1576SOL     OW 5626   2.052   5.871   1.619
 1576SOL    HW1 5627   2.141   5.873   1.574
 1576SOL    HW2 5628   2.006   5.959   1.607
 1577SOL     OW 5629   3.907   5.687   4.618
 1577SOL    HW1 5630   3.883   5.784   4.609
 1577SOL    HW2 5631   3.897   5.643   4.529
 1578SOL     OW 5632   5.050   1.063   1.988
 1578SOL    HW1 5633   5.140   1.089   1.953
 1578SOL    HW2 5634   4.988   1.044   1.911
 1579SOL     OW 5635   1.461   2.688   1.878
 1579SOL    HW1 5636   1.537   2.718   1.820
 1579SOL    HW2 5637   1.472   2.727   1.970
 1580SOL     OW 5638   2.981   3.707   2.610
 1580SOL    HW1 5639   2.961   3.705   2.511
 1580SOL    HW2 5640   2.923   3.640   2.656
 1581SOL     OW 5641   6.200   4.438   5.127
 1581SOL    HW1 5642   6.219   4.529   5.164
 1581SOL    HW2 5643   6.101   4.421   5.131
 1582SOL     OW 5644   4.483   5.931   5.133
 1582SOL    HW1 5645   4.578   5.955   5.151
 1582SOL    HW2 5646   4.479   5.843   5.085
 1583SOL     OW 5647   1.512   5.373   4.976
 1583SOL    HW1 5648   1.551   5.317   5.048
 1583SOL    HW2 5649   1.476   5.314   4.903
 1584SOL     OW 5650   6.924   3.684   0.290
 1584SOL    HW1 5651   6.939   3.683   0.191
 1584SOL    HW2 5652   6.830   3.713   0.309
 1585SOL     OW 5653   4.266   6.585   3.818
 1585SOL    HW1 5654   4.338   6.584   3.887
 1585SOL    HW2 5655   4.185   6.537   3.853
 1586SOL     OW 5656   3.475   6.283   3.391
 1586SOL    HW1 5657   3.525   6.206   3.351
 1586SOL    HW2 5658   3.522   6.312   3.475
 1587SOL     OW 5659   2.875   6.304   6.534
 1587SOL    HW1 5660   2.938   6.379   6.553
 1587SOL    HW2 5661   2.788   6.321   6.581
 1588SOL     OW 5662   6.678   1.749   3.793
 1588SOL    HW1 5663   6.664   1.829   3.735
 1588SOL    HW2 5664   6.655   1.666   3.743
 1589SOL     OW 5665   6.627   4.103   4.314
 1589SOL    HW1 5666   6.529   4.119   4.330
 1589SOL    HW2 5667   6.678   4.186   4.336
 1590SOL     OW 5668   6.854   1.943   3.452
 1590SOL    HW1 5669   6.856   1.998   3.368
 1590SOL    HW2 5670   6.892   1.853   3.433
 1591SOL     OW 5671   1.736   6.184   1.220
 1591SOL    HW1 5672   1.700   6.145   1.135
 1591SOL    HW2 5673   1.705   6.279   1.228
 1592SOL     OW 5674   0.240   3.454   6.289
 1592SOL    HW1 5675   0.268   3.534   6.341
 1592SOL    HW2 5676   0.180   3.482   6.214
 1593SOL     OW 5677   3.552   6.862   6.978
 1593SOL    HW1 5678   3.550   6.854   0.061
 1593SOL    HW2 5679   3.636   6.822   6.943
 1594SOL     OW 5680   5.742   1.009   2.629
 1594SOL    HW1 5681   5.710   1.104   2.630
 1594SOL    HW2 5682   5.673   0.950   2.670
 1595SOL     OW 5683   0.784   3.396   0.109
 1595SOL    HW1 5684   0.816   3.467   0.173
 1595SOL    HW2 5685   0.857   3.375   0.044
 1596SOL     OW 5686   5.108   4.777   2.742
 1596SOL    HW1 5687   5.047   4.727   2.804
 1596SOL    HW2 5688   5.155   4.849   2.792
 1597SOL     OW 5689   3.490   5.712   0.025
 1597SOL    HW1 5690   3.395   5.697   0.054
 1597SOL    HW2 5691   3.500   5.805   7.007
 1598SOL     OW 5692   0.804   4.606   6.289
 1598SOL    HW1 5693   0.864   4.555   6.226
 1598SOL    HW2 5694   0.821   4.576   6.383
 1599SOL     OW 5695   4.426   5.140   3.063
 1599SOL    HW1 5696   4.509   5.193   3.049
 1599SOL    HW2 5697   4.349   5.188   3.021
 1600SOL     OW 5698   3.876   0.360   1.781
 1600SOL    HW1 5699   3.879   0.459   1.767
 1600SOL    HW2 5700   3.897   0.340   1.877
 1601SOL     OW 5701   6.445   0.999   4.831
 1601SOL    HW1 5702   6.368   0.943   4.803
 1601SOL    HW2 5703   6.503   1.018   4.752
 1602SOL     OW 5704   4.000   5.967   4.112
 1602SOL    HW1 5705   3.911   5.997   4.146
 1602SOL    HW2 5706   4.054   5.930   4.187
 1603SOL     OW 5707   2.791   4.690   2.928
 1603SOL    HW1 5708   2.710   4.678   2.986
 1603SOL    HW2 5709   2.873   4.683   2.985
 1604SOL     OW 5710   4.533   5.031   2.792
 1604SOL    HW1 5711   4.585   4.971   2.852
 1604SOL    HW2 5712   4.571   5.124   2.795
 1605SOL     OW 5713   4.789   4.899   0.599
 1605SOL    HW1 5714   4.826   4.970   0.538
 1605SOL    HW2 5715   4.819   4.916   0.693
 1606SOL     OW 5716   3.143   6.068   4.585
 1606SOL    HW1 5717   3.241   6.073   4.599
 1606SOL    HW2 5718   3.122   6.000   4.515
 1607SOL     OW 5719   4.585   4.985   3.568
 1607SOL    HW1 5720   4.566   4.977   3.666
 1607SOL    HW2 5721   4.611   5.079   3.547
 1608SOL     OW 5722   5.463   1.918   3.469
 1608SOL    HW1 5723   5.552   1.874   3.461
 1608SOL    HW2 5724   5.392   1.857   3.432
 1609SOL     OW 5725   2.243   6.972   1.348
 1609SOL    HW1 5726   2.230   6.893   1.408
 1609SOL    HW2 5727   2.261   6.940   1.255
 1610SOL     OW 5728   5.253   6.992   1.299
 1610SOL    HW1 5729   5.325   0.043   1.295
 1610SOL    HW2 5730   5.285   6.907   1.255
 1611SOL     OW 5731   1.341   4.360   0.405
 1611SOL    HW1 5732   1.383   4.363   0.496
 1611SOL    HW2 5733   1.361   4.271   0.363
 1612SOL     OW 5734   4.808   0.273   2.505
 1612SOL    HW1 5735   4.733   0.330   2.538
 1612SOL    HW2 5736   4.813   0.279   2.405
 1613SOL     OW 5737   6.746   5.466   2.297
 1613SOL    HW1 5738   6.776   5.420   2.214
 1613SOL    HW2 5739   6.647   5.461   2.304
 1614SOL     OW 5740   6.343   1.806   6.074
 1614SOL    HW1 5741   6.345   1.782   5.977
 1614SOL    HW2 5742   6.248   1.820   6.103
 1615SOL     OW 5743   0.273   3.714   6.107
 1615SOL    HW1 5744   0.208   3.653   6.061
 1615SOL    HW2 5745   0.226   3.765   6.179
 1616SOL     OW 5746   0.825   0.264   3.770
 1616SOL    HW1 5747   0.826   0.240   3.673
 1616SOL    HW2 5748   0.736   0.240   3.809
 1617SOL     OW 5749   6.244   5.910   3.615
 1617SOL    HW1 5750   6.237   5.943   3.521
 1617SOL    HW2 5751   6.338   5.919   3.646
 1618SOL     OW 5752   3.400   5.412   3.491
 1618SOL    HW1 5753   3.434   5.468   3.415
 1618SOL    HW2 5754   3.367   5.471   3.564
 1619SOL     OW 5755   0.919   4.257   6.992
 1619SOL    HW1 5756   1.000   4.211   0.011
 1619SOL    HW2 5757   0.933   4.280   6.896
 1620SOL     OW 5758   3.522   5.577   4.346
 1620SOL    HW1 5759   3.480   5.662   4.376
 1620SOL    HW2 5760   3.610   5.565   4.391
 1621SOL     OW 5761   4.821   5.568   0.737
 1621SOL    HW1 5762   4.896   5.570   0.803
 1621SOL    HW2 5763   4.759   5.492   0.759
 1622SOL     OW 5764   6.609   4.248   4.593
 1622SOL    HW1 5765   6.672   4.298   4.533
 1622SOL    HW2 5766   6.520   4.293   4.593
 1623SOL     OW 5767   0.180   1.472   2.856
 1623SOL    HW1 5768   0.252   1.446   2.791
 1623SOL    HW2 5769   0.211   1.453   2.949
 1624SOL     OW 5770   4.100   2.981   0.570
 1624SOL    HW1 5771   4.030   3.032   0.621
 1624SOL    HW2 5772   4.116   3.025   0.481
 1625SOL     OW 5773   0.745   6.730   1.145
 1625SOL    HW1 5774   0.675   6.759   1.211
 1625SOL    HW2 5775   0.767   6.807   1.085
 1626SOL     OW 5776   2.812   1.694   1.997
 1626SOL    HW1 5777   2.900   1.731   2.025
 1626SOL    HW2 5778   2.767   1.758   1.935
 1627SOL     OW 5779   3.527   2.154   5.809
 1627SOL    HW1 5780   3.555   2.229   5.869
 1627SOL    HW2 5781   3.601   2.086   5.805
 1628SOL     OW 5782   5.625   6.656   1.114
 1628SOL    HW1 5783   5.715   6.670   1.074
 1628SOL    HW2 5784   5.570   6.600   1.051
 1629SOL     OW 5785   1.850   0.109   3.552
 1629SOL    HW1 5786   1.941   0.091   3.514
 1629SOL    HW2 5787   1.793   0.028   3.541
 1630SOL     OW 5788   0.644   3.514   6.416
 1630SOL    HW1 5789   0.682   3.508   6.509
 1630SOL    HW2 5790   0.545   3.521   6.421
 1631SOL     OW 5791   6.665   3.742   0.180
 1631SOL    HW1 5792   6.605   3.666   0.204
 1631SOL    HW2 5793   6.631   3.826   0.222
 1632SOL     OW 5794   6.485   5.476   2.327
 1632SOL    HW1 5795   6.402   5.440   2.368
 1632SOL    HW2 5796   6.471   5.572   2.303
 1633SOL     OW 5797   5.452   3.699   5.178
 1633SOL    HW1 5798   5.426   3.603   5.189
 1633SOL    HW2 5799   5.501   3.711   5.092
 1634SOL     OW 5800   6.715   1.740   5.131
 1634SOL    HW1 5801   6.692   1.786   5.045
 1634SOL    HW2 5802   6.742   1.808   5.199
 1635SOL     OW 5803   3.218   6.173   3.295
 1635SOL    HW1 5804   3.283   6.207   3.363
 1635SOL    HW2 5805   3.176   6.250   3.248
 1636SOL     OW 5806   6.085   6.319   1.259
 1636SOL    HW1 5807   5.990   6.288   1.255
 1636SOL    HW2 5808   6.088   6.412   1.296
 1637SOL     OW 5809   1.055   0.925   3.162
 1637SOL    HW1 5810   1.048   1.019   3.128
 1637SOL    HW2 5811   1.108   0.870   3.097
 1638SOL     OW 5812   5.963   2.673   2.317
 1638SOL    HW1 5813   5.890   2.736   2.290
 1638SOL    HW2 5814   5.937   2.580   2.291
 1639SOL     OW 5815   5.127   2.536   2.478
 1639SOL    HW1 5816   5.075   2.608   2.525
 1639SOL    HW2 5817   5.066   2.488   2.415
 1640SOL     OW 5818   5.995   0.400   6.639
 1640SOL    HW1 5819   5.987   0.500   6.648
 1640SOL    HW2 5820   5.919   0.366   6.584
 1641SOL     OW 5821   6.209   2.237   2.987
 1641SOL    HW1 5822   6.136   2.186   3.035
 1641SOL    HW2 5823   6.184   2.334   2.983
 1642SOL     OW 5824   0.004   2.965   6.540
 1642SOL    HW1 5825   6.948   2.989   6.476
 1642SOL    HW2 5826   0.091   2.959   6.491
 1643SOL     OW 5827   2.477   5.599   3.940
 1643SOL    HW1 5828   2.495   5.695   3.963
 1643SOL    HW2 5829   2.463   5.547   4.025
 1644SOL     OW 5830   6.168   2.274   1.952
 1644SOL    HW1 5831   6.140   2.361   1.991
 1644SOL    HW2 5832   6.180   2.283   1.853
 1645SOL     OW 5833   2.372   0.431   5.723
 1645SOL    HW1 5834   2.404   0.503   5.785
 1645SOL    HW2 5835   2.343   0.472   5.637
 1646SOL     OW 5836   1.352   4.682   0.545
 1646SOL    HW1 5837   1.268   4.638   0.514
 1646SOL    HW2 5838   1.346   4.780   0.530
 1647SOL     OW 5839   5.267   3.054   4.331
 1647SOL    HW1 5840   5.354   3.063   4.379
 1647SOL    HW2 5841   5.264   3.118   4.254
 1648SOL     OW 5842   5.391   6.324   1.381
 1648SOL    HW1 5843   5.386   6.231   1.417
 1648SOL    HW2 5844   5.337   6.330   1.297
 1649SOL     OW 5845   3.683   1.506   2.948
 1649SOL    HW1 5846   3.681   1.418   2.900
 1649SOL    HW2 5847   3.697   1.491   3.045
 1650SOL     OW 5848   2.862   4.108   5.934
 1650SOL    HW1 5849   2.937   4.144   5.990
 1650SOL    HW2 5850   2.887   4.112   5.838
 1651SOL     OW 5851   1.187   2.508   3.788
 1651SOL    HW1 5852   1.124   2.494   3.864
 1651SOL    HW2 5853   1.225   2.421   3.758
 1652SOL     OW 5854   0.629   3.097   1.797
 1652SOL    HW1 5855   0.627   3.185   1.844
 1652SOL    HW2 5856   0.725   3.070   1.782
 1653SOL     OW 5857   0.159   4.951   2.495
 1653SOL    HW1 5858   0.131   5.039   2.533
 1653SOL    HW2 5859   0.249   4.926   2.533
 1654SOL     OW 5860   0.469   3.323   2.457
 1654SOL    HW1 5861   0.407   3.249   2.434
 1654SOL    HW2 5862   0.495   3.316   2.554
 1655SOL     OW 5863   0.016   0.475   5.181
 1655SOL    HW1 5864   6.975   0.550   5.148
 1655SOL    HW2 5865   6.980   0.391   5.182
 1656SOL     OW 5866   2.001   4.246   3.007
 1656SOL    HW1 5867   2.032   4.157   3.041
 1656SOL    HW2 5868   2.031   4.318   3.070
 1657SOL     OW 5869   0.287   6.688   5.890
 1657SOL    HW1 5870   0.281   6.601   5.938
 1657SOL    HW2 5871   0.341   6.677   5.807
 1658SOL     OW 5872   5.435   6.266   6.271
 1658SOL    HW1 5873   5.358   6.259   6.207
 1658SOL    HW2 5874   5.453   6.363   6.290
 1659SOL     OW 5875   3.830   6.932   6.021
 1659SOL    HW1 5876   3.796   6.866   6.087
 1659SOL    HW2 5877   3.829   6.891   5.929
 1660SOL     OW 5878   2.417   0.950   1.842
 1660SOL    HW1 5879   2.411   0.882   1.769
 1660SOL    HW2 5880   2.493   0.927   1.903
 1661SOL     OW 5881   4.930   4.185   2.642
 1661SOL    HW1 5882   4.865   4.152   2.573
 1661SOL    HW2 5883   4.962   4.276   2.617
 1662SOL     OW 5884   0.582   2.214   3.737
 1662SOL    HW1 5885   0.675   2.226   3.771
 1662SOL    HW2 5886   0.565   2.117   3.719
 1663SOL     OW 5887   5.253   4.769   0.711
 1663SOL    HW1 5888   5.215   4.861   0.717
 1663SOL    HW2 5889   5.319   4.755   0.785
 1664SOL     OW 5890   0.726   0.242   6.488
 1664SOL    HW1 5891   0.706   0.321   6.548
 1664SOL    HW2 5892   0.641   0.203   6.455
 1665SOL     OW 5893   2.923   4.202   0.111
 1665SOL    HW1 5894   2.970   4.196   0.199
 1665SOL    HW2 5895   2.875   4.290   0.105
 1666SOL     OW 5896   5.055   6.472   5.989
 1666SOL    HW1 5897   4.960   6.446   5.971
 1666SOL    HW2 5898   5.067   6.570   5.971
 1667SOL     OW 5899   6.788   6.423   1.098
 1667SOL    HW1 5900   6.788   6.462   1.006
 1667SOL    HW2 5901   6.787   6.323   1.091
 1668SOL     OW 5902   5.772   3.705   2.295
 1668SOL    HW1 5903   5.758   3.771   2.222
 1668SOL    HW2 5904   5.791   3.754   2.380
 1669SOL     OW 5905   6.646   3.606   5.422
 1669SOL    HW1 5906   6.727   3.557   5.455
 1669SOL    HW2 5907   6.582   3.620   5.498
 1670SOL     OW 5908   2.441   4.685   5.694
 1670SOL    HW1 5909   2.516   4.624   5.720
 1670SOL    HW2 5910   2.466   4.779   5.716
 1671SOL     OW 5911   6.268   2.204   0.731
 1671SOL    HW1 5912   6.307   2.115   0.708
 1671SOL    HW2 5913   6.235   2.248   0.647
 1672SOL     OW 5914   0.380   2.684   0.848
 1672SOL    HW1 5915   0.430   2.666   0.933
 1672SOL    HW2 5916   0.380   2.782   0.829
 1673SOL     OW 5917   1.659   0.275   4.539
 1673SOL    HW1 5918   1.682   0.367   4.570
 1673SOL    HW2 5919   1.711   0.254   4.456
 1674SOL     OW 5920   4.585   1.906   2.623
 1674SOL    HW1 5921   4.653   1.965   2.666
 1674SOL    HW2 5922   4.527   1.865   2.693
 1675SOL     OW 5923   4.941   0.504   1.507
 1675SOL    HW1 5924   4.864   0.507   1.571
 1675SOL    HW2 5925   4.981   0.412   1.507
 1676SOL     OW 5926   1.079   2.540   3.002
 1676SOL    HW1 5927   0.995   2.508   3.046
 1676SOL    HW2 5928   1.107   2.627   3.042
 1677SOL     OW 5929   3.492   2.986   3.382
 1677SOL    HW1 5930   3.484   2.939   3.294
 1677SOL    HW2 5931   3.441   3.072   3.378
 1678SOL     OW 5932   1.321   0.301   0.794
 1678SOL    HW1 5933   1.418   0.324   0.801
 1678SOL    HW2 5934   1.310   0.204   0.775
 1679SOL     OW 5935   6.942   1.807   6.767
 1679SOL    HW1 5936   6.967   1.712   6.749
 1679SOL    HW2 5937   6.929   1.820   6.865
 1680SOL     OW 5938   5.401   2.555   3.222
 1680SOL    HW1 5939   5.410   2.477   3.283
 1680SOL    HW2 5940   5.360   2.525   3.135
 1681SOL     OW 5941   2.782   6.572   4.653
 1681SOL    HW1 5942   2.831   6.488   4.678
 1681SOL    HW2 5943   2.776   6.632   4.732
 1682SOL     OW 5944   3.614   0.538   4.255
 1682SOL    HW1 5945   3.711   0.515   4.244
 1682SOL    HW2 5946   3.583   0.592   4.177
 1683SOL     OW 5947   6.344   3.745   3.043
 1683SOL    HW1 5948   6.406   3.729   2.965
 1683SOL    HW2 5949   6.317   3.657   3.082
 1684SOL     OW 5950   2.333   5.124   2.079
 1684SOL    HW1 5951   2.380   5.096   1.994
 1684SOL    HW2 5952   2.272   5.051   2.109
 1685SOL     OW 5953   0.240   0.913   5.659
 1685SOL    HW1 5954   0.173   0.846   5.627
 1685SOL    HW2 5955   0.294   0.946   5.582
 1686SOL     OW 5956   4.699   5.199   2.992
 1686SOL    HW1 5957   4.755   5.118   2.977
 1686SOL    HW2 5958   4.727   5.244   3.077
 1687SOL     OW 5959   5.069   4.725   1.037
 1687SOL    HW1 5960   5.101   4.631   1.034
 1687SOL    HW2 5961   4.969   4.727   1.037
 1688SOL     OW 5962   1.151   0.810   2.502
 1688SOL    HW1 5963   1.193   0.898   2.481
 1688SOL    HW2 5964   1.136   0.759   2.418
 1689SOL     OW 5965   4.438   0.483   1.693
 1689SOL    HW1 5966   4.403   0.428   1.768
 1689SOL    HW2 5967   4.412   0.443   1.606
 1690SOL     OW 5968   0.231   5.192   3.679
 1690SOL    HW1 5969   0.218   5.141   3.594
 1690SOL    HW2 5970   0.270   5.282   3.658
 1691SOL     OW 5971   4.390   2.667   5.291
 1691SOL    HW1 5972   4.374   2.758   5.330
 1691SOL    HW2 5973   4.303   2.629   5.259
 1692SOL     OW 5974   5.000   4.924   1.362
 1692SOL    HW1 5975   4.943   4.851   1.400
 1692SOL    HW2 5976   4.971   5.012   1.399
 1693SOL     OW 5977   5.673   6.750   5.599
 1693SOL    HW1 5978   5.725   6.785   5.677
 1693SOL    HW2 5979   5.650   6.654   5.614
 1694SOL     OW 5980   4.695   1.799   6.273
 1694SOL    HW1 5981   4.728   1.841   6.189
 1694SOL    HW2 5982   4.718   1.859   6.351
 1695SOL     OW 5983   3.266   0.837   6.646
 1695SOL    HW1 5984   3.355   0.882   6.635
 1695SOL    HW2 5985   3.280   0.739   6.663
 1696SOL     OW 5986   4.767   6.123   0.646
 1696SOL    HW1 5987   4.726   6.061   0.713
 1696SOL    HW2 5988   4.764   6.217   0.681
 1697SOL     OW 5989   4.795   2.739   2.046
 1697SOL    HW1 5990   4.890   2.745   2.018
 1697SOL    HW2 5991   4.749   2.826   2.028
 1698SOL     OW 5992   4.269   1.296   1.540
 1698SOL    HW1 5993   4.233   1.213   1.498
 1698SOL    HW2 5994   4.346   1.273   1.600
 1699SOL     OW 5995   2.296   0.167   0.295
 1699SOL    HW1 5996   2.271   0.096   0.230
 1699SOL    HW2 5997   2.369   0.134   0.354
 1700SOL     OW 5998   5.246   2.557   2.954
 1700SOL    HW1 5999   5.170   2.566   2.889
 1700SOL    HW2 6000   5.331   2.579   2.907
 1701SOL     OW 6001   0.015   6.150   5.257
 1701SOL    HW1 6002   6.997   6.198   5.338
 1701SOL    HW2 6003   6.957   6.134   5.193
 1702SOL     OW 6004   2.413   2.421   6.934
 1702SOL    HW1 6005   2.327   2.381   6.966
 1702SOL    HW2 6006   2.398   2.463   6.844
 1703SOL     OW 6007   1.367   1.712   1.980
 1703SOL    HW1 6008   1.313   1.669   1.908
 1703SOL    HW2 6009   1.454   1.663   1.990
 1704SOL     OW 6010   3.478   2.289   0.623
 1704SOL    HW1 6011   3.399   2.310   0.680
 1704SOL    HW2 6012   3.452   2.292   0.526
 1705SOL     OW 6013   4.705   2.818   0.637
 1705SOL    HW1 6014   4.800   2.813   0.667
 1705SOL    HW2 6015   4.656   2.737   0.671
 1706SOL     OW 6016   5.777   2.573   6.362
 1706SOL    HW1 6017   5.780   2.474   6.350
 1706SOL    HW2 6018   5.847   2.602   6.427
 1707SOL     OW 6019   4.697   1.584   2.298
 1707SOL    HW1 6020   4.623   1.615   2.238
 1707SOL    HW2 6021   4.678   1.491   2.329
 1708SOL     OW 6022   2.929   4.768   2.238
 1708SOL    HW1 6023   2.879   4.837   2.185
 1708SOL    HW2 6024   2.958   4.694   2.178
 1709SOL     OW 6025   4.831   5.296   0.951
 1709SOL    HW1 6026   4.877   5.210   0.974
 1709SOL    HW2 6027   4.897   5.360   0.911
 1710SOL     OW 6028   4.945   4.449   2.583
 1710SOL    HW1 6029   4.945   4.480   2.679
 1710SOL    HW2 6030   4.852   4.453   2.547
 1711SOL     OW 6031   3.999   4.734   6.698
 1711SOL    HW1 6032   3.935   4.735   6.775
 1711SOL    HW2 6033   3.957   4.688   6.621
 1712SOL     OW 6034   0.728   1.749   1.727
 1712SOL    HW1 6035   0.779   1.672   1.687
 1712SOL    HW2 6036   0.732   1.827   1.665
 1713SOL     OW 6037   3.932   1.217   2.903
 1713SOL    HW1 6038   3.912   1.141   2.842
 1713SOL    HW2 6039   3.847   1.249   2.946
 1714SOL     OW 6040   3.253   3.717   0.786
 1714SOL    HW1 6041   3.342   3.722   0.741
 1714SOL    HW2 6042   3.196   3.793   0.755
 1715SOL     OW 6043   2.247   6.526   2.143
 1715SOL    HW1 6044   2.206   6.591   2.207
 1715SOL    HW2 6045   2.299   6.457   2.194
 1716SOL     OW 6046   4.184   0.833   3.095
 1716SOL    HW1 6047   4.173   0.886   3.011
 1716SOL    HW2 6048   4.274   0.789   3.095
 1717SOL     OW 6049   3.387   5.895   4.864
 1717SOL    HW1 6050   3.378   5.806   4.821
 1717SOL    HW2 6051   3.391   5.966   4.794
 1718SOL     OW 6052   1.502   2.860   1.414
 1718SOL    HW1 6053   1.563   2.870   1.336
 1718SOL    HW2 6054   1.498   2.763   1.441
 1719SOL     OW 6055   0.589   5.278   2.567
 1719SOL    HW1 6056   0.653   5.266   2.491
 1719SOL    HW2 6057   0.535   5.361   2.553
 1720SOL     OW 6058   0.549   3.405   5.252
 1720SOL    HW1 6059   0.535   3.400   5.351
 1720SOL    HW2 6060   0.647   3.401   5.232
 1721SOL     OW 6061   1.946   2.533   0.123
 1721SOL    HW1 6062   1.927   2.452   0.066
 1721SOL    HW2 6063   1.912   2.516   0.216
 1722SOL     OW 6064   2.744   2.385   4.373
 1722SOL    HW1 6065   2.732   2.285   4.375
 1722SOL    HW2 6066   2.695   2.425   4.451
 1723SOL     OW 6067   6.170   4.483   1.278
 1723SOL    HW1 6068   6.257   4.436   1.297
 1723SOL    HW2 6069   6.108   4.470   1.356
 1724SOL     OW 6070   5.589   2.869   1.068
 1724SOL    HW1 6071   5.617   2.920   0.986
 1724SOL    HW2 6072   5.569   2.934   1.142
 1725SOL     OW 6073   2.004   6.301   6.241
 1725SOL    HW1 6074   1.910   6.269   6.242
 1725SOL    HW2 6075   2.060   6.240   6.183
 1726SOL     OW 6076   5.234   3.870   2.788
 1726SOL    HW1 6077   5.228   3.825   2.699
 1726SOL    HW2 6078   5.141   3.887   2.823
 1727SOL     OW 6079   3.382   4.138   3.357
 1727SOL    HW1 6080   3.339   4.147   3.447
 1727SOL    HW2 6081   3.435   4.053   3.353
 1728SOL     OW 6082   5.420   2.764   4.062
 1728SOL    HW1 6083   5.487   2.831   4.093
 1728SOL    HW2 6084   5.424   2.683   4.121
 1729SOL     OW 6085   1.502   3.067   3.154
 1729SOL    HW1 6086   1.521   2.969   3.156
 1729SOL    HW2 6087   1.404   3.082   3.138
 1730SOL     OW 6088   1.933   5.724   4.245
 1730SOL    HW1 6089   1.964   5.778   4.323
 1730SOL    HW2 6090   1.966   5.766   4.160
 1731SOL     OW 6091   5.773   5.307   3.839
 1731SOL    HW1 6092   5.790   5.353   3.926
 1731SOL    HW2 6093   5.860   5.285   3.796
 1732SOL     OW 6094   2.559   3.521   5.349
 1732SOL    HW1 6095   2.470   3.484   5.322
 1732SOL    HW2 6096   2.551   3.619   5.364
 1733SOL     OW 6097   1.996   3.168   5.747
 1733SOL    HW1 6098   2.046   3.163   5.661
 1733SOL    HW2 6099   2.031   3.246   5.801
 1734SOL     OW 6100   6.549   3.175   1.030
 1734SOL    HW1 6101   6.498   3.138   0.952
 1734SOL    HW2 6102   6.628   3.227   0.996
 1735SOL     OW 6103   3.585   5.499   6.326
 1735SOL    HW1 6104   3.599   5.590   6.364
 1735SOL    HW2 6105   3.633   5.432   6.382
 1736SOL     OW 6106   5.199   2.240   6.672
 1736SOL    HW1 6107   5.249   2.307   6.618
 1736SOL    HW2 6108   5.139   2.186   6.612
 1737SOL     OW 6109   3.792   1.234   5.731
 1737SOL    HW1 6110   3.732   1.195   5.800
 1737SOL    HW2 6111   3.844   1.161   5.687
 1738SOL     OW 6112   2.158   2.901   3.436
 1738SOL    HW1 6113   2.188   2.936   3.347
 1738SOL    HW2 6114   2.163   2.801   3.435
 1739SOL     OW 6115   5.309   0.069   3.168
 1739SOL    HW1 6116   5.260   0.115   3.095
 1739SOL    HW2 6117   5.306   6.987   3.153
 1740SOL     OW 6118   5.916   3.167   4.689
 1740SOL    HW1 6119   5.877   3.259   4.692
 1740SOL    HW2 6120   5.904   3.122   4.777
 1741SOL     OW 6121   0.474   1.957   4.798
 1741SOL    HW1 6122   0.431   2.006   4.722
 1741SOL    HW2 6123   0.512   1.871   4.766
 1742SOL     OW 6124   6.420   6.647   6.490
 1742SOL    HW1 6125   6.489   6.616   6.555
 1742SOL    HW2 6126   6.459   6.720   6.434
 1743SOL     OW 6127   1.667   1.604   2.311
 1743SOL    HW1 6128   1.725   1.534   2.351
 1743SOL    HW2 6129   1.700   1.695   2.339
 1744SOL     OW 6130   3.496   2.105   5.242
 1744SOL    HW1 6131   3.444   2.082   5.159
 1744SOL    HW2 6132   3.586   2.139   5.216
 1745SOL     OW 6133   5.901   6.797   1.207
 1745SOL    HW1 6134   5.872   6.735   1.280
 1745SOL    HW2 6135   5.839   6.876   1.205
 1746SOL     OW 6136   2.578   4.547   3.323
 1746SOL    HW1 6137   2.579   4.496   3.237
 1746SOL    HW2 6138   2.488   4.591   3.334
 1747SOL     OW 6139   4.059   0.143   2.820
 1747SOL    HW1 6140   4.086   0.095   2.904
 1747SOL    HW2 6141   4.028   0.077   2.752
 1748SOL     OW 6142   0.302   2.481   4.457
 1748SOL    HW1 6143   0.364   2.550   4.493
 1748SOL    HW2 6144   0.210   2.520   4.450
 1749SOL     OW 6145   0.372   5.176   1.601
 1749SOL    HW1 6146   0.318   5.197   1.519
 1749SOL    HW2 6147   0.434   5.251   1.621
 1750SOL     OW 6148   3.040   0.464   0.261
 1750SOL    HW1 6149   3.116   0.399   0.275
 1750SOL    HW2 6150   3.015   0.465   0.165
 1751SOL     OW 6151   5.545   3.218   4.587
 1751SOL    HW1 6152   5.447   3.202   4.598
 1751SOL    HW2 6153   5.596   3.140   4.624
 1752SOL     OW 6154   6.991   0.857   2.574
 1752SOL    HW1 6155   6.937   0.775   2.592
 1752SOL    HW2 6156   6.930   0.932   2.546
 1753SOL     OW 6157   6.545   1.426   1.392
 1753SOL    HW1 6158   6.574   1.447   1.299
 1753SOL    HW2 6159   6.540   1.327   1.404
 1754SOL     OW 6160   3.002   5.579   3.436
 1754SOL    HW1 6161   2.985   5.525   3.519
 1754SOL    HW2 6162   2.937   5.552   3.365
 1755SOL     OW 6163   6.638   6.701   5.443
 1755SOL    HW1 6164   6.633   6.770   5.371
 1755SOL    HW2 6165   6.604   6.741   5.529
 1756SOL     OW 6166   5.008   5.658   0.532
 1756SOL    HW1 6167   4.936   5.634   0.597
 1756SOL    HW2 6168   5.018   5.586   0.464
 1757SOL     OW 6169   2.713   4.836   5.154
 1757SOL    HW1 6170   2.738   4.753   5.105
 1757SOL    HW2 6171   2.659   4.811   5.235
 1758SOL     OW 6172   1.239   5.838   3.982
 1758SOL    HW1 6173   1.332   5.871   3.967
 1758SOL    HW2 6174   1.219   5.840   4.080
 1759SOL     OW 6175   1.168   6.382   0.072
 1759SOL    HW1 6176   1.076   6.344   0.076
 1759SOL    HW2 6177   1.235   6.308   0.071
 1760SOL     OW 6178   0.014   1.371   4.529
 1760SOL    HW1 6179   0.095   1.331   4.574
 1760SOL    HW2 6180   0.042   1.418   4.446
 1761SOL     OW 6181   5.345   1.032   2.764
 1761SOL    HW1 6182   5.354   1.115   2.818
 1761SOL    HW2 6183   5.276   1.045   2.694
 1762SOL     OW 6184   0.624   1.615   5.494
 1762SOL    HW1 6185   0.679   1.549   5.545
 1762SOL    HW2 6186   0.544   1.569   5.454
 1763SOL     OW 6187   1.342   4.779   3.890
 1763SOL    HW1 6188   1.315   4.706   3.828
 1763SOL    HW2 6189   1.442   4.780   3.898
 1764SOL     OW 6190   1.390   5.996   3.231
 1764SOL    HW1 6191   1.457   5.922   3.232
 1764SOL    HW2 6192   1.310   5.970   3.285
 1765SOL     OW 6193   5.719   3.887   2.066
 1765SOL    HW1 6194   5.642   3.892   2.003
 1765SOL    HW2 6195   5.770   3.973   2.063
 1766SOL     OW 6196   4.237   4.704   3.917
 1766SOL    HW1 6197   4.240   4.761   3.835
 1766SOL    HW2 6198   4.163   4.735   3.977
 1767SOL     OW 6199   0.422   4.927   2.289
 1767SOL    HW1 6200   0.327   4.936   2.260
 1767SOL    HW2 6201   0.447   4.830   2.292
 1768SOL     OW 6202   5.435   4.944   1.968
 1768SOL    HW1 6203   5.499   4.870   1.949
 1768SOL    HW2 6204   5.346   4.906   1.992
 1769SOL     OW 6205   5.415   0.253   0.765
 1769SOL    HW1 6206   5.442   0.195   0.842
 1769SOL    HW2 6207   5.446   0.347   0.782
 1770SOL     OW 6208   1.633   4.876   0.476
 1770SOL    HW1 6209   1.569   4.859   0.401
 1770SOL    HW2 6210   1.656   4.973   0.478
 1771SOL     OW 6211   1.626   3.359   5.934
 1771SOL    HW1 6212   1.651   3.262   5.934
 1771SOL    HW2 6213   1.677   3.406   5.862
 1772SOL     OW 6214   2.152   4.014   2.207
 1772SOL    HW1 6215   2.179   4.058   2.121
 1772SOL    HW2 6216   2.112   3.924   2.187
 1773SOL     OW 6217   2.175   6.165   6.068
 1773SOL    HW1 6218   2.264   6.201   6.098
 1773SOL    HW2 6219   2.165   6.179   5.970
 1774SOL     OW 6220   5.461   5.660   1.069
 1774SOL    HW1 6221   5.523   5.715   1.014
 1774SOL    HW2 6222   5.499   5.648   1.161
 1775SOL     OW 6223   2.063   5.120   0.819
 1775SOL    HW1 6224   2.159   5.129   0.845
 1775SOL    HW2 6225   2.040   5.023   0.811
 1776SOL     OW 6226   4.494   2.759   5.601
 1776SOL    HW1 6227   4.479   2.783   5.697
 1776SOL    HW2 6228   4.590   2.773   5.577
 1777SOL     OW 6229   4.595   5.855   0.332
 1777SOL    HW1 6230   4.609   5.867   0.234
 1777SOL    HW2 6231   4.678   5.881   0.381
 1778SOL     OW 6232   6.282   0.223   4.439
 1778SOL    HW1 6233   6.346   0.146   4.433
 1778SOL    HW2 6234   6.321   0.293   4.499
 1779SOL     OW 6235   5.598   0.510   4.143
 1779SOL    HW1 6236   5.673   0.478   4.085
 1779SOL    HW2 6237   5.565   0.435   4.200
 1780SOL     OW 6238   2.138   5.567   5.576
 1780SOL    HW1 6239   2.233   5.575   5.606
 1780SOL    HW2 6240   2.135   5.551   5.477
 1781SOL     OW 6241   4.233   0.376   5.520
 1781SOL    HW1 6242   4.201   0.467   5.495
 1781SOL    HW2 6243   4.171   0.307   5.481
 1782SOL     OW 6244   5.538   1.708   2.438
 1782SOL    HW1 6245   5.584   1.783   2.486
 1782SOL    HW2 6246   5.606   1.655   2.387
 1783SOL     OW 6247   1.932   4.184   6.991
 1783SOL    HW1 6248   1.843   4.164   6.949
 1783SOL    HW2 6249   1.950   4.118   0.046
 1784SOL     OW 6250   2.879   0.287   1.988
 1784SOL    HW1 6251   2.947   0.343   2.036
 1784SOL    HW2 6252   2.790   0.332   1.992
 1785SOL     OW 6253   1.332   6.850   4.795
 1785SOL    HW1 6254   1.246   6.805   4.817
 1785SOL    HW2 6255   1.382   6.794   4.728
 1786SOL     OW 6256   0.988   6.317   1.424
 1786SOL    HW1 6257   1.023   6.403   1.388
 1786SOL    HW2 6258   1.057   6.245   1.412
 1787SOL     OW 6259   2.034   3.136   5.445
 1787SOL    HW1 6260   2.131   3.121   5.424
 1787SOL    HW2 6261   1.989   3.048   5.461
 1788SOL     OW 6262   4.416   3.583   0.769
 1788SOL    HW1 6263   4.422   3.505   0.708
 1788SOL    HW2 6264   4.327   3.584   0.814
 1789SOL     OW 6265   6.597   3.406   2.465
 1789SOL    HW1 6266   6.661   3.381   2.392
 1789SOL    HW2 6267   6.504   3.381   2.438
 1790SOL     OW 6268   1.643   2.168   4.889
 1790SOL    HW1 6269   1.638   2.251   4.945
 1790SOL    HW2 6270   1.669   2.091   4.947
 1791SOL     OW 6271   4.895   0.455   4.018
 1791SOL    HW1 6272   4.921   0.524   3.951
 1791SOL    HW2 6273   4.818   0.489   4.072
 1792SOL     OW 6274   0.348   2.379   6.643
 1792SOL    HW1 6275   0.406   2.366   6.563
 1792SOL    HW2 6276   0.354   2.298   6.702
 1793SOL     OW 6277   6.770   1.306   5.479
 1793SOL    HW1 6278   6.708   1.333   5.554
 1793SOL    HW2 6279   6.805   1.214   5.497
 1794SOL     OW 6280   0.263   0.901   6.500
 1794SOL    HW1 6281   0.288   0.967   6.571
 1794SOL    HW2 6282   0.310   0.815   6.517
 1795SOL     OW 6283   5.383   4.560   1.170
 1795SOL    HW1 6284   5.301   4.513   1.134
 1795SOL    HW2 6285   5.410   4.518   1.256
 1796SOL     OW 6286   6.814   0.126   0.752
 1796SOL    HW1 6287   6.794   0.031   0.728
 1796SOL    HW2 6288   6.913   0.140   0.752
 1797SOL     OW 6289   2.691   5.618   5.593
 1797SOL    HW1 6290   2.735   5.653   5.676
 1797SOL    HW2 6291   2.761   5.582   5.531
 1798SOL     OW 6292   2.184   3.965   5.270
 1798SOL    HW1 6293   2.144   3.883   5.227
 1798SOL    HW2 6294   2.269   3.988   5.224
 1799SOL     OW 6295   2.956   1.423   1.382
 1799SOL    HW1 6296   2.993   1.383   1.466
 1799SOL    HW2 6297   3.028   1.473   1.334
 1800SOL     OW 6298   6.227   3.139   5.594
 1800SOL    HW1 6299   6.312   3.105   5.554
 1800SOL    HW2 6300   6.249   3.207   5.664
 1801SOL     OW 6301   0.490   0.321   2.969
 1801SOL    HW1 6302   0.485   0.382   3.048
 1801SOL    HW2 6303   0.586   0.309   2.942
 1802SOL     OW 6304   6.569   5.092   4.157
 1802SOL    HW1 6305   6.533   5.014   4.208
 1802SOL    HW2 6306   6.639   5.061   4.093
 1803SOL     OW 6307   0.116   0.338   3.647
 1803SOL    HW1 6308   0.207   0.363   3.680
 1803SOL    HW2 6309   0.090   0.249   3.684
 1804SOL     OW 6310   2.025   2.697   6.252
 1804SOL    HW1 6311   1.936   2.666   6.287
 1804SOL    HW2 6312   2.029   2.796   6.255
 1805SOL     OW 6313   6.312   4.847   0.777
 1805SOL    HW1 6314   6.409   4.872   0.765
 1805SOL    HW2 6315   6.267   4.848   0.688
 1806SOL     OW 6316   0.187   1.216   0.645
 1806SOL    HW1 6317   0.134   1.265   0.575
 1806SOL    HW2 6318   0.218   1.281   0.714
 1807SOL     OW 6319   6.360   2.767   2.871
 1807SOL    HW1 6320   6.280   2.824   2.854
 1807SOL    HW2 6321   6.332   2.681   2.913
 1808SOL     OW 6322   5.346   1.440   6.149
 1808SOL    HW1 6323   5.354   1.525   6.200
 1808SOL    HW2 6324   5.436   1.400   6.134
 1809SOL     OW 6325   4.999   0.241   5.395
 1809SOL    HW1 6326   4.971   0.331   5.363
 1809SOL    HW2 6327   5.091   0.245   5.433
 1810SOL     OW 6328   1.338   0.395   4.093
 1810SOL    HW1 6329   1.334   0.495   4.096
 1810SOL    HW2 6330   1.289   0.362   4.012
 1811SOL     OW 6331   3.619   5.969   1.828
 1811SOL    HW1 6332   3.658   5.893   1.880
 1811SOL    HW2 6333   3.674   5.984   1.746
 1812SOL     OW 6334   4.520   6.153   6.625
 1812SOL    HW1 6335   4.472   6.236   6.598
 1812SOL    HW2 6336   4.486   6.122   6.714
 1813SOL     OW 6337   4.913   3.837   2.254
 1813SOL    HW1 6338   4.911   3.741   2.228
 1813SOL    HW2 6339   4.947   3.892   2.177
 1814SOL     OW 6340   6.523   6.040   0.499
 1814SOL    HW1 6341   6.427   6.016   0.492
 1814SOL    HW2 6342   6.564   6.045   0.408
 1815SOL     OW 6343   5.388   5.957   1.230
 1815SOL    HW1 6344   5.299   5.956   1.184
 1815SOL    HW2 6345   5.389   5.887   1.301
 1816SOL     OW 6346   4.345   4.820   5.442
 1816SOL    HW1 6347   4.360   4.775   5.530
 1816SOL    HW2 6348   4.303   4.909   5.457
 1817SOL     OW 6349   0.341   2.724   3.656
 1817SOL    HW1 6350   0.356   2.626   3.641
 1817SOL    HW2 6351   0.393   2.754   3.736
 1818SOL     OW 6352   2.734   1.105   0.598
 1818SOL    HW1 6353   2.663   1.036   0.583
 1818SOL    HW2 6354   2.726   1.176   0.528
 1819SOL     OW 6355   1.751   4.010   2.212
 1819SOL    HW1 6356   1.804   4.082   2.258
 1819SOL    HW2 6357   1.744   3.930   2.271
 1820SOL     OW 6358   3.123   0.238   4.438
 1820SOL    HW1 6359   3.169   0.152   4.421
 1820SOL    HW2 6360   3.181   0.314   4.409
 1821SOL     OW 6361   3.542   1.582   2.693
 1821SOL    HW1 6362   3.539   1.679   2.669
 1821SOL    HW2 6363   3.582   1.571   2.783
 1822SOL     OW 6364   0.712   4.217   3.271
 1822SOL    HW1 6365   0.721   4.132   3.325
 1822SOL    HW2 6366   0.627   4.214   3.219
 1823SOL     OW 6367   4.186   6.504   2.753
 1823SOL    HW1 6368   4.262   6.568   2.744
 1823SOL    HW2 6369   4.206   6.439   2.826
 1824SOL     OW 6370   4.368   3.022   1.665
 1824SOL    HW1 6371   4.394   3.086   1.593
 1824SOL    HW2 6372   4.408   3.052   1.752
 1825SOL     OW 6373   0.745   3.058   5.655
 1825SOL    HW1 6374   0.679   3.080   5.583
 1825SOL    HW2 6375   0.720   3.107   5.739
 1826SOL     OW 6376   3.263   2.233   1.281
 1826SOL    HW1 6377   3.340   2.290   1.254
 1826SOL    HW2 6378   3.296   2.145   1.316
 1827SOL     OW 6379   5.486   4.954   0.786
 1827SOL    HW1 6380   5.461   5.005   0.868
 1827SOL    HW2 6381   5.487   4.856   0.806
 1828SOL     OW 6382   1.530   4.006   4.978
 1828SOL    HW1 6383   1.553   3.939   5.048
 1828SOL    HW2 6384   1.430   4.013   4.969
 1829SOL     OW 6385   3.658   6.651   2.122
 1829SOL    HW1 6386   3.594   6.595   2.070
 1829SOL    HW2 6387   3.728   6.687   2.061
 1830SOL     OW 6388   4.434   1.110   6.307
 1830SOL    HW1 6389   4.382   1.155   6.379
 1830SOL    HW2 6390   4.421   1.159   6.221
 1831SOL     OW 6391   3.262   4.625   0.776
 1831SOL    HW1 6392   3.211   4.693   0.724
 1831SOL    HW2 6393   3.356   4.657   0.791
 1832SOL     OW 6394   2.374   3.151   6.036
 1832SOL    HW1 6395   2.350   3.227   6.096
 1832SOL    HW2 6396   2.469   3.160   6.007
 1833SOL     OW 6397   5.965   1.217   0.181
 1833SOL    HW1 6398   5.998   1.203   0.087
 1833SOL    HW2 6399   6.038   1.256   0.237
 1834SOL     OW 6400   0.661   3.390   6.177
 1834SOL    HW1 6401   0.680   3.421   6.270
 1834SOL    HW2 6402   0.614   3.463   6.127
 1835SOL     OW 6403   6.802   6.149   1.162
 1835SOL    HW1 6404   6.716   6.168   1.209
 1835SOL    HW2 6405   6.871   6.121   1.229
 1836SOL     OW 6406   5.066   1.981   2.712
 1836SOL    HW1 6407   5.061   2.076   2.681
 1836SOL    HW2 6408   5.124   1.929   2.649
 1837SOL     OW 6409   2.856   2.237   6.848
 1837SOL    HW1 6410   2.791   2.251   6.774
 1837SOL    HW2 6411   2.862   2.139   6.869
 1838SOL     OW 6412   4.844   1.198   1.390
 1838SOL    HW1 6413   4.871   1.252   1.310
 1838SOL    HW2 6414   4.767   1.139   1.366
 1839SOL     OW 6415   6.046   0.537   0.317
 1839SOL    HW1 6416   6.053   0.449   0.269
 1839SOL    HW2 6417   6.109   0.602   0.275
 1840SOL     OW 6418   4.149   6.364   4.367
 1840SOL    HW1 6419   4.141   6.409   4.456
 1840SOL    HW2 6420   4.121   6.268   4.377
 1841SOL     OW 6421   1.335   0.816   1.790
 1841SOL    HW1 6422   1.313   0.876   1.868
 1841SOL    HW2 6423   1.257   0.815   1.727
 1842SOL     OW 6424   0.730   5.308   1.472
 1842SOL    HW1 6425   0.759   5.375   1.403
 1842SOL    HW2 6426   0.647   5.262   1.442
 1843SOL     OW 6427   2.729   0.668   0.051
 1843SOL    HW1 6428   2.730   0.686   6.970
 1843SOL    HW2 6429   2.743   0.570   0.067
 1844SOL     OW 6430   5.509   2.609   6.370
 1844SOL    HW1 6431   5.608   2.602   6.370
 1844SOL    HW2 6432   5.479   2.665   6.447
 1845SOL     OW 6433   1.108   2.769   3.491
 1845SOL    HW1 6434   1.008   2.773   3.483
 1845SOL    HW2 6435   1.147   2.852   3.452
 1846SOL     OW 6436   2.681   1.553   1.449
 1846SOL    HW1 6437   2.678   1.534   1.548
 1846SOL    HW2 6438   2.759   1.506   1.409
 1847SOL     OW 6439   2.074   5.549   6.016
 1847SOL    HW1 6440   2.066   5.569   5.919
 1847SOL    HW2 6441   2.066   5.635   6.068
 1848SOL     OW 6442   3.714   6.882   3.261
 1848SOL    HW1 6443   3.674   6.937   3.334
 1848SOL    HW2 6444   3.813   6.874   3.276
 1849SOL     OW 6445   4.704   2.649   2.302
 1849SOL    HW1 6446   4.748   2.563   2.277
 1849SOL    HW2 6447   4.709   2.713   2.224
 1850SOL     OW 6448   4.221   2.078   0.697
 1850SOL    HW1 6449   4.214   2.172   0.665
 1850SOL    HW2 6450   4.183   2.071   0.789
 1851SOL     OW 6451   6.934   4.892   4.632
 1851SOL    HW1 6452   6.929   4.850   4.541
 1851SOL    HW2 6453   7.009   4.959   4.633
 1852SOL     OW 6454   0.752   0.271   2.874
 1852SOL    HW1 6455   0.816   0.345   2.854
 1852SOL    HW2 6456   0.800   0.199   2.925
 1853SOL     OW 6457   0.697   2.195   5.697
 1853SOL    HW1 6458   0.743   2.283   5.690
 1853SOL    HW2 6459   0.717   2.154   5.786
 1854SOL     OW 6460   0.633   6.931   3.284
 1854SOL    HW1 6461   0.594   7.006   3.231
 1854SOL    HW2 6462   0.632   6.847   3.229
 1855SOL     OW 6463   5.730   2.727   4.807
 1855SOL    HW1 6464   5.715   2.628   4.799
 1855SOL    HW2 6465   5.730   2.753   4.903
 1856SOL     OW 6466   4.421   3.612   6.806
 1856SOL    HW1 6467   4.461   3.522   6.821
 1856SOL    HW2 6468   4.323   3.601   6.785
 1857SOL     OW 6469   3.964   1.146   6.479
 1857SOL    HW1 6470   3.892   1.078   6.468
 1857SOL    HW2 6471   3.952   1.194   6.566
 1858SOL     OW 6472   5.349   2.145   4.361
 1858SOL    HW1 6473   5.317   2.231   4.320
 1858SOL    HW2 6474   5.436   2.119   4.319
 1859SOL     OW 6475   0.189   0.840   4.291
 1859SOL    HW1 6476   0.157   0.752   4.325
 1859SOL    HW2 6477   0.201   0.903   4.368
 1860SOL     OW 6478   2.493   1.244   6.474
 1860SOL    HW1 6479   2.420   1.214   6.413
 1860SOL    HW2 6480   2.557   1.169   6.491
 1861SOL     OW 6481   6.341   6.645   4.590
 1861SOL    HW1 6482   6.341   6.574   4.660
 1861SOL    HW2 6483   6.275   6.716   4.614
 1862SOL     OW 6484   3.112   5.894   5.529
 1862SOL    HW1 6485   3.039   5.909   5.462
 1862SOL    HW2 6486   3.080   5.920   5.619
 1863SOL     OW 6487   6.514   1.712   0.850
 1863SOL    HW1 6488   6.567   1.679   0.772
 1863SOL    HW2 6489   6.547   1.802   0.878
 1864SOL     OW 6490   3.308   5.958   1.866
 1864SOL    HW1 6491   3.230   5.897   1.855
 1864SOL    HW2 6492   3.277   6.045   1.904
 1865SOL     OW 6493   6.267   2.605   6.039
 1865SOL    HW1 6494   6.307   2.567   6.122
 1865SOL    HW2 6495   6.327   2.585   5.961
 1866SOL     OW 6496   0.907   5.446   3.520
 1866SOL    HW1 6497   0.846   5.384   3.471
 1866SOL    HW2 6498   0.878   5.540   3.506
 1867SOL     OW 6499   0.622   2.330   1.494
 1867SOL    HW1 6500   0.604   2.234   1.477
 1867SOL    HW2 6501   0.646   2.376   1.408
 1868SOL     OW 6502   5.925   3.398   6.490
 1868SOL    HW1 6503   5.995   3.365   6.427
 1868SOL    HW2 6504   5.835   3.391   6.446
 1869SOL     OW 6505   5.208   0.681   5.080
 1869SOL    HW1 6506   5.208   0.658   5.178
 1869SOL    HW2 6507   5.272   0.756   5.064
 1870SOL     OW 6508   6.226   0.289   6.055
 1870SOL    HW1 6509   6.317   0.316   6.087
 1870SOL    HW2 6510   6.201   0.201   6.096
 1871SOL     OW 6511   0.710   6.250   6.745
 1871SOL    HW1 6512   0.733   6.164   6.790
 1871SOL    HW2 6513   0.758   6.257   6.658
 1872SOL     OW 6514   2.544   2.841   1.373
 1872SOL    HW1 6515   2.601   2.869   1.451
 1872SOL    HW2 6516   2.463   2.792   1.407
 1873SOL     OW 6517   6.214   1.095   1.064
 1873SOL    HW1 6518   6.247   1.137   1.149
 1873SOL    HW2 6519   6.288   1.047   1.018
 1874SOL     OW 6520   1.303   5.820   0.152
 1874SOL    HW1 6521   1.328   5.733   0.196
 1874SOL    HW2 6522   1.205   5.820   0.134
 1875SOL     OW 6523   0.109   6.147   2.092
 1875SOL    HW1 6524   0.172   6.152   2.170
 1875SOL    HW2 6525   0.023   6.105   2.123
 1876SOL     OW 6526   0.324   4.851   0.849
 1876SOL    HW1 6527   0.409   4.863   0.900
 1876SOL    HW2 6528   0.277   4.939   0.839
 1877SOL     OW 6529   1.305   2.139   2.125
 1877SOL    HW1 6530   1.376   2.174   2.186
 1877SOL    HW2 6531   1.293   2.203   2.048
 1878SOL     OW 6532   5.523   4.017   4.198
 1878SOL    HW1 6533   5.487   4.010   4.292
 1878SOL    HW2 6534   5.537   4.113   4.175
 1879SOL     OW 6535   4.604   6.232   4.522
 1879SOL    HW1 6536   4.670   6.181   4.468
 1879SOL    HW2 6537   4.630   6.229   4.619
 1880SOL     OW 6538   0.657   1.373   4.607
 1880SOL    HW1 6539   0.616   1.432   4.538
 1880SOL    HW2 6540   0.655   1.419   4.696
 1881SOL     OW 6541   2.121   1.061   3.540
 1881SOL    HW1 6542   2.156   1.054   3.447
 1881SOL    HW2 6543   2.101   0.970   3.575
 1882SOL     OW 6544   2.305   5.047   0.210
 1882SOL    HW1 6545   2.360   4.987   0.269
 1882SOL    HW2 6546   2.267   5.121   0.265
 1883SOL     OW 6547   2.531   2.560   2.742
 1883SOL    HW1 6548   2.597   2.487   2.724
 1883SOL    HW2 6549   2.497   2.552   2.836
 1884SOL     OW 6550   4.635   1.260   0.466
 1884SOL    HW1 6551   4.672   1.202   0.539
 1884SOL    HW2 6552   4.699   1.336   0.449
 1885SOL     OW 6553   0.416   1.957   0.504
 1885SOL    HW1 6554   0.343   1.918   0.561
 1885SOL    HW2 6555   0.495   1.978   0.561
 1886SOL     OW 6556   3.407   2.941   5.882
 1886SOL    HW1 6557   3.326   2.997   5.903
 1886SOL    HW2 6558   3.383   2.872   5.813
 1887SOL     OW 6559   0.654   6.260   5.118
 1887SOL    HW1 6560   0.695   6.350   5.104
 1887SOL    HW2 6561   0.718   6.190   5.087
 1888SOL     OW 6562   1.740   2.078   5.505
 1888SOL    HW1 6563   1.748   2.119   5.596
 1888SOL    HW2 6564   1.706   2.147   5.440
 1889SOL     OW 6565   2.755   3.037   0.462
 1889SOL    HW1 6566   2.719   2.954   0.419
 1889SOL    HW2 6567   2.853   3.028   0.477
 1890SOL     OW 6568   6.211   5.930   6.682
 1890SOL    HW1 6569   6.136   5.981   6.725
 1890SOL    HW2 6570   6.281   5.910   6.750
 1891SOL     OW 6571   5.723   3.753   6.744
 1891SOL    HW1 6572   5.735   3.837   6.691
 1891SOL    HW2 6573   5.632   3.753   6.786
 1892SOL     OW 6574   4.224   0.111   2.346
 1892SOL    HW1 6575   4.313   0.071   2.366
 1892SOL    HW2 6576   4.219   0.203   2.385
 1893SOL     OW 6577   2.856   1.069   5.595
 1893SOL    HW1 6578   2.941   1.020   5.617
 1893SOL    HW2 6579   2.832   1.052   5.500
 1894SOL     OW 6580   5.156   3.755   1.401
 1894SOL    HW1 6581   5.067   3.738   1.359
 1894SOL    HW2 6582   5.143   3.798   1.490
 1895SOL     OW 6583   4.235   6.052   3.377
 1895SOL    HW1 6584   4.294   6.095   3.309
 1895SOL    HW2 6585   4.140   6.072   3.356
 1896SOL     OW 6586   6.210   2.086   5.918
 1896SOL    HW1 6587   6.173   2.177   5.937
 1896SOL    HW2 6588   6.135   2.023   5.897
 1897SOL     OW 6589   5.883   4.759   3.484
 1897SOL    HW1 6590   5.845   4.758   3.392
 1897SOL    HW2 6591   5.972   4.804   3.483
 1898SOL     OW 6592   5.547   6.477   6.879
 1898SOL    HW1 6593   5.506   6.510   6.794
 1898SOL    HW2 6594   5.602   6.551   6.920
 1899SOL     OW 6595   1.580   2.279   3.361
 1899SOL    HW1 6596   1.544   2.188   3.384
 1899SOL    HW2 6597   1.617   2.277   3.268
 1900SOL     OW 6598   2.757   6.445   1.688
 1900SOL    HW1 6599   2.736   6.527   1.635
 1900SOL    HW2 6600   2.748   6.466   1.786
 1901SOL     OW 6601   1.175   0.910   5.912
 1901SOL    HW1 6602   1.246   0.839   5.911
 1901SOL    HW2 6603   1.093   0.876   5.865
 1902SOL     OW 6604   1.281   2.563   5.442
 1902SOL    HW1 6605   1.273   2.643   5.503
 1902SOL    HW2 6606   1.238   2.584   5.354
 1903SOL     OW 6607   6.937   4.558   3.887
 1903SOL    HW1 6608   6.853   4.513   3.916
 1903SOL    HW2 6609   6.926   4.593   3.794
 1904SOL     OW 6610   0.630   0.299   4.172
 1904SOL    HW1 6611   0.640   0.217   4.115
 1904SOL    HW2 6612   0.597   0.272   4.262
 1905SOL     OW 6613   6.283   2.988   4.106
 1905SOL    HW1 6614   6.282   3.082   4.073
 1905SOL    HW2 6615   6.269   2.987   4.205
 1906SOL     OW 6616   3.071   6.196   6.385
 1906SOL    HW1 6617   2.983   6.214   6.430
 1906SOL    HW2 6618   3.093   6.098   6.392
 1907SOL     OW 6619   4.958   6.217   3.662
 1907SOL    HW1 6620   4.889   6.235   3.732
 1907SOL    HW2 6621   4.921   6.152   3.595
 1908SOL     OW 6622   4.823   6.693   0.477
 1908SOL    HW1 6623   4.917   6.703   0.511
 1908SOL    HW2 6624   4.798   6.775   0.426
 1909SOL     OW 6625   4.441   5.455   4.185
 1909SOL    HW1 6626   4.349   5.415   4.190
 1909SOL    HW2 6627   4.435   5.547   4.146
 1910SOL     OW 6628   5.007   3.313   5.259
 1910SOL    HW1 6629   4.941   3.307   5.184
 1910SOL    HW2 6630   4.976   3.382   5.324
 1911SOL     OW 6631   0.175   3.456   5.564
 1911SOL    HW1 6632   0.244   3.450   5.491
 1911SOL    HW2 6633   0.192   3.537   5.620
 1912SOL     OW 6634   2.730   5.682   3.047
 1912SOL    HW1 6635   2.632   5.696   3.061
 1912SOL    HW2 6636   2.781   5.759   3.087
 1913SOL     OW 6637   1.531   4.592   5.203
 1913SOL    HW1 6638   1.619   4.567   5.161
 1913SOL    HW2 6639   1.514   4.533   5.282
 1914SOL     OW 6640   4.571   1.223   5.708
 1914SOL    HW1 6641   4.578   1.217   5.808
 1914SOL    HW2 6642   4.475   1.232   5.682
 1915SOL     OW 6643   3.168   0.577   5.028
 1915SOL    HW1 6644   3.265   0.560   5.046
 1915SOL    HW2 6645   3.149   0.675   5.032
 1916SOL     OW 6646   4.068   6.232   2.737
 1916SOL    HW1 6647   4.061   6.263   2.642
 1916SOL    HW2 6648   4.049   6.134   2.742
 1917SOL     OW 6649   3.160   3.524   4.737
 1917SOL    HW1 6650   3.061   3.507   4.739
 1917SOL    HW2 6651   3.192   3.527   4.642
 1918SOL     OW 6652   6.674   6.432   5.406
 1918SOL    HW1 6653   6.581   6.415   5.375
 1918SOL    HW2 6654   6.683   6.526   5.438
 1919SOL     OW 6655   6.456   0.426   2.106
 1919SOL    HW1 6656   6.516   0.409   2.027
 1919SOL    HW2 6657   6.385   0.356   2.110
 1920SOL     OW 6658   6.561   6.263   4.984
 1920SOL    HW1 6659   6.626   6.319   4.932
 1920SOL    HW2 6660   6.484   6.320   5.013
 1921SOL     OW 6661   1.227   0.081   6.925
 1921SOL    HW1 6662   1.281   7.015   6.940
 1921SOL    HW2 6663   1.276   0.141   6.861
 1922SOL     OW 6664   4.001   4.246   0.949
 1922SOL    HW1 6665   4.083   4.200   0.916
 1922SOL    HW2 6666   3.979   4.322   0.888
 1923SOL     OW 6667   1.961   2.802   0.060
 1923SOL    HW1 6668   1.939   2.832   0.153
 1923SOL    HW2 6669   1.987   2.705   0.061
 1924SOL     OW 6670   0.157   4.294   1.363
 1924SOL    HW1 6671   0.148   4.389   1.332
 1924SOL    HW2 6672   0.198   4.293   1.454
 1925SOL     OW 6673   3.916   4.063   0.414
 1925SOL    HW1 6674   3.872   4.046   0.502
 1925SOL    HW2 6675   4.011   4.091   0.429
 1926SOL     OW 6676   0.687   0.341   3.253
 1926SOL    HW1 6677   0.597   0.302   3.271
 1926SOL    HW2 6678   0.677   0.433   3.217
 1927SOL     OW 6679   4.431   3.778   0.591
 1927SOL    HW1 6680   4.483   3.857   0.626
 1927SOL    HW2 6681   4.410   3.717   0.667
 1928SOL     OW 6682   0.262   5.407   4.970
 1928SOL    HW1 6683   0.309   5.425   4.884
 1928SOL    HW2 6684   0.198   5.481   4.990
 1929SOL     OW 6685   1.834   5.789   2.797
 1929SOL    HW1 6686   1.861   5.772   2.892
 1929SOL    HW2 6687   1.811   5.701   2.753
 1930SOL     OW 6688   6.963   5.024   6.805
 1930SOL    HW1 6689   6.874   5.039   6.848
 1930SOL    HW2 6690   6.960   5.058   6.711
 1931SOL     OW 6691   0.568   1.867   5.046
 1931SOL    HW1 6692   0.560   1.903   5.139
 1931SOL    HW2 6693   0.510   1.921   4.985
 1932SOL     OW 6694   5.894   2.833   2.855
 1932SOL    HW1 6695   5.845   2.829   2.768
 1932SOL    HW2 6696   5.828   2.850   2.929
 1933SOL     OW 6697   1.982   4.778   0.467
 1933SOL    HW1 6698   1.963   4.680   0.468
 1933SOL    HW2 6699   1.954   4.818   0.554
 1934SOL     OW 6700   6.909   6.354   4.162
 1934SOL    HW1 6701   6.920   6.370   4.064
 1934SOL    HW2 6702   6.982   6.401   4.212
 1935SOL     OW 6703   2.251   0.792   3.594
 1935SOL    HW1 6704   2.236   0.718   3.660
 1935SOL    HW2 6705   2.277   0.753   3.505
 1936SOL     OW 6706   6.991   6.232   5.531
 1936SOL    HW1 6707   0.057   6.288   5.537
 1936SOL    HW2 6708   6.914   6.282   5.571
 1937SOL     OW 6709   4.425   0.518   2.816
 1937SOL    HW1 6710   4.480   0.597   2.788
 1937SOL    HW2 6711   4.330   0.531   2.787
 1938SOL     OW 6712   5.046   0.875   4.269
 1938SOL    HW1 6713   5.142   0.854   4.289
 1938SOL    HW2 6714   4.993   0.871   4.354
 1939SOL     OW 6715   2.801   0.505   3.605
 1939SOL    HW1 6716   2.716   0.528   3.558
 1939SOL    HW2 6717   2.795   0.535   3.700
 1940SOL     OW 6718   6.695   5.103   6.492
 1940SOL    HW1 6719   6.777   5.151   6.524
 1940SOL    HW2 6720   6.678   5.023   6.549
 1941SOL     OW 6721   5.537   4.906   2.866
 1941SOL    HW1 6722   5.542   4.897   2.966
 1941SOL    HW2 6723   5.623   4.943   2.831
 1942SOL     OW 6724   6.453   4.125   3.129
 1942SOL    HW1 6725   6.439   4.031   3.159
 1942SOL    HW2 6726   6.536   4.162   3.169
 1943SOL     OW 6727   2.984   5.911   1.930
 1943SOL    HW1 6728   2.999   5.999   1.885
 1943SOL    HW2 6729   3.032   5.839   1.879
 1944SOL     OW 6730   6.923   0.049   2.025
 1944SOL    HW1 6731   6.943   6.969   2.013
 1944SOL    HW2 6732   6.824   0.062   2.033
 1945SOL     OW 6733   3.158   4.947   3.783
 1945SOL    HW1 6734   3.067   4.913   3.760
 1945SOL    HW2 6735   3.226   4.901   3.726
 1946SOL     OW 6736   1.975   6.682   0.006
 1946SOL    HW1 6737   2.061   6.635   0.027
 1946SOL    HW2 6738   1.918   6.687   0.088
 1947SOL     OW 6739   5.250   6.782   3.693
 1947SOL    HW1 6740   5.261   6.745   3.786
 1947SOL    HW2 6741   5.152   6.796   3.675
 1948SOL     OW 6742   6.881   3.831   5.256
 1948SOL    HW1 6743   6.900   3.926   5.279
 1948SOL    HW2 6744   6.965   3.777   5.260
 1949SOL     OW 6745   5.330   3.817   6.310
 1949SOL    HW1 6746   5.245   3.854   6.272
 1949SOL    HW2 6747   5.311   3.774   6.398
 1950SOL     OW 6748   3.114   4.909   0.932
 1950SOL    HW1 6749   3.039   4.914   0.865
 1950SOL    HW2 6750   3.162   4.823   0.922
 1951SOL     OW 6751   6.878   3.266   0.225
 1951SOL    HW1 6752   6.937   3.309   0.156
 1951SOL    HW2 6753   6.831   3.187   0.184
 1952SOL     OW 6754   3.545   2.869   5.044
 1952SOL    HW1 6755   3.618   2.934   5.066
 1952SOL    HW2 6756   3.510   2.829   5.129
 1953SOL     OW 6757   7.012   2.697   4.966
 1953SOL    HW1 6758   7.009   2.796   4.982
 1953SOL    HW2 6759   7.004   2.649   5.053
 1954SOL     OW 6760   2.530   2.477   3.747
 1954SOL    HW1 6761   2.463   2.404   3.737
 1954SOL    HW2 6762   2.622   2.440   3.734
 1955SOL     OW 6763   6.156   5.537   1.710
 1955SOL    HW1 6764   6.087   5.555   1.780
 1955SOL    HW2 6765   6.144   5.445   1.674
 1956SOL     OW 6766   5.341   6.200   2.341
 1956SOL    HW1 6767   5.370   6.177   2.248
 1956SOL    HW2 6768   5.263   6.263   2.337
 1957SOL     OW 6769   0.925   6.502   5.624
 1957SOL    HW1 6770   0.969   6.504   5.534
 1957SOL    HW2 6771   0.963   6.426   5.677
 1958SOL     OW 6772   4.407   3.070   5.821
 1958SOL    HW1 6773   4.372   3.124   5.899
 1958SOL    HW2 6774   4.424   2.976   5.851
 1959SOL     OW 6775   2.057   1.898   0.169
 1959SOL    HW1 6776   2.149   1.932   0.152
 1959SOL    HW2 6777   2.039   1.819   0.110
 1960SOL     OW 6778   5.115   6.355   2.324
 1960SOL    HW1 6779   5.103   6.454   2.317
 1960SOL    HW2 6780   5.037   6.308   2.284
 1961SOL     OW 6781   5.826   5.342   5.288
 1961SOL    HW1 6782   5.732   5.309   5.289
 1961SOL    HW2 6783   5.856   5.356   5.194
 1962SOL     OW 6784   6.564   6.896   3.489
 1962SOL    HW1 6785   6.507   6.814   3.479
 1962SOL    HW2 6786   6.531   6.950   3.566
 1963SOL     OW 6787   2.881   0.195   3.064
 1963SOL    HW1 6788   2.868   0.282   3.017
 1963SOL    HW2 6789   2.936   0.134   3.006
 1964SOL     OW 6790   5.911   4.130   2.056
 1964SOL    HW1 6791   5.968   4.110   2.136
 1964SOL    HW2 6792   5.960   4.192   1.995
 1965SOL     OW 6793   2.030   5.080   3.881
 1965SOL    HW1 6794   2.045   5.006   3.814
 1965SOL    HW2 6795   2.023   5.167   3.832
 1966SOL     OW 6796   6.438   6.414   6.353
 1966SOL    HW1 6797   6.361   6.404   6.289
 1966SOL    HW2 6798   6.428   6.498   6.405
 1967SOL     OW 6799   4.978   3.599   4.467
 1967SOL    HW1 6800   5.030   3.683   4.481
 1967SOL    HW2 6801   4.913   3.588   4.542
 1968SOL     OW 6802   3.846   5.233   5.661
 1968SOL    HW1 6803   3.906   5.309   5.687
 1968SOL    HW2 6804   3.854   5.217   5.562
 1969SOL     OW 6805   6.697   2.150   1.608
 1969SOL    HW1 6806   6.698   2.101   1.521
 1969SOL    HW2 6807   6.669   2.244   1.593
 1970SOL     OW 6808   2.150   6.666   3.470
 1970SOL    HW1 6809   2.111   6.660   3.562
 1970SOL    HW2 6810   2.077   6.650   3.403
 1971SOL     OW 6811   0.294   0.816   6.007
 1971SOL    HW1 6812   0.331   0.737   5.958
 1971SOL    HW2 6813   0.272   0.789   6.101
 1972SOL     OW 6814   1.601   5.246   4.044
 1972SOL    HW1 6815   1.687   5.245   4.095
 1972SOL    HW2 6816   1.540   5.176   4.080
 1973SOL     OW 6817   2.737   2.730   6.538
 1973SOL    HW1 6818   2.673   2.674   6.486
 1973SOL    HW2 6819   2.768   2.807   6.481
 1974SOL     OW 6820   5.651   6.963   4.412
 1974SOL    HW1 6821   5.649   6.911   4.498
 1974SOL    HW2 6822   5.595   6.916   4.344
 1975SOL     OW 6823   2.930   0.754   3.592
 1975SOL    HW1 6824   2.911   0.656   3.582
 1975SOL    HW2 6825   2.983   0.786   3.514
 1976SOL     OW 6826   6.856   4.419   6.868
 1976SOL    HW1 6827   6.839   4.354   6.794
 1976SOL    HW2 6828   6.936   4.389   6.921
 1977SOL     OW 6829   2.758   2.288   5.080
 1977SOL    HW1 6830   2.805   2.376   5.087
 1977SOL    HW2 6831   2.807   2.219   5.132
 1978SOL     OW 6832   6.893   1.622   4.965
 1978SOL    HW1 6833   6.825   1.683   5.006
 1978SOL    HW2 6834   6.861   1.592   4.875
 1979SOL     OW 6835   5.842   4.631   3.081
 1979SOL    HW1 6836   5.924   4.645   3.026
 1979SOL    HW2 6837   5.839   4.699   3.155
 1980SOL     OW 6838   3.618   0.732   1.065
 1980SOL    HW1 6839   3.711   0.768   1.052
 1980SOL    HW2 6840   3.621   0.651   1.123
 1981SOL     OW 6841   4.972   3.430   1.844
 1981SOL    HW1 6842   5.047   3.391   1.790
 1981SOL    HW2 6843   5.009   3.494   1.911
 1982SOL     OW 6844   5.856   0.113   5.515
 1982SOL    HW1 6845   5.766   0.153   5.496
 1982SOL    HW2 6846   5.868   0.031   5.459
 1983SOL     OW 6847   0.632   4.347   2.287
 1983SOL    HW1 6848   0.686   4.263   2.293
 1983SOL    HW2 6849   0.685   4.424   2.323
 1984SOL     OW 6850   4.552   1.230   5.988
 1984SOL    HW1 6851   4.474   1.168   5.983
 1984SOL    HW2 6852   4.538   1.294   6.064
 1985SOL     OW 6853   1.699   6.995   1.299
 1985SOL    HW1 6854   1.639   0.024   1.365
 1985SOL    HW2 6855   1.667   6.901   1.284
 1986SOL     OW 6856   0.698   2.133   6.307
 1986SOL    HW1 6857   0.676   2.111   6.402
 1986SOL    HW2 6858   0.706   2.049   6.254
 1987SOL     OW 6859   2.719   3.999   0.324
 1987SOL    HW1 6860   2.716   4.096   0.350
 1987SOL    HW2 6861   2.812   3.975   0.297
 1988SOL     OW 6862   4.636   3.293   0.213
 1988SOL    HW1 6863   4.573   3.357   0.170
 1988SOL    HW2 6864   4.728   3.307   0.176
 1989SOL     OW 6865   2.525   0.857   4.160
 1989SOL    HW1 6866   2.478   0.921   4.220
 1989SOL    HW2 6867   2.613   0.831   4.201
 1990SOL     OW 6868   2.501   1.318   3.031
 1990SOL    HW1 6869   2.501   1.311   3.131
 1990SOL    HW2 6870   2.588   1.286   2.995
 1991SOL     OW 6871   4.668   5.497   3.763
 1991SOL    HW1 6872   4.754   5.470   3.806
 1991SOL    HW2 6873   4.686   5.537   3.673
 1992SOL     OW 6874   2.185   6.672   5.277
 1992SOL    HW1 6875   2.098   6.698   5.319
 1992SOL    HW2 6876   2.223   6.593   5.324
 1993SOL     OW 6877   3.052   3.193   4.284
 1993SOL    HW1 6878   3.075   3.134   4.206
 1993SOL    HW2 6879   3.120   3.181   4.356
 1994SOL     OW 6880   6.104   2.531   2.051
 1994SOL    HW1 6881   6.120   2.627   2.075
 1994SOL    HW2 6882   6.021   2.498   2.096
 1995SOL     OW 6883   4.635   2.470   1.251
 1995SOL    HW1 6884   4.576   2.402   1.295
 1995SOL    HW2 6885   4.590   2.504   1.169
 1996SOL     OW 6886   2.961   4.118   5.655
 1996SOL    HW1 6887   2.883   4.056   5.652
 1996SOL    HW2 6888   2.944   4.196   5.595
 1997SOL     OW 6889   5.703   0.049   4.086
 1997SOL    HW1 6890   5.608   0.020   4.075
 1997SOL    HW2 6891   5.762   6.985   4.095
 1998SOL     OW 6892   2.836   5.072   4.920
 1998SOL    HW1 6893   2.825   5.000   4.851
 1998SOL    HW2 6894   2.885   5.036   4.999
 1999SOL     OW 6895   1.988   0.961   2.186
 1999SOL    HW1 6896   2.065   0.988   2.128
 1999SOL    HW2 6897   1.905   0.956   2.131
 2000SOL     OW 6898   3.958   1.649   4.823
 2000SOL    HW1 6899   3.941   1.689   4.733
 2000SOL    HW2 6900   4.021   1.708   4.873
 2001SOL     OW 6901   2.702   3.395   0.334
 2001SOL    HW1 6902   2.791   3.349   0.334
 2001SOL    HW2 6903   2.672   3.411   0.240
 2002SOL     OW 6904   1.909   5.434   4.708
 2002SOL    HW1 6905   1.972   5.482   4.769
 2002SOL    HW2 6906   1.960   5.394   4.632
 2003SOL     OW 6907   6.253   4.664   3.356
 2003SOL    HW1 6908   6.222   4.759   3.366
 2003SOL    HW2 6909   6.177   4.607   3.327
 2004SOL     OW 6910   3.194   0.592   6.350
 2004SOL    HW1 6911   3.201   0.547   6.261
 2004SOL    HW2 6912   3.161   0.526   6.418
 2005SOL     OW 6913   2.874   6.595   5.176
 2005SOL    HW1 6914   2.929   6.658   5.121
 2005SOL    HW2 6915   2.927   6.569   5.257
 2006SOL     OW 6916   4.020   5.405   3.559
 2006SOL    HW1 6917   3.932   5.452   3.554
 2006SOL    HW2 6918   4.060   5.398   3.468
 2007SOL     OW 6919   6.741   5.180   0.468
 2007SOL    HW1 6920   6.765   5.273   0.497
 2007SOL    HW2 6921   6.805   5.150   0.397
 2008SOL     OW 6922   6.884   6.422   4.525
 2008SOL    HW1 6923   6.959   6.469   4.571
 2008SOL    HW2 6924   6.914   6.331   4.496
 2009SOL     OW 6925   0.232   0.549   0.889
 2009SOL    HW1 6926   0.313   0.608   0.888
 2009SOL    HW2 6927   0.191   0.553   0.980
 2010SOL     OW 6928   0.774   6.934   0.957
 2010SOL    HW1 6929   0.851   6.998   0.955
 2010SOL    HW2 6930   0.712   6.953   0.881
 2011SOL     OW 6931   6.779   2.725   4.771
 2011SOL    HW1 6932   6.724   2.738   4.854
 2011SOL    HW2 6933   6.876   2.722   4.796
 2012SOL     OW 6934   7.012   3.590   0.933
 2012SOL    HW1 6935   6.916   3.617   0.923
 2012SOL    HW2 6936   0.000   3.490   0.939
 2013SOL     OW 6937   4.604   0.945   2.291
 2013SOL    HW1 6938   4.528   1.003   2.262
 2013SOL    HW2 6939   4.678   1.002   2.326
 2014SOL     OW 6940   2.778   5.215   3.194
 2014SOL    HW1 6941   2.837   5.173   3.262
 2014SOL    HW2 6942   2.786   5.166   3.107
 2015SOL     OW 6943   3.322   6.869   6.804
 2015SOL    HW1 6944   3.383   6.878   6.883
 2015SOL    HW2 6945   3.342   6.942   6.738
 2016SOL     OW 6946   6.125   4.888   3.468
 2016SOL    HW1 6947   6.062   4.963   3.448
 2016SOL    HW2 6948   6.213   4.925   3.496
 2017SOL     OW 6949   2.451   5.300   1.755
 2017SOL    HW1 6950   2.525   5.366   1.750
 2017SOL    HW2 6951   2.433   5.262   1.664
 2018SOL     OW 6952   0.472   4.261   6.116
 2018SOL    HW1 6953   0.395   4.219   6.164
 2018SOL    HW2 6954   0.482   4.219   6.025
 2019SOL     OW 6955   5.462   1.755   3.141
 2019SOL    HW1 6956   5.486   1.784   3.049
 2019SOL    HW2 6957   5.540   1.767   3.202
 2020SOL     OW 6958   1.932   5.433   3.117
 2020SOL    HW1 6959   1.896   5.424   3.024
 2020SOL    HW2 6960   1.977   5.522   3.127
 2021SOL     OW 6961   1.422   6.512   1.512
 2021SOL    HW1 6962   1.337   6.559   1.493
 2021SOL    HW2 6963   1.411   6.454   1.593
 2022SOL     OW 6964   2.545   4.493   1.003
 2022SOL    HW1 6965   2.505   4.405   0.975
 2022SOL    HW2 6966   2.553   4.495   1.103
 2023SOL     OW 6967   6.513   1.664   6.358
 2023SOL    HW1 6968   6.579   1.721   6.407
 2023SOL    HW2 6969   6.421   1.679   6.396
 2024SOL     OW 6970   5.782   0.342   3.038
 2024SOL    HW1 6971   5.699   0.353   3.093
 2024SOL    HW2 6972   5.838   0.424   3.046
 2025SOL     OW 6973   6.746   0.855   0.443
 2025SOL    HW1 6974   6.831   0.844   0.496
 2025SOL    HW2 6975   6.677   0.792   0.477
 2026SOL     OW 6976   1.492   1.806   5.659
 2026SOL    HW1 6977   1.553   1.817   5.581
 2026SOL    HW2 6978   1.397   1.812   5.628
 2027SOL     OW 6979   0.433   1.535   2.457
 2027SOL    HW1 6980   0.347   1.546   2.408
 2027SOL    HW2 6981   0.459   1.623   2.498
 2028SOL     OW 6982   3.670   3.749   5.990
 2028SOL    HW1 6983   3.599   3.743   5.920
 2028SOL    HW2 6984   3.737   3.676   5.975
 2029SOL     OW 6985   1.429   0.371   0.390
 2029SOL    HW1 6986   1.480   0.450   0.425
 2029SOL    HW2 6987   1.461   0.288   0.435
 2030SOL     OW 6988   1.186   1.722   2.858
 2030SOL    HW1 6989   1.265   1.776   2.887
 2030SOL    HW2 6990   1.112   1.734   2.924
 2031SOL     OW 6991   4.971   0.027   2.855
 2031SOL    HW1 6992   5.053   0.078   2.881
 2031SOL    HW2 6993   4.894   0.057   2.911
 2032SOL     OW 6994   5.335   6.561   1.577
 2032SOL    HW1 6995   5.265   6.623   1.543
 2032SOL    HW2 6996   5.345   6.484   1.514
 2033SOL     OW 6997   0.298   4.898   6.489
 2033SOL    HW1 6998   0.393   4.924   6.473
 2033SOL    HW2 6999   0.295   4.824   6.556
 2034SOL     OW 7000   3.047   6.890   3.092
 2034SOL    HW1 7001   3.038   6.966   3.156
 2034SOL    HW2 7002   2.960   6.840   3.088
 2035SOL     OW 7003   1.121   3.283   1.820
 2035SOL    HW1 7004   1.201   3.324   1.864
 2035SOL    HW2 7005   1.151   3.211   1.756
 2036SOL     OW 7006   1.102   4.211   0.443
 2036SOL    HW1 7007   1.111   4.188   0.540
 2036SOL    HW2 7008   1.162   4.289   0.423
 2037SOL     OW 7009   0.041   0.953   6.332
 2037SOL    HW1 7010   0.097   0.937   6.413
 2037SOL    HW2 7011   0.099   0.970   6.253
 2038SOL     OW 7012   0.937   6.935   4.800
 2038SOL    HW1 7013   0.997   6.992   4.745
 2038SOL    HW2 7014   0.859   6.905   4.745
 2039SOL     OW 7015   0.828   5.193   2.070
 2039SOL    HW1 7016   0.912   5.140   2.061
 2039SOL    HW2 7017   0.850   5.285   2.102
 2040SOL     OW 7018   3.415   3.654   4.317
 2040SOL    HW1 7019   3.441   3.621   4.407
 2040SOL    HW2 7020   3.432   3.583   4.249
 2041SOL     OW 7021   6.334   3.818   6.560
 2041SOL    HW1 7022   6.303   3.737   6.609
 2041SOL    HW2 7023   6.389   3.875   6.621
 2042SOL     OW 7024   3.739   5.619   0.003
 2042SOL    HW1 7025   3.648   5.655   0.022
 2042SOL    HW2 7026   3.732   5.546   6.953
 2043SOL     OW 7027   4.544   4.630   2.256
 2043SOL    HW1 7028   4.486   4.653   2.178
 2043SOL    HW2 7029   4.535   4.533   2.277
 2044SOL     OW 7030   6.404   0.754   2.084
 2044SOL    HW1 7031   6.372   0.836   2.130
 2044SOL    HW2 7032   6.478   0.712   2.137
 2045SOL     OW 7033   2.202   5.244   5.996
 2045SOL    HW1 7034   2.111   5.246   5.954
 2045SOL    HW2 7035   2.230   5.150   6.012
 2046SOL     OW 7036   5.946   0.576   4.823
 2046SOL    HW1 7037   6.007   0.499   4.804
 2046SOL    HW2 7038   5.983   0.631   4.897
 2047SOL     OW 7039   5.961   3.017   0.218
 2047SOL    HW1 7040   5.950   3.033   0.120
 2047SOL    HW2 7041   5.985   2.921   0.233
 2048SOL     OW 7042   3.987   6.752   5.477
 2048SOL    HW1 7043   4.055   6.815   5.440
 2048SOL    HW2 7044   4.018   6.717   5.566
 2049SOL     OW 7045   4.712   6.262   0.346
 2049SOL    HW1 7046   4.679   6.213   0.426
 2049SOL    HW2 7047   4.672   6.221   0.263
 2050SOL     OW 7048   5.449   1.632   4.030
 2050SOL    HW1 7049   5.393   1.695   3.976
 2050SOL    HW2 7050   5.538   1.621   3.986
 2051SOL     OW 7051   1.966   5.133   0.535
 2051SOL    HW1 7052   1.867   5.147   0.533
 2051SOL    HW2 7053   2.000   5.149   0.628
 2052SOL     OW 7054   1.251   2.929   0.474
 2052SOL    HW1 7055   1.182   2.961   0.539
 2052SOL    HW2 7056   1.342   2.952   0.508
 2053SOL     OW 7057   5.336   0.720   0.931
 2053SOL    HW1 7058   5.238   0.704   0.938
 2053SOL    HW2 7059   5.357   0.816   0.949
 2054SOL     OW 7060   6.611   3.288   1.859
 2054SOL    HW1 7061   6.558   3.337   1.789
 2054SOL    HW2 7062   6.670   3.353   1.907
 2055SOL     OW 7063   6.608   2.097   4.066
 2055SOL    HW1 7064   6.634   2.001   4.081
 2055SOL    HW2 7065   6.596   2.142   4.154
 2056SOL     OW 7066   1.570   0.623   2.582
 2056SOL    HW1 7067   1.602   0.621   2.487
 2056SOL    HW2 7068   1.473   0.597   2.584
 2057SOL     OW 7069   6.617   2.482   4.039
 2057SOL    HW1 7070   6.662   2.542   4.105
 2057SOL    HW2 7071   6.535   2.443   4.080
 2058SOL     OW 7072   0.010   2.177   1.292
 2058SOL    HW1 7073   6.964   2.185   1.369
 2058SOL    HW2 7074   0.094   2.226   1.313
 2059SOL     OW 7075   1.584   1.122   6.662
 2059SOL    HW1 7076   1.551   1.065   6.737
 2059SOL    HW2 7077   1.614   1.210   6.698
 2060SOL     OW 7078   0.436   5.419   2.349
 2060SOL    HW1 7079   0.347   5.386   2.378
 2060SOL    HW2 7080   0.493   5.342   2.321
 2061SOL     OW 7081   6.880   1.350   1.945
 2061SOL    HW1 7082   6.802   1.394   1.991
 2061SOL    HW2 7083   6.932   1.420   1.895
 2062SOL     OW 7084   4.403   0.491   3.314
 2062SOL    HW1 7085   4.310   0.523   3.329
 2062SOL    HW2 7086   4.447   0.475   3.403
 2063SOL     OW 7087   2.621   1.712   0.415
 2063SOL    HW1 7088   2.675   1.797   0.418
 2063SOL    HW2 7089   2.618   1.671   0.506
 2064SOL     OW 7090   0.619   2.400   0.104
 2064SOL    HW1 7091   0.575   2.424   0.190
 2064SOL    HW2 7092   0.718   2.391   0.118
 2065SOL     OW 7093   6.210   2.807   2.124
 2065SOL    HW1 7094   6.227   2.903   2.144
 2065SOL    HW2 7095   6.269   2.750   2.181
 2066SOL     OW 7096   2.213   6.486   3.837
 2066SOL    HW1 7097   2.186   6.394   3.868
 2066SOL    HW2 7098   2.135   6.531   3.795
 2067SOL     OW 7099   0.089   0.041   1.064
 2067SOL    HW1 7100   0.159   0.112   1.053
 2067SOL    HW2 7101   0.097   6.992   0.990
 2068SOL     OW 7102   1.822   1.763   5.193
 2068SOL    HW1 7103   1.852   1.690   5.254
 2068SOL    HW2 7104   1.871   1.847   5.217
 2069SOL     OW 7105   0.602   2.066   1.518
 2069SOL    HW1 7106   0.685   2.025   1.481
 2069SOL    HW2 7107   0.541   1.993   1.552
 2070SOL     OW 7108   0.617   0.988   2.947
 2070SOL    HW1 7109   0.522   1.018   2.948
 2070SOL    HW2 7110   0.668   1.037   3.018
 2071SOL     OW 7111   1.538   6.163   4.845
 2071SOL    HW1 7112   1.451   6.182   4.891
 2071SOL    HW2 7113   1.529   6.179   4.747
 2072SOL     OW 7114   4.974   5.143   2.363
 2072SOL    HW1 7115   5.029   5.086   2.301
 2072SOL    HW2 7116   4.915   5.084   2.418
 2073SOL     OW 7117   3.078   0.067   5.296
 2073SOL    HW1 7118   3.107   6.988   5.303
 2073SOL    HW2 7119   3.037   0.095   5.383
 2074SOL     OW 7120   6.172   1.933   1.629
 2074SOL    HW1 7121   6.247   1.867   1.640
 2074SOL    HW2 7122   6.090   1.898   1.674
 2075SOL     OW 7123   4.574   3.404   6.068
 2075SOL    HW1 7124   4.525   3.382   5.984
 2075SOL    HW2 7125   4.671   3.380   6.058
 2076SOL     OW 7126   4.786   0.275   1.325
 2076SOL    HW1 7127   4.784   0.371   1.296
 2076SOL    HW2 7128   4.875   0.254   1.364
 2077SOL     OW 7129   5.375   1.546   3.442
 2077SOL    HW1 7130   5.402   1.579   3.533
 2077SOL    HW2 7131   5.319   1.616   3.397
 2078SOL     OW 7132   4.263   5.991   5.497
 2078SOL    HW1 7133   4.284   5.911   5.554
 2078SOL    HW2 7134   4.345   6.048   5.488
 2079SOL     OW 7135   5.915   1.672   3.571
 2079SOL    HW1 7136   5.878   1.607   3.505
 2079SOL    HW2 7137   5.987   1.628   3.625
 2080SOL     OW 7138   3.331   2.046   4.676
 2080SOL    HW1 7139   3.246   2.069   4.724
 2080SOL    HW2 7140   3.357   2.122   4.616
 2081SOL     OW 7141   0.421   6.390   5.073
 2081SOL    HW1 7142   0.356   6.314   5.071
 2081SOL    HW2 7143   0.511   6.355   5.100
 2082SOL     OW 7144   5.061   0.239   1.484
 2082SOL    HW1 7145   5.094   0.155   1.527
 2082SOL    HW2 7146   5.110   0.254   1.398
 2083SOL     OW 7147   3.577   5.370   5.479
 2083SOL    HW1 7148   3.479   5.358   5.460
 2083SOL    HW2 7149   3.630   5.315   5.414
 2084SOL     OW 7150   0.198   3.226   3.053
 2084SOL    HW1 7151   0.104   3.253   3.075
 2084SOL    HW2 7152   0.219   3.138   3.095
 2085SOL     OW 7153   5.468   6.565   6.636
 2085SOL    HW1 7154   5.387   6.621   6.653
 2085SOL    HW2 7155   5.525   6.611   6.567
 2086SOL     OW 7156   2.601   4.848   1.241
 2086SOL    HW1 7157   2.663   4.923   1.215
 2086SOL    HW2 7158   2.529   4.840   1.172
 2087SOL     OW 7159   5.642   6.325   3.697
 2087SOL    HW1 7160   5.585   6.281   3.627
 2087SOL    HW2 7161   5.729   6.277   3.705
 2088SOL     OW 7162   2.953   6.565   0.764
 2088SOL    HW1 7163   2.881   6.512   0.807
 2088SOL    HW2 7164   2.914   6.647   0.721
 2089SOL     OW 7165   2.997   0.443   6.702
 2089SOL    HW1 7166   2.914   0.500   6.709
 2089SOL    HW2 7167   2.975   0.357   6.656
 2090SOL     OW 7168   2.963   3.304   3.834
 2090SOL    HW1 7169   2.936   3.241   3.761
 2090SOL    HW2 7170   3.032   3.261   3.892
 2091SOL     OW 7171   1.921   4.852   0.217
 2091SOL    HW1 7172   1.941   4.837   0.313
 2091SOL    HW2 7173   1.866   4.936   0.207
 2092SOL     OW 7174   6.147   6.540   0.730
 2092SOL    HW1 7175   6.217   6.564   0.663
 2092SOL    HW2 7176   6.189   6.525   0.819
 2093SOL     OW 7177   1.119   1.919   1.573
 2093SOL    HW1 7178   1.169   1.839   1.540
 2093SOL    HW2 7179   1.175   1.968   1.640
 2094SOL     OW 7180   5.902   0.418   2.565
 2094SOL    HW1 7181   5.901   0.370   2.652
 2094SOL    HW2 7182   5.812   0.458   2.548
 2095SOL     OW 7183   0.041   4.940   4.959
 2095SOL    HW1 7184   0.070   4.844   4.960
 2095SOL    HW2 7185   0.012   4.966   4.867
 2096SOL     OW 7186   4.922   3.579   2.870
 2096SOL    HW1 7187   4.934   3.634   2.788
 2096SOL    HW2 7188   4.903   3.638   2.949
 2097SOL     OW 7189   0.076   2.893   6.806
 2097SOL    HW1 7190   0.064   2.921   6.711
 2097SOL    HW2 7191   0.041   2.965   6.867
 2098SOL     OW 7192   4.608   0.484   4.495
 2098SOL    HW1 7193   4.593   0.462   4.591
 2098SOL    HW2 7194   4.557   0.419   4.438
 2099SOL     OW 7195   2.705   1.505   4.290
 2099SOL    HW1 7196   2.720   1.553   4.377
 2099SOL    HW2 7197   2.632   1.550   4.240
 2100SOL     OW 7198   3.653   3.924   6.857
 2100SOL    HW1 7199   3.610   3.967   6.778
 2100SOL    HW2 7200   3.671   3.993   6.927
 2101SOL     OW 7201   6.973   0.549   3.589
 2101SOL    HW1 7202   0.022   0.480   3.620
 2101SOL    HW2 7203   6.948   0.607   3.666
 2102SOL     OW 7204   0.131   4.769   2.263
 2102SOL    HW1 7205   0.080   4.820   2.194
 2102SOL    HW2 7206   0.121   4.814   2.352
 2103SOL     OW 7207   2.889   3.657   6.626
 2103SOL    HW1 7208   2.886   3.617   6.534
 2103SOL    HW2 7209   2.807   3.713   6.640
 2104SOL     OW 7210   1.287   3.662   4.834
 2104SOL    HW1 7211   1.374   3.654   4.883
 2104SOL    HW2 7212   1.217   3.610   4.882
 2105SOL     OW 7213   5.809   5.668   1.450
 2105SOL    HW1 7214   5.898   5.683   1.494
 2105SOL    HW2 7215   5.823   5.648   1.353
 2106SOL     OW 7216   5.068   5.933   0.147
 2106SOL    HW1 7217   5.163   5.960   0.137
 2106SOL    HW2 7218   5.049   5.914   0.244
 2107SOL     OW 7219   3.499   4.166   6.683
 2107SOL    HW1 7220   3.458   4.224   6.754
 2107SOL    HW2 7221   3.450   4.079   6.679
 2108SOL     OW 7222   5.402   4.660   5.845
 2108SOL    HW1 7223   5.477   4.726   5.852
 2108SOL    HW2 7224   5.379   4.646   5.749
 2109SOL     OW 7225   5.477   6.851   2.883
 2109SOL    HW1 7226   5.542   6.786   2.843
 2109SOL    HW2 7227   5.525   6.913   2.945
 2110SOL     OW 7228   2.637   5.146   5.640
 2110SOL    HW1 7229   2.700   5.182   5.571
 2110SOL    HW2 7230   2.677   5.064   5.682
 2111SOL     OW 7231   1.354   2.652   6.696
 2111SOL    HW1 7232   1.307   2.737   6.720
 2111SOL    HW2 7233   1.299   2.601   6.630
 2112SOL     OW 7234   5.112   3.382   1.075
 2112SOL    HW1 7235   5.014   3.371   1.086
 2112SOL    HW2 7236   5.152   3.294   1.048
 2113SOL     OW 7237   7.005   1.418   3.329
 2113SOL    HW1 7238   0.082   1.443   3.352
 2113SOL    HW2 7239   7.004   1.367   3.243
 2114SOL     OW 7240   1.636   4.155   6.947
 2114SOL    HW1 7241   1.601   4.244   6.976
 2114SOL    HW2 7242   1.578   4.120   6.872
 2115SOL     OW 7243   2.642   4.851   2.302
 2115SOL    HW1 7244   2.668   4.774   2.360
 2115SOL    HW2 7245   2.711   4.924   2.309
 2116SOL     OW 7246   0.191   4.353   3.235
 2116SOL    HW1 7247   0.290   4.359   3.222
 2116SOL    HW2 7248   0.168   4.385   3.326
 2117SOL     OW 7249   6.538   5.036   1.066
 2117SOL    HW1 7250   6.567   4.965   1.003
 2117SOL    HW2 7251   6.616   5.070   1.118
 2118SOL     OW 7252   6.685   4.034   2.299
 2118SOL    HW1 7253   6.682   4.134   2.294
 2118SOL    HW2 7254   6.781   4.005   2.305
 2119SOL     OW 7255   3.093   5.858   1.071
 2119SOL    HW1 7256   3.101   5.915   0.990
 2119SOL    HW2 7257   3.060   5.767   1.045
 2120SOL     OW 7258   0.044   5.304   2.103
 2120SOL    HW1 7259   0.020   5.401   2.093
 2120SOL    HW2 7260   0.105   5.277   2.028
 2121SOL     OW 7261   0.506   4.631   4.663
 2121SOL    HW1 7262   0.575   4.637   4.591
 2121SOL    HW2 7263   0.418   4.663   4.628
 2122SOL     OW 7264   4.478   4.326   5.263
 2122SOL    HW1 7265   4.562   4.373   5.291
 2122SOL    HW2 7266   4.409   4.393   5.238
 2123SOL     OW 7267   5.654   4.441   3.127
 2123SOL    HW1 7268   5.727   4.503   3.098
 2123SOL    HW2 7269   5.648   4.365   3.062
 2124SOL     OW 7270   2.470   1.720   0.875
 2124SOL    HW1 7271   2.376   1.687   0.875
 2124SOL    HW2 7272   2.515   1.694   0.960
 2125SOL     OW 7273   2.764   6.635   1.279
 2125SOL    HW1 7274   2.749   6.544   1.241
 2125SOL    HW2 7275   2.842   6.677   1.234
 2126SOL     OW 7276   2.755   0.955   1.919
 2126SOL    HW1 7277   2.740   0.902   2.003
 2126SOL    HW2 7278   2.752   0.893   1.840
 2127SOL     OW 7279   5.532   2.999   4.925
 2127SOL    HW1 7280   5.525   2.915   4.980
 2127SOL    HW2 7281   5.460   3.063   4.952
 2128SOL     OW 7282   0.415   5.259   4.380
 2128SOL    HW1 7283   0.465   5.219   4.458
 2128SOL    HW2 7284   0.378   5.348   4.407
 2129SOL     OW 7285   3.710   1.970   5.763
 2129SOL    HW1 7286   3.713   1.920   5.677
 2129SOL    HW2 7287   3.703   1.905   5.839
 2130SOL     OW 7288   4.067   6.309   3.442
 2130SOL    HW1 7289   4.151   6.279   3.488
 2130SOL    HW2 7290   4.010   6.360   3.507
 2131SOL     OW 7291   5.864   2.275   0.219
 2131SOL    HW1 7292   5.799   2.350   0.233
 2131SOL    HW2 7293   5.956   2.313   0.213
 2132SOL     OW 7294   2.312   2.542   0.226
 2132SOL    HW1 7295   2.404   2.525   0.263
 2132SOL    HW2 7296   2.244   2.532   0.299
 2133SOL     OW 7297   2.910   3.519   5.975
 2133SOL    HW1 7298   2.890   3.610   6.013
 2133SOL    HW2 7299   2.875   3.513   5.882
 2134SOL     OW 7300   1.166   6.955   1.132
 2134SOL    HW1 7301   1.183   7.007   1.215
 2134SOL    HW2 7302   1.141   0.001   1.058
 2135SOL     OW 7303   0.187   4.393   4.217
 2135SOL    HW1 7304   0.280   4.407   4.182
 2135SOL    HW2 7305   0.139   4.328   4.159
 2136SOL     OW 7306   1.357   5.290   1.158
 2136SOL    HW1 7307   1.402   5.282   1.247
 2136SOL    HW2 7308   1.279   5.353   1.165
 2137SOL     OW 7309   1.636   5.680   4.232
 2137SOL    HW1 7310   1.736   5.676   4.240
 2137SOL    HW2 7311   1.602   5.762   4.276
 2138SOL     OW 7312   5.015   1.734   1.521
 2138SOL    HW1 7313   5.033   1.783   1.606
 2138SOL    HW2 7314   5.027   1.636   1.536
 2139SOL     OW 7315   2.779   0.822   5.289
 2139SOL    HW1 7316   2.800   0.835   5.193
 2139SOL    HW2 7317   2.736   0.905   5.326
 2140SOL     OW 7318   2.238   1.294   4.915
 2140SOL    HW1 7319   2.207   1.212   4.963
 2140SOL    HW2 7320   2.214   1.375   4.969
 2141SOL     OW 7321   6.664   3.875   2.709
 2141SOL    HW1 7322   6.633   3.805   2.643
 2141SOL    HW2 7323   6.732   3.835   2.770
 2142SOL     OW 7324   1.393   2.126   2.624
 2142SOL    HW1 7325   1.436   2.163   2.542
 2142SOL    HW2 7326   1.301   2.094   2.602
 2143SOL     OW 7327   1.206   4.374   0.125
 2143SOL    HW1 7328   1.258   4.400   0.206
 2143SOL    HW2 7329   1.213   4.447   0.057
 2144SOL     OW 7330   5.974   4.604   3.898
 2144SOL    HW1 7331   5.941   4.604   3.803
 2144SOL    HW2 7332   5.900   4.577   3.959
 2145SOL     OW 7333   4.096   0.511   3.652
 2145SOL    HW1 7334   4.125   0.457   3.573
 2145SOL    HW2 7335   4.092   0.607   3.627
 2146SOL     OW 7336   2.270   2.772   6.994
 2146SOL    HW1 7337   2.350   2.722   6.961
 2146SOL    HW2 7338   2.282   2.793   0.073
 2147SOL     OW 7339   6.035   0.196   4.539
 2147SOL    HW1 7340   6.006   0.125   4.475
 2147SOL    HW2 7341   6.132   0.216   4.526
 2148SOL     OW 7342   0.541   3.158   6.151
 2148SOL    HW1 7343   0.449   3.174   6.116
 2148SOL    HW2 7344   0.584   3.246   6.172
 2149SOL     OW 7345   0.804   0.464   0.128
 2149SOL    HW1 7346   0.775   0.387   0.183
 2149SOL    HW2 7347   0.832   0.539   0.188
 2150SOL     OW 7348   2.281   2.713   1.417
 2150SOL    HW1 7349   2.330   2.649   1.477
 2150SOL    HW2 7350   2.190   2.730   1.454
 2151SOL     OW 7351   1.398   5.316   0.409
 2151SOL    HW1 7352   1.316   5.277   0.367
 2151SOL    HW2 7353   1.380   5.337   0.505
 2152SOL     OW 7354   5.187   5.665   4.386
 2152SOL    HW1 7355   5.204   5.652   4.289
 2152SOL    HW2 7356   5.268   5.705   4.429
 2153SOL     OW 7357   4.656   1.262   3.470
 2153SOL    HW1 7358   4.581   1.204   3.437
 2153SOL    HW2 7359   4.638   1.290   3.564
 2154SOL     OW 7360   3.230   0.188   3.410
 2154SOL    HW1 7361   3.161   0.247   3.368
 2154SOL    HW2 7362   3.239   0.104   3.358
 2155SOL     OW 7363   4.578   0.534   1.048
 2155SOL    HW1 7364   4.613   0.499   0.961
 2155SOL    HW2 7365   4.486   0.570   1.035
 2156SOL     OW 7366   5.096   1.661   4.907
 2156SOL    HW1 7367   5.020   1.674   4.970
 2156SOL    HW2 7368   5.151   1.745   4.903
 2157SOL     OW 7369   3.305   6.425   4.043
 2157SOL    HW1 7370   3.404   6.414   4.048
 2157SOL    HW2 7371   3.260   6.349   4.090
 2158SOL     OW 7372   3.509   0.574   0.491
 2158SOL    HW1 7373   3.453   0.641   0.441
 2158SOL    HW2 7374   3.515   0.489   0.438
 2159SOL     OW 7375   0.596   1.222   5.675
 2159SOL    HW1 7376   0.527   1.290   5.699
 2159SOL    HW2 7377   0.563   1.165   5.600
 2160SOL     OW 7378   5.851   6.755   0.150
 2160SOL    HW1 7379   5.837   6.657   0.158
 2160SOL    HW2 7380   5.942   6.779   0.182
 2161SOL     OW 7381   1.548   2.433   1.705
 2161SOL    HW1 7382   1.601   2.457   1.623
 2161SOL    HW2 7383   1.609   2.435   1.785
 2162SOL     OW 7384   1.246   6.981   1.817
 2162SOL    HW1 7385   1.215   0.057   1.798
 2162SOL    HW2 7386   1.173   6.916   1.798
 2163SOL     OW 7387   1.840   2.743   2.815
 2163SOL    HW1 7388   1.865   2.704   2.727
 2163SOL    HW2 7389   1.916   2.731   2.879
 2164SOL     OW 7390   2.065   3.054   2.871
 2164SOL    HW1 7391   1.970   3.057   2.842
 2164SOL    HW2 7392   2.124   3.041   2.791
 2165SOL     OW 7393   6.919   1.412   3.855
 2165SOL    HW1 7394   6.834   1.363   3.874
 2165SOL    HW2 7395   6.996   1.347   3.856
 2166SOL     OW 7396   6.898   4.347   2.761
 2166SOL    HW1 7397   6.960   4.270   2.746
 2166SOL    HW2 7398   6.808   4.313   2.789
 2167SOL     OW 7399   2.309   2.009   3.239
 2167SOL    HW1 7400   2.322   1.916   3.204
 2167SOL    HW2 7401   2.335   2.075   3.168
 2168SOL     OW 7402   1.407   2.054   3.400
 2168SOL    HW1 7403   1.468   1.998   3.456
 2168SOL    HW2 7404   1.434   2.046   3.304
 2169SOL     OW 7405   0.568   0.441   1.580
 2169SOL    HW1 7406   0.594   0.515   1.518
 2169SOL    HW2 7407   0.556   0.357   1.529
 2170SOL     OW 7408   1.084   3.667   5.022
 2170SOL    HW1 7409   1.011   3.734   5.007
 2170SOL    HW2 7410   1.053   3.577   4.990
 2171SOL     OW 7411   7.009   5.285   1.798
 2171SOL    HW1 7412   0.034   5.236   1.721
 2171SOL    HW2 7413   6.923   5.241   1.823
 2172SOL     OW 7414   1.428   1.661   5.124
 2172SOL    HW1 7415   1.380   1.747   5.109
 2172SOL    HW2 7416   1.368   1.597   5.172
 2173SOL     OW 7417   6.240   0.941   5.254
 2173SOL    HW1 7418   6.264   1.012   5.188
 2173SOL    HW2 7419   6.323   0.891   5.281
 2174SOL     OW 7420   6.126   0.055   6.134
 2174SOL    HW1 7421   6.093   7.000   6.074
 2174SOL    HW2 7422   6.058   0.073   6.205
 2175SOL     OW 7423   2.515   3.767   5.338
 2175SOL    HW1 7424   2.508   3.789   5.435
 2175SOL    HW2 7425   2.473   3.839   5.283
 2176SOL     OW 7426   5.600   2.524   2.447
 2176SOL    HW1 7427   5.512   2.567   2.465
 2176SOL    HW2 7428   5.592   2.463   2.369
 2177SOL     OW 7429   0.450   0.286   4.408
 2177SOL    HW1 7430   0.403   0.300   4.495
 2177SOL    HW2 7431   0.430   0.362   4.347
 2178SOL     OW 7432   0.379   1.821   2.820
 2178SOL    HW1 7433   0.434   1.787   2.896
 2178SOL    HW2 7434   0.285   1.789   2.829
 2179SOL     OW 7435   1.092   4.120   6.444
 2179SOL    HW1 7436   1.031   4.200   6.451
 2179SOL    HW2 7437   1.109   4.101   6.347
 2180SOL     OW 7438   0.667   6.154   2.659
 2180SOL    HW1 7439   0.758   6.188   2.636
 2180SOL    HW2 7440   0.654   6.063   2.620
 2181SOL     OW 7441   3.055   4.949   4.590
 2181SOL    HW1 7442   3.049   4.912   4.683
 2181SOL    HW2 7443   2.981   4.912   4.535
 2182SOL     OW 7444   0.055   6.486   2.925
 2182SOL    HW1 7445   0.044   6.430   2.843
 2182SOL    HW2 7446   0.145   6.471   2.964
 2183SOL     OW 7447   3.407   2.845   6.415
 2183SOL    HW1 7448   3.355   2.784   6.475
 2183SOL    HW2 7449   3.503   2.815   6.412
 2184SOL     OW 7450   6.552   1.848   6.748
 2184SOL    HW1 7451   6.599   1.866   6.662
 2184SOL    HW2 7452   6.619   1.848   6.823
 2185SOL     OW 7453   0.968   0.064   6.877
 2185SOL    HW1 7454   0.956   0.089   6.781
 2185SOL    HW2 7455   1.063   0.081   6.904
 2186SOL     OW 7456   0.295   5.208   5.733
 2186SOL    HW1 7457   0.390   5.226   5.708
 2186SOL    HW2 7458   0.234   5.254   5.667
 2187SOL     OW 7459   0.744   5.887   2.614
 2187SOL    HW1 7460   0.824   5.841   2.574
 2187SOL    HW2 7461   0.716   5.839   2.697
 2188SOL     OW 7462   2.418   0.240   0.692
 2188SOL    HW1 7463   2.468   0.176   0.634
 2188SOL    HW2 7464   2.385   0.192   0.773
 2189SOL     OW 7465   2.051   1.469   1.643
 2189SOL    HW1 7466   2.022   1.376   1.665
 2189SOL    HW2 7467   1.972   1.523   1.616
 2190SOL     OW 7468   6.451   4.012   1.965
 2190SOL    HW1 7469   6.412   4.098   1.932
 2190SOL    HW2 7470   6.523   4.031   2.032
 2191SOL     OW 7471   2.741   0.005   0.164
 2191SOL    HW1 7472   2.823   0.061   0.170
 2191SOL    HW2 7473   2.687   0.035   0.084
 2192SOL     OW 7474   4.731   1.935   1.565
 2192SOL    HW1 7475   4.722   1.866   1.492
 2192SOL    HW2 7476   4.769   2.019   1.526
 2193SOL     OW 7477   1.877   6.797   5.939
 2193SOL    HW1 7478   1.918   6.868   5.996
 2193SOL    HW2 7479   1.788   6.771   5.978
 2194SOL     OW 7480   1.177   3.732   5.843
 2194SOL    HW1 7481   1.116   3.733   5.764
 2194SOL    HW2 7482   1.148   3.662   5.907
 2195SOL     OW 7483   0.101   3.716   5.227
 2195SOL    HW1 7484   0.111   3.736   5.130
 2195SOL    HW2 7485   0.172   3.652   5.256
 2196SOL     OW 7486   2.764   0.318   6.588
 2196SOL    HW1 7487   2.827   0.329   6.511
 2196SOL    HW2 7488   2.760   0.222   6.613
 2197SOL     OW 7489   3.642   5.506   5.753
 2197SOL    HW1 7490   3.731   5.524   5.795
 2197SOL    HW2 7491   3.653   5.493   5.655
 2198SOL     OW 7492   0.835   0.412   6.873
 2198SOL    HW1 7493   0.775   0.425   6.794
 2198SOL    HW2 7494   0.785   0.433   6.957
 2199SOL     OW 7495   3.819   6.351   4.989
 2199SOL    HW1 7496   3.818   6.251   4.989
 2199SOL    HW2 7497   3.738   6.386   4.942
 2200SOL     OW 7498   2.495   1.833   4.205
 2200SOL    HW1 7499   2.532   1.742   4.186
 2200SOL    HW2 7500   2.493   1.888   4.122
 2201SOL     OW 7501   6.657   4.050   4.768
 2201SOL    HW1 7502   6.633   4.130   4.713
 2201SOL    HW2 7503   6.694   4.079   4.856
 2202SOL     OW 7504   3.679   6.653   1.404
 2202SOL    HW1 7505   3.672   6.597   1.486
 2202SOL    HW2 7506   3.729   6.603   1.333
 2203SOL     OW 7507   2.410   3.960   0.912
 2203SOL    HW1 7508   2.502   3.922   0.908
 2203SOL    HW2 7509   2.353   3.918   0.842
 2204SOL     OW 7510   5.572   3.514   1.139
 2204SOL    HW1 7511   5.493   3.476   1.187
 2204SOL    HW2 7512   5.635   3.553   1.206
 2205SOL     OW 7513   0.486   5.404   0.397
 2205SOL    HW1 7514   0.400   5.445   0.366
 2205SOL    HW2 7515   0.489   5.309   0.368
 2206SOL     OW 7516   3.360   2.406   5.866
 2206SOL    HW1 7517   3.345   2.435   5.961
 2206SOL    HW2 7518   3.355   2.306   5.861
 2207SOL     OW 7519   4.494   5.862   1.136
 2207SOL    HW1 7520   4.568   5.924   1.161
 2207SOL    HW2 7521   4.406   5.906   1.156
 2208SOL     OW 7522   6.707   6.604   3.600
 2208SOL    HW1 7523   6.766   6.672   3.644
 2208SOL    HW2 7524   6.672   6.642   3.514
 2209SOL     OW 7525   2.832   5.720   4.051
 2209SOL    HW1 7526   2.834   5.725   3.951
 2209SOL    HW2 7527   2.853   5.627   4.080
 2210SOL     OW 7528   4.766   0.218   0.875
 2210SOL    HW1 7529   4.706   0.181   0.945
 2210SOL    HW2 7530   4.854   0.244   0.916
 2211SOL     OW 7531   0.302   2.134   0.931
 2211SOL    HW1 7532   0.227   2.092   0.981
 2211SOL    HW2 7533   0.266   2.199   0.864
 2212SOL     OW 7534   3.043   6.031   6.671
 2212SOL    HW1 7535   2.949   6.029   6.638
 2212SOL    HW2 7536   3.061   6.119   6.716
 2213SOL     OW 7537   3.462   1.612   5.088
 2213SOL    HW1 7538   3.488   1.660   5.171
 2213SOL    HW2 7539   3.445   1.516   5.109
 2214SOL     OW 7540   4.530   3.919   6.690
 2214SOL    HW1 7541   4.570   3.908   6.781
 2214SOL    HW2 7542   4.487   3.833   6.662
 2215SOL     OW 7543   3.969   6.948   0.046
 2215SOL    HW1 7544   4.036   6.887   0.089
 2215SOL    HW2 7545   4.002   0.025   0.052
 2216SOL     OW 7546   0.410   0.353   6.546
 2216SOL    HW1 7547   0.331   0.346   6.608
 2216SOL    HW2 7548   0.377   0.356   6.451
 2217SOL     OW 7549   4.186   0.905   4.011
 2217SOL    HW1 7550   4.115   0.933   4.076
 2217SOL    HW2 7551   4.239   0.830   4.050
 2218SOL     OW 7552   0.779   5.947   5.596
 2218SOL    HW1 7553   0.726   5.863   5.587
 2218SOL    HW2 7554   0.722   6.026   5.574
 2219SOL     OW 7555   5.971   1.057   0.804
 2219SOL    HW1 7556   6.008   1.057   0.711
 2219SOL    HW2 7557   6.006   1.137   0.853
 2220SOL     OW 7558   0.516   5.773   5.040
 2220SOL    HW1 7559   0.576   5.749   4.964
 2220SOL    HW2 7560   0.421   5.760   5.013
 2221SOL     OW 7561   6.552   1.543   3.630
 2221SOL    HW1 7562   6.454   1.559   3.635
 2221SOL    HW2 7563   6.585   1.560   3.537
 2222SOL     OW 7564   5.014   6.596   2.275
 2222SOL    HW1 7565   5.026   6.643   2.363
 2222SOL    HW2 7566   5.083   6.630   2.211
 2223SOL     OW 7567   0.295   6.163   5.543
 2223SOL    HW1 7568   0.252   6.231   5.604
 2223SOL    HW2 7569   0.327   6.209   5.460
 2224SOL     OW 7570   6.103   3.947   0.754
 2224SOL    HW1 7571   6.026   3.886   0.735
 2224SOL    HW2 7572   6.138   3.930   0.846
 2225SOL     OW 7573   6.643   6.501   2.869
 2225SOL    HW1 7574   6.686   6.477   2.782
 2225SOL    HW2 7575   6.714   6.518   2.938
 2226SOL     OW 7576   2.241   4.865   0.793
 2226SOL    HW1 7577   2.260   4.846   0.696
 2226SOL    HW2 7578   2.148   4.836   0.815
 2227SOL     OW 7579   3.729   2.090   1.726
 2227SOL    HW1 7580   3.801   2.052   1.783
 2227SOL    HW2 7581   3.704   2.181   1.760
 2228SOL     OW 7582   5.664   5.085   6.655
 2228SOL    HW1 7583   5.719   5.156   6.698
 2228SOL    HW2 7584   5.580   5.070   6.708
 2229SOL     OW 7585   3.444   3.296   3.446
 2229SOL    HW1 7586   3.500   3.313   3.528
 2229SOL    HW2 7587   3.498   3.315   3.365
 2230SOL     OW 7588   5.305   0.430   0.433
 2230SOL    HW1 7589   5.376   0.488   0.474
 2230SOL    HW2 7590   5.264   0.477   0.356
 2231SOL     OW 7591   1.373   0.061   6.513
 2231SOL    HW1 7592   1.345   0.062   6.417
 2231SOL    HW2 7593   1.454   0.118   6.525
 2232SOL     OW 7594   0.903   0.773   5.025
 2232SOL    HW1 7595   0.905   0.859   5.077
 2232SOL    HW2 7596   0.996   0.741   5.008
 2233SOL     OW 7597   2.990   4.275   1.110
 2233SOL    HW1 7598   3.039   4.257   1.195
 2233SOL    HW2 7599   3.055   4.279   1.034
 2234SOL     OW 7600   5.186   1.582   1.265
 2234SOL    HW1 7601   5.246   1.589   1.186
 2234SOL    HW2 7602   5.218   1.645   1.336
 2235SOL     OW 7603   1.238   1.728   3.285
 2235SOL    HW1 7604   1.323   1.703   3.237
 2235SOL    HW2 7605   1.205   1.816   3.251
 2236SOL     OW 7606   1.806   4.456   5.303
 2236SOL    HW1 7607   1.789   4.470   5.206
 2236SOL    HW2 7608   1.868   4.528   5.337
 2237SOL     OW 7609   6.908   5.342   5.843
 2237SOL    HW1 7610   6.925   5.433   5.882
 2237SOL    HW2 7611   6.819   5.342   5.797
 2238SOL     OW 7612   5.773   4.489   2.013
 2238SOL    HW1 7613   5.686   4.451   1.980
 2238SOL    HW2 7614   5.804   4.436   2.092
 2239SOL     OW 7615   4.379   6.630   3.427
 2239SOL    HW1 7616   4.407   6.649   3.521
 2239SOL    HW2 7617   4.370   6.715   3.377
 2240SOL     OW 7618   4.962   4.807   3.228
 2240SOL    HW1 7619   4.913   4.722   3.209
 2240SOL    HW2 7620   5.056   4.786   3.254
 2241SOL     OW 7621   0.554   1.153   1.577
 2241SOL    HW1 7622   0.640   1.203   1.573
 2241SOL    HW2 7623   0.478   1.217   1.590
 2242SOL     OW 7624   4.753   2.889   3.347
 2242SOL    HW1 7625   4.730   2.972   3.397
 2242SOL    HW2 7626   4.677   2.824   3.355
 2243SOL     OW 7627   1.632   6.240   0.540
 2243SOL    HW1 7628   1.684   6.166   0.496
 2243SOL    HW2 7629   1.689   6.284   0.609
 2244SOL     OW 7630   2.899   0.899   0.466
 2244SOL    HW1 7631   2.818   0.843   0.485
 2244SOL    HW2 7632   2.872   0.980   0.413
 2245SOL     OW 7633   0.434   0.197   0.353
 2245SOL    HW1 7634   0.470   0.280   0.310
 2245SOL    HW2 7635   0.449   0.118   0.293
 2246SOL     OW 7636   2.828   0.713   4.805
 2246SOL    HW1 7637   2.885   0.750   4.731
 2246SOL    HW2 7638   2.854   0.618   4.822
 2247SOL     OW 7639   3.072   3.931   2.709
 2247SOL    HW1 7640   2.991   3.973   2.750
 2247SOL    HW2 7641   3.051   3.837   2.682
 2248SOL     OW 7642   4.901   4.010   4.990
 2248SOL    HW1 7643   4.951   3.970   5.067
 2248SOL    HW2 7644   4.828   4.069   5.024
 2249SOL     OW 7645   2.042   5.855   3.097
 2249SOL    HW1 7646   1.961   5.809   3.133
 2249SOL    HW2 7647   2.113   5.787   3.077
 2250SOL     OW 7648   4.558   5.314   6.152
 2250SOL    HW1 7649   4.611   5.316   6.067
 2250SOL    HW2 7650   4.587   5.237   6.208
 2251SOL     OW 7651   5.427   6.387   5.933
 2251SOL    HW1 7652   5.423   6.380   5.833
 2251SOL    HW2 7653   5.352   6.335   5.973
 2252SOL     OW 7654   4.541   1.591   3.009
 2252SOL    HW1 7655   4.622   1.539   3.037
 2252SOL    HW2 7656   4.459   1.535   3.019
 2253SOL     OW 7657   0.399   3.420   1.133
 2253SOL    HW1 7658   0.361   3.332   1.163
 2253SOL    HW2 7659   0.485   3.404   1.085
 2254SOL     OW 7660   3.656   3.632   2.567
 2254SOL    HW1 7661   3.661   3.582   2.481
 2254SOL    HW2 7662   3.561   3.633   2.599
 2255SOL     OW 7663   3.421   3.609   6.219
 2255SOL    HW1 7664   3.510   3.594   6.175
 2255SOL    HW2 7665   3.357   3.538   6.190
 2256SOL     OW 7666   4.304   0.069   2.090
 2256SOL    HW1 7667   4.247   0.055   2.171
 2256SOL    HW2 7668   4.332   6.998   2.053
 2257SOL     OW 7669   0.617   0.926   4.938
 2257SOL    HW1 7670   0.647   0.998   4.875
 2257SOL    HW2 7671   0.660   0.939   5.027
 2258SOL     OW 7672   2.863   5.718   3.758
 2258SOL    HW1 7673   2.862   5.715   3.658
 2258SOL    HW2 7674   2.822   5.804   3.789
 2259SOL     OW 7675   6.068   2.168   4.303
 2259SOL    HW1 7676   5.987   2.200   4.254
 2259SOL    HW2 7677   6.112   2.245   4.349
 2260SOL     OW 7678   1.221   4.025   1.452
 2260SOL    HW1 7679   1.176   3.955   1.508
 2260SOL    HW2 7680   1.175   4.030   1.363
 2261SOL     OW 7681   5.486   4.134   6.826
 2261SOL    HW1 7682   5.485   4.036   6.843
 2261SOL    HW2 7683   5.570   4.173   6.863
 2262SOL     OW 7684   6.696   0.415   4.458
 2262SOL    HW1 7685   6.679   0.353   4.535
 2262SOL    HW2 7686   6.697   0.509   4.491
 2263SOL     OW 7687   2.029   4.298   6.533
 2263SOL    HW1 7688   2.062   4.392   6.548
 2263SOL    HW2 7689   2.067   4.263   6.447
 2264SOL     OW 7690   2.620   0.163   5.407
 2264SOL    HW1 7691   2.556   0.232   5.373
 2264SOL    HW2 7692   2.665   0.198   5.490
 2265SOL     OW 7693   0.564   6.410   4.699
 2265SOL    HW1 7694   0.523   6.430   4.610
 2265SOL    HW2 7695   0.585   6.496   4.746
 2266SOL     OW 7696   4.573   1.780   6.696
 2266SOL    HW1 7697   4.599   1.692   6.657
 2266SOL    HW2 7698   4.490   1.813   6.653
 2267SOL     OW 7699   4.907   2.516   4.449
 2267SOL    HW1 7700   4.997   2.551   4.427
 2267SOL    HW2 7701   4.915   2.422   4.482
 2268SOL     OW 7702   0.587   5.361   5.360
 2268SOL    HW1 7703   0.491   5.360   5.330
 2268SOL    HW2 7704   0.620   5.267   5.367
 2269SOL     OW 7705   1.921   2.273   5.160
 2269SOL    HW1 7706   1.940   2.201   5.227
 2269SOL    HW2 7707   1.834   2.255   5.114
 2270SOL     OW 7708   4.773   1.904   6.023
 2270SOL    HW1 7709   4.742   1.904   5.928
 2270SOL    HW2 7710   4.870   1.880   6.027
 2271SOL     OW 7711   5.103   5.130   6.156
 2271SOL    HW1 7712   5.076   5.065   6.085
 2271SOL    HW2 7713   5.058   5.218   6.140
 2272SOL     OW 7714   5.636   1.184   5.850
 2272SOL    HW1 7715   5.735   1.187   5.836
 2272SOL    HW2 7716   5.593   1.135   5.774
 2273SOL     OW 7717   1.337   2.484   2.641
 2273SOL    HW1 7718   1.372   2.411   2.581
 2273SOL    HW2 7719   1.277   2.444   2.710
 2274SOL     OW 7720   0.111   1.515   6.311
 2274SOL    HW1 7721   0.186   1.538   6.249
 2274SOL    HW2 7722   0.143   1.451   6.380
 2275SOL     OW 7723   5.666   4.859   2.414
 2275SOL    HW1 7724   5.601   4.824   2.481
 2275SOL    HW2 7725   5.708   4.943   2.449
 2276SOL     OW 7726   1.353   2.400   1.142
 2276SOL    HW1 7727   1.302   2.411   1.228
 2276SOL    HW2 7728   1.384   2.305   1.134
 2277SOL     OW 7729   3.804   3.275   3.377
 2277SOL    HW1 7730   3.831   3.371   3.368
 2277SOL    HW2 7731   3.729   3.255   3.314
 2278SOL     OW 7732   0.303   2.402   4.016
 2278SOL    HW1 7733   0.300   2.491   3.971
 2278SOL    HW2 7734   0.352   2.337   3.958
 2279SOL     OW 7735   0.615   5.927   5.235
 2279SOL    HW1 7736   0.544   5.935   5.305
 2279SOL    HW2 7737   0.574   5.888   5.152
 2280SOL     OW 7738   4.773   1.417   4.958
 2280SOL    HW1 7739   4.797   1.365   5.040
 2280SOL    HW2 7740   4.822   1.505   4.959
 2281SOL     OW 7741   5.320   0.370   2.265
 2281SOL    HW1 7742   5.373   0.317   2.199
 2281SOL    HW2 7743   5.286   0.309   2.337
 2282SOL     OW 7744   4.469   6.178   5.533
 2282SOL    HW1 7745   4.401   6.247   5.555
 2282SOL    HW2 7746   4.549   6.222   5.492
 2283SOL     OW 7747   0.387   0.247   3.742
 2283SOL    HW1 7748   0.452   0.311   3.701
 2283SOL    HW2 7749   0.365   0.175   3.676
 2284SOL     OW 7750   1.548   3.238   6.672
 2284SOL    HW1 7751   1.505   3.150   6.652
 2284SOL    HW2 7752   1.563   3.288   6.587
 2285SOL     OW 7753   1.218   3.929   6.591
 2285SOL    HW1 7754   1.184   4.006   6.537
 2285SOL    HW2 7755   1.294   3.960   6.649
 2286SOL     OW 7756   4.373   5.728   4.095
 2286SOL    HW1 7757   4.357   5.806   4.035
 2286SOL    HW2 7758   4.289   5.708   4.146
 2287SOL     OW 7759   1.833   1.007   3.256
 2287SOL    HW1 7760   1.807   0.953   3.177
 2287SOL    HW2 7761   1.900   0.957   3.310
 2288SOL     OW 7762   0.298   6.405   3.023
 2288SOL    HW1 7763   0.316   6.374   3.117
 2288SOL    HW2 7764   0.366   6.474   2.997
 2289SOL     OW 7765   0.874   5.624   1.890
 2289SOL    HW1 7766   0.896   5.590   1.982
 2289SOL    HW2 7767   0.905   5.718   1.882
 2290SOL     OW 7768   0.560   5.556   0.623
 2290SOL    HW1 7769   0.623   5.507   0.683
 2290SOL    HW2 7770   0.529   5.495   0.549
 2291SOL     OW 7771   2.639   1.946   6.264
 2291SOL    HW1 7772   2.555   1.953   6.318
 2291SOL    HW2 7773   2.713   1.913   6.322
 2292SOL     OW 7774   1.504   1.020   4.771
 2292SOL    HW1 7775   1.541   1.110   4.746
 2292SOL    HW2 7776   1.497   0.964   4.688
 2293SOL     OW 7777   5.585   5.047   2.192
 2293SOL    HW1 7778   5.516   5.031   2.122
 2293SOL    HW2 7779   5.614   4.960   2.231
 2294SOL     OW 7780   4.048   6.473   6.425
 2294SOL    HW1 7781   4.045   6.452   6.523
 2294SOL    HW2 7782   4.094   6.398   6.377
 2295SOL     OW 7783   0.479   2.691   1.119
 2295SOL    HW1 7784   0.487   2.664   1.215
 2295SOL    HW2 7785   0.423   2.774   1.112
 2296SOL     OW 7786   3.495   6.440   6.974
 2296SOL    HW1 7787   3.451   6.495   6.903
 2296SOL    HW2 7788   3.589   6.420   6.948
 2297SOL     OW 7789   4.248   5.330   5.785
 2297SOL    HW1 7790   4.316   5.354   5.716
 2297SOL    HW2 7791   4.286   5.347   5.876
 2298SOL     OW 7792   4.113   3.153   0.308
 2298SOL    HW1 7793   4.068   3.178   0.222
 2298SOL    HW2 7794   4.152   3.062   0.299
 2299SOL     OW 7795   4.726   5.632   7.000
 2299SOL    HW1 7796   4.745   5.560   0.048
 2299SOL    HW2 7797   4.811   5.681   6.979
 2300SOL     OW 7798   1.814   5.120   1.214
 2300SOL    HW1 7799   1.812   5.220   1.213
 2300SOL    HW2 7800   1.893   5.088   1.266
 2301SOL     OW 7801   4.129   3.429   2.590
 2301SOL    HW1 7802   4.159   3.343   2.550
 2301SOL    HW2 7803   4.113   3.417   2.688
 2302SOL     OW 7804   3.406   5.576   2.418
 2302SOL    HW1 7805   3.419   5.619   2.508
 2302SOL    HW2 7806   3.495   5.551   2.380
 2303SOL     OW 7807   1.362   2.603   4.874
 2303SOL    HW1 7808   1.283   2.647   4.830
 2303SOL    HW2 7809   1.396   2.530   4.815
 2304SOL     OW 7810   2.206   0.900   3.895
 2304SOL    HW1 7811   2.130   0.886   3.958
 2304SOL    HW2 7812   2.204   0.829   3.824
 2305SOL     OW 7813   3.368   5.301   1.685
 2305SOL    HW1 7814   3.404   5.341   1.600
 2305SOL    HW2 7815   3.364   5.201   1.675
 2306SOL     OW 7816   1.070   3.729   1.026
 2306SOL    HW1 7817   1.064   3.689   0.935
 2306SOL    HW2 7818   1.141   3.682   1.079
 2307SOL     OW 7819   0.413   2.366   2.941
 2307SOL    HW1 7820   0.490   2.326   2.891
 2307SOL    HW2 7821   0.391   2.308   3.020
 2308SOL     OW 7822   0.069   0.036   0.409
 2308SOL    HW1 7823   0.081   0.023   0.310
 2308SOL    HW2 7824   0.040   0.130   0.427
 2309SOL     OW 7825   3.319   5.410   6.265
 2309SOL    HW1 7826   3.287   5.441   6.176
 2309SOL    HW2 7827   3.408   5.452   6.285
 2310SOL     OW 7828   5.500   0.802   1.811
 2310SOL    HW1 7829   5.500   0.784   1.713
 2310SOL    HW2 7830   5.559   0.881   1.831
 2311SOL     OW 7831   3.020   0.156   2.840
 2311SOL    HW1 7832   3.068   0.085   2.789
 2311SOL    HW2 7833   3.008   0.236   2.782
 2312SOL     OW 7834   4.141   0.958   2.859
 2312SOL    HW1 7835   4.205   0.946   2.782
 2312SOL    HW2 7836   4.051   0.984   2.824
 2313SOL     OW 7837   5.196   4.030   2.057
 2313SOL    HW1 7838   5.246   3.946   2.039
 2313SOL    HW2 7839   5.255   4.094   2.106
 2314SOL     OW 7840   6.412   0.314   3.243
 2314SOL    HW1 7841   6.480   0.272   3.304
 2314SOL    HW2 7842   6.459   0.376   3.180
 2315SOL     OW 7843   4.361   4.679   5.681
 2315SOL    HW1 7844   4.418   4.758   5.701
 2315SOL    HW2 7845   4.334   4.635   5.766
 2316SOL     OW 7846   2.812   1.172   6.054
 2316SOL    HW1 7847   2.785   1.157   5.959
 2316SOL    HW2 7848   2.823   1.270   6.071
 2317SOL     OW 7849   6.086   5.736   3.753
 2317SOL    HW1 7850   6.146   5.782   3.688
 2317SOL    HW2 7851   5.998   5.784   3.757
 2318SOL     OW 7852   1.653   4.604   4.816
 2318SOL    HW1 7853   1.616   4.697   4.818
 2318SOL    HW2 7854   1.713   4.593   4.737
 2319SOL     OW 7855   2.452   5.015   4.305
 2319SOL    HW1 7856   2.436   5.080   4.230
 2319SOL    HW2 7857   2.540   4.970   4.292
 2320SOL     OW 7858   1.381   3.367   4.929
 2320SOL    HW1 7859   1.345   3.274   4.920
 2320SOL    HW2 7860   1.432   3.392   4.847
 2321SOL     OW 7861   2.950   5.161   6.407
 2321SOL    HW1 7862   2.922   5.169   6.311
 2321SOL    HW2 7863   2.977   5.251   6.440
 2322SOL     OW 7864   1.535   3.505   2.283
 2322SOL    HW1 7865   1.519   3.579   2.349
 2322SOL    HW2 7866   1.611   3.449   2.315
 2323SOL     OW 7867   2.010   4.865   1.556
 2323SOL    HW1 7868   1.923   4.859   1.606
 2323SOL    HW2 7869   2.085   4.878   1.622
 2324SOL     OW 7870   0.522   5.440   1.632
 2324SOL    HW1 7871   0.521   5.395   1.722
 2324SOL    HW2 7872   0.604   5.411   1.582
 2325SOL     OW 7873   6.767   5.382   2.030
 2325SOL    HW1 7874   6.829   5.404   1.955
 2325SOL    HW2 7875   6.679   5.351   1.993
 2326SOL     OW 7876   0.905   0.581   6.571
 2326SOL    HW1 7877   0.816   0.543   6.593
 2326SOL    HW2 7878   0.976   0.530   6.619
 2327SOL     OW 7879   6.472   0.383   2.626
 2327SOL    HW1 7880   6.517   0.330   2.698
 2327SOL    HW2 7881   6.374   0.387   2.645
 2328SOL     OW 7882   1.571   2.298   2.065
 2328SOL    HW1 7883   1.617   2.222   2.019
 2328SOL    HW2 7884   1.635   2.344   2.126
 2329SOL     OW 7885   1.007   5.368   3.760
 2329SOL    HW1 7886   1.013   5.387   3.663
 2329SOL    HW2 7887   1.064   5.433   3.811
 2330SOL     OW 7888   6.663   3.117   0.085
 2330SOL    HW1 7889   6.631   3.203   0.045
 2330SOL    HW2 7890   6.631   3.111   0.179
 2331SOL     OW 7891   3.962   5.803   6.984
 2331SOL    HW1 7892   3.954   5.858   0.050
 2331SOL    HW2 7893   3.887   5.736   6.982
 2332SOL     OW 7894   5.165   6.742   6.314
 2332SOL    HW1 7895   5.183   6.774   6.407
 2332SOL    HW2 7896   5.094   6.672   6.316
 2333SOL     OW 7897   0.222   5.198   2.719
 2333SOL    HW1 7898   0.217   5.297   2.735
 2333SOL    HW2 7899   0.300   5.160   2.767
 2334SOL     OW 7900   2.697   0.752   5.672
 2334SOL    HW1 7901   2.773   0.746   5.738
 2334SOL    HW2 7902   2.710   0.683   5.601
 2335SOL     OW 7903   6.213   1.826   3.584
 2335SOL    HW1 7904   6.215   1.855   3.680
 2335SOL    HW2 7905   6.163   1.894   3.530
 2336SOL     OW 7906   2.242   1.797   2.724
 2336SOL    HW1 7907   2.228   1.702   2.698
 2336SOL    HW2 7908   2.161   1.832   2.771
 2337SOL     OW 7909   3.985   2.043   1.212
 2337SOL    HW1 7910   3.926   1.966   1.234
 2337SOL    HW2 7911   3.934   2.128   1.226
 2338SOL     OW 7912   0.603   3.703   4.103
 2338SOL    HW1 7913   0.656   3.755   4.169
 2338SOL    HW2 7914   0.510   3.690   4.137
 2339SOL     OW 7915   3.066   2.995   2.348
 2339SOL    HW1 7916   3.045   2.910   2.300
 2339SOL    HW2 7917   3.105   3.061   2.284
 2340SOL     OW 7918   1.036   4.659   6.562
 2340SOL    HW1 7919   0.986   4.745   6.552
 2340SOL    HW2 7920   0.986   4.586   6.515
 2341SOL     OW 7921   2.492   4.393   3.087
 2341SOL    HW1 7922   2.539   4.331   3.025
 2341SOL    HW2 7923   2.437   4.341   3.151
 2342SOL     OW 7924   3.067   6.573   4.314
 2342SOL    HW1 7925   3.064   6.487   4.365
 2342SOL    HW2 7926   3.058   6.554   4.216
 2343SOL     OW 7927   2.033   6.420   2.697
 2343SOL    HW1 7928   2.030   6.428   2.597
 2343SOL    HW2 7929   2.060   6.507   2.737
 2344SOL     OW 7930   6.331   4.692   1.014
 2344SOL    HW1 7931   6.234   4.671   1.026
 2344SOL    HW2 7932   6.343   4.751   0.934
 2345SOL     OW 7933   2.890   5.631   4.544
 2345SOL    HW1 7934   2.805   5.677   4.569
 2345SOL    HW2 7935   2.965   5.670   4.598
 2346SOL     OW 7936   4.074   3.686   6.010
 2346SOL    HW1 7937   4.023   3.735   6.080
 2346SOL    HW2 7938   4.155   3.645   6.051
 2347SOL     OW 7939   1.349   1.956   1.710
 2347SOL    HW1 7940   1.312   1.922   1.796
 2347SOL    HW2 7941   1.432   2.009   1.728
 2348SOL     OW 7942   1.445   5.595   3.190
 2348SOL    HW1 7943   1.351   5.622   3.208
 2348SOL    HW2 7944   1.492   5.580   3.277
 2349SOL     OW 7945   0.736   4.053   6.416
 2349SOL    HW1 7946   0.705   4.112   6.491
 2349SOL    HW2 7947   0.770   3.966   6.454
 2350SOL     OW 7948   6.271   4.320   5.852
 2350SOL    HW1 7949   6.306   4.402   5.807
 2350SOL    HW2 7950   6.186   4.291   5.809
 2351SOL     OW 7951   2.532   4.658   3.017
 2351SOL    HW1 7952   2.485   4.665   2.928
 2351SOL    HW2 7953   2.520   4.565   3.053
 2352SOL     OW 7954   0.075   3.025   3.382
 2352SOL    HW1 7955   0.105   3.002   3.475
 2352SOL    HW2 7956   0.136   3.093   3.343
 2353SOL     OW 7957   4.002   5.425   5.731
 2353SOL    HW1 7958   4.018   5.511   5.682
 2353SOL    HW2 7959   4.089   5.382   5.752
 2354SOL     OW 7960   2.761   2.102   4.367
 2354SOL    HW1 7961   2.728   2.075   4.458
 2354SOL    HW2 7962   2.861   2.100   4.366
 2355SOL     OW 7963   2.309   6.110   4.495
 2355SOL    HW1 7964   2.370   6.038   4.464
 2355SOL    HW2 7965   2.351   6.199   4.478
 2356SOL     OW 7966   0.738   2.788   6.841
 2356SOL    HW1 7967   0.815   2.772   6.779
 2356SOL    HW2 7968   0.660   2.823   6.790
 2357SOL     OW 7969   3.347   1.088   2.692
 2357SOL    HW1 7970   3.436   1.104   2.649
 2357SOL    HW2 7971   3.356   1.014   2.759
 2358SOL     OW 7972   3.177   4.609   6.065
 2358SOL    HW1 7973   3.096   4.584   6.011
 2358SOL    HW2 7974   3.240   4.660   6.007
 2359SOL     OW 7975   1.283   0.108   5.447
 2359SOL    HW1 7976   1.185   0.097   5.428
 2359SOL    HW2 7977   1.298   0.112   5.546
 2360SOL     OW 7978   6.296   3.573   1.008
 2360SOL    HW1 7979   6.337   3.629   1.081
 2360SOL    HW2 7980   6.208   3.538   1.039
 2361SOL     OW 7981   3.030   1.418   5.884
 2361SOL    HW1 7982   3.012   1.513   5.859
 2361SOL    HW2 7983   2.999   1.402   5.978
 2362SOL     OW 7984   3.400   4.912   3.594
 2362SOL    HW1 7985   3.490   4.890   3.632
 2362SOL    HW2 7986   3.410   4.949   3.502
 2363SOL     OW 7987   3.667   1.665   3.383
 2363SOL    HW1 7988   3.568   1.657   3.400
 2363SOL    HW2 7989   3.714   1.683   3.470
 2364SOL     OW 7990   1.069   2.567   1.527
 2364SOL    HW1 7991   1.112   2.537   1.613
 2364SOL    HW2 7992   0.980   2.607   1.547
 2365SOL     OW 7993   6.095   2.441   0.217
 2365SOL    HW1 7994   6.188   2.441   0.181
 2365SOL    HW2 7995   6.069   2.535   0.240
 2366SOL     OW 7996   3.796   5.365   0.576
 2366SOL    HW1 7997   3.892   5.339   0.584
 2366SOL    HW2 7998   3.776   5.438   0.641
 2367SOL     OW 7999   2.145   3.056   0.225
 2367SOL    HW1 8000   2.144   3.055   0.125
 2367SOL    HW2 8001   2.063   3.102   0.259
 2368SOL     OW 8002   6.112   6.691   3.870
 2368SOL    HW1 8003   6.077   6.767   3.815
 2368SOL    HW2 8004   6.036   6.634   3.900
 2369SOL     OW 8005   1.849   0.106   3.909
 2369SOL    HW1 8006   1.893   0.108   3.999
 2369SOL    HW2 8007   1.918   0.100   3.838
 2370SOL     OW 8008   5.704   2.815   6.689
 2370SOL    HW1 8009   5.607   2.810   6.667
 2370SOL    HW2 8010   5.736   2.909   6.679
 2371SOL     OW 8011   2.229   0.150   1.540
 2371SOL    HW1 8012   2.268   0.076   1.486
 2371SOL    HW2 8013   2.154   0.192   1.490
 2372SOL     OW 8014   0.247   2.719   2.168
 2372SOL    HW1 8015   0.148   2.730   2.177
 2372SOL    HW2 8016   0.274   2.737   2.073
 2373SOL     OW 8017   2.066   3.478   5.838
 2373SOL    HW1 8018   2.024   3.505   5.752
 2373SOL    HW2 8019   2.148   3.532   5.854
 2374SOL     OW 8020   6.604   1.876   4.921
 2374SOL    HW1 8021   6.509   1.909   4.918
 2374SOL    HW2 8022   6.658   1.922   4.851
 2375SOL     OW 8023   3.624   5.629   5.483
 2375SOL    HW1 8024   3.531   5.665   5.498
 2375SOL    HW2 8025   3.620   5.530   5.472
 2376SOL     OW 8026   6.088   3.359   3.572
 2376SOL    HW1 8027   6.103   3.322   3.664
 2376SOL    HW2 8028   5.992   3.384   3.562
 2377SOL     OW 8029   2.943   3.582   3.885
 2377SOL    HW1 8030   2.916   3.487   3.895
 2377SOL    HW2 8031   2.938   3.628   3.974
 2378SOL     OW 8032   5.104   2.267   0.204
 2378SOL    HW1 8033   5.050   2.273   0.121
 2378SOL    HW2 8034   5.045   2.277   0.284
 2379SOL     OW 8035   6.310   0.933   0.806
 2379SOL    HW1 8036   6.375   0.918   0.881
 2379SOL    HW2 8037   6.275   1.026   0.810
 2380SOL     OW 8038   6.474   2.716   1.004
 2380SOL    HW1 8039   6.422   2.783   1.058
 2380SOL    HW2 8040   6.524   2.656   1.066
 2381SOL     OW 8041   1.815   5.436   2.897
 2381SOL    HW1 8042   1.744   5.505   2.914
 2381SOL    HW2 8043   1.796   5.389   2.811
 2382SOL     OW 8044   2.125   3.261   4.722
 2382SOL    HW1 8045   2.174   3.303   4.645
 2382SOL    HW2 8046   2.167   3.174   4.746
 2383SOL     OW 8047   6.557   6.427   1.283
 2383SOL    HW1 8048   6.539   6.339   1.240
 2383SOL    HW2 8049   6.630   6.475   1.233
 2384SOL     OW 8050   5.055   2.185   2.019
 2384SOL    HW1 8051   5.002   2.155   2.098
 2384SOL    HW2 8052   5.044   2.284   2.007
 2385SOL     OW 8053   0.053   0.848   0.094
 2385SOL    HW1 8054   7.015   0.805   0.023
 2385SOL    HW2 8055   0.036   0.803   0.181
 2386SOL     OW 8056   5.256   5.830   5.178
 2386SOL    HW1 8057   5.300   5.811   5.266
 2386SOL    HW2 8058   5.178   5.891   5.192
 2387SOL     OW 8059   1.877   1.098   3.955
 2387SOL    HW1 8060   1.924   1.147   3.882
 2387SOL    HW2 8061   1.779   1.097   3.938
 2388SOL     OW 8062   6.523   2.724   3.575
 2388SOL    HW1 8063   6.516   2.631   3.609
 2388SOL    HW2 8064   6.455   2.782   3.621
 2389SOL     OW 8065   4.440   4.600   3.456
 2389SOL    HW1 8066   4.387   4.685   3.454
 2389SOL    HW2 8067   4.489   4.589   3.370
 2390SOL     OW 8068   4.109   3.676   2.886
 2390SOL    HW1 8069   4.013   3.692   2.863
 2390SOL    HW2 8070   4.127   3.707   2.979
 2391SOL     OW 8071   4.636   4.793   6.240
 2391SOL    HW1 8072   4.657   4.758   6.331
 2391SOL    HW2 8073   4.700   4.755   6.173
 2392SOL     OW 8074   2.822   0.068   6.765
 2392SOL    HW1 8075   2.888   7.014   6.789
 2392SOL    HW2 8076   2.749   0.070   6.833
 2393SOL     OW 8077   4.393   4.662   6.199
 2393SOL    HW1 8078   4.492   4.676   6.204
 2393SOL    HW2 8079   4.366   4.649   6.104
 2394SOL     OW 8080   0.171   4.318   4.685
 2394SOL    HW1 8081   0.242   4.348   4.621
 2394SOL    HW2 8082   0.146   4.223   4.665
 2395SOL     OW 8083   4.247   6.598   6.047
 2395SOL    HW1 8084   4.268   6.600   6.144
 2395SOL    HW2 8085   4.332   6.596   5.994
 2396SOL     OW 8086   4.152   5.083   0.858
 2396SOL    HW1 8087   4.200   5.170   0.863
 2396SOL    HW2 8088   4.122   5.067   0.763
 2397SOL     OW 8089   0.520   4.284   4.306
 2397SOL    HW1 8090   0.604   4.251   4.350
 2397SOL    HW2 8091   0.493   4.220   4.234
 2398SOL     OW 8092   5.268   4.581   6.073
 2398SOL    HW1 8093   5.307   4.614   5.987
 2398SOL    HW2 8094   5.325   4.611   6.149
 2399SOL     OW 8095   4.409   1.642   1.609
 2399SOL    HW1 8096   4.442   1.548   1.610
 2399SOL    HW2 8097   4.381   1.669   1.701
 2400SOL     OW 8098   2.067   4.609   0.861
 2400SOL    HW1 8099   2.097   4.635   0.953
 2400SOL    HW2 8100   2.138   4.553   0.818
 2401SOL     OW 8101   6.480   5.990   6.188
 2401SOL    HW1 8102   6.522   5.906   6.154
 2401SOL    HW2 8103   6.458   5.979   6.286
 2402SOL     OW 8104   0.920   6.744   4.304
 2402SOL    HW1 8105   0.862   6.715   4.380
 2402SOL    HW2 8106   0.985   6.672   4.281
 2403SOL     OW 8107   0.917   2.467   5.091
 2403SOL    HW1 8108   0.886   2.448   4.998
 2403SOL    HW2 8109   0.938   2.380   5.137
 2404SOL     OW 8110   1.829   0.554   0.940
 2404SOL    HW1 8111   1.831   0.505   1.028
 2404SOL    HW2 8112   1.878   0.501   0.871
 2405SOL     OW 8113   3.214   4.068   2.472
 2405SOL    HW1 8114   3.266   3.986   2.496
 2405SOL    HW2 8115   3.124   4.064   2.516
 2406SOL     OW 8116   4.012   1.874   0.657
 2406SOL    HW1 8117   4.082   1.945   0.661
 2406SOL    HW2 8118   3.928   1.913   0.619
 2407SOL     OW 8119   5.200   1.110   3.720
 2407SOL    HW1 8120   5.128   1.080   3.657
 2407SOL    HW2 8121   5.278   1.049   3.713
 2408SOL     OW 8122   4.628   4.468   1.884
 2408SOL    HW1 8123   4.721   4.490   1.914
 2408SOL    HW2 8124   4.599   4.382   1.925
 2409SOL     OW 8125   2.028   3.533   0.955
 2409SOL    HW1 8126   2.084   3.473   1.013
 2409SOL    HW2 8127   1.975   3.477   0.891
 2410SOL     OW 8128   3.169   3.427   3.500
 2410SOL    HW1 8129   3.198   3.523   3.498
 2410SOL    HW2 8130   3.244   3.371   3.534
 2411SOL     OW 8131   5.435   6.723   4.742
 2411SOL    HW1 8132   5.357   6.786   4.747
 2411SOL    HW2 8133   5.414   6.650   4.677
 2412SOL     OW 8134   5.378   3.833   1.294
 2412SOL    HW1 8135   5.403   3.922   1.331
 2412SOL    HW2 8136   5.292   3.802   1.335
 2413SOL     OW 8137   4.986   0.630   1.847
 2413SOL    HW1 8138   4.895   0.612   1.809
 2413SOL    HW2 8139   4.980   0.707   1.911
 2414SOL     OW 8140   5.049   3.110   3.986
 2414SOL    HW1 8141   5.134   3.068   3.954
 2414SOL    HW2 8142   5.018   3.177   3.919
 2415SOL     OW 8143   5.092   0.963   3.021
 2415SOL    HW1 8144   5.102   0.940   2.925
 2415SOL    HW2 8145   5.180   0.953   3.067
 2416SOL     OW 8146   5.328   1.518   5.889
 2416SOL    HW1 8147   5.313   1.520   5.988
 2416SOL    HW2 8148   5.387   1.595   5.863
 2417SOL     OW 8149   2.913   3.244   4.895
 2417SOL    HW1 8150   2.830   3.190   4.908
 2417SOL    HW2 8151   2.974   3.196   4.832
 2418SOL     OW 8152   3.573   3.268   3.218
 2418SOL    HW1 8153   3.591   3.178   3.177
 2418SOL    HW2 8154   3.540   3.330   3.147
 2419SOL     OW 8155   0.458   6.830   2.883
 2419SOL    HW1 8156   0.368   6.871   2.870
 2419SOL    HW2 8157   0.528   6.889   2.843
 2420SOL     OW 8158   2.591   0.082   1.734
 2420SOL    HW1 8159   2.643   0.074   1.819
 2420SOL    HW2 8160   2.522   0.153   1.744
 2421SOL     OW 8161   1.997   2.217   4.902
 2421SOL    HW1 8162   1.978   2.123   4.872
 2421SOL    HW2 8163   1.973   2.226   4.998
 2422SOL     OW 8164   4.961   1.564   1.092
 2422SOL    HW1 8165   5.032   1.545   1.160
 2422SOL    HW2 8166   5.000   1.557   1.000
 2423SOL     OW 8167   2.606   5.673   2.322
 2423SOL    HW1 8168   2.586   5.577   2.304
 2423SOL    HW2 8169   2.673   5.706   2.256
 2424SOL     OW 8170   6.319   1.167   0.522
 2424SOL    HW1 8171   6.411   1.132   0.505
 2424SOL    HW2 8172   6.299   1.161   0.620
 2425SOL     OW 8173   6.767   7.001   3.886
 2425SOL    HW1 8174   6.694   6.934   3.896
 2425SOL    HW2 8175   6.737   0.071   3.924
 2426SOL     OW 8176   2.320   4.665   4.257
 2426SOL    HW1 8177   2.307   4.728   4.334
 2426SOL    HW2 8178   2.320   4.717   4.171
 2427SOL     OW 8179   6.474   6.723   5.667
 2427SOL    HW1 8180   6.530   6.728   5.750
 2427SOL    HW2 8181   6.385   6.682   5.689
 2428SOL     OW 8182   0.433   0.732   0.944
 2428SOL    HW1 8183   0.518   0.714   0.995
 2428SOL    HW2 8184   0.452   0.798   0.872
 2429SOL     OW 8185   4.858   6.228   2.207
 2429SOL    HW1 8186   4.795   6.163   2.249
 2429SOL    HW2 8187   4.807   6.301   2.163
 2430SOL     OW 8188   6.009   0.515   3.089
 2430SOL    HW1 8189   6.024   0.594   3.148
 2430SOL    HW2 8190   6.000   0.545   2.994
 2431SOL     OW 8191   4.040   0.636   2.095
 2431SOL    HW1 8192   4.080   0.556   2.050
 2431SOL    HW2 8193   4.060   0.718   2.040
 2432SOL     OW 8194   3.514   6.442   2.040
 2432SOL    HW1 8195   3.439   6.414   2.101
 2432SOL    HW2 8196   3.510   6.389   1.956
 2433SOL     OW 8197   3.882   0.342   0.088
 2433SOL    HW1 8198   3.951   0.281   0.048
 2433SOL    HW2 8199   3.855   0.411   0.021
 2434SOL     OW 8200   3.849   2.403   5.776
 2434SOL    HW1 8201   3.810   2.341   5.844
 2434SOL    HW2 8202   3.836   2.365   5.684
 2435SOL     OW 8203   6.083   5.842   5.152
 2435SOL    HW1 8204   6.046   5.750   5.141
 2435SOL    HW2 8205   6.180   5.836   5.176
 2436SOL     OW 8206   2.863   5.453   0.299
 2436SOL    HW1 8207   2.790   5.412   0.352
 2436SOL    HW2 8208   2.951   5.418   0.331
 2437SOL     OW 8209   6.904   0.087   5.896
 2437SOL    HW1 8210   6.872   0.045   5.981
 2437SOL    HW2 8211   6.878   0.029   5.818
 2438SOL     OW 8212   2.536   2.739   0.879
 2438SOL    HW1 8213   2.469   2.753   0.951
 2438SOL    HW2 8214   2.596   2.662   0.904
 2439SOL     OW 8215   5.913   4.410   5.135
 2439SOL    HW1 8216   5.876   4.456   5.216
 2439SOL    HW2 8217   5.839   4.362   5.088
 2440SOL     OW 8218   6.003   5.120   6.599
 2440SOL    HW1 8219   5.952   5.190   6.649
 2440SOL    HW2 8220   5.974   5.118   6.504
 2441SOL     OW 8221   5.844   2.728   1.106
 2441SOL    HW1 8222   5.846   2.722   1.006
 2441SOL    HW2 8223   5.812   2.820   1.132
 2442SOL     OW 8224   6.973   3.667   4.640
 2442SOL    HW1 8225   6.911   3.721   4.583
 2442SOL    HW2 8226   6.926   3.638   4.723
 2443SOL     OW 8227   2.875   4.955   5.922
 2443SOL    HW1 8228   2.927   5.040   5.914
 2443SOL    HW2 8229   2.921   4.893   5.985
 2444SOL     OW 8230   2.771   3.920   5.631
 2444SOL    HW1 8231   2.678   3.917   5.670
 2444SOL    HW2 8232   2.779   3.851   5.559
 2445SOL     OW 8233   0.945   0.707   0.799
 2445SOL    HW1 8234   1.041   0.680   0.802
 2445SOL    HW2 8235   0.934   0.797   0.841
 2446SOL     OW 8236   6.275   3.948   6.122
 2446SOL    HW1 8237   6.285   3.874   6.055
 2446SOL    HW2 8238   6.364   3.990   6.139
 2447SOL     OW 8239   0.437   1.888   6.916
 2447SOL    HW1 8240   0.375   1.810   6.907
 2447SOL    HW2 8241   0.445   1.933   6.827
 2448SOL     OW 8242   0.741   0.042   4.363
 2448SOL    HW1 8243   0.818   0.091   4.323
 2448SOL    HW2 8244   0.710   6.988   4.299
 2449SOL     OW 8245   0.445   2.797   5.343
 2449SOL    HW1 8246   0.370   2.764   5.286
 2449SOL    HW2 8247   0.420   2.788   5.440
 2450SOL     OW 8248   2.140   3.303   3.027
 2450SOL    HW1 8249   2.046   3.274   3.012
 2450SOL    HW2 8250   2.141   3.398   3.059
 2451SOL     OW 8251   2.682   6.332   3.818
 2451SOL    HW1 8252   2.632   6.249   3.796
 2451SOL    HW2 8253   2.634   6.411   3.781
 2452SOL     OW 8254   1.216   2.225   4.240
 2452SOL    HW1 8255   1.176   2.176   4.318
 2452SOL    HW2 8256   1.233   2.320   4.266
 2453SOL     OW 8257   0.028   3.456   1.251
 2453SOL    HW1 8258   0.093   3.532   1.248
 2453SOL    HW2 8259   0.076   3.371   1.228
 2454SOL     OW 8260   2.171   0.720   2.187
 2454SOL    HW1 8261   2.264   0.713   2.224
 2454SOL    HW2 8262   2.147   0.816   2.173
 2455SOL     OW 8263   5.532   4.737   0.427
 2455SOL    HW1 8264   5.454   4.778   0.379
 2455SOL    HW2 8265   5.508   4.723   0.523
 2456SOL     OW 8266   3.474   6.285   1.017
 2456SOL    HW1 8267   3.572   6.271   1.013
 2456SOL    HW2 8268   3.428   6.201   1.046
 2457SOL     OW 8269   5.829   6.351   1.519
 2457SOL    HW1 8270   5.778   6.399   1.448
 2457SOL    HW2 8271   5.889   6.416   1.566
 2458SOL     OW 8272   0.466   5.787   3.710
 2458SOL    HW1 8273   0.523   5.821   3.784
 2458SOL    HW2 8274   0.383   5.746   3.747
 2459SOL     OW 8275   1.401   0.750   0.706
 2459SOL    HW1 8276   1.324   0.688   0.719
 2459SOL    HW2 8277   1.459   0.749   0.788
 2460SOL     OW 8278   3.443   5.125   1.349
 2460SOL    HW1 8279   3.356   5.173   1.357
 2460SOL    HW2 8280   3.435   5.034   1.390
 2461SOL     OW 8281   4.874   1.110   3.078
 2461SOL    HW1 8282   4.956   1.053   3.066
 2461SOL    HW2 8283   4.831   1.126   2.989
 2462SOL     OW 8284   2.416   4.518   6.317
 2462SOL    HW1 8285   2.452   4.517   6.410
 2462SOL    HW2 8286   2.325   4.475   6.316
 2463SOL     OW 8287   0.477   1.506   4.430
 2463SOL    HW1 8288   0.393   1.527   4.481
 2463SOL    HW2 8289   0.519   1.592   4.400
 2464SOL     OW 8290   1.032   3.475   1.351
 2464SOL    HW1 8291   0.995   3.385   1.329
 2464SOL    HW2 8292   1.072   3.473   1.443
 2465SOL     OW 8293   6.262   5.152   3.438
 2465SOL    HW1 8294   6.327   5.080   3.412
 2465SOL    HW2 8295   6.264   5.164   3.537
 2466SOL     OW 8296   3.527   1.643   2.217
 2466SOL    HW1 8297   3.489   1.551   2.225
 2466SOL    HW2 8298   3.538   1.666   2.120
 2467SOL     OW 8299   6.554   1.448   5.623
 2467SOL    HW1 8300   6.514   1.456   5.714
 2467SOL    HW2 8301   6.608   1.529   5.603
 2468SOL     OW 8302   0.064   3.892   0.350
 2468SOL    HW1 8303   7.015   3.818   0.338
 2468SOL    HW2 8304   0.021   3.967   0.401
 2469SOL     OW 8305   2.947   3.451   5.446
 2469SOL    HW1 8306   2.928   3.475   5.351
 2469SOL    HW2 8307   3.002   3.524   5.488
 2470SOL     OW 8308   5.648   3.003   0.278
 2470SOL    HW1 8309   5.726   2.981   0.219
 2470SOL    HW2 8310   5.576   3.047   0.224
 2471SOL     OW 8311   0.420   0.254   3.307
 2471SOL    HW1 8312   0.356   0.330   3.313
 2471SOL    HW2 8313   0.391   0.190   3.236
 2472SOL     OW 8314   5.180   1.392   3.608
 2472SOL    HW1 8315   5.257   1.415   3.549
 2472SOL    HW2 8316   5.188   1.296   3.637
 2473SOL     OW 8317   0.226   6.886   5.547
 2473SOL    HW1 8318   0.272   6.914   5.463
 2473SOL    HW2 8319   0.172   6.804   5.529
 2474SOL     OW 8320   5.703   6.026   4.728
 2474SOL    HW1 8321   5.623   6.001   4.674
 2474SOL    HW2 8322   5.786   5.994   4.682
 2475SOL     OW 8323   4.490   2.244   6.313
 2475SOL    HW1 8324   4.540   2.202   6.238
 2475SOL    HW2 8325   4.486   2.180   6.390
 2476SOL     OW 8326   0.743   1.680   3.737
 2476SOL    HW1 8327   0.832   1.724   3.743
 2476SOL    HW2 8328   0.730   1.644   3.644
 2477SOL     OW 8329   4.508   5.140   2.486
 2477SOL    HW1 8330   4.466   5.214   2.539
 2477SOL    HW2 8331   4.455   5.125   2.403
 2478SOL     OW 8332   6.423   6.697   3.119
 2478SOL    HW1 8333   6.344   6.640   3.096
 2478SOL    HW2 8334   6.468   6.661   3.201
 2479SOL     OW 8335   0.829   3.063   6.937
 2479SOL    HW1 8336   0.844   2.996   6.863
 2479SOL    HW2 8337   0.731   3.074   6.952
 2480SOL     OW 8338   0.952   4.681   2.105
 2480SOL    HW1 8339   1.014   4.718   2.174
 2480SOL    HW2 8340   0.946   4.582   2.115
 2481SOL     OW 8341   3.979   5.335   2.587
 2481SOL    HW1 8342   3.910   5.328   2.515
 2481SOL    HW2 8343   3.959   5.269   2.659
 2482SOL     OW 8344   4.656   2.313   3.985
 2482SOL    HW1 8345   4.590   2.255   4.032
 2482SOL    HW2 8346   4.707   2.366   4.052
 2483SOL     OW 8347   0.693   2.492   6.874
 2483SOL    HW1 8348   0.641   2.454   6.950
 2483SOL    HW2 8349   0.713   2.588   6.891
 2484SOL     OW 8350   3.720   2.854   6.432
 2484SOL    HW1 8351   3.788   2.926   6.419
 2484SOL    HW2 8352   3.744   2.775   6.376
 2485SOL     OW 8353   1.231   6.106   1.033
 2485SOL    HW1 8354   1.217   6.145   0.942
 2485SOL    HW2 8355   1.189   6.015   1.036
 2486SOL     OW 8356   0.451   5.388   3.173
 2486SOL    HW1 8357   0.439   5.378   3.074
 2486SOL    HW2 8358   0.430   5.301   3.218
 2487SOL     OW 8359   3.325   1.090   1.092
 2487SOL    HW1 8360   3.385   1.056   1.165
 2487SOL    HW2 8361   3.308   1.016   1.026
 2488SOL     OW 8362   3.278   6.451   6.104
 2488SOL    HW1 8363   3.352   6.471   6.039
 2488SOL    HW2 8364   3.313   6.462   6.197
 2489SOL     OW 8365   6.585   6.069   4.509
 2489SOL    HW1 8366   6.564   6.143   4.445
 2489SOL    HW2 8367   6.615   5.989   4.457
 2490SOL     OW 8368   5.390   3.589   1.696
 2490SOL    HW1 8369   5.434   3.678   1.681
 2490SOL    HW2 8370   5.311   3.581   1.635
 2491SOL     OW 8371   0.135   4.459   2.690
 2491SOL    HW1 8372   0.041   4.425   2.699
 2491SOL    HW2 8373   0.198   4.393   2.731
 2492SOL     OW 8374   4.504   2.118   5.683
 2492SOL    HW1 8375   4.452   2.032   5.681
 2492SOL    HW2 8376   4.479   2.170   5.765
 2493SOL     OW 8377   6.629   1.318   4.288
 2493SOL    HW1 8378   6.679   1.405   4.287
 2493SOL    HW2 8379   6.638   1.274   4.199
 2494SOL     OW 8380   4.270   4.716   1.389
 2494SOL    HW1 8381   4.191   4.660   1.365
 2494SOL    HW2 8382   4.353   4.661   1.382
 2495SOL     OW 8383   6.597   0.809   3.781
 2495SOL    HW1 8384   6.541   0.859   3.847
 2495SOL    HW2 8385   6.538   0.758   3.719
 2496SOL     OW 8386   1.795   5.709   6.535
 2496SOL    HW1 8387   1.827   5.655   6.457
 2496SOL    HW2 8388   1.695   5.711   6.536
 2497SOL     OW 8389   5.702   1.231   6.938
 2497SOL    HW1 8390   5.690   1.245   6.839
 2497SOL    HW2 8391   5.689   1.135   6.960
 2498SOL     OW 8392   0.773   3.247   4.755
 2498SOL    HW1 8393   0.833   3.248   4.676
 2498SOL    HW2 8394   0.824   3.220   4.837
 2499SOL     OW 8395   5.379   0.197   6.777
 2499SOL    HW1 8396   5.319   0.270   6.811
 2499SOL    HW2 8397   5.473   0.216   6.803
 2500SOL     OW 8398   4.552   3.476   6.333
 2500SOL    HW1 8399   4.552   3.477   6.233
 2500SOL    HW2 8400   4.533   3.383   6.365
 2501SOL     OW 8401   6.270   5.058   1.095
 2501SOL    HW1 8402   6.367   5.034   1.100
 2501SOL    HW2 8403   6.219   4.983   1.053
 2502SOL     OW 8404   1.378   6.617   3.011
 2502SOL    HW1 8405   1.329   6.700   2.986
 2502SOL    HW2 8406   1.476   6.630   2.992
 2503SOL     OW 8407   5.003   0.005   4.477
 2503SOL    HW1 8408   5.053   6.936   4.471
 2503SOL    HW2 8409   5.003   0.050   4.387
 2504SOL     OW 8410   1.965   4.263   3.394
 2504SOL    HW1 8411   1.930   4.355   3.375
 2504SOL    HW2 8412   2.027   4.266   3.472
 2505SOL     OW 8413   5.075   4.469   4.703
 2505SOL    HW1 8414   5.087   4.371   4.720
 2505SOL    HW2 8415   5.026   4.482   4.617
 2506SOL     OW 8416   0.565   1.965   0.940
 2506SOL    HW1 8417   0.604   1.935   0.854
 2506SOL    HW2 8418   0.468   1.985   0.928
 2507SOL     OW 8419   6.575   6.336   0.904
 2507SOL    HW1 8420   6.483   6.295   0.910
 2507SOL    HW2 8421   6.570   6.432   0.930
 2508SOL     OW 8422   2.346   2.375   1.939
 2508SOL    HW1 8423   2.434   2.339   1.967
 2508SOL    HW2 8424   2.306   2.314   1.870
 2509SOL     OW 8425   4.886   1.144   3.386
 2509SOL    HW1 8426   4.807   1.189   3.426
 2509SOL    HW2 8427   4.863   1.111   3.295
 2510SOL     OW 8428   4.051   5.655   1.524
 2510SOL    HW1 8429   3.956   5.678   1.505
 2510SOL    HW2 8430   4.061   5.626   1.619
 2511SOL     OW 8431   0.663   6.409   3.968
 2511SOL    HW1 8432   0.683   6.365   4.055
 2511SOL    HW2 8433   0.649   6.340   3.898
 2512SOL     OW 8434   5.042   2.904   4.605
 2512SOL    HW1 8435   5.021   2.823   4.661
 2512SOL    HW2 8436   5.058   2.876   4.511
 2513SOL     OW 8437   0.385   4.671   1.559
 2513SOL    HW1 8438   0.439   4.615   1.496
 2513SOL    HW2 8439   0.427   4.760   1.569
 2514SOL     OW 8440   0.552   1.930   3.674
 2514SOL    HW1 8441   0.617   1.888   3.737
 2514SOL    HW2 8442   0.557   1.883   3.585
 2515SOL     OW 8443   0.816   4.761   0.243
 2515SOL    HW1 8444   0.892   4.737   0.303
 2515SOL    HW2 8445   0.814   4.860   0.229
 2516SOL     OW 8446   5.051   6.315   4.375
 2516SOL    HW1 8447   4.956   6.329   4.346
 2516SOL    HW2 8448   5.106   6.394   4.349
 2517SOL     OW 8449   2.444   5.320   0.704
 2517SOL    HW1 8450   2.372   5.277   0.650
 2517SOL    HW2 8451   2.419   5.415   0.723
 2518SOL     OW 8452   2.295   2.942   6.454
 2518SOL    HW1 8453   2.265   2.850   6.479
 2518SOL    HW2 8454   2.216   2.999   6.434
 2519SOL     OW 8455   5.298   3.931   5.257
 2519SOL    HW1 8456   5.355   3.858   5.219
 2519SOL    HW2 8457   5.348   4.018   5.254
 2520SOL     OW 8458   3.224   5.334   1.933
 2520SOL    HW1 8459   3.249   5.423   1.973
 2520SOL    HW2 8460   3.278   5.319   1.850
 2521SOL     OW 8461   5.944   6.641   6.139
 2521SOL    HW1 8462   5.971   6.630   6.235
 2521SOL    HW2 8463   5.956   6.555   6.090
 2522SOL     OW 8464   2.066   4.397   4.285
 2522SOL    HW1 8465   2.025   4.486   4.266
 2522SOL    HW2 8466   2.159   4.396   4.248
 2523SOL     OW 8467   0.116   3.045   5.817
 2523SOL    HW1 8468   0.069   3.056   5.905
 2523SOL    HW2 8469   0.193   2.982   5.828
 2524SOL     OW 8470   1.108   6.910   5.069
 2524SOL    HW1 8471   1.028   6.926   5.011
 2524SOL    HW2 8472   1.167   6.991   5.068
 2525SOL     OW 8473   1.755   4.215   2.908
 2525SOL    HW1 8474   1.770   4.148   2.834
 2525SOL    HW2 8475   1.841   4.235   2.953
 2526SOL     OW 8476   0.448   2.390   4.792
 2526SOL    HW1 8477   0.461   2.350   4.702
 2526SOL    HW2 8478   0.489   2.330   4.861
 2527SOL     OW 8479   6.440   0.052   3.668
 2527SOL    HW1 8480   6.401   0.134   3.711
 2527SOL    HW2 8481   6.399   6.987   3.707
 2528SOL     OW 8482   6.126   5.202   0.492
 2528SOL    HW1 8483   6.102   5.201   0.589
 2528SOL    HW2 8484   6.190   5.127   0.473
 2529SOL     OW 8485   5.472   4.008   4.756
 2529SOL    HW1 8486   5.451   4.103   4.778
 2529SOL    HW2 8487   5.529   3.970   4.829
 2530SOL     OW 8488   1.372   6.446   3.609
 2530SOL    HW1 8489   1.310   6.505   3.659
 2530SOL    HW2 8490   1.386   6.361   3.660
 2531SOL     OW 8491   4.999   1.274   0.272
 2531SOL    HW1 8492   5.035   1.277   0.179
 2531SOL    HW2 8493   4.923   1.209   0.277
 2532SOL     OW 8494   1.161   4.349   6.016
 2532SOL    HW1 8495   1.158   4.435   5.965
 2532SOL    HW2 8496   1.068   4.323   6.044
 2533SOL     OW 8497   5.873   6.575   5.507
 2533SOL    HW1 8498   5.785   6.622   5.501
 2533SOL    HW2 8499   5.936   6.627   5.565
 2534SOL     OW 8500   6.819   1.704   3.168
 2534SOL    HW1 8501   6.848   1.698   3.264
 2534SOL    HW2 8502   6.807   1.800   3.143
 2535SOL     OW 8503   1.695   1.644   2.944
 2535SOL    HW1 8504   1.702   1.703   2.863
 2535SOL    HW2 8505   1.779   1.590   2.953
 2536SOL     OW 8506   0.575   0.383   3.916
 2536SOL    HW1 8507   0.482   0.367   3.882
 2536SOL    HW2 8508   0.584   0.346   4.008
 2537SOL     OW 8509   3.869   5.556   1.957
 2537SOL    HW1 8510   3.856   5.465   1.995
 2537SOL    HW2 8511   3.928   5.609   2.017
 2538SOL     OW 8512   1.259   4.236   4.788
 2538SOL    HW1 8513   1.233   4.196   4.876
 2538SOL    HW2 8514   1.345   4.285   4.797
 2539SOL     OW 8515   2.499   0.837   5.488
 2539SOL    HW1 8516   2.557   0.808   5.565
 2539SOL    HW2 8517   2.539   0.919   5.446
 2540SOL     OW 8518   5.274   1.705   2.365
 2540SOL    HW1 8519   5.205   1.714   2.436
 2540SOL    HW2 8520   5.364   1.698   2.406
 2541SOL     OW 8521   0.366   0.305   6.073
 2541SOL    HW1 8522   0.453   0.285   6.028
 2541SOL    HW2 8523   0.295   0.244   6.038
 2542SOL     OW 8524   3.964   1.913   3.574
 2542SOL    HW1 8525   3.955   1.953   3.665
 2542SOL    HW2 8526   3.908   1.964   3.509
 2543SOL     OW 8527   0.157   2.060   4.143
 2543SOL    HW1 8528   0.170   2.017   4.232
 2543SOL    HW2 8529   0.110   2.147   4.154
 2544SOL     OW 8530   6.624   6.036   1.842
 2544SOL    HW1 8531   6.699   6.091   1.879
 2544SOL    HW2 8532   6.623   6.043   1.742
 2545SOL     OW 8533   6.116   1.618   0.211
 2545SOL    HW1 8534   6.162   1.557   0.146
 2545SOL    HW2 8535   6.032   1.653   0.171
 2546SOL     OW 8536   6.695   3.636   2.001
 2546SOL    HW1 8537   6.703   3.565   1.931
 2546SOL    HW2 8538   6.651   3.599   2.082
 2547SOL     OW 8539   5.441   4.448   1.623
 2547SOL    HW1 8540   5.495   4.387   1.565
 2547SOL    HW2 8541   5.351   4.407   1.639
 2548SOL     OW 8542   6.133   0.401   5.812
 2548SOL    HW1 8543   6.210   0.384   5.873
 2548SOL    HW2 8544   6.087   0.315   5.792
 2549SOL     OW 8545   2.701   3.696   0.722
 2549SOL    HW1 8546   2.697   3.603   0.758
 2549SOL    HW2 8547   2.620   3.714   0.666
 2550SOL     OW 8548   3.895   6.014   0.143
 2550SOL    HW1 8549   3.960   5.973   0.207
 2550SOL    HW2 8550   3.808   6.030   0.189
 2551SOL     OW 8551   3.652   4.982   0.875
 2551SOL    HW1 8552   3.628   4.915   0.944
 2551SOL    HW2 8553   3.710   5.053   0.916
 2552SOL     OW 8554   2.134   4.727   2.005
 2552SOL    HW1 8555   2.073   4.777   1.943
 2552SOL    HW2 8556   2.195   4.669   1.951
 2553SOL     OW 8557   4.799   1.556   0.039
 2553SOL    HW1 8558   4.721   1.615   0.062
 2553SOL    HW2 8559   4.878   1.613   0.016
 2554SOL     OW 8560   1.291   5.829   1.048
 2554SOL    HW1 8561   1.353   5.862   0.978
 2554SOL    HW2 8562   1.220   5.773   1.006
 2555SOL     OW 8563   6.245   6.859   5.021
 2555SOL    HW1 8564   6.178   6.852   5.094
 2555SOL    HW2 8565   6.335   6.881   5.059
 2556SOL     OW 8566   3.993   6.734   0.609
 2556SOL    HW1 8567   3.915   6.789   0.579
 2556SOL    HW2 8568   4.055   6.719   0.532
 2557SOL     OW 8569   3.136   0.801   6.914
 2557SOL    HW1 8570   3.160   0.807   6.817
 2557SOL    HW2 8571   3.166   0.714   6.951
 2558SOL     OW 8572   5.202   2.452   1.462
 2558SOL    HW1 8573   5.167   2.529   1.409
 2558SOL    HW2 8574   5.271   2.403   1.408
 2559SOL     OW 8575   0.134   4.994   3.473
 2559SOL    HW1 8576   0.128   5.051   3.391
 2559SOL    HW2 8577   0.043   4.981   3.512
 2560SOL     OW 8578   5.037   2.430   2.810
 2560SOL    HW1 8579   5.047   2.377   2.894
 2560SOL    HW2 8580   4.952   2.482   2.813
 2561SOL     OW 8581   3.516   6.771   4.277
 2561SOL    HW1 8582   3.441   6.727   4.326
 2561SOL    HW2 8583   3.519   6.868   4.300
 2562SOL     OW 8584   1.628   6.985   4.677
 2562SOL    HW1 8585   1.603   6.949   4.767
 2562SOL    HW2 8586   1.708   0.027   4.687
 2563SOL     OW 8587   3.808   2.510   6.703
 2563SOL    HW1 8588   3.864   2.454   6.765
 2563SOL    HW2 8589   3.711   2.493   6.722
 2564SOL     OW 8590   1.184   1.805   0.145
 2564SOL    HW1 8591   1.185   1.733   0.214
 2564SOL    HW2 8592   1.111   1.870   0.165
 2565SOL     OW 8593   1.148   0.727   0.500
 2565SOL    HW1 8594   1.168   0.670   0.579
 2565SOL    HW2 8595   1.100   0.810   0.531
 2566SOL     OW 8596   3.036   0.671   1.324
 2566SOL    HW1 8597   3.025   0.605   1.398
 2566SOL    HW2 8598   3.095   0.746   1.355
 2567SOL     OW 8599   1.339   0.422   6.405
 2567SOL    HW1 8600   1.406   0.493   6.428
 2567SOL    HW2 8601   1.314   0.430   6.308
 2568SOL     OW 8602   2.008   5.674   0.978
 2568SOL    HW1 8603   2.082   5.709   0.920
 2568SOL    HW2 8604   2.045   5.609   1.044
 2569SOL     OW 8605   1.629   0.086   0.524
 2569SOL    HW1 8606   1.669   0.016   0.584
 2569SOL    HW2 8607   1.699   0.119   0.461
 2570SOL     OW 8608   0.461   5.918   4.759
 2570SOL    HW1 8609   0.466   5.854   4.682
 2570SOL    HW2 8610   0.416   6.003   4.729
 2571SOL     OW 8611   3.554   4.175   3.915
 2571SOL    HW1 8612   3.587   4.182   4.009
 2571SOL    HW2 8613   3.456   4.156   3.916
 2572SOL     OW 8614   1.664   5.298   2.060
 2572SOL    HW1 8615   1.704   5.357   2.130
 2572SOL    HW2 8616   1.662   5.347   1.972
 2573SOL     OW 8617   0.228   1.600   3.802
 2573SOL    HW1 8618   0.136   1.608   3.764
 2573SOL    HW2 8619   0.223   1.561   3.894
 2574SOL     OW 8620   0.709   3.847   2.518
 2574SOL    HW1 8621   0.799   3.820   2.485
 2574SOL    HW2 8622   0.647   3.860   2.440
 2575SOL     OW 8623   5.352   3.265   6.023
 2575SOL    HW1 8624   5.414   3.214   6.083
 2575SOL    HW2 8625   5.404   3.333   5.972
 2576SOL     OW 8626   1.632   6.997   3.077
 2576SOL    HW1 8627   1.587   6.999   3.167
 2576SOL    HW2 8628   1.720   6.952   3.085
 2577SOL     OW 8629   1.634   5.535   1.199
 2577SOL    HW1 8630   1.594   5.445   1.188
 2577SOL    HW2 8631   1.654   5.552   1.296
 2578SOL     OW 8632   4.268   2.139   4.486
 2578SOL    HW1 8633   4.353   2.103   4.523
 2578SOL    HW2 8634   4.192   2.111   4.544
 2579SOL     OW 8635   6.871   1.536   6.319
 2579SOL    HW1 8636   6.966   1.526   6.349
 2579SOL    HW2 8637   6.856   1.629   6.287
 2580SOL     OW 8638   1.566   1.613   6.135
 2580SOL    HW1 8639   1.545   1.664   6.051
 2580SOL    HW2 8640   1.607   1.525   6.111
 2581SOL     OW 8641   6.568   7.011   4.814
 2581SOL    HW1 8642   6.606   6.921   4.794
 2581SOL    HW2 8643   6.468   7.004   4.822
 2582SOL     OW 8644   0.490   5.537   2.635
 2582SOL    HW1 8645   0.471   5.631   2.609
 2582SOL    HW2 8646   0.576   5.532   2.685
 2583SOL     OW 8647   2.467   0.947   6.613
 2583SOL    HW1 8648   2.530   0.884   6.568
 2583SOL    HW2 8649   2.380   0.900   6.630
 2584SOL     OW 8650   5.255   6.800   2.630
 2584SOL    HW1 8651   5.333   6.739   2.631
 2584SOL    HW2 8652   5.283   6.891   2.659
 2585SOL     OW 8653   4.198   1.060   1.875
 2585SOL    HW1 8654   4.131   1.131   1.855
 2585SOL    HW2 8655   4.276   1.069   1.812
 2586SOL     OW 8656   6.429   1.414   3.943
 2586SOL    HW1 8657   6.498   1.379   3.880
 2586SOL    HW2 8658   6.420   1.512   3.931
 2587SOL     OW 8659   6.697   5.953   2.996
 2587SOL    HW1 8660   6.734   6.008   2.922
 2587SOL    HW2 8661   6.751   5.869   3.006
 2588SOL     OW 8662   5.279   0.039   1.880
 2588SOL    HW1 8663   5.297   0.137   1.869
 2588SOL    HW2 8664   5.344   7.017   1.944
 2589SOL     OW 8665   5.480   6.113   0.692
 2589SOL    HW1 8666   5.498   6.152   0.602
 2589SOL    HW2 8667   5.549   6.044   0.713
 2590SOL     OW 8668   3.427   6.534   3.254
 2590SOL    HW1 8669   3.431   6.441   3.289
 2590SOL    HW2 8670   3.401   6.533   3.157
 2591SOL     OW 8671   6.087   0.238   1.473
 2591SOL    HW1 8672   6.151   0.255   1.547
 2591SOL    HW2 8673   5.996   0.221   1.510
 2592SOL     OW 8674   3.201   4.610   1.533
 2592SOL    HW1 8675   3.193   4.691   1.474
 2592SOL    HW2 8676   3.112   4.590   1.573
 2593SOL     OW 8677   3.538   6.852   2.639
 2593SOL    HW1 8678   3.614   6.848   2.574
 2593SOL    HW2 8679   3.554   6.786   2.712
 2594SOL     OW 8680   1.344   6.813   6.554
 2594SOL    HW1 8681   1.357   6.910   6.536
 2594SOL    HW2 8682   1.251   6.787   6.530
 2595SOL     OW 8683   6.091   2.954   3.908
 2595SOL    HW1 8684   6.140   2.966   3.994
 2595SOL    HW2 8685   6.129   2.876   3.858
 2596SOL     OW 8686   4.198   2.328   1.297
 2596SOL    HW1 8687   4.158   2.262   1.360
 2596SOL    HW2 8688   4.247   2.398   1.349
 2597SOL     OW 8689   2.078   2.292   6.396
 2597SOL    HW1 8690   2.091   2.310   6.298
 2597SOL    HW2 8691   2.081   2.193   6.411
 2598SOL     OW 8692   6.105   1.656   2.970
 2598SOL    HW1 8693   6.101   1.592   2.893
 2598SOL    HW2 8694   6.017   1.700   2.982
 2599SOL     OW 8695   4.388   4.662   6.627
 2599SOL    HW1 8696   4.371   4.730   6.556
 2599SOL    HW2 8697   4.309   4.602   6.636
 2600SOL     OW 8698   6.675   3.247   3.860
 2600SOL    HW1 8699   6.773   3.228   3.871
 2600SOL    HW2 8700   6.639   3.285   3.944
 2601SOL     OW 8701   3.676   3.600   5.323
 2601SOL    HW1 8702   3.670   3.661   5.243
 2601SOL    HW2 8703   3.771   3.573   5.337
 2602SOL     OW 8704   6.306   5.982   5.646
 2602SOL    HW1 8705   6.286   5.956   5.551
 2602SOL    HW2 8706   6.312   6.082   5.652
 2603SOL     OW 8707   1.897   2.321   6.977
 2603SOL    HW1 8708   1.857   2.236   7.009
 2603SOL    HW2 8709   1.865   2.341   6.884
 2604SOL     OW 8710   6.130   1.698   1.475
 2604SOL    HW1 8711   6.221   1.706   1.517
 2604SOL    HW2 8712   6.061   1.690   1.547
 2605SOL     OW 8713   4.936   3.784   3.970
 2605SOL    HW1 8714   4.877   3.714   4.011
 2605SOL    HW2 8715   5.032   3.757   3.982
 2606SOL     OW 8716   6.755   4.779   1.034
 2606SOL    HW1 8717   6.830   4.727   0.994
 2606SOL    HW2 8718   6.698   4.718   1.090
 2607SOL     OW 8719   0.961   1.834   4.669
 2607SOL    HW1 8720   0.982   1.860   4.763
 2607SOL    HW2 8721   0.955   1.734   4.663
 2608SOL     OW 8722   5.416   6.875   0.534
 2608SOL    HW1 8723   5.381   6.790   0.573
 2608SOL    HW2 8724   5.410   6.871   0.434
 2609SOL     OW 8725   0.450   2.782   3.927
 2609SOL    HW1 8726   0.433   2.877   3.952
 2609SOL    HW2 8727   0.473   2.730   4.010
 2610SOL     OW 8728   5.413   5.546   5.168
 2610SOL    HW1 8729   5.458   5.472   5.118
 2610SOL    HW2 8730   5.469   5.629   5.164
 2611SOL     OW 8731   3.026   6.181   1.835
 2611SOL    HW1 8732   2.968   6.156   1.757
 2611SOL    HW2 8733   3.043   6.280   1.833
 2612SOL     OW 8734   6.525   7.003   5.371
 2612SOL    HW1 8735   6.592   0.058   5.351
 2612SOL    HW2 8736   6.524   6.936   5.297
 2613SOL     OW 8737   3.530   0.805   0.811
 2613SOL    HW1 8738   3.589   0.753   0.750
 2613SOL    HW2 8739   3.561   0.793   0.905
 2614SOL     OW 8740   6.514   6.425   6.652
 2614SOL    HW1 8741   6.492   6.418   6.750
 2614SOL    HW2 8742   6.524   6.333   6.614
 2615SOL     OW 8743   5.448   5.246   1.901
 2615SOL    HW1 8744   5.538   5.262   1.942
 2615SOL    HW2 8745   5.426   5.149   1.906
 2616SOL     OW 8746   3.952   3.574   2.421
 2616SOL    HW1 8747   4.019   3.537   2.487
 2616SOL    HW2 8748   3.898   3.499   2.383
 2617SOL     OW 8749   3.264   0.539   1.264
 2617SOL    HW1 8750   3.189   0.605   1.263
 2617SOL    HW2 8751   3.233   0.453   1.223
 2618SOL     OW 8752   0.892   0.614   0.384
 2618SOL    HW1 8753   0.979   0.663   0.375
 2618SOL    HW2 8754   0.903   0.538   0.448
 2619SOL     OW 8755   5.559   1.476   1.658
 2619SOL    HW1 8756   5.645   1.459   1.707
 2619SOL    HW2 8757   5.514   1.557   1.697
 2620SOL     OW 8758   1.442   5.071   4.171
 2620SOL    HW1 8759   1.367   5.014   4.139
 2620SOL    HW2 8760   1.514   5.012   4.210
 2621SOL     OW 8761   0.816   5.254   3.991
 2621SOL    HW1 8762   0.847   5.188   4.060
 2621SOL    HW2 8763   0.896   5.298   3.950
 2622SOL     OW 8764   2.640   3.165   5.931
 2622SOL    HW1 8765   2.674   3.082   5.974
 2622SOL    HW2 8766   2.671   3.170   5.836
 2623SOL     OW 8767   3.415   0.944   6.301
 2623SOL    HW1 8768   3.494   0.939   6.362
 2623SOL    HW2 8769   3.426   0.876   6.228
 2624SOL     OW 8770   7.008   1.862   4.057
 2624SOL    HW1 8771   0.070   1.915   4.087
 2624SOL    HW2 8772   6.983   1.890   3.964
 2625SOL     OW 8773   4.706   0.445   5.667
 2625SOL    HW1 8774   4.668   0.404   5.584
 2625SOL    HW2 8775   4.783   0.504   5.643
 2626SOL     OW 8776   2.575   0.260   2.217
 2626SOL    HW1 8777   2.625   0.176   2.235
 2626SOL    HW2 8778   2.488   0.260   2.266
 2627SOL     OW 8779   0.402   0.971   4.794
 2627SOL    HW1 8780   0.466   0.939   4.864
 2627SOL    HW2 8781   0.453   1.008   4.716
 2628SOL     OW 8782   3.798   6.005   6.221
 2628SOL    HW1 8783   3.846   6.053   6.148
 2628SOL    HW2 8784   3.863   5.967   6.286
 2629SOL     OW 8785   2.984   3.745   1.360
 2629SOL    HW1 8786   3.030   3.784   1.439
 2629SOL    HW2 8787   3.047   3.681   1.314
 2630SOL     OW 8788   2.855   2.297   2.396
 2630SOL    HW1 8789   2.886   2.308   2.302
 2630SOL    HW2 8790   2.756   2.283   2.398
 2631SOL     OW 8791   4.617   6.555   4.707
 2631SOL    HW1 8792   4.520   6.534   4.719
 2631SOL    HW2 8793   4.627   6.641   4.658
 2632SOL     OW 8794   5.826   1.513   1.378
 2632SOL    HW1 8795   5.799   1.589   1.319
 2632SOL    HW2 8796   5.867   1.549   1.462
 2633SOL     OW 8797   6.977   2.704   5.937
 2633SOL    HW1 8798   6.927   2.697   5.851
 2633SOL    HW2 8799   6.954   2.626   5.996
 2634SOL     OW 8800   3.126   5.097   1.105
 2634SOL    HW1 8801   3.223   5.120   1.099
 2634SOL    HW2 8802   3.106   5.018   1.046
 2635SOL     OW 8803   5.517   4.445   3.677
 2635SOL    HW1 8804   5.548   4.429   3.583
 2635SOL    HW2 8805   5.509   4.543   3.694
 2636SOL     OW 8806   5.664   0.239   4.929
 2636SOL    HW1 8807   5.592   0.204   4.989
 2636SOL    HW2 8808   5.630   0.321   4.882
 2637SOL     OW 8809   4.795   6.466   2.894
 2637SOL    HW1 8810   4.884   6.459   2.849
 2637SOL    HW2 8811   4.793   6.548   2.951
 2638SOL     OW 8812   5.702   5.645   0.679
 2638SOL    HW1 8813   5.631   5.575   0.676
 2638SOL    HW2 8814   5.780   5.616   0.624
 2639SOL     OW 8815   6.671   6.523   0.223
 2639SOL    HW1 8816   6.651   6.546   0.128
 2639SOL    HW2 8817   6.637   6.596   0.282
 2640SOL     OW 8818   6.146   6.998   6.653
 2640SOL    HW1 8819   6.164   0.041   6.575
 2640SOL    HW2 8820   6.060   6.950   6.638
 2641SOL     OW 8821   5.943   5.370   6.947
 2641SOL    HW1 8822   6.033   5.411   6.934
 2641SOL    HW2 8823   5.952   5.288   7.004
 2642SOL     OW 8824   6.540   0.047   3.262
 2642SOL    HW1 8825   6.631   0.061   3.224
 2642SOL    HW2 8826   6.545   6.997   3.336
 2643SOL     OW 8827   1.108   0.479   2.023
 2643SOL    HW1 8828   1.208   0.491   2.026
 2643SOL    HW2 8829   1.080   0.420   2.098
 2644SOL     OW 8830   0.718   5.503   6.369
 2644SOL    HW1 8831   0.624   5.538   6.369
 2644SOL    HW2 8832   0.717   5.404   6.360
 2645SOL     OW 8833   5.900   5.085   5.716
 2645SOL    HW1 8834   5.830   5.038   5.771
 2645SOL    HW2 8835   5.986   5.087   5.767
 2646SOL     OW 8836   6.443   6.451   6.937
 2646SOL    HW1 8837   6.351   6.451   6.976
 2646SOL    HW2 8838   6.488   6.538   6.957
 2647SOL     OW 8839   3.725   3.154   0.602
 2647SOL    HW1 8840   3.725   3.124   0.507
 2647SOL    HW2 8841   3.637   3.198   0.623
 2648SOL     OW 8842   3.708   0.936   3.069
 2648SOL    HW1 8843   3.782   0.905   3.128
 2648SOL    HW2 8844   3.712   0.889   2.981
 2649SOL     OW 8845   3.395   2.804   5.276
 2649SOL    HW1 8846   3.466   2.834   5.340
 2649SOL    HW2 8847   3.341   2.731   5.318
 2650SOL     OW 8848   0.143   6.637   2.003
 2650SOL    HW1 8849   0.235   6.612   1.970
 2650SOL    HW2 8850   0.142   6.636   2.103
 2651SOL     OW 8851   0.887   6.918   3.632
 2651SOL    HW1 8852   0.926   6.996   3.584
 2651SOL    HW2 8853   0.792   6.938   3.656
 2652SOL     OW 8854   3.230   2.915   2.592
 2652SOL    HW1 8855   3.223   2.899   2.494
 2652SOL    HW2 8856   3.154   2.974   2.621
 2653SOL     OW 8857   6.724   5.401   6.907
 2653SOL    HW1 8858   6.778   5.484   6.922
 2653SOL    HW2 8859   6.633   5.425   6.875
 2654SOL     OW 8860   5.248   1.868   6.064
 2654SOL    HW1 8861   5.318   1.810   6.104
 2654SOL    HW2 8862   5.284   1.913   5.982
 2655SOL     OW 8863   4.618   5.488   5.230
 2655SOL    HW1 8864   4.706   5.447   5.254
 2655SOL    HW2 8865   4.633   5.563   5.166
 2656SOL     OW 8866   5.206   3.459   4.139
 2656SOL    HW1 8867   5.179   3.553   4.117
 2656SOL    HW2 8868   5.131   3.413   4.185
 2657SOL     OW 8869   2.385   2.095   5.695
 2657SOL    HW1 8870   2.371   2.101   5.794
 2657SOL    HW2 8871   2.418   2.183   5.660
 2658SOL     OW 8872   5.637   4.457   5.743
 2658SOL    HW1 8873   5.561   4.492   5.799
 2658SOL    HW2 8874   5.712   4.524   5.743
 2659SOL     OW 8875   6.877   2.028   3.197
 2659SOL    HW1 8876   6.939   2.096   3.160
 2659SOL    HW2 8877   6.788   2.034   3.150
 2660SOL     OW 8878   6.438   1.909   2.816
 2660SOL    HW1 8879   6.458   1.877   2.724
 2660SOL    HW2 8880   6.350   1.957   2.816
 2661SOL     OW 8881   4.212   6.483   1.693
 2661SOL    HW1 8882   4.178   6.577   1.681
 2661SOL    HW2 8883   4.201   6.433   1.607
 2662SOL     OW 8884   3.940   7.005   3.744
 2662SOL    HW1 8885   3.999   6.933   3.780
 2662SOL    HW2 8886   3.865   6.964   3.693
 2663SOL     OW 8887   1.098   4.412   2.953
 2663SOL    HW1 8888   1.118   4.315   2.944
 2663SOL    HW2 8889   1.050   4.429   3.039
 2664SOL     OW 8890   4.153   3.824   1.963
 2664SOL    HW1 8891   4.193   3.904   2.008
 2664SOL    HW2 8892   4.202   3.804   1.879
 2665SOL     OW 8893   4.292   1.111   4.467
 2665SOL    HW1 8894   4.387   1.138   4.456
 2665SOL    HW2 8895   4.276   1.023   4.422
 2666SOL     OW 8896   5.620   6.069   2.109
 2666SOL    HW1 8897   5.578   6.005   2.173
 2666SOL    HW2 8898   5.694   6.119   2.155
 2667SOL     OW 8899   1.772   4.899   3.752
 2667SOL    HW1 8900   1.866   4.867   3.765
 2667SOL    HW2 8901   1.773   4.994   3.720
 2668SOL     OW 8902   6.390   2.524   5.797
 2668SOL    HW1 8903   6.388   2.579   5.714
 2668SOL    HW2 8904   6.392   2.427   5.772
 2669SOL     OW 8905   4.131   5.074   5.790
 2669SOL    HW1 8906   4.194   5.152   5.794
 2669SOL    HW2 8907   4.038   5.106   5.812
 2670SOL     OW 8908   1.798   0.324   6.193
 2670SOL    HW1 8909   1.701   0.347   6.192
 2670SOL    HW2 8910   1.839   0.352   6.106
 2671SOL     OW 8911   3.149   3.786   6.165
 2671SOL    HW1 8912   3.128   3.849   6.239
 2671SOL    HW2 8913   3.241   3.748   6.179
 2672SOL     OW 8914   1.014   3.861   0.396
 2672SOL    HW1 8915   1.039   3.829   0.488
 2672SOL    HW2 8916   1.096   3.873   0.341
 2673SOL     OW 8917   4.604   2.126   3.776
 2673SOL    HW1 8918   4.675   2.056   3.773
 2673SOL    HW2 8919   4.623   2.190   3.851
 2674SOL     OW 8920   5.775   5.403   5.552
 2674SOL    HW1 8921   5.840   5.427   5.624
 2674SOL    HW2 8922   5.824   5.386   5.467
 2675SOL     OW 8923   0.249   3.759   5.501
 2675SOL    HW1 8924   0.261   3.842   5.447
 2675SOL    HW2 8925   0.222   3.684   5.441
 2676SOL     OW 8926   4.030   0.262   2.032
 2676SOL    HW1 8927   4.029   0.316   2.116
 2676SOL    HW2 8928   4.048   0.166   2.054
 2677SOL     OW 8929   2.746   4.715   2.508
 2677SOL    HW1 8930   2.782   4.776   2.580
 2677SOL    HW2 8931   2.821   4.689   2.447
 2678SOL     OW 8932   0.367   6.274   6.426
 2678SOL    HW1 8933   0.302   6.213   6.381
 2678SOL    HW2 8934   0.406   6.228   6.506
 2679SOL     OW 8935   2.613   4.575   1.248
 2679SOL    HW1 8936   2.696   4.540   1.205
 2679SOL    HW2 8937   2.622   4.674   1.262
 2680SOL     OW 8938   0.870   1.987   1.572
 2680SOL    HW1 8939   0.963   1.951   1.577
 2680SOL    HW2 8940   0.869   2.083   1.598
 2681SOL     OW 8941   1.348   1.386   2.512
 2681SOL    HW1 8942   1.439   1.415   2.484
 2681SOL    HW2 8943   1.349   1.361   2.609
 2682SOL     OW 8944   6.501   2.282   3.303
 2682SOL    HW1 8945   6.573   2.296   3.371
 2682SOL    HW2 8946   6.508   2.353   3.233
 2683SOL     OW 8947   1.557   0.022   1.849
 2683SOL    HW1 8948   1.600   6.948   1.847
 2683SOL    HW2 8949   1.487   0.024   1.920
 2684SOL     OW 8950   2.541   5.886   2.743
 2684SOL    HW1 8951   2.582   5.946   2.811
 2684SOL    HW2 8952   2.447   5.864   2.771
 2685SOL     OW 8953   5.727   6.097   5.207
 2685SOL    HW1 8954   5.750   6.088   5.304
 2685SOL    HW2 8955   5.744   6.011   5.160
 2686SOL     OW 8956   0.889   3.033   4.399
 2686SOL    HW1 8957   0.806   2.980   4.377
 2686SOL    HW2 8958   0.966   2.995   4.348
 2687SOL     OW 8959   5.232   4.834   3.324
 2687SOL    HW1 8960   5.187   4.916   3.360
 2687SOL    HW2 8961   5.292   4.860   3.248
 2688SOL     OW 8962   3.476   5.312   5.837
 2688SOL    HW1 8963   3.530   5.384   5.796
 2688SOL    HW2 8964   3.499   5.224   5.796
 2689SOL     OW 8965   0.065   3.035   4.406
 2689SOL    HW1 8966   0.072   3.010   4.503
 2689SOL    HW2 8967   0.119   3.117   4.389
 2690SOL     OW 8968   2.887   3.592   3.370
 2690SOL    HW1 8969   2.883   3.516   3.435
 2690SOL    HW2 8970   2.867   3.558   3.278
 2691SOL     OW 8971   1.523   6.127   1.063
 2691SOL    HW1 8972   1.424   6.121   1.050
 2691SOL    HW2 8973   1.569   6.065   1.000
 2692SOL     OW 8974   6.909   5.485   3.075
 2692SOL    HW1 8975   6.958   5.506   3.159
 2692SOL    HW2 8976   6.958   5.415   3.024
 2693SOL     OW 8977   1.730   3.492   3.504
 2693SOL    HW1 8978   1.637   3.517   3.477
 2693SOL    HW2 8979   1.731   3.397   3.538
 2694SOL     OW 8980   2.809   0.764   2.737
 2694SOL    HW1 8981   2.765   0.818   2.665
 2694SOL    HW2 8982   2.741   0.738   2.806
 2695SOL     OW 8983   4.005   2.126   2.871
 2695SOL    HW1 8984   4.071   2.199   2.860
 2695SOL    HW2 8985   3.962   2.105   2.783
 2696SOL     OW 8986   4.067   3.366   5.126
 2696SOL    HW1 8987   4.018   3.323   5.051
 2696SOL    HW2 8988   4.103   3.296   5.187
 2697SOL     OW 8989   2.336   2.075   4.551
 2697SOL    HW1 8990   2.333   2.171   4.580
 2697SOL    HW2 8991   2.323   2.015   4.630
 2698SOL     OW 8992   2.358   3.350   6.549
 2698SOL    HW1 8993   2.448   3.379   6.582
 2698SOL    HW2 8994   2.290   3.363   6.621
 2699SOL     OW 8995   3.714   5.770   1.991
 2699SOL    HW1 8996   3.767   5.713   1.928
 2699SOL    HW2 8997   3.661   5.712   2.052
 2700SOL     OW 8998   1.120   3.685   3.015
 2700SOL    HW1 8999   1.195   3.744   3.043
 2700SOL    HW2 9000   1.071   3.652   3.095
 2701SOL     OW 9001   3.391   0.119   6.127
 2701SOL    HW1 9002   3.320   0.096   6.193
 2701SOL    HW2 9003   3.392   0.050   6.054
 2702SOL     OW 9004   0.149   6.903   2.916
 2702SOL    HW1 9005   0.066   6.850   2.931
 2702SOL    HW2 9006   0.153   6.979   2.982
 2703SOL     OW 9007   1.513   1.450   3.068
 2703SOL    HW1 9008   1.542   1.409   3.155
 2703SOL    HW2 9009   1.591   1.499   3.027
 2704SOL     OW 9010   1.537   5.954   0.407
 2704SOL    HW1 9011   1.540   5.864   0.365
 2704SOL    HW2 9012   1.629   5.983   0.431
 2705SOL     OW 9013   0.446   4.550   2.626
 2705SOL    HW1 9014   0.541   4.524   2.642
 2705SOL    HW2 9015   0.387   4.470   2.639
 2706SOL     OW 9016   6.726   2.009   2.052
 2706SOL    HW1 9017   6.628   2.009   2.033
 2706SOL    HW2 9018   6.758   1.915   2.061
 2707SOL     OW 9019   2.253   1.530   5.741
 2707SOL    HW1 9020   2.216   1.617   5.774
 2707SOL    HW2 9021   2.196   1.455   5.775
 2708SOL     OW 9022   1.964   3.339   0.756
 2708SOL    HW1 9023   1.975   3.248   0.795
 2708SOL    HW2 9024   2.011   3.343   0.668
 2709SOL     OW 9025   4.329   6.592   1.929
 2709SOL    HW1 9026   4.264   6.560   1.998
 2709SOL    HW2 9027   4.335   6.524   1.855
 2710SOL     OW 9028   6.132   4.042   2.536
 2710SOL    HW1 9029   6.110   3.949   2.505
 2710SOL    HW2 9030   6.089   4.058   2.625
 2711SOL     OW 9031   1.285   6.868   2.084
 2711SOL    HW1 9032   1.278   6.880   1.985
 2711SOL    HW2 9033   1.295   6.771   2.106
 2712SOL     OW 9034   3.382   5.321   1.075
 2712SOL    HW1 9035   3.448   5.246   1.084
 2712SOL    HW2 9036   3.373   5.346   0.978
 2713SOL     OW 9037   1.821   3.005   4.765
 2713SOL    HW1 9038   1.885   2.978   4.837
 2713SOL    HW2 9039   1.737   3.041   4.805
 2714SOL     OW 9040   5.232   6.561   5.509
 2714SOL    HW1 9041   5.243   6.640   5.570
 2714SOL    HW2 9042   5.320   6.539   5.467
 2715SOL     OW 9043   6.787   0.443   6.820
 2715SOL    HW1 9044   6.742   0.355   6.832
 2715SOL    HW2 9045   6.783   0.495   6.906
 2716SOL     OW 9046   0.764   6.740   2.651
 2716SOL    HW1 9047   0.750   6.789   2.738
 2716SOL    HW2 9048   0.723   6.649   2.657
 2717SOL     OW 9049   1.281   0.575   2.589
 2717SOL    HW1 9050   1.233   0.647   2.539
 2717SOL    HW2 9051   1.219   0.533   2.655
 2718SOL     OW 9052   1.375   4.814   3.477
 2718SOL    HW1 9053   1.460   4.829   3.529
 2718SOL    HW2 9054   1.354   4.716   3.477
 2719SOL     OW 9055   4.107   4.815   2.564
 2719SOL    HW1 9056   4.038   4.842   2.497
 2719SOL    HW2 9057   4.063   4.802   2.653
 2720SOL     OW 9058   0.953   5.582   3.955
 2720SOL    HW1 9059   0.868   5.559   3.906
 2720SOL    HW2 9060   1.006   5.647   3.900
 2721SOL     OW 9061   4.678   6.813   4.650
 2721SOL    HW1 9062   4.722   6.800   4.738
 2721SOL    HW2 9063   4.748   6.830   4.580
 2722SOL     OW 9064   1.542   5.799   1.194
 2722SOL    HW1 9065   1.445   5.804   1.169
 2722SOL    HW2 9066   1.570   5.703   1.196
 2723SOL     OW 9067   1.324   1.316   5.277
 2723SOL    HW1 9068   1.305   1.298   5.374
 2723SOL    HW2 9069   1.416   1.284   5.255
 2724SOL     OW 9070   3.077   5.664   6.296
 2724SOL    HW1 9071   3.138   5.592   6.331
 2724SOL    HW2 9072   3.039   5.635   6.208
 2725SOL     OW 9073   3.168   4.835   3.307
 2725SOL    HW1 9074   3.121   4.802   3.389
 2725SOL    HW2 9075   3.107   4.829   3.229
 2726SOL     OW 9076   4.631   5.818   2.452
 2726SOL    HW1 9077   4.724   5.798   2.482
 2726SOL    HW2 9078   4.629   5.823   2.352
 2727SOL     OW 9079   2.329   5.169   3.354
 2727SOL    HW1 9080   2.241   5.194   3.313
 2727SOL    HW2 9081   2.396   5.151   3.282
 2728SOL     OW 9082   3.720   7.017   5.477
 2728SOL    HW1 9083   3.726   0.092   5.440
 2728SOL    HW2 9084   3.699   6.953   5.403
 2729SOL     OW 9085   6.422   4.939   2.529
 2729SOL    HW1 9086   6.515   4.924   2.563
 2729SOL    HW2 9087   6.418   4.916   2.432
 2730SOL     OW 9088   1.533   4.287   1.572
 2730SOL    HW1 9089   1.445   4.247   1.545
 2730SOL    HW2 9090   1.541   4.282   1.672
 2731SOL     OW 9091   2.804   3.752   1.715
 2731SOL    HW1 9092   2.846   3.771   1.803
 2731SOL    HW2 9093   2.858   3.685   1.665
 2732SOL     OW 9094   5.411   2.321   3.377
 2732SOL    HW1 9095   5.508   2.330   3.402
 2732SOL    HW2 9096   5.364   2.266   3.446
 2733SOL     OW 9097   1.620   0.630   5.468
 2733SOL    HW1 9098   1.626   0.569   5.388
 2733SOL    HW2 9099   1.649   0.580   5.550
 2734SOL     OW 9100   2.533   6.113   3.750
 2734SOL    HW1 9101   2.492   6.164   3.674
 2734SOL    HW2 9102   2.515   6.016   3.738
 2735SOL     OW 9103   2.252   4.621   1.762
 2735SOL    HW1 9104   2.283   4.704   1.717
 2735SOL    HW2 9105   2.192   4.570   1.701
 2736SOL     OW 9106   3.726   6.997   6.602
 2736SOL    HW1 9107   3.694   7.013   6.508
 2736SOL    HW2 9108   3.727   6.899   6.621
 2737SOL     OW 9109   4.349   3.816   5.905
 2737SOL    HW1 9110   4.259   3.861   5.903
 2737SOL    HW2 9111   4.364   3.770   5.817
 2738SOL     OW 9112   6.139   4.742   4.260
 2738SOL    HW1 9113   6.161   4.731   4.164
 2738SOL    HW2 9114   6.042   4.763   4.270
 2739SOL     OW 9115   5.672   3.626   0.882
 2739SOL    HW1 9116   5.649   3.545   0.827
 2739SOL    HW2 9117   5.635   3.615   0.974
 2740SOL     OW 9118   6.683   2.619   3.134
 2740SOL    HW1 9119   6.765   2.580   3.177
 2740SOL    HW2 9120   6.689   2.719   3.136
 2741SOL     OW 9121   1.314   2.154   5.894
 2741SOL    HW1 9122   1.399   2.101   5.891
 2741SOL    HW2 9123   1.335   2.250   5.876
 2742SOL     OW 9124   2.040   6.553   5.948
 2742SOL    HW1 9125   1.974   6.628   5.940
 2742SOL    HW2 9126   2.048   6.525   6.043
 2743SOL     OW 9127   5.678   4.904   0.593
 2743SOL    HW1 9128   5.622   4.873   0.516
 2743SOL    HW2 9129   5.622   4.910   0.675
 2744SOL     OW 9130   4.038   0.846   6.749
 2744SOL    HW1 9131   4.060   0.748   6.752
 2744SOL    HW2 9132   4.069   0.884   6.661
 2745SOL     OW 9133   2.420   5.532   1.159
 2745SOL    HW1 9134   2.411   5.476   1.077
 2745SOL    HW2 9135   2.468   5.480   1.230
 2746SOL     OW 9136   1.525   2.094   6.229
 2746SOL    HW1 9137   1.458   2.020   6.235
 2746SOL    HW2 9138   1.526   2.146   6.315
 2747SOL     OW 9139   5.473   5.703   3.993
 2747SOL    HW1 9140   5.435   5.669   3.907
 2747SOL    HW2 9141   5.419   5.781   4.025
 2748SOL     OW 9142   3.778   1.178   4.405
 2748SOL    HW1 9143   3.693   1.231   4.400
 2748SOL    HW2 9144   3.845   1.228   4.460
 2749SOL     OW 9145   4.584   4.956   3.836
 2749SOL    HW1 9146   4.539   4.867   3.848
 2749SOL    HW2 9147   4.622   4.985   3.924
 2750SOL     OW 9148   0.442   6.060   1.910
 2750SOL    HW1 9149   0.436   6.135   1.975
 2750SOL    HW2 9150   0.446   5.973   1.959
 2751SOL     OW 9151   1.590   6.876   0.150
 2751SOL    HW1 9152   1.598   6.976   0.152
 2751SOL    HW2 9153   1.681   6.836   0.150
 2752SOL     OW 9154   6.480   6.230   5.812
 2752SOL    HW1 9155   6.410   6.294   5.782
 2752SOL    HW2 9156   6.522   6.186   5.733
 2753SOL     OW 9157   2.924   5.939   5.120
 2753SOL    HW1 9158   2.984   5.944   5.040
 2753SOL    HW2 9159   2.830   5.957   5.093
 2754SOL     OW 9160   0.893   5.916   4.410
 2754SOL    HW1 9161   0.882   5.969   4.494
 2754SOL    HW2 9162   0.983   5.871   4.411
 2755SOL     OW 9163   3.362   5.933   2.328
 2755SOL    HW1 9164   3.338   5.973   2.240
 2755SOL    HW2 9165   3.287   5.874   2.359
 2756SOL     OW 9166   0.311   3.033   5.359
 2756SOL    HW1 9167   0.261   3.069   5.281
 2756SOL    HW2 9168   0.361   2.951   5.331
 2757SOL     OW 9169   4.247   3.407   6.508
 2757SOL    HW1 9170   4.156   3.400   6.467
 2757SOL    HW2 9171   4.271   3.503   6.520
 2758SOL     OW 9172   6.936   6.804   1.944
 2758SOL    HW1 9173   7.000   6.776   2.015
 2758SOL    HW2 9174   6.901   6.722   1.897
 2759SOL     OW 9175   3.589   3.743   5.580
 2759SOL    HW1 9176   3.621   3.701   5.496
 2759SOL    HW2 9177   3.625   3.836   5.587
 2760SOL     OW 9178   5.843   5.937   2.712
 2760SOL    HW1 9179   5.804   5.851   2.744
 2760SOL    HW2 9180   5.842   6.004   2.786
 2761SOL     OW 9181   1.451   3.242   3.452
 2761SOL    HW1 9182   1.454   3.338   3.480
 2761SOL    HW2 9183   1.518   3.190   3.505
 2762SOL     OW 9184   3.161   2.185   0.703
 2762SOL    HW1 9185   3.229   2.137   0.648
 2762SOL    HW2 9186   3.208   2.243   0.770
 2763SOL     OW 9187   6.192   1.557   4.170
 2763SOL    HW1 9188   6.207   1.543   4.268
 2763SOL    HW2 9189   6.280   1.570   4.124
 2764SOL     OW 9190   0.290   3.355   3.282
 2764SOL    HW1 9191   0.227   3.431   3.299
 2764SOL    HW2 9192   0.283   3.326   3.187
 2765SOL     OW 9193   5.594   6.541   6.290
 2765SOL    HW1 9194   5.607   6.617   6.355
 2765SOL    HW2 9195   5.678   6.486   6.287
 2766SOL     OW 9196   4.422   6.870   0.050
 2766SOL    HW1 9197   4.337   6.822   0.031
 2766SOL    HW2 9198   4.444   6.863   0.148
 2767SOL     OW 9199   0.642   5.266   6.280
 2767SOL    HW1 9200   0.582   5.209   6.337
 2767SOL    HW2 9201   0.607   5.269   6.186
 2768SOL     OW 9202   4.190   6.962   1.612
 2768SOL    HW1 9203   4.287   6.962   1.591
 2768SOL    HW2 9204   4.151   6.871   1.593
 2769SOL     OW 9205   0.399   4.984   5.413
 2769SOL    HW1 9206   0.354   4.992   5.502
 2769SOL    HW2 9207   0.468   5.056   5.404
 2770SOL     OW 9208   2.313   6.209   0.566
 2770SOL    HW1 9209   2.257   6.139   0.609
 2770SOL    HW2 9210   2.358   6.263   0.637
 2771SOL     OW 9211   4.252   0.248   5.218
 2771SOL    HW1 9212   4.203   0.226   5.303
 2771SOL    HW2 9213   4.193   0.303   5.159
 2772SOL     OW 9214   4.464   0.863   3.489
 2772SOL    HW1 9215   4.519   0.802   3.432
 2772SOL    HW2 9216   4.486   0.848   3.585
 2773SOL     OW 9217   5.900   2.363   4.607
 2773SOL    HW1 9218   5.950   2.382   4.692
 2773SOL    HW2 9219   5.963   2.371   4.530
 2774SOL     OW 9220   5.764   1.709   4.031
 2774SOL    HW1 9221   5.748   1.629   4.089
 2774SOL    HW2 9222   5.842   1.691   3.970
 2775SOL     OW 9223   6.817   3.125   4.103
 2775SOL    HW1 9224   6.824   3.213   4.150
 2775SOL    HW2 9225   6.724   3.090   4.112
 2776SOL     OW 9226   4.965   4.823   6.257
 2776SOL    HW1 9227   5.060   4.807   6.228
 2776SOL    HW2 9228   4.932   4.742   6.306
 2777SOL     OW 9229   2.481   2.137   6.614
 2777SOL    HW1 9230   2.575   2.172   6.607
 2777SOL    HW2 9231   2.417   2.213   6.601
 2778SOL     OW 9232   2.610   0.792   6.433
 2778SOL    HW1 9233   2.633   0.697   6.453
 2778SOL    HW2 9234   2.536   0.795   6.367
 2779SOL     OW 9235   5.095   1.073   1.384
 2779SOL    HW1 9236   5.015   1.119   1.421
 2779SOL    HW2 9237   5.070   0.981   1.354
 2780SOL     OW 9238   7.008   1.377   4.944
 2780SOL    HW1 9239   6.993   1.353   5.040
 2780SOL    HW2 9240   6.951   1.455   4.919
 2781SOL     OW 9241   5.580   0.497   3.579
 2781SOL    HW1 9242   5.527   0.417   3.608
 2781SOL    HW2 9243   5.531   0.580   3.605
 2782SOL     OW 9244   5.558   0.586   6.110
 2782SOL    HW1 9245   5.623   0.570   6.184
 2782SOL    HW2 9246   5.491   0.655   6.140
 2783SOL     OW 9247   6.089   3.782   1.652
 2783SOL    HW1 9248   6.071   3.872   1.693
 2783SOL    HW2 9249   6.108   3.716   1.725
 2784SOL     OW 9250   0.751   2.926   1.218
 2784SOL    HW1 9251   0.664   2.895   1.178
 2784SOL    HW2 9252   0.822   2.858   1.199
 2785SOL     OW 9253   6.354   3.280   2.349
 2785SOL    HW1 9254   6.268   3.330   2.342
 2785SOL    HW2 9255   6.398   3.277   2.259
 2786SOL     OW 9256   0.767   6.694   6.582
 2786SOL    HW1 9257   0.720   6.624   6.528
 2786SOL    HW2 9258   0.786   6.773   6.523
 2787SOL     OW 9259   0.543   5.771   6.598
 2787SOL    HW1 9260   0.515   5.834   6.526
 2787SOL    HW2 9261   0.463   5.732   6.642
 2788SOL     OW 9262   2.753   0.102   6.200
 2788SOL    HW1 9263   2.726   0.198   6.191
 2788SOL    HW2 9264   2.764   0.080   6.297
 2789SOL     OW 9265   1.195   2.328   4.613
 2789SOL    HW1 9266   1.290   2.306   4.636
 2789SOL    HW2 9267   1.176   2.423   4.635
 2790SOL     OW 9268   0.958   5.432   1.604
 2790SOL    HW1 9269   0.921   5.497   1.671
 2790SOL    HW2 9270   0.885   5.372   1.572
 2791SOL     OW 9271   0.781   3.026   3.995
 2791SOL    HW1 9272   0.801   2.941   3.947
 2791SOL    HW2 9273   0.859   3.089   3.985
 2792SOL     OW 9274   3.714   2.085   6.156
 2792SOL    HW1 9275   3.752   2.006   6.204
 2792SOL    HW2 9276   3.621   2.101   6.189
 2793SOL     OW 9277   3.836   3.756   0.474
 2793SOL    HW1 9278   3.899   3.712   0.539
 2793SOL    HW2 9279   3.863   3.733   0.381
 2794SOL     OW 9280   1.645   2.517   0.142
 2794SOL    HW1 9281   1.687   2.581   0.077
 2794SOL    HW2 9282   1.707   2.503   0.219
 2795SOL     OW 9283   1.694   6.015   0.862
 2795SOL    HW1 9284   1.735   6.096   0.819
 2795SOL    HW2 9285   1.613   5.988   0.811
 2796SOL     OW 9286   1.748   6.214   6.835
 2796SOL    HW1 9287   1.823   6.277   6.815
 2796SOL    HW2 9288   1.690   6.253   6.907
 2797SOL     OW 9289   5.373   4.674   3.024
 2797SOL    HW1 9290   5.468   4.699   3.042
 2797SOL    HW2 9291   5.366   4.629   2.936
 2798SOL     OW 9292   5.590   1.039   1.901
 2798SOL    HW1 9293   5.496   1.055   1.931
 2798SOL    HW2 9294   5.646   1.011   1.979
 2799SOL     OW 9295   3.379   6.793   4.644
 2799SOL    HW1 9296   3.438   6.819   4.721
 2799SOL    HW2 9297   3.416   6.712   4.599
 2800SOL     OW 9298   5.063   0.645   6.585
 2800SOL    HW1 9299   5.114   0.613   6.505
 2800SOL    HW2 9300   4.991   0.578   6.607
 2801SOL     OW 9301   0.435   4.472   4.111
 2801SOL    HW1 9302   0.502   4.440   4.179
 2801SOL    HW2 9303   0.474   4.549   4.060
 2802SOL     OW 9304   1.756   5.014   5.020
 2802SOL    HW1 9305   1.689   4.964   5.075
 2802SOL    HW2 9306   1.784   5.097   5.070
 2803SOL     OW 9307   3.728   2.581   6.371
 2803SOL    HW1 9308   3.827   2.567   6.365
 2803SOL    HW2 9309   3.694   2.541   6.456
 2804SOL     OW 9310   6.988   2.652   3.566
 2804SOL    HW1 9311   0.030   2.676   3.489
 2804SOL    HW2 9312   6.929   2.730   3.588
 2805SOL     OW 9313   3.420   4.025   0.837
 2805SOL    HW1 9314   3.447   3.930   0.850
 2805SOL    HW2 9315   3.324   4.030   0.812
 2806SOL     OW 9316   0.431   2.924   5.722
 2806SOL    HW1 9317   0.465   3.002   5.669
 2806SOL    HW2 9318   0.483   2.916   5.807
 2807SOL     OW 9319   4.144   1.346   4.054
 2807SOL    HW1 9320   4.122   1.331   4.151
 2807SOL    HW2 9321   4.215   1.281   4.026
 2808SOL     OW 9322   0.873   5.440   5.703
 2808SOL    HW1 9323   0.876   5.370   5.632
 2808SOL    HW2 9324   0.966   5.473   5.720
 2809SOL     OW 9325   0.002   5.737   1.903
 2809SOL    HW1 9326   0.049   5.670   1.847
 2809SOL    HW2 9327   0.014   5.828   1.864
 2810SOL     OW 9328   1.519   6.894   2.835
 2810SOL    HW1 9329   1.589   6.862   2.771
 2810SOL    HW2 9330   1.563   6.925   2.919
 2811SOL     OW 9331   1.100   1.277   0.892
 2811SOL    HW1 9332   1.049   1.318   0.968
 2811SOL    HW2 9333   1.035   1.240   0.825
 2812SOL     OW 9334   1.244   1.965   0.504
 2812SOL    HW1 9335   1.327   1.964   0.448
 2812SOL    HW2 9336   1.249   1.890   0.571
 2813SOL     OW 9337   0.759   3.375   1.901
 2813SOL    HW1 9338   0.825   3.382   1.975
 2813SOL    HW2 9339   0.806   3.367   1.814
 2814SOL     OW 9340   2.746   4.032   6.725
 2814SOL    HW1 9341   2.817   4.078   6.673
 2814SOL    HW2 9342   2.659   4.080   6.711
 2815SOL     OW 9343   6.612   5.577   4.572
 2815SOL    HW1 9344   6.694   5.521   4.560
 2815SOL    HW2 9345   6.531   5.522   4.553
 2816SOL     OW 9346   0.711   5.861   4.845
 2816SOL    HW1 9347   0.728   5.763   4.833
 2816SOL    HW2 9348   0.617   5.882   4.819
 2817SOL     OW 9349   3.257   0.885   2.536
 2817SOL    HW1 9350   3.240   0.916   2.442
 2817SOL    HW2 9351   3.306   0.956   2.586
 2818SOL     OW 9352   1.995   0.596   0.447
 2818SOL    HW1 9353   1.976   0.687   0.410
 2818SOL    HW2 9354   2.090   0.594   0.480
 2819SOL     OW 9355   0.640   0.481   6.655
 2819SOL    HW1 9356   0.551   0.436   6.645
 2819SOL    HW2 9357   0.631   0.577   6.629
 2820SOL     OW 9358   1.462   1.798   0.049
 2820SOL    HW1 9359   1.432   1.723   7.006
 2820SOL    HW2 9360   1.390   1.818   0.115
 2821SOL     OW 9361   3.328   3.337   6.212
 2821SOL    HW1 9362   3.380   3.269   6.264
 2821SOL    HW2 9363   3.325   3.309   6.116
 2822SOL     OW 9364   4.876   2.540   0.510
 2822SOL    HW1 9365   4.776   2.541   0.516
 2822SOL    HW2 9366   4.904   2.485   0.432
 2823SOL     OW 9367   4.711   3.517   1.781
 2823SOL    HW1 9368   4.638   3.470   1.732
 2823SOL    HW2 9369   4.796   3.465   1.772
 2824SOL     OW 9370   0.978   4.456   4.723
 2824SOL    HW1 9371   1.031   4.379   4.688
 2824SOL    HW2 9372   1.004   4.475   4.818
 2825SOL     OW 9373   5.086   1.317   6.129
 2825SOL    HW1 9374   5.087   1.235   6.187
 2825SOL    HW2 9375   5.174   1.364   6.137
 2826SOL     OW 9376   2.511   2.991   6.638
 2826SOL    HW1 9377   2.429   2.953   6.594
 2826SOL    HW2 9378   2.575   3.021   6.567
 2827SOL     OW 9379   5.631   2.002   6.914
 2827SOL    HW1 9380   5.546   1.971   6.871
 2827SOL    HW2 9381   5.690   1.923   6.933
 2828SOL     OW 9382   1.659   3.502   1.568
 2828SOL    HW1 9383   1.652   3.403   1.578
 2828SOL    HW2 9384   1.755   3.527   1.555
 2829SOL     OW 9385   3.435   3.519   2.079
 2829SOL    HW1 9386   3.492   3.443   2.048
 2829SOL    HW2 9387   3.494   3.595   2.108
 2830SOL     OW 9388   2.951   6.132   4.760
 2830SOL    HW1 9389   3.023   6.110   4.694
 2830SOL    HW2 9390   2.867   6.084   4.734
 2831SOL     OW 9391   6.670   1.716   1.713
 2831SOL    HW1 9392   6.669   1.794   1.775
 2831SOL    HW2 9393   6.624   1.638   1.756
 2832SOL     OW 9394   0.909   4.065   2.764
 2832SOL    HW1 9395   0.910   3.976   2.810
 2832SOL    HW2 9396   0.828   4.116   2.794
 2833SOL     OW 9397   0.546   2.702   2.760
 2833SOL    HW1 9398   0.602   2.654   2.693
 2833SOL    HW2 9399   0.511   2.786   2.720
 2834SOL     OW 9400   3.761   6.686   4.179
 2834SOL    HW1 9401   3.842   6.744   4.186
 2834SOL    HW2 9402   3.681   6.735   4.216
 2835SOL     OW 9403   6.057   0.755   6.813
 2835SOL    HW1 9404   5.969   0.716   6.790
 2835SOL    HW2 9405   6.049   0.855   6.821
 2836SOL     OW 9406   3.319   5.906   2.929
 2836SOL    HW1 9407   3.278   5.898   3.020
 2836SOL    HW2 9408   3.342   5.815   2.895
 2837SOL     OW 9409   5.046   4.495   1.682
 2837SOL    HW1 9410   5.110   4.560   1.721
 2837SOL    HW2 9411   5.095   4.413   1.651
 2838SOL     OW 9412   6.821   4.106   6.063
 2838SOL    HW1 9413   6.897   4.171   6.067
 2838SOL    HW2 9414   6.847   4.028   6.006
 2839SOL     OW 9415   5.876   3.216   5.416
 2839SOL    HW1 9416   5.922   3.278   5.353
 2839SOL    HW2 9417   5.807   3.163   5.367
 2840SOL     OW 9418   6.027   6.260   4.133
 2840SOL    HW1 9419   5.982   6.294   4.216
 2840SOL    HW2 9420   6.126   6.262   4.146
 2841SOL     OW 9421   5.652   4.023   2.471
 2841SOL    HW1 9422   5.636   4.079   2.552
 2841SOL    HW2 9423   5.705   3.942   2.496
 2842SOL     OW 9424   0.879   6.629   3.664
 2842SOL    HW1 9425   0.867   6.728   3.676
 2842SOL    HW2 9426   0.918   6.611   3.574
 2843SOL     OW 9427   2.346   2.371   3.256
 2843SOL    HW1 9428   2.341   2.368   3.355
 2843SOL    HW2 9429   2.257   2.399   3.218
 2844SOL     OW 9430   4.904   3.470   0.802
 2844SOL    HW1 9431   4.972   3.532   0.842
 2844SOL    HW2 9432   4.930   3.449   0.708
 2845SOL     OW 9433   2.562   1.551   1.708
 2845SOL    HW1 9434   2.467   1.558   1.676
 2845SOL    HW2 9435   2.588   1.637   1.752
 2846SOL     OW 9436   6.409   6.988   6.668
 2846SOL    HW1 9437   6.311   6.976   6.684
 2846SOL    HW2 9438   6.457   6.904   6.692
 2847SOL     OW 9439   4.762   5.667   1.098
 2847SOL    HW1 9440   4.741   5.717   1.015
 2847SOL    HW2 9441   4.697   5.592   1.110
 2848SOL     OW 9442   0.442   4.295   5.720
 2848SOL    HW1 9443   0.385   4.262   5.645
 2848SOL    HW2 9444   0.474   4.387   5.700
 2849SOL     OW 9445   5.227   0.582   1.482
 2849SOL    HW1 9446   5.233   0.566   1.580
 2849SOL    HW2 9447   5.137   0.555   1.449
 2850SOL     OW 9448   1.153   0.214   1.864
 2850SOL    HW1 9449   1.165   0.197   1.962
 2850SOL    HW2 9450   1.173   0.311   1.845
 2851SOL     OW 9451   2.884   3.149   1.387
 2851SOL    HW1 9452   2.917   3.064   1.345
 2851SOL    HW2 9453   2.864   3.216   1.315
 2852SOL     OW 9454   0.287   5.046   5.949
 2852SOL    HW1 9455   0.294   5.123   5.885
 2852SOL    HW2 9456   0.193   5.041   5.984
 2853SOL     OW 9457   0.183   4.356   5.541
 2853SOL    HW1 9458   0.242   4.406   5.605
 2853SOL    HW2 9459   0.239   4.299   5.481
 2854SOL     OW 9460   3.106   0.849   6.361
 2854SOL    HW1 9461   3.141   0.899   6.440
 2854SOL    HW2 9462   3.132   0.753   6.367
 2855SOL     OW 9463   2.360   1.084   4.310
 2855SOL    HW1 9464   2.377   1.070   4.407
 2855SOL    HW2 9465   2.263   1.068   4.290
 2856SOL     OW 9466   0.274   5.648   3.853
 2856SOL    HW1 9467   0.267   5.691   3.943
 2856SOL    HW2 9468   0.339   5.572   3.857
 2857SOL     OW 9469   6.945   4.585   0.892
 2857SOL    HW1 9470   6.983   4.587   0.800
 2857SOL    HW2 9471   0.003   4.592   0.959
 2858SOL     OW 9472   5.020   4.782   2.491
 2858SOL    HW1 9473   5.009   4.684   2.472
 2858SOL    HW2 9474   5.065   4.794   2.580
 2859SOL     OW 9475   5.451   5.257   1.626
 2859SOL    HW1 9476   5.473   5.268   1.723
 2859SOL    HW2 9477   5.390   5.179   1.614
 2860SOL     OW 9478   1.130   0.300   2.957
 2860SOL    HW1 9479   1.097   0.380   2.907
 2860SOL    HW2 9480   1.062   0.273   3.025
 2861SOL     OW 9481   4.938   4.230   6.166
 2861SOL    HW1 9482   4.926   4.249   6.264
 2861SOL    HW2 9483   4.982   4.309   6.123
 2862SOL     OW 9484   4.812   1.870   0.613
 2862SOL    HW1 9485   4.865   1.953   0.626
 2862SOL    HW2 9486   4.721   1.881   0.652
 2863SOL     OW 9487   5.954   2.293   5.025
 2863SOL    HW1 9488   5.957   2.387   4.991
 2863SOL    HW2 9489   6.031   2.277   5.086
 2864SOL     OW 9490   3.678   4.127   0.596
 2864SOL    HW1 9491   3.701   4.100   0.689
 2864SOL    HW2 9492   3.708   4.221   0.579
 2865SOL     OW 9493   5.540   5.311   5.287
 2865SOL    HW1 9494   5.502   5.402   5.269
 2865SOL    HW2 9495   5.466   5.248   5.309
 2866SOL     OW 9496   3.533   4.631   0.817
 2866SOL    HW1 9497   3.622   4.677   0.828
 2866SOL    HW2 9498   3.536   4.542   0.862
 2867SOL     OW 9499   6.382   6.147   3.119
 2867SOL    HW1 9500   6.339   6.219   3.173
 2867SOL    HW2 9501   6.416   6.185   3.033
 2868SOL     OW 9502   0.104   0.451   5.797
 2868SOL    HW1 9503   0.129   0.358   5.826
 2868SOL    HW2 9504   0.181   0.513   5.811
 2869SOL     OW 9505   6.124   4.806   4.010
 2869SOL    HW1 9506   6.103   4.903   4.000
 2869SOL    HW2 9507   6.062   4.753   3.952
 2870SOL     OW 9508   6.869   1.931   1.731
 2870SOL    HW1 9509   6.848   1.995   1.657
 2870SOL    HW2 9510   6.934   1.862   1.700
 2871SOL     OW 9511   5.081   1.538   2.728
 2871SOL    HW1 9512   5.157   1.564   2.788
 2871SOL    HW2 9513   5.017   1.480   2.778
 2872SOL     OW 9514   2.037   2.080   2.247
 2872SOL    HW1 9515   2.125   2.033   2.255
 2872SOL    HW2 9516   2.029   2.148   2.319
 2873SOL     OW 9517   1.227   0.129   1.313
 2873SOL    HW1 9518   1.222   0.227   1.297
 2873SOL    HW2 9519   1.314   0.106   1.356
 2874SOL     OW 9520   1.924   1.615   3.336
 2874SOL    HW1 9521   1.960   1.698   3.378
 2874SOL    HW2 9522   1.931   1.539   3.400
 2875SOL     OW 9523   2.560   6.875   3.204
 2875SOL    HW1 9524   2.645   6.839   3.243
 2875SOL    HW2 9525   2.580   6.952   3.144
 2876SOL     OW 9526   1.961   6.449   1.235
 2876SOL    HW1 9527   1.885   6.440   1.170
 2876SOL    HW2 9528   1.943   6.392   1.315
 2877SOL     OW 9529   1.663   2.445   6.314
 2877SOL    HW1 9530   1.702   2.537   6.324
 2877SOL    HW2 9531   1.696   2.404   6.229
 2878SOL     OW 9532   3.981   3.232   4.399
 2878SOL    HW1 9533   4.001   3.198   4.307
 2878SOL    HW2 9534   4.067   3.253   4.445
 2879SOL     OW 9535   5.452   4.556   0.192
 2879SOL    HW1 9536   5.528   4.615   0.218
 2879SOL    HW2 9537   5.391   4.607   0.131
 2880SOL     OW 9538   1.893   1.178   3.676
 2880SOL    HW1 9539   1.992   1.186   3.660
 2880SOL    HW2 9540   1.862   1.087   3.650
 2881SOL     OW 9541   5.373   5.129   0.618
 2881SOL    HW1 9542   5.418   5.119   0.529
 2881SOL    HW2 9543   5.409   5.061   0.682
 2882SOL     OW 9544   4.467   6.375   0.070
 2882SOL    HW1 9545   4.443   6.299   0.131
 2882SOL    HW2 9546   4.551   6.352   0.020
 2883SOL     OW 9547   5.936   6.668   3.592
 2883SOL    HW1 9548   5.950   6.569   3.582
 2883SOL    HW2 9549   6.015   6.716   3.553
 2884SOL     OW 9550   6.018   5.776   4.275
 2884SOL    HW1 9551   5.979   5.849   4.218
 2884SOL    HW2 9552   5.946   5.714   4.305
 2885SOL     OW 9553   1.588   2.497   3.807
 2885SOL    HW1 9554   1.646   2.423   3.772
 2885SOL    HW2 9555   1.557   2.475   3.899
 2886SOL     OW 9556   2.278   4.556   5.485
 2886SOL    HW1 9557   2.306   4.614   5.561
 2886SOL    HW2 9558   2.359   4.521   5.438
 2887SOL     OW 9559   0.098   5.796   2.830
 2887SOL    HW1 9560   0.156   5.876   2.812
 2887SOL    HW2 9561   0.141   5.740   2.901
 2888SOL     OW 9562   5.268   0.078   6.557
 2888SOL    HW1 9563   5.298   0.117   6.644
 2888SOL    HW2 9564   5.296   6.999   6.554
 2889SOL     OW 9565   4.621   6.191   4.193
 2889SOL    HW1 9566   4.583   6.182   4.101
 2889SOL    HW2 9567   4.550   6.226   4.255
 2890SOL     OW 9568   1.239   2.177   0.792
 2890SOL    HW1 9569   1.253   2.087   0.751
 2890SOL    HW2 9570   1.142   2.190   0.811
 2891SOL     OW 9571   0.419   1.947   5.288
 2891SOL    HW1 9572   0.478   1.945   5.369
 2891SOL    HW2 9573   0.348   1.878   5.297
 2892SOL     OW 9574   5.337   4.202   1.877
 2892SOL    HW1 9575   5.390   4.215   1.961
 2892SOL    HW2 9576   5.268   4.131   1.892
 2893SOL     OW 9577   6.813   5.734   5.125
 2893SOL    HW1 9578   6.900   5.783   5.122
 2893SOL    HW2 9579   6.815   5.668   5.200
 2894SOL     OW 9580   2.071   5.346   1.711
 2894SOL    HW1 9581   2.094   5.323   1.806
 2894SOL    HW2 9582   2.146   5.398   1.670
 2895SOL     OW 9583   4.042   6.738   5.931
 2895SOL    HW1 9584   4.116   6.701   5.987
 2895SOL    HW2 9585   4.080   6.795   5.858
 2896SOL     OW 9586   5.470   0.463   4.843
 2896SOL    HW1 9587   5.391   0.465   4.905
 2896SOL    HW2 9588   5.445   0.414   4.759
 2897SOL     OW 9589   3.626   4.934   3.125
 2897SOL    HW1 9590   3.574   4.906   3.206
 2897SOL    HW2 9591   3.633   5.034   3.123
 2898SOL     OW 9592   4.939   2.438   2.292
 2898SOL    HW1 9593   4.892   2.350   2.300
 2898SOL    HW2 9594   4.985   2.443   2.204
 2899SOL     OW 9595   6.711   3.501   0.726
 2899SOL    HW1 9596   6.732   3.543   0.815
 2899SOL    HW2 9597   6.781   3.528   0.659
 2900SOL     OW 9598   2.619   3.083   5.638
 2900SOL    HW1 9599   2.624   3.178   5.606
 2900SOL    HW2 9600   2.605   3.022   5.560
 2901SOL     OW 9601   1.127   4.155   2.965
 2901SOL    HW1 9602   1.110   4.183   3.060
 2901SOL    HW2 9603   1.050   4.101   2.931
 2902SOL     OW 9604   5.978   5.470   3.579
 2902SOL    HW1 9605   5.980   5.559   3.626
 2902SOL    HW2 9606   5.951   5.483   3.484
 2903SOL     OW 9607   5.860   4.673   0.683
 2903SOL    HW1 9608   5.809   4.758   0.670
 2903SOL    HW2 9609   5.870   4.627   0.594
 2904SOL     OW 9610   2.206   4.552   5.189
 2904SOL    HW1 9611   2.294   4.524   5.227
 2904SOL    HW2 9612   2.142   4.475   5.193
 2905SOL     OW 9613   2.115   5.507   1.163
 2905SOL    HW1 9614   2.153   5.572   1.229
 2905SOL    HW2 9615   2.187   5.476   1.101
 2906SOL     OW 9616   6.136   6.174   4.905
 2906SOL    HW1 9617   6.043   6.144   4.925
 2906SOL    HW2 9618   6.198   6.138   4.975
 2907SOL     OW 9619   0.869   0.428   5.152
 2907SOL    HW1 9620   0.785   0.384   5.119
 2907SOL    HW2 9621   0.863   0.527   5.136
 2908SOL     OW 9622   4.686   6.893   2.977
 2908SOL    HW1 9623   4.652   6.836   2.902
 2908SOL    HW2 9624   4.687   6.989   2.948
 2909SOL     OW 9625   6.863   6.498   1.569
 2909SOL    HW1 9626   6.770   6.501   1.534
 2909SOL    HW2 9627   6.927   6.514   1.495
 2910SOL     OW 9628   0.893   0.753   4.485
 2910SOL    HW1 9629   0.975   0.720   4.533
 2910SOL    HW2 9630   0.894   0.720   4.391
 2911SOL     OW 9631   6.970   4.230   5.769
 2911SOL    HW1 9632   6.978   4.153   5.706
 2911SOL    HW2 9633   0.034   4.233   5.828
 2912SOL     OW 9634   0.949   1.209   1.327
 2912SOL    HW1 9635   0.937   1.110   1.323
 2912SOL    HW2 9636   0.900   1.246   1.405
 2913SOL     OW 9637   2.367   6.503   2.735
 2913SOL    HW1 9638   2.422   6.566   2.791
 2913SOL    HW2 9639   2.402   6.410   2.746
 2914SOL     OW 9640   3.891   5.552   0.795
 2914SOL    HW1 9641   3.839   5.497   0.861
 2914SOL    HW2 9642   3.976   5.505   0.772
 2915SOL     OW 9643   2.932   0.269   3.564
 2915SOL    HW1 9644   2.952   0.237   3.472
 2915SOL    HW2 9645   2.879   0.354   3.559
 2916SOL     OW 9646   1.731   5.478   0.096
 2916SOL    HW1 9647   1.662   5.550   0.085
 2916SOL    HW2 9648   1.779   5.465   0.009
 2917SOL     OW 9649   2.557   6.679   2.823
 2917SOL    HW1 9650   2.629   6.662   2.890
 2917SOL    HW2 9651   2.599   6.703   2.735
 2918SOL     OW 9652   5.308   2.997   1.833
 2918SOL    HW1 9653   5.348   3.056   1.764
 2918SOL    HW2 9654   5.217   3.030   1.858
 2919SOL     OW 9655   0.247   5.895   4.931
 2919SOL    HW1 9656   0.173   5.883   4.865
 2919SOL    HW2 9657   0.335   5.888   4.884
 2920SOL     OW 9658   2.346   2.025   1.927
 2920SOL    HW1 9659   2.362   1.928   1.907
 2920SOL    HW2 9660   2.407   2.081   1.872
 2921SOL     OW 9661   1.626   5.868   3.221
 2921SOL    HW1 9662   1.677   5.952   3.204
 2921SOL    HW2 9663   1.688   5.790   3.218
 2922SOL     OW 9664   4.263   5.099   4.144
 2922SOL    HW1 9665   4.224   5.032   4.080
 2922SOL    HW2 9666   4.232   5.191   4.118
 2923SOL     OW 9667   0.053   5.590   5.045
 2923SOL    HW1 9668   0.064   5.678   5.092
 2923SOL    HW2 9669   0.022   5.606   4.951
 2924SOL     OW 9670   5.874   2.071   6.592
 2924SOL    HW1 9671   5.880   2.169   6.612
 2924SOL    HW2 9672   5.778   2.043   6.594
 2925SOL     OW 9673   5.918   6.844   4.729
 2925SOL    HW1 9674   5.945   6.816   4.821
 2925SOL    HW2 9675   5.879   6.936   4.732
 2926SOL     OW 9676   6.800   2.304   3.971
 2926SOL    HW1 9677   6.754   2.216   3.983
 2926SOL    HW2 9678   6.735   2.378   3.986
 2927SOL     OW 9679   0.762   2.186   1.762
 2927SOL    HW1 9680   0.692   2.169   1.692
 2927SOL    HW2 9681   0.717   2.216   1.847
 2928SOL     OW 9682   6.173   3.400   0.358
 2928SOL    HW1 9683   6.231   3.375   0.436
 2928SOL    HW2 9684   6.208   3.357   0.275
 2929SOL     OW 9685   1.837   2.310   4.217
 2929SOL    HW1 9686   1.807   2.278   4.307
 2929SOL    HW2 9687   1.789   2.259   4.146
 2930SOL     OW 9688   0.081   3.859   3.995
 2930SOL    HW1 9689   0.180   3.865   4.013
 2930SOL    HW2 9690   0.048   3.769   4.023
 2931SOL     OW 9691   5.359   4.322   5.816
 2931SOL    HW1 9692   5.354   4.223   5.820
 2931SOL    HW2 9693   5.416   4.350   5.738
 2932SOL     OW 9694   6.003   5.111   1.500
 2932SOL    HW1 9695   5.910   5.126   1.532
 2932SOL    HW2 9696   6.029   5.016   1.517
 2933SOL     OW 9697   0.886   6.665   0.113
 2933SOL    HW1 9698   0.810   6.602   0.096
 2933SOL    HW2 9699   0.957   6.652   0.044
 2934SOL     OW 9700   4.339   5.296   1.204
 2934SOL    HW1 9701   4.413   5.235   1.231
 2934SOL    HW2 9702   4.277   5.309   1.281
 2935SOL     OW 9703   0.880   2.811   6.023
 2935SOL    HW1 9704   0.871   2.802   5.924
 2935SOL    HW2 9705   0.886   2.721   6.065
 2936SOL     OW 9706   4.868   6.678   2.059
 2936SOL    HW1 9707   4.768   6.680   2.057
 2936SOL    HW2 9708   4.900   6.664   2.153
 2937SOL     OW 9709   5.489   3.932   2.799
 2937SOL    HW1 9710   5.514   4.027   2.777
 2937SOL    HW2 9711   5.393   3.917   2.775
 2938SOL     OW 9712   0.696   6.116   6.355
 2938SOL    HW1 9713   0.736   6.165   6.278
 2938SOL    HW2 9714   0.763   6.052   6.392
 2939SOL     OW 9715   6.988   6.079   1.350
 2939SOL    HW1 9716   6.966   6.041   1.440
 2939SOL    HW2 9717   0.061   6.122   1.353
 2940SOL     OW 9718   4.744   6.587   3.625
 2940SOL    HW1 9719   4.657   6.547   3.655
 2940SOL    HW2 9720   4.730   6.683   3.602
 2941SOL     OW 9721   2.206   4.527   2.949
 2941SOL    HW1 9722   2.235   4.446   2.898
 2941SOL    HW2 9723   2.267   4.604   2.928
 2942SOL     OW 9724   3.265   1.636   1.818
 2942SOL    HW1 9725   3.191   1.644   1.752
 2942SOL    HW2 9726   3.228   1.644   1.911
 2943SOL     OW 9727   5.800   3.777   2.932
 2943SOL    HW1 9728   5.871   3.762   2.863
 2943SOL    HW2 9729   5.830   3.738   3.019
 2944SOL     OW 9730   1.918   6.007   2.475
 2944SOL    HW1 9731   1.908   5.933   2.409
 2944SOL    HW2 9732   2.015   6.032   2.482
 2945SOL     OW 9733   5.079   4.059   1.272
 2945SOL    HW1 9734   5.065   4.157   1.259
 2945SOL    HW2 9735   5.051   4.010   1.190
 2946SOL     OW 9736   3.500   3.213   4.291
 2946SOL    HW1 9737   3.590   3.250   4.317
 2946SOL    HW2 9738   3.435   3.288   4.281
 2947SOL     OW 9739   6.370   5.757   0.926
 2947SOL    HW1 9740   6.441   5.751   0.996
 2947SOL    HW2 9741   6.358   5.667   0.884
 2948SOL     OW 9742   6.909   3.655   2.285
 2948SOL    HW1 9743   7.006   3.649   2.309
 2948SOL    HW2 9744   6.885   3.752   2.271
 2949SOL     OW 9745   2.036   6.248   0.487
 2949SOL    HW1 9746   2.102   6.281   0.555
 2949SOL    HW2 9747   2.083   6.191   0.420
 2950SOL     OW 9748   6.087   5.932   2.482
 2950SOL    HW1 9749   6.005   5.939   2.540
 2950SOL    HW2 9750   6.148   5.863   2.520
 2951SOL     OW 9751   0.617   1.525   1.503
 2951SOL    HW1 9752   0.645   1.617   1.475
 2951SOL    HW2 9753   0.552   1.532   1.579
 2952SOL     OW 9754   6.882   1.800   5.483
 2952SOL    HW1 9755   6.890   1.853   5.399
 2952SOL    HW2 9756   6.942   1.839   5.553
 2953SOL     OW 9757   1.624   5.011   3.330
 2953SOL    HW1 9758   1.692   4.971   3.270
 2953SOL    HW2 9759   1.642   5.109   3.340
 2954SOL     OW 9760   0.664   3.837   6.085
 2954SOL    HW1 9761   0.576   3.863   6.125
 2954SOL    HW2 9762   0.675   3.737   6.091
 2955SOL     OW 9763   1.314   4.356   6.451
 2955SOL    HW1 9764   1.215   4.341   6.449
 2955SOL    HW2 9765   1.354   4.333   6.363
 2956SOL     OW 9766   5.331   4.778   4.798
 2956SOL    HW1 9767   5.385   4.792   4.715
 2956SOL    HW2 9768   5.234   4.789   4.777
 2957SOL     OW 9769   2.526   5.405   1.377
 2957SOL    HW1 9770   2.624   5.412   1.394
 2957SOL    HW2 9771   2.488   5.329   1.430
 2958SOL     OW 9772   1.752   3.979   2.743
 2958SOL    HW1 9773   1.723   3.883   2.743
 2958SOL    HW2 9774   1.686   4.034   2.691
 2959SOL     OW 9775   0.034   3.634   3.611
 2959SOL    HW1 9776   0.028   3.536   3.633
 2959SOL    HW2 9777   6.993   3.686   3.674
 2960SOL     OW 9778   4.969   6.981   1.276
 2960SOL    HW1 9779   4.925   0.053   1.282
 2960SOL    HW2 9780   5.068   6.992   1.278
 2961SOL     OW 9781   5.773   2.980   1.867
 2961SOL    HW1 9782   5.716   2.920   1.811
 2961SOL    HW2 9783   5.848   2.927   1.907
 2962SOL     OW 9784   6.820   0.254   3.617
 2962SOL    HW1 9785   6.871   0.310   3.552
 2962SOL    HW2 9786   6.880   0.182   3.652
 2963SOL     OW 9787   1.382   0.889   5.246
 2963SOL    HW1 9788   1.437   0.839   5.178
 2963SOL    HW2 9789   1.435   0.898   5.330
 2964SOL     OW 9790   1.530   0.596   6.399
 2964SOL    HW1 9791   1.627   0.622   6.401
 2964SOL    HW2 9792   1.476   0.669   6.441
 2965SOL     OW 9793   6.577   0.283   6.362
 2965SOL    HW1 9794   6.676   0.303   6.361
 2965SOL    HW2 9795   6.528   0.364   6.393
 2966SOL     OW 9796   3.129   5.712   1.839
 2966SOL    HW1 9797   3.140   5.717   1.739
 2966SOL    HW2 9798   3.210   5.669   1.879
 2967SOL     OW 9799   5.652   6.792   5.279
 2967SOL    HW1 9800   5.603   6.876   5.255
 2967SOL    HW2 9801   5.717   6.811   5.352
 2968SOL     OW 9802   0.701   4.054   1.026
 2968SOL    HW1 9803   0.692   3.998   1.108
 2968SOL    HW2 9804   0.611   4.068   0.985
 2969SOL     OW 9805   4.668   2.853   5.121
 2969SOL    HW1 9806   4.653   2.756   5.137
 2969SOL    HW2 9807   4.656   2.873   5.024
 2970SOL     OW 9808   2.472   2.140   5.186
 2970SOL    HW1 9809   2.413   2.171   5.261
 2970SOL    HW2 9810   2.539   2.211   5.165
 2971SOL     OW 9811   5.122   2.849   6.773
 2971SOL    HW1 9812   5.116   2.931   6.716
 2971SOL    HW2 9813   5.070   2.775   6.730
 2972SOL     OW 9814   7.014   5.577   6.254
 2972SOL    HW1 9815   0.020   5.577   6.157
 2972SOL    HW2 9816   6.997   5.672   6.284
 2973SOL     OW 9817   5.261   1.341   4.386
 2973SOL    HW1 9818   5.288   1.264   4.443
 2973SOL    HW2 9819   5.199   1.401   4.437
 2974SOL     OW 9820   4.643   6.937   2.175
 2974SOL    HW1 9821   4.725   6.993   2.186
 2974SOL    HW2 9822   4.651   6.853   2.229
 2975SOL     OW 9823   5.682   4.082   5.150
 2975SOL    HW1 9824   5.594   4.034   5.142
 2975SOL    HW2 9825   5.755   4.023   5.118
 2976SOL     OW 9826   3.650   1.136   1.871
 2976SOL    HW1 9827   3.720   1.104   1.935
 2976SOL    HW2 9828   3.665   1.094   1.782
 2977SOL     OW 9829   1.021   0.573   1.653
 2977SOL    HW1 9830   0.936   0.525   1.675
 2977SOL    HW2 9831   1.029   0.582   1.554
 2978SOL     OW 9832   4.057   5.124   6.613
 2978SOL    HW1 9833   4.104   5.039   6.637
 2978SOL    HW2 9834   4.010   5.113   6.526
 2979SOL     OW 9835   3.338   0.833   4.901
 2979SOL    HW1 9836   3.264   0.900   4.895
 2979SOL    HW2 9837   3.316   0.753   4.845
 2980SOL     OW 9838   2.915   3.407   4.371
 2980SOL    HW1 9839   2.819   3.398   4.346
 2980SOL    HW2 9840   2.965   3.326   4.342
 2981SOL     OW 9841   2.383   1.063   1.490
 2981SOL    HW1 9842   2.400   1.147   1.542
 2981SOL    HW2 9843   2.469   1.014   1.476
 2982SOL     OW 9844   1.555   0.812   1.178
 2982SOL    HW1 9845   1.496   0.840   1.253
 2982SOL    HW2 9846   1.536   0.870   1.098
 2983SOL     OW 9847   6.330   3.351   5.329
 2983SOL    HW1 9848   6.276   3.276   5.292
 2983SOL    HW2 9849   6.425   3.343   5.298
 2984SOL     OW 9850   0.540   5.914   1.470
 2984SOL    HW1 9851   0.490   5.832   1.500
 2984SOL    HW2 9852   0.506   5.943   1.380
 2985SOL     OW 9853   5.768   0.659   6.819
 2985SOL    HW1 9854   5.790   0.589   6.887
 2985SOL    HW2 9855   5.692   0.715   6.852
 2986SOL     OW 9856   3.621   3.298   2.035
 2986SOL    HW1 9857   3.591   3.259   1.948
 2986SOL    HW2 9858   3.719   3.320   2.030
 2987SOL     OW 9859   2.466   5.886   4.478
 2987SOL    HW1 9860   2.453   5.842   4.566
 2987SOL    HW2 9861   2.526   5.830   4.421
 2988SOL     OW 9862   6.630   1.815   6.084
 2988SOL    HW1 9863   6.531   1.818   6.096
 2988SOL    HW2 9864   6.656   1.877   6.010
 2989SOL     OW 9865   5.737   3.379   4.401
 2989SOL    HW1 9866   5.673   3.361   4.475
 2989SOL    HW2 9867   5.686   3.407   4.319
 2990SOL     OW 9868   5.505   2.205   4.769
 2990SOL    HW1 9869   5.591   2.182   4.724
 2990SOL    HW2 9870   5.519   2.212   4.868
 2991SOL     OW 9871   0.462   3.224   0.465
 2991SOL    HW1 9872   0.495   3.184   0.551
 2991SOL    HW2 9873   0.533   3.213   0.395
 2992SOL     OW 9874   0.598   3.906   4.649
 2992SOL    HW1 9875   0.662   3.953   4.709
 2992SOL    HW2 9876   0.509   3.896   4.695
 2993SOL     OW 9877   2.835   4.481   1.150
 2993SOL    HW1 9878   2.900   4.405   1.150
 2993SOL    HW2 9879   2.832   4.522   1.059
 2994SOL     OW 9880   3.339   5.307   4.981
 2994SOL    HW1 9881   3.320   5.400   5.015
 2994SOL    HW2 9882   3.261   5.274   4.928
 2995SOL     OW 9883   4.352   0.274   1.913
 2995SOL    HW1 9884   4.321   0.198   1.969
 2995SOL    HW2 9885   4.358   0.357   1.969
 2996SOL     OW 9886   6.585   1.162   4.069
 2996SOL    HW1 9887   6.524   1.242   4.064
 2996SOL    HW2 9888   6.578   1.110   3.983
 2997SOL     OW 9889   4.943   6.112   4.007
 2997SOL    HW1 9890   4.879   6.164   3.950
 2997SOL    HW2 9891   4.975   6.032   3.956
 2998SOL     OW 9892   2.627   0.993   1.637
 2998SOL    HW1 9893   2.574   1.020   1.718
 2998SOL    HW2 9894   2.709   1.049   1.631
 2999SOL     OW 9895   1.843   4.531   0.762
 2999SOL    HW1 9896   1.923   4.565   0.812
 2999SOL    HW2 9897   1.804   4.453   0.811
 3000SOL     OW 9898   2.485   4.223   5.289
 3000SOL    HW1 9899   2.583   4.230   5.304
 3000SOL    HW2 9900   2.463   4.130   5.258
 3001SOL     OW 9901   4.740   0.615   6.146
 3001SOL    HW1 9902   4.694   0.674   6.212
 3001SOL    HW2 9903   4.787   0.541   6.194
 3002SOL     OW 9904   1.765   1.855   1.812
 3002SOL    HW1 9905   1.843   1.794   1.822
 3002SOL    HW2 9906   1.718   1.864   1.900
 3003SOL     OW 9907   1.571   6.583   0.711
 3003SOL    HW1 9908   1.574   6.604   0.809
 3003SOL    HW2 9909   1.476   6.581   0.681
 3004SOL     OW 9910   2.885   6.808   3.721
 3004SOL    HW1 9911   2.886   6.907   3.726
 3004SOL    HW2 9912   2.928   6.778   3.636
 3005SOL     OW 9913   2.249   2.084   0.700
 3005SOL    HW1 9914   2.188   2.007   0.680
 3005SOL    HW2 9915   2.342   2.050   0.715
 3006SOL     OW 9916   5.193   1.279   5.802
 3006SOL    HW1 9917   5.098   1.269   5.830
 3006SOL    HW2 9918   5.222   1.374   5.815
 3007SOL     OW 9919   6.467   5.702   6.420
 3007SOL    HW1 9920   6.368   5.715   6.413
 3007SOL    HW2 9921   6.487   5.624   6.478
 3008SOL     OW 9922   4.632   3.715   5.596
 3008SOL    HW1 9923   4.660   3.800   5.640
 3008SOL    HW2 9924   4.640   3.724   5.497
 3009SOL     OW 9925   6.235   2.961   2.547
 3009SOL    HW1 9926   6.175   3.020   2.492
 3009SOL    HW2 9927   6.329   2.994   2.541
 3010SOL     OW 9928   4.388   5.505   2.101
 3010SOL    HW1 9929   4.362   5.600   2.115
 3010SOL    HW2 9930   4.397   5.460   2.190
 3011SOL     OW 9931   6.388   0.402   0.296
 3011SOL    HW1 9932   6.453   0.367   0.229
 3011SOL    HW2 9933   6.302   0.425   0.250
 3012SOL     OW 9934   2.069   1.479   4.994
 3012SOL    HW1 9935   2.001   1.434   4.936
 3012SOL    HW2 9936   2.093   1.567   4.954
 3013SOL     OW 9937   0.599   4.798   5.471
 3013SOL    HW1 9938   0.565   4.715   5.515
 3013SOL    HW2 9939   0.523   4.854   5.440
 3014SOL     OW 9940   5.038   0.030   6.404
 3014SOL    HW1 9941   5.090   6.965   6.379
 3014SOL    HW2 9942   5.085   0.077   6.479
 3015SOL     OW 9943   1.798   0.719   6.122
 3015SOL    HW1 9944   1.736   0.760   6.189
 3015SOL    HW2 9945   1.875   0.676   6.169
 3016SOL     OW 9946   2.165   6.670   4.088
 3016SOL    HW1 9947   2.231   6.645   4.159
 3016SOL    HW2 9948   2.184   6.763   4.056
 3017SOL     OW 9949   1.366   5.606   0.326
 3017SOL    HW1 9950   1.465   5.618   0.326
 3017SOL    HW2 9951   1.344   5.509   0.340
 3018SOL     OW 9952   3.446   1.474   1.680
 3018SOL    HW1 9953   3.385   1.527   1.739
 3018SOL    HW2 9954   3.445   1.512   1.588
 3019SOL     OW 9955   1.979   6.973   6.267
 3019SOL    HW1 9956   1.995   0.025   6.197
 3019SOL    HW2 9957   1.894   6.993   6.315
 3020SOL     OW 9958   5.929   5.091   7.009
 3020SOL    HW1 9959   5.854   5.033   6.979
 3020SOL    HW2 9960   6.000   5.094   6.939
 3021SOL     OW 9961   4.427   0.718   4.549
 3021SOL    HW1 9962   4.515   0.673   4.535
 3021SOL    HW2 9963   4.440   0.803   4.600
 3022SOL     OW 9964   4.464   6.103   3.624
 3022SOL    HW1 9965   4.454   6.177   3.558
 3022SOL    HW2 9966   4.400   6.030   3.601
 3023SOL     OW 9967   6.019   4.754   5.097
 3023SOL    HW1 9968   5.948   4.683   5.093
 3023SOL    HW2 9969   6.109   4.710   5.097
 3024SOL     OW 9970   0.014   0.679   0.324
 3024SOL    HW1 9971   7.017   0.741   0.400
 3024SOL    HW2 9972   0.111   0.653   0.319
 3025SOL     OW 9973   4.488   5.528   6.946
 3025SOL    HW1 9974   4.507   5.430   6.951
 3025SOL    HW2 9975   4.574   5.578   6.944
 3026SOL     OW 9976   0.360   0.835   2.012
 3026SOL    HW1 9977   0.287   0.773   2.039
 3026SOL    HW2 9978   0.321   0.913   1.963
 3027SOL     OW 9979   3.958   0.214   0.459
 3027SOL    HW1 9980   3.924   0.293   0.409
 3027SOL    HW2 9981   3.899   0.135   0.440
 3028SOL     OW 9982   2.918   3.698   4.996
 3028SOL    HW1 9983   3.005   3.650   4.990
 3028SOL    HW2 9984   2.859   3.651   5.062
 3029SOL     OW 9985   6.532   3.510   4.878
 3029SOL    HW1 9986   6.601   3.441   4.860
 3029SOL    HW2 9987   6.568   3.600   4.852
 3030SOL     OW 9988   2.345   2.576   6.706
 3030SOL    HW1 9989   2.281   2.648   6.680
 3030SOL    HW2 9990   2.439   2.608   6.691
 3031SOL     OW 9991   1.258   5.482   0.646
 3031SOL    HW1 9992   1.200   5.536   0.585
 3031SOL    HW2 9993   1.319   5.544   0.697
 3032SOL     OW 9994   2.374   6.755   3.596
 3032SOL    HW1 9995   2.448   6.806   3.551
 3032SOL    HW2 9996   2.308   6.726   3.527
 3033SOL     OW 9997   1.304   1.854   6.050
 3033SOL    HW1 9998   1.382   1.881   5.993
 3033SOL    HW2 9999   1.222   1.901   6.019
 3034SOL     OW10000   5.549   3.225   2.875
 3034SOL    HW110001   5.550   3.216   2.775
 3034SOL    HW210002   5.509   3.143   2.916
 3035SOL     OW10003   0.017   3.360   0.023
 3035SOL    HW110004   0.084   3.433   0.004
 3035SOL    HW210005   0.015   3.296   6.963
 3036SOL     OW10006   2.933   2.316   5.593
 3036SOL    HW110007   2.862   2.339   5.527
 3036SOL    HW210008   2.990   2.242   5.558
 3037SOL     OW10009   1.045   5.330   6.535
 3037SOL    HW110010   1.031   5.262   6.463
 3037SOL    HW210011   1.100   5.406   6.500
 3038SOL     OW10012   5.845   5.101   6.385
 3038SOL    HW110013   5.792   5.186   6.386
 3038SOL    HW210014   5.783   5.023   6.397
 3039SOL     OW10015   6.284   3.747   5.933
 3039SOL    HW110016   6.236   3.707   5.855
 3039SOL    HW210017   6.304   3.675   6.000
 3040SOL     OW10018   5.075   5.578   6.092
 3040SOL    HW110019   5.035   5.646   6.030
 3040SOL    HW210020   5.156   5.617   6.135
 3041SOL     OW10021   0.909   4.620   5.555
 3041SOL    HW110022   0.836   4.578   5.500
 3041SOL    HW210023   0.998   4.591   5.519
 3042SOL     OW10024   6.888   4.926   3.542
 3042SOL    HW110025   6.857   4.916   3.447
 3042SOL    HW210026   6.810   4.949   3.600
 3043SOL     OW10027   2.727   5.115   1.516
 3043SOL    HW110028   2.654   5.094   1.451
 3043SOL    HW210029   2.773   5.031   1.543
 3044SOL     OW10030   3.936   3.538   4.783
 3044SOL    HW110031   3.919   3.457   4.838
 3044SOL    HW210032   3.848   3.577   4.754
 3045SOL     OW10033   5.357   1.828   2.131
 3045SOL    HW110034   5.312   1.764   2.069
 3045SOL    HW210035   5.338   1.802   2.226
 3046SOL     OW10036   5.830   6.626   1.395
 3046SOL    HW110037   5.798   6.639   1.489
 3046SOL    HW210038   5.754   6.595   1.338
 3047SOL     OW10039   6.248   1.263   4.093
 3047SOL    HW110040   6.330   1.301   4.049
 3047SOL    HW210041   6.192   1.338   4.129
 3048SOL     OW10042   4.412   4.827   1.650
 3048SOL    HW110043   4.498   4.868   1.619
 3048SOL    HW210044   4.427   4.730   1.671
 3049SOL     OW10045   0.644   2.129   2.114
 3049SOL    HW110046   0.732   2.152   2.157
 3049SOL    HW210047   0.656   2.049   2.055
 3050SOL     OW10048   3.427   2.262   6.469
 3050SOL    HW110049   3.489   2.193   6.505
 3050SOL    HW210050   3.450   2.282   6.374
 3051SOL     OW10051   2.677   5.652   5.153
 3051SOL    HW110052   2.685   5.752   5.155
 3051SOL    HW210053   2.714   5.617   5.067
 3052SOL     OW10054   6.968   6.690   3.291
 3052SOL    HW110055   6.906   6.750   3.342
 3052SOL    HW210056   0.040   6.735   3.283
 3053SOL     OW10057   0.777   3.896   6.816
 3053SOL    HW110058   0.720   3.973   6.845
 3053SOL    HW210059   0.759   3.877   6.719
 3054SOL     OW10060   5.627   0.583   2.807
 3054SOL    HW110061   5.606   0.561   2.902
 3054SOL    HW210062   5.602   0.678   2.789
 3055SOL     OW10063   5.882   6.494   0.188
 3055SOL    HW110064   5.971   6.488   0.235
 3055SOL    HW210065   5.893   6.469   0.092
 3056SOL     OW10066   3.844   1.597   6.273
 3056SOL    HW110067   3.769   1.546   6.316
 3056SOL    HW210068   3.905   1.532   6.226
 3057SOL     OW10069   5.155   3.899   3.202
 3057SOL    HW110070   5.183   3.966   3.134
 3057SOL    HW210071   5.150   3.808   3.161
 3058SOL     OW10072   0.544   5.299   6.018
 3058SOL    HW110073   0.608   5.259   5.953
 3058SOL    HW210074   0.572   5.392   6.040
 3059SOL     OW10075   1.367   1.861   2.211
 3059SOL    HW110076   1.375   1.808   2.127
 3059SOL    HW210077   1.338   1.954   2.189
 3060SOL     OW10078   5.590   4.091   3.568
 3060SOL    HW110079   5.562   4.092   3.664
 3060SOL    HW210080   5.514   4.123   3.511
 3061SOL     OW10081   5.771   6.850   3.747
 3061SOL    HW110082   5.733   6.800   3.825
 3061SOL    HW210083   5.814   6.786   3.684
 3062SOL     OW10084   3.994   5.308   1.056
 3062SOL    HW110085   3.918   5.358   1.014
 3062SOL    HW210086   4.023   5.234   0.996
 3063SOL     OW10087   6.559   4.753   1.891
 3063SOL    HW110088   6.562   4.702   1.977
 3063SOL    HW210089   6.573   4.851   1.909
 3064SOL     OW10090   5.165   2.186   6.930
 3064SOL    HW110091   5.081   2.223   6.969
 3064SOL    HW210092   5.178   2.222   6.837
 3065SOL     OW10093   5.458   1.234   6.348
 3065SOL    HW110094   5.475   1.257   6.252
 3065SOL    HW210095   5.429   1.316   6.397
 3066SOL     OW10096   5.161   6.940   5.590
 3066SOL    HW110097   5.125   0.016   5.601
 3066SOL    HW210098   5.261   6.942   5.589
 3067SOL     OW10099   1.383   2.306   5.130
 3067SOL    HW110100   1.346   2.305   5.223
 3067SOL    HW210101   1.333   2.241   5.073
 3068SOL     OW10102   6.572   0.444   0.506
 3068SOL    HW110103   6.653   0.386   0.496
 3068SOL    HW210104   6.502   0.414   0.441
 3069SOL     OW10105   4.780   6.643   4.200
 3069SOL    HW110106   4.838   6.695   4.263
 3069SOL    HW210107   4.693   6.690   4.188
 3070SOL     OW10108   2.050   0.839   1.245
 3070SOL    HW110109   2.037   0.784   1.328
 3070SOL    HW210110   2.012   0.930   1.259
 3071SOL     OW10111   5.830   4.828   5.422
 3071SOL    HW110112   5.732   4.849   5.422
 3071SOL    HW210113   5.882   4.913   5.420
 3072SOL     OW10114   2.126   6.656   6.581
 3072SOL    HW110115   2.144   6.665   6.483
 3072SOL    HW210116   2.141   6.561   6.609
 3073SOL     OW10117   0.361   5.395   1.903
 3073SOL    HW110118   0.376   5.457   1.979
 3073SOL    HW210119   0.390   5.303   1.929
 3074SOL     OW10120   3.532   2.963   1.529
 3074SOL    HW110121   3.623   3.004   1.529
 3074SOL    HW210122   3.490   2.976   1.619
 3075SOL     OW10123   4.090   5.017   1.349
 3075SOL    HW110124   4.010   4.959   1.367
 3075SOL    HW210125   4.059   5.109   1.324
 3076SOL     OW10126   1.127   0.753   4.620
 3076SOL    HW110127   1.170   0.703   4.695
 3076SOL    HW210128   1.144   0.851   4.631
 3077SOL     OW10129   0.055   3.660   1.888
 3077SOL    HW110130   0.097   3.662   1.979
 3077SOL    HW210131   0.079   3.575   1.842
 3078SOL     OW10132   0.288   3.819   1.893
 3078SOL    HW110133   0.223   3.744   1.881
 3078SOL    HW210134   0.354   3.796   1.964
 3079SOL     OW10135   2.171   3.685   4.753
 3079SOL    HW110136   2.246   3.641   4.803
 3079SOL    HW210137   2.084   3.653   4.791
 3080SOL     OW10138   4.404   5.036   1.366
 3080SOL    HW110139   4.434   4.993   1.281
 3080SOL    HW210140   4.479   5.091   1.404
 3081SOL     OW10141   2.030   3.596   6.623
 3081SOL    HW110142   1.983   3.648   6.694
 3081SOL    HW210143   1.976   3.596   6.540
 3082SOL     OW10144   5.279   4.695   5.249
 3082SOL    HW110145   5.364   4.736   5.217
 3082SOL    HW210146   5.277   4.598   5.223
 3083SOL     OW10147   3.544   5.370   1.447
 3083SOL    HW110148   3.567   5.436   1.375
 3083SOL    HW210149   3.522   5.282   1.405
 3084SOL     OW10150   6.984   4.675   3.629
 3084SOL    HW110151   0.055   4.635   3.602
 3084SOL    HW210152   6.981   4.771   3.603
 3085SOL     OW10153   6.122   5.634   0.183
 3085SOL    HW110154   6.145   5.730   0.197
 3085SOL    HW210155   6.023   5.622   0.190
 3086SOL     OW10156   6.502   6.151   6.489
 3086SOL    HW110157   6.472   6.238   6.450
 3086SOL    HW210158   6.437   6.079   6.464
 3087SOL     OW10159   3.740   0.563   2.372
 3087SOL    HW110160   3.644   0.551   2.346
 3087SOL    HW210161   3.746   0.587   2.469
 3088SOL     OW10162   2.180   3.751   5.533
 3088SOL    HW110163   2.159   3.766   5.436
 3088SOL    HW210164   2.278   3.736   5.544
 3089SOL     OW10165   4.470   4.920   5.731
 3089SOL    HW110166   4.568   4.906   5.750
 3089SOL    HW210167   4.430   4.975   5.805
 3090SOL     OW10168   0.724   2.646   2.540
 3090SOL    HW110169   0.800   2.678   2.596
 3090SOL    HW210170   0.662   2.722   2.521
 3091SOL     OW10171   0.921   2.488   1.025
 3091SOL    HW110172   0.918   2.499   0.925
 3091SOL    HW210173   0.989   2.419   1.049
 3092SOL     OW10174   6.138   1.243   2.309
 3092SOL    HW110175   6.149   1.260   2.211
 3092SOL    HW210176   6.165   1.149   2.330
 3093SOL     OW10177   6.813   5.617   6.573
 3093SOL    HW110178   6.847   5.692   6.516
 3093SOL    HW210179   6.837   5.635   6.669
 3094SOL     OW10180   2.428   1.574   6.439
 3094SOL    HW110181   2.513   1.583   6.491
 3094SOL    HW210182   2.441   1.610   6.346
 3095SOL     OW10183   1.538   4.092   5.280
 3095SOL    HW110184   1.638   4.096   5.283
 3095SOL    HW210185   1.509   4.008   5.233
 3096SOL     OW10186   1.482   3.100   4.232
 3096SOL    HW110187   1.495   3.012   4.278
 3096SOL    HW210188   1.561   3.121   4.175
 3097SOL     OW10189   5.392   2.782   5.115
 3097SOL    HW110190   5.383   2.718   5.192
 3097SOL    HW210191   5.373   2.875   5.148
 3098SOL     OW10192   1.863   3.205   3.044
 3098SOL    HW110193   1.837   3.193   3.140
 3098SOL    HW210194   1.818   3.135   2.989
 3099SOL     OW10195   0.499   7.006   4.723
 3099SOL    HW110196   0.570   0.059   4.722
 3099SOL    HW210197   0.541   6.916   4.732
 3100SOL     OW10198   5.673   4.808   1.689
 3100SOL    HW110199   5.720   4.878   1.634
 3100SOL    HW210200   5.577   4.804   1.662
 3101SOL     OW10201   4.603   0.225   5.223
 3101SOL    HW110202   4.576   0.279   5.303
 3101SOL    HW210203   4.609   0.129   5.249
 3102SOL     OW10204   6.227   4.652   2.166
 3102SOL    HW110205   6.308   4.702   2.198
 3102SOL    HW210206   6.198   4.688   2.078
 3103SOL     OW10207   2.391   1.879   1.576
 3103SOL    HW110208   2.308   1.887   1.631
 3103SOL    HW210209   2.367   1.848   1.484
 3104SOL     OW10210   5.712   2.788   5.079
 3104SOL    HW110211   5.664   2.848   5.143
 3104SOL    HW210212   5.735   2.702   5.125
 3105SOL     OW10213   5.818   3.620   0.461
 3105SOL    HW110214   5.773   3.585   0.379
 3105SOL    HW210215   5.915   3.637   0.442
 3106SOL     OW10216   5.108   1.743   5.325
 3106SOL    HW110217   5.038   1.674   5.341
 3106SOL    HW210218   5.191   1.719   5.376
 3107SOL     OW10219   3.075   2.109   5.467
 3107SOL    HW110220   3.165   2.141   5.436
 3107SOL    HW210221   3.013   2.105   5.389
 3108SOL     OW10222   2.317   4.267   3.240
 3108SOL    HW110223   2.279   4.179   3.210
 3108SOL    HW210224   2.272   4.296   3.324
 3109SOL     OW10225   6.890   6.758   3.747
 3109SOL    HW110226   6.868   6.851   3.775
 3109SOL    HW210227   6.969   6.759   3.686
 3110SOL     OW10228   0.856   5.687   3.168
 3110SOL    HW110229   0.783   5.620   3.153
 3110SOL    HW210230   0.842   5.766   3.108
 3111SOL     OW10231   6.095   4.039   4.231
 3111SOL    HW110232   6.080   4.133   4.202
 3111SOL    HW210233   6.012   4.005   4.276
 3112SOL     OW10234   3.839   1.290   6.690
 3112SOL    HW110235   3.815   1.238   6.772
 3112SOL    HW210236   3.757   1.328   6.649
 3113SOL     OW10237   1.180   6.469   3.156
 3113SOL    HW110238   1.250   6.460   3.226
 3113SOL    HW210239   1.216   6.520   3.079
 3114SOL     OW10240   4.764   0.409   5.943
 3114SOL    HW110241   4.750   0.418   5.845
 3114SOL    HW210242   4.750   0.498   5.987
 3115SOL     OW10243   5.119   5.496   5.363
 3115SOL    HW110244   5.153   5.589   5.380
 3115SOL    HW210245   5.171   5.431   5.419
 3116SOL     OW10246   0.743   1.088   6.607
 3116SOL    HW110247   0.840   1.113   6.615
 3116SOL    HW210248   0.690   1.138   6.676
 3117SOL     OW10249   4.437   0.400   0.578
 3117SOL    HW110250   4.368   0.329   0.581
 3117SOL    HW210251   4.515   0.368   0.523
 3118SOL     OW10252   1.585   1.338   3.297
 3118SOL    HW110253   1.553   1.256   3.250
 3118SOL    HW210254   1.648   1.312   3.371
 3119SOL     OW10255   4.813   5.923   4.640
 3119SOL    HW110256   4.779   5.943   4.548
 3119SOL    HW210257   4.805   6.005   4.697
 3120SOL     OW10258   2.151   5.498   6.301
 3120SOL    HW110259   2.161   5.468   6.206
 3120SOL    HW210260   2.239   5.533   6.333
 3121SOL     OW10261   3.784   2.104   4.555
 3121SOL    HW110262   3.734   2.081   4.472
 3121SOL    HW210263   3.799   2.203   4.559
 3122SOL     OW10264   5.219   4.932   5.822
 3122SOL    HW110265   5.269   4.851   5.790
 3122SOL    HW210266   5.272   4.978   5.893
 3123SOL     OW10267   1.748   1.278   2.796
 3123SOL    HW110268   1.777   1.290   2.890
 3123SOL    HW210269   1.737   1.180   2.776
 3124SOL     OW10270   4.780   0.225   4.613
 3124SOL    HW110271   4.838   0.305   4.597
 3124SOL    HW210272   4.826   0.142   4.582
 3125SOL     OW10273   1.905   1.355   5.699
 3125SOL    HW110274   1.967   1.374   5.775
 3125SOL    HW210275   1.852   1.437   5.678
 3126SOL     OW10276   4.940   4.576   5.790
 3126SOL    HW110277   4.953   4.484   5.752
 3126SOL    HW210278   4.981   4.643   5.727
 3127SOL     OW10279   0.374   1.234   5.253
 3127SOL    HW110280   0.295   1.201   5.201
 3127SOL    HW210281   0.454   1.236   5.193
 3128SOL     OW10282   3.419   0.545   0.759
 3128SOL    HW110283   3.452   0.545   0.665
 3128SOL    HW210284   3.419   0.639   0.794
 3129SOL     OW10285   4.206   4.025   0.193
 3129SOL    HW110286   4.172   3.953   0.255
 3129SOL    HW210287   4.175   4.006   0.100
 3130SOL     OW10288   0.020   5.592   2.148
 3130SOL    HW110289   7.013   5.660   2.079
 3130SOL    HW210290   7.014   5.628   2.239
 3131SOL     OW10291   6.273   4.318   3.230
 3131SOL    HW110292   6.316   4.407   3.243
 3131SOL    HW210293   6.341   4.252   3.198
 3132SOL     OW10294   4.854   3.912   0.279
 3132SOL    HW110295   4.916   3.856   0.334
 3132SOL    HW210296   4.773   3.936   0.332
 3133SOL     OW10297   4.745   6.923   4.399
 3133SOL    HW110298   4.702   7.003   4.356
 3133SOL    HW210299   4.839   6.946   4.426
 3134SOL     OW10300   6.238   5.102   2.645
 3134SOL    HW110301   6.267   5.133   2.736
 3134SOL    HW210302   6.302   5.033   2.612
 3135SOL     OW10303   3.925   5.101   6.845
 3135SOL    HW110304   3.931   5.199   6.866
 3135SOL    HW210305   3.954   5.086   6.751
 3136SOL     OW10306   5.859   0.482   3.489
 3136SOL    HW110307   5.767   0.508   3.518
 3136SOL    HW210308   5.920   0.479   3.568
 3137SOL     OW10309   5.011   6.247   0.444
 3137SOL    HW110310   4.920   6.288   0.432
 3137SOL    HW210311   5.015   6.161   0.393
 3138SOL     OW10312   6.654   6.585   5.002
 3138SOL    HW110313   6.669   6.580   4.903
 3138SOL    HW210314   6.568   6.539   5.025
 3139SOL     OW10315   2.276   4.894   1.692
 3139SOL    HW110316   2.336   4.883   1.612
 3139SOL    HW210317   2.323   4.947   1.762
 3140SOL     OW10318   0.265   6.651   6.927
 3140SOL    HW110319   0.348   6.691   6.888
 3140SOL    HW210320   0.285   6.612   7.017
 3141SOL     OW10321   5.611   2.013   6.597
 3141SOL    HW110322   5.589   1.944   6.666
 3141SOL    HW210323   5.603   2.104   6.637
 3142SOL     OW10324   4.674   0.994   3.806
 3142SOL    HW110325   4.734   0.927   3.763
 3142SOL    HW210326   4.579   0.960   3.804
 3143SOL     OW10327   6.577   1.314   0.758
 3143SOL    HW110328   6.670   1.344   0.735
 3143SOL    HW210329   6.527   1.389   0.800
 3144SOL     OW10330   3.726   4.588   0.255
 3144SOL    HW110331   3.783   4.656   0.302
 3144SOL    HW210332   3.781   4.507   0.233
 3145SOL     OW10333   0.686   6.081   0.039
 3145SOL    HW110334   0.785   6.072   0.038
 3145SOL    HW210335   0.655   6.092   0.134
 3146SOL     OW10336   6.497   1.681   4.486
 3146SOL    HW110337   6.575   1.652   4.541
 3146SOL    HW210338   6.530   1.716   4.398
 3147SOL     OW10339   3.945   6.281   0.251
 3147SOL    HW110340   4.005   6.320   0.181
 3147SOL    HW210341   3.916   6.190   0.223
 3148SOL     OW10342   6.918   5.122   1.563
 3148SOL    HW110343   6.920   5.220   1.545
 3148SOL    HW210344   6.996   5.078   1.516
 3149SOL     OW10345   3.429   2.401   0.107
 3149SOL    HW110346   3.450   2.465   0.033
 3149SOL    HW210347   3.359   2.441   0.166
 3150SOL     OW10348   0.197   6.370   5.701
 3150SOL    HW110349   0.191   6.462   5.663
 3150SOL    HW210350   0.152   6.367   5.790
 3151SOL     OW10351   0.004   1.006   5.336
 3151SOL    HW110352   7.000   1.002   5.239
 3151SOL    HW210353   0.072   0.937   5.359
 3152SOL     OW10354   1.383   2.808   5.346
 3152SOL    HW110355   1.444   2.835   5.272
 3152SOL    HW210356   1.288   2.806   5.313
 3153SOL     OW10357   5.729   5.688   1.939
 3153SOL    HW110358   5.709   5.633   1.858
 3153SOL    HW210359   5.667   5.766   1.942
 3154SOL     OW10360   4.222   1.259   0.376
 3154SOL    HW110361   4.168   1.326   0.426
 3154SOL    HW210362   4.171   1.173   0.368
 3155SOL     OW10363   0.794   5.040   0.229
 3155SOL    HW110364   0.863   5.062   0.160
 3155SOL    HW210365   0.706   5.022   0.184
 3156SOL     OW10366   3.929   4.201   1.219
 3156SOL    HW110367   3.941   4.238   1.127
 3156SOL    HW210368   4.011   4.151   1.246
 3157SOL     OW10369   1.167   0.747   4.988
 3157SOL    HW110370   1.200   0.838   5.012
 3157SOL    HW210371   1.230   0.705   4.921
 3158SOL     OW10372   1.754   1.166   5.797
 3158SOL    HW110373   1.685   1.134   5.732
 3158SOL    HW210374   1.805   1.242   5.757
 3159SOL     OW10375   5.018   0.398   0.338
 3159SOL    HW110376   5.086   0.385   0.411
 3159SOL    HW210377   5.045   0.476   0.281
 3160SOL     OW10378   1.960   0.461   5.520
 3160SOL    HW110379   2.019   0.541   5.520
 3160SOL    HW210380   1.933   0.439   5.427
 3161SOL     OW10381   2.023   3.108   2.196
 3161SOL    HW110382   2.093   3.050   2.155
 3161SOL    HW210383   2.038   3.203   2.170
 3162SOL     OW10384   1.164   5.260   1.514
 3162SOL    HW110385   1.086   5.304   1.559
 3162SOL    HW210386   1.130   5.191   1.450
 3163SOL     OW10387   4.550   4.537   0.653
 3163SOL    HW110388   4.612   4.559   0.728
 3163SOL    HW210389   4.584   4.578   0.568
 3164SOL     OW10390   2.661   6.621   3.433
 3164SOL    HW110391   2.743   6.565   3.435
 3164SOL    HW210392   2.662   6.683   3.512
 3165SOL     OW10393   1.393   5.861   6.215
 3165SOL    HW110394   1.373   5.836   6.310
 3165SOL    HW210395   1.318   5.829   6.157
 3166SOL     OW10396   5.089   1.269   4.994
 3166SOL    HW110397   5.119   1.198   4.931
 3166SOL    HW210398   5.169   1.310   5.038
 3167SOL     OW10399   5.580   3.146   1.266
 3167SOL    HW110400   5.609   3.173   1.174
 3167SOL    HW210401   5.596   3.222   1.329
 3168SOL     OW10402   4.414   1.714   0.525
 3168SOL    HW110403   4.438   1.637   0.465
 3168SOL    HW210404   4.467   1.794   0.498
 3169SOL     OW10405   1.871   4.557   1.873
 3169SOL    HW110406   1.897   4.513   1.787
 3169SOL    HW210407   1.832   4.648   1.854
 3170SOL     OW10408   2.124   3.737   3.628
 3170SOL    HW110409   2.184   3.746   3.548
 3170SOL    HW210410   2.030   3.721   3.597
 3171SOL     OW10411   5.031   1.851   3.626
 3171SOL    HW110412   5.062   1.784   3.693
 3171SOL    HW210413   5.062   1.824   3.534
 3172SOL     OW10414   5.557   4.370   1.847
 3172SOL    HW110415   5.526   4.416   1.764
 3172SOL    HW210416   5.496   4.294   1.869
 3173SOL     OW10417   4.987   2.782   0.661
 3173SOL    HW110418   4.977   2.690   0.621
 3173SOL    HW210419   5.028   2.774   0.752
 3174SOL     OW10420   3.245   2.516   6.090
 3174SOL    HW110421   3.224   2.586   6.159
 3174SOL    HW210422   3.160   2.487   6.045
 3175SOL     OW10423   5.581   0.434   5.655
 3175SOL    HW110424   5.561   0.364   5.588
 3175SOL    HW210425   5.498   0.487   5.675
 3176SOL     OW10426   0.343   4.892   3.635
 3176SOL    HW110427   0.264   4.938   3.595
 3176SOL    HW210428   0.365   4.933   3.723
 3177SOL     OW10429   5.475   3.338   3.386
 3177SOL    HW110430   5.377   3.346   3.366
 3177SOL    HW210431   5.489   3.332   3.484
 3178SOL     OW10432   0.299   1.008   2.344
 3178SOL    HW110433   0.201   1.027   2.352
 3178SOL    HW210434   0.344   1.027   2.431
 3179SOL     OW10435   1.309   2.765   2.326
 3179SOL    HW110436   1.287   2.802   2.416
 3179SOL    HW210437   1.225   2.758   2.271
 3180SOL     OW10438   0.141   5.751   0.196
 3180SOL    HW110439   0.190   5.826   0.151
 3180SOL    HW210440   0.130   5.772   0.293
 3181SOL     OW10441   1.404   6.516   5.273
 3181SOL    HW110442   1.406   6.490   5.177
 3181SOL    HW210443   1.467   6.458   5.325
 3182SOL     OW10444   2.139   0.472   1.245
 3182SOL    HW110445   2.162   0.374   1.246
 3182SOL    HW210446   2.213   0.524   1.287
 3183SOL     OW10447   4.082   2.868   1.318
 3183SOL    HW110448   4.057   2.965   1.324
 3183SOL    HW210449   4.180   2.860   1.301
 3184SOL     OW10450   6.543   1.872   4.274
 3184SOL    HW110451   6.626   1.842   4.227
 3184SOL    HW210452   6.464   1.856   4.215
 3185SOL     OW10453   0.495   5.905   6.320
 3185SOL    HW110454   0.557   5.984   6.312
 3185SOL    HW210455   0.487   5.860   6.231
 3186SOL     OW10456   0.460   2.360   6.393
 3186SOL    HW110457   0.396   2.290   6.360
 3186SOL    HW210458   0.457   2.439   6.332
 3187SOL     OW10459   5.034   6.272   3.016
 3187SOL    HW110460   4.977   6.212   3.072
 3187SOL    HW210461   4.983   6.301   2.936
 3188SOL     OW10462   1.863   5.997   6.930
 3188SOL    HW110463   1.822   6.080   6.891
 3188SOL    HW210464   1.843   5.992   0.010
 3189SOL     OW10465   3.232   1.197   5.409
 3189SOL    HW110466   3.206   1.203   5.505
 3189SOL    HW210467   3.153   1.170   5.354
 3190SOL     OW10468   5.899   6.334   4.372
 3190SOL    HW110469   5.814   6.368   4.413
 3190SOL    HW210470   5.907   6.236   4.387
 3191SOL     OW10471   3.613   5.658   1.004
 3191SOL    HW110472   3.709   5.629   0.995
 3191SOL    HW210473   3.562   5.628   0.924
 3192SOL     OW10474   5.646   1.287   2.542
 3192SOL    HW110475   5.723   1.306   2.481
 3192SOL    HW210476   5.564   1.269   2.488
 3193SOL     OW10477   3.433   6.979   4.837
 3193SOL    HW110478   3.365   0.019   4.791
 3193SOL    HW210479   3.394   6.942   4.922
 3194SOL     OW10480   1.985   0.191   6.554
 3194SOL    HW110481   1.896   0.163   6.518
 3194SOL    HW210482   2.057   0.146   6.502
 3195SOL     OW10483   0.975   1.379   1.106
 3195SOL    HW110484   1.000   1.322   1.184
 3195SOL    HW210485   0.877   1.399   1.109
 3196SOL     OW10486   5.389   6.613   3.531
 3196SOL    HW110487   5.337   6.660   3.602
 3196SOL    HW210488   5.481   6.592   3.565
 3197SOL     OW10489   2.585   0.511   6.492
 3197SOL    HW110490   2.536   0.536   6.576
 3197SOL    HW210491   2.643   0.432   6.509
 3198SOL     OW10492   5.283   2.987   3.683
 3198SOL    HW110493   5.283   2.922   3.607
 3198SOL    HW210494   5.271   2.938   3.769
 3199SOL     OW10495   5.272   3.709   2.550
 3199SOL    HW110496   5.325   3.790   2.524
 3199SOL    HW210497   5.332   3.631   2.561
 3200SOL     OW10498   5.195   3.691   3.998
 3200SOL    HW110499   5.252   3.763   4.038
 3200SOL    HW210500   5.221   3.677   3.903
 3201SOL     OW10501   6.077   4.184   2.287
 3201SOL    HW110502   6.096   4.238   2.205
 3201SOL    HW210503   6.142   4.207   2.359
 3202SOL     OW10504   2.550   3.403   6.766
 3202SOL    HW110505   2.490   3.438   6.838
 3202SOL    HW210506   2.645   3.419   6.792
 3203SOL     OW10507   3.187   6.849   1.323
 3203SOL    HW110508   3.219   6.754   1.327
 3203SOL    HW210509   3.234   6.897   1.249
 3204SOL     OW10510   3.642   1.604   4.045
 3204SOL    HW110511   3.605   1.511   4.035
 3204SOL    HW210512   3.570   1.671   4.026
 3205SOL     OW10513   4.846   3.338   6.114
 3205SOL    HW110514   4.942   3.311   6.100
 3205SOL    HW210515   4.810   3.294   6.196
 3206SOL     OW10516   2.731   3.754   1.276
 3206SOL    HW110517   2.830   3.753   1.288
 3206SOL    HW210518   2.686   3.733   1.362
 3207SOL     OW10519   2.193   5.276   5.241
 3207SOL    HW110520   2.282   5.271   5.287
 3207SOL    HW210521   2.186   5.201   5.175
 3208SOL     OW10522   6.850   4.965   6.270
 3208SOL    HW110523   6.840   5.019   6.354
 3208SOL    HW210524   6.943   4.928   6.265
 3209SOL     OW10525   5.238   5.815   6.154
 3209SOL    HW110526   5.291   5.888   6.198
 3209SOL    HW210527   5.181   5.854   6.082
 3210SOL     OW10528   5.527   5.873   1.933
 3210SOL    HW110529   5.542   5.931   2.014
 3210SOL    HW210530   5.460   5.802   1.956
 3211SOL     OW10531   2.008   6.140   6.512
 3211SOL    HW110532   1.921   6.102   6.480
 3211SOL    HW210533   2.059   6.176   6.435
 3212SOL     OW10534   2.166   6.956   3.201
 3212SOL    HW110535   2.208   0.001   3.136
 3212SOL    HW210536   2.147   6.868   3.157
 3213SOL     OW10537   1.275   6.511   6.076
 3213SOL    HW110538   1.176   6.502   6.084
 3213SOL    HW210539   1.304   6.595   6.124
 3214SOL     OW10540   3.622   0.874   2.808
 3214SOL    HW110541   3.596   0.838   2.719
 3214SOL    HW210542   3.543   0.874   2.869
 3215SOL     OW10543   1.684   3.313   1.947
 3215SOL    HW110544   1.585   3.317   1.957
 3215SOL    HW210545   1.725   3.394   1.988
 3216SOL     OW10546   6.072   4.865   1.041
 3216SOL    HW110547   6.008   4.940   1.026
 3216SOL    HW210548   6.077   4.844   1.139
 3217SOL     OW10549   6.846   6.159   2.196
 3217SOL    HW110550   6.798   6.125   2.116
 3217SOL    HW210551   6.806   6.247   2.223
 3218SOL     OW10552   5.353   1.180   3.021
 3218SOL    HW110553   5.345   1.086   3.054
 3218SOL    HW210554   5.271   1.231   3.048
 3219SOL     OW10555   6.528   1.265   4.794
 3219SOL    HW110556   6.571   1.325   4.862
 3219SOL    HW210557   6.518   1.173   4.832
 3220SOL     OW10558   0.173   4.135   5.962
 3220SOL    HW110559   0.242   4.064   5.951
 3220SOL    HW210560   0.170   4.164   6.058
 3221SOL     OW10561   3.148   1.566   2.035
 3221SOL    HW110562   3.124   1.477   1.995
 3221SOL    HW210563   3.103   1.575   2.124
 3222SOL     OW10564   3.088   1.234   3.841
 3222SOL    HW110565   2.994   1.265   3.824
 3222SOL    HW210566   3.103   1.225   3.939
 3223SOL     OW10567   1.654   5.340   0.314
 3223SOL    HW110568   1.667   5.413   0.247
 3223SOL    HW210569   1.561   5.303   0.306
 3224SOL     OW10570   3.783   1.896   3.976
 3224SOL    HW110571   3.835   1.827   3.925
 3224SOL    HW210572   3.816   1.900   4.070
 3225SOL     OW10573   4.231   1.581   4.224
 3225SOL    HW110574   4.241   1.482   4.233
 3225SOL    HW210575   4.302   1.617   4.164
 3226SOL     OW10576   5.598   0.389   0.530
 3226SOL    HW110577   5.503   0.362   0.514
 3226SOL    HW210578   5.606   0.488   0.524
 3227SOL     OW10579   5.571   4.636   5.196
 3227SOL    HW110580   5.629   4.561   5.226
 3227SOL    HW210581   5.600   4.666   5.105
 3228SOL     OW10582   2.237   4.391   0.236
 3228SOL    HW110583   2.195   4.441   0.160
 3228SOL    HW210584   2.328   4.360   0.209
 3229SOL     OW10585   1.692   2.191   0.477
 3229SOL    HW110586   1.705   2.229   0.385
 3229SOL    HW210587   1.690   2.266   0.543
 3230SOL     OW10588   2.848   6.344   5.420
 3230SOL    HW110589   2.897   6.293   5.349
 3230SOL    HW210590   2.908   6.356   5.499
 3231SOL     OW10591   1.810   2.021   2.739
 3231SOL    HW110592   1.884   1.978   2.688
 3231SOL    HW210593   1.825   2.120   2.742
 3232SOL     OW10594   3.475   4.961   4.364
 3232SOL    HW110595   3.438   4.898   4.294
 3232SOL    HW210596   3.402   4.987   4.426
 3233SOL     OW10597   0.773   1.084   0.366
 3233SOL    HW110598   0.757   0.997   0.412
 3233SOL    HW210599   0.834   1.069   0.288
 3234SOL     OW10600   2.953   2.674   1.105
 3234SOL    HW110601   3.050   2.666   1.082
 3234SOL    HW210602   2.903   2.710   1.026
 3235SOL     OW10603   1.292   0.221   3.476
 3235SOL    HW110604   1.301   0.121   3.468
 3235SOL    HW210605   1.275   0.260   3.386
 3236SOL     OW10606   4.480   1.471   0.368
 3236SOL    HW110607   4.538   1.398   0.404
 3236SOL    HW210608   4.392   1.432   0.341
 3237SOL     OW10609   5.720   1.875   5.343
 3237SOL    HW110610   5.640   1.830   5.382
 3237SOL    HW210611   5.803   1.827   5.372
 3238SOL     OW10612   6.711   4.775   1.608
 3238SOL    HW110613   6.713   4.854   1.669
 3238SOL    HW210614   6.663   4.700   1.652
 3239SOL     OW10615   6.636   0.268   4.671
 3239SOL    HW110616   6.570   0.217   4.727
 3239SOL    HW210617   6.726   0.224   4.677
 3240SOL     OW10618   6.925   0.474   0.174
 3240SOL    HW110619   6.952   0.566   0.203
 3240SOL    HW210620   6.827   0.474   0.155
 3241SOL     OW10621   6.412   2.947   5.495
 3241SOL    HW110622   6.402   2.862   5.547
 3241SOL    HW210623   6.504   2.984   5.510
 3242SOL     OW10624   6.149   3.784   4.746
 3242SOL    HW110625   6.071   3.813   4.690
 3242SOL    HW210626   6.130   3.806   4.842
 3243SOL     OW10627   6.054   4.322   4.376
 3243SOL    HW110628   6.151   4.305   4.360
 3243SOL    HW210629   6.042   4.378   4.458
 3244SOL     OW10630   4.966   0.245   7.016
 3244SOL    HW110631   5.057   0.237   0.038
 3244SOL    HW210632   4.957   0.179   6.941
 3245SOL     OW10633   3.716   6.836   5.206
 3245SOL    HW110634   3.770   6.873   5.131
 3245SOL    HW210635   3.757   6.751   5.239
 3246SOL     OW10636   0.095   0.569   2.693
 3246SOL    HW110637   0.144   0.653   2.718
 3246SOL    HW210638   0.150   0.518   2.627
 3247SOL     OW10639   0.608   3.939   3.776
 3247SOL    HW110640   0.640   4.033   3.774
 3247SOL    HW210641   0.554   3.921   3.694
 3248SOL     OW10642   5.325   2.141   3.544
 3248SOL    HW110643   5.257   2.131   3.618
 3248SOL    HW210644   5.366   2.053   3.524
 3249SOL     OW10645   3.297   4.051   3.631
 3249SOL    HW110646   3.288   4.103   3.716
 3249SOL    HW210647   3.365   3.979   3.643
 3250SOL     OW10648   4.684   5.465   2.402
 3250SOL    HW110649   4.689   5.544   2.342
 3250SOL    HW210650   4.700   5.382   2.349
 3251SOL     OW10651   2.479   1.643   3.063
 3251SOL    HW110652   2.509   1.671   2.972
 3251SOL    HW210653   2.543   1.574   3.099
 3252SOL     OW10654   1.933   0.744   2.862
 3252SOL    HW110655   2.028   0.725   2.887
 3252SOL    HW210656   1.905   0.684   2.787
 3253SOL     OW10657   6.426   3.621   0.295
 3253SOL    HW110658   6.366   3.699   0.313
 3253SOL    HW210659   6.400   3.578   0.208
 3254SOL     OW10660   6.094   6.795   0.773
 3254SOL    HW110661   5.997   6.807   0.794
 3254SOL    HW210662   6.112   6.699   0.751
 3255SOL     OW10663   4.936   6.373   1.328
 3255SOL    HW110664   4.997   6.437   1.375
 3255SOL    HW210665   4.945   6.283   1.370
 3256SOL     OW10666   4.976   2.855   1.374
 3256SOL    HW110667   5.019   2.769   1.346
 3256SOL    HW210668   4.876   2.846   1.366
 3257SOL     OW10669   2.711   1.506   3.129
 3257SOL    HW110670   2.751   1.576   3.070
 3257SOL    HW210671   2.781   1.440   3.155
 3258SOL     OW10672   2.279   5.231   3.909
 3258SOL    HW110673   2.194   5.179   3.913
 3258SOL    HW210674   2.263   5.317   3.860
 3259SOL     OW10675   5.096   4.065   4.169
 3259SOL    HW110676   5.005   4.058   4.128
 3259SOL    HW210677   5.160   4.010   4.115
 3260SOL     OW10678   1.557   4.535   3.190
 3260SOL    HW110679   1.562   4.455   3.249
 3260SOL    HW210680   1.466   4.539   3.148
 3261SOL     OW10681   5.419   0.045   4.034
 3261SOL    HW110682   5.359   0.110   3.986
 3261SOL    HW210683   5.376   0.017   4.120
 3262SOL     OW10684   2.760   1.600   3.687
 3262SOL    HW110685   2.685   1.552   3.732
 3262SOL    HW210686   2.767   1.571   3.592
 3263SOL     OW10687   0.197   0.821   2.719
 3263SOL    HW110688   0.108   0.843   2.679
 3263SOL    HW210689   0.213   0.880   2.798
 3264SOL     OW10690   1.565   4.724   6.482
 3264SOL    HW110691   1.587   4.817   6.511
 3264SOL    HW210692   1.480   4.695   6.525
 3265SOL     OW10693   6.566   5.477   6.616
 3265SOL    HW110694   6.646   5.528   6.588
 3265SOL    HW210695   6.579   5.380   6.595
 3266SOL     OW10696   3.365   5.094   6.294
 3266SOL    HW110697   3.278   5.077   6.248
 3266SOL    HW210698   3.378   5.193   6.304
 3267SOL     OW10699   3.281   0.052   0.311
 3267SOL    HW110700   3.231   7.000   0.364
 3267SOL    HW210701   3.372   0.064   0.351
 3268SOL     OW10702   5.997   5.540   1.943
 3268SOL    HW110703   5.920   5.603   1.950
 3268SOL    HW210704   6.034   5.522   2.034
 3269SOL     OW10705   1.572   4.473   1.153
 3269SOL    HW110706   1.520   4.530   1.090
 3269SOL    HW210707   1.627   4.532   1.213
 3270SOL     OW10708   0.990   2.566   5.536
 3270SOL    HW110709   1.077   2.522   5.513
 3270SOL    HW210710   0.950   2.606   5.454
 3271SOL     OW10711   0.954   3.359   2.065
 3271SOL    HW110712   1.001   3.447   2.074
 3271SOL    HW210713   1.008   3.298   2.007
 3272SOL     OW10714   4.256   6.289   0.881
 3272SOL    HW110715   4.168   6.328   0.908
 3272SOL    HW210716   4.240   6.206   0.828
 3273SOL     OW10717   4.312   3.719   6.333
 3273SOL    HW110718   4.319   3.645   6.266
 3273SOL    HW210719   4.285   3.803   6.287
 3274SOL     OW10720   5.633   0.032   1.773
 3274SOL    HW110721   5.720   0.073   1.745
 3274SOL    HW210722   5.566   0.042   1.700
 3275SOL     OW10723   4.757   0.535   1.725
 3275SOL    HW110724   4.781   0.443   1.758
 3275SOL    HW210725   4.672   0.532   1.673
 3276SOL     OW10726   5.154   0.042   0.335
 3276SOL    HW110727   5.131   0.077   0.426
 3276SOL    HW210728   5.225   0.099   0.295
 3277SOL     OW10729   3.259   2.089   2.308
 3277SOL    HW110730   3.359   2.086   2.300
 3277SOL    HW210731   3.234   2.115   2.401
 3278SOL     OW10732   5.961   0.917   6.407
 3278SOL    HW110733   6.057   0.892   6.396
 3278SOL    HW210734   5.909   0.885   6.328
 3279SOL     OW10735   3.239   0.200   1.911
 3279SOL    HW110736   3.195   0.280   1.953
 3279SOL    HW210737   3.205   0.117   1.954
 3280SOL     OW10738   6.197   3.519   4.183
 3280SOL    HW110739   6.182   3.614   4.208
 3280SOL    HW210740   6.200   3.462   4.265
 3281SOL     OW10741   5.599   3.425   1.752
 3281SOL    HW110742   5.523   3.487   1.732
 3281SOL    HW210743   5.581   3.376   1.837
 3282SOL     OW10744   0.085   5.096   4.681
 3282SOL    HW110745   0.066   5.193   4.691
 3282SOL    HW210746   0.180   5.078   4.707
 3283SOL     OW10747   3.509   1.823   0.602
 3283SOL    HW110748   3.548   1.835   0.693
 3283SOL    HW210749   3.465   1.733   0.596
 3284SOL     OW10750   2.245   6.036   4.177
 3284SOL    HW110751   2.257   5.949   4.129
 3284SOL    HW210752   2.322   6.051   4.239
 3285SOL     OW10753   3.575   1.992   4.979
 3285SOL    HW110754   3.481   2.022   4.961
 3285SOL    HW210755   3.626   1.991   4.893
 3286SOL     OW10756   1.709   2.103   2.285
 3286SOL    HW110757   1.761   2.184   2.313
 3286SOL    HW210758   1.751   2.022   2.325
 3287SOL     OW10759   2.162   0.313   0.507
 3287SOL    HW110760   2.186   0.286   0.599
 3287SOL    HW210761   2.203   0.250   0.441
 3288SOL     OW10762   2.702   6.167   1.980
 3288SOL    HW110763   2.748   6.236   2.036
 3288SOL    HW210764   2.732   6.176   1.885
 3289SOL     OW10765   4.429   0.813   6.411
 3289SOL    HW110766   4.468   0.898   6.374
 3289SOL    HW210767   4.499   0.741   6.410
 3290SOL     OW10768   0.567   6.036   0.261
 3290SOL    HW110769   0.612   6.069   0.344
 3290SOL    HW210770   0.471   6.016   0.282
 3291SOL     OW10771   4.828   0.083   4.952
 3291SOL    HW110772   4.772   0.166   4.960
 3291SOL    HW210773   4.882   0.088   4.869
 3292SOL     OW10774   6.958   2.270   0.796
 3292SOL    HW110775   0.035   2.305   0.799
 3292SOL    HW210776   6.900   2.327   0.854
 3293SOL     OW10777   5.919   5.996   4.138
 3293SOL    HW110778   5.966   6.059   4.077
 3293SOL    HW210779   5.846   5.949   4.089
 3294SOL     OW10780   5.124   2.850   5.535
 3294SOL    HW110781   5.107   2.889   5.626
 3294SOL    HW210782   5.071   2.900   5.467
 3295SOL     OW10783   0.504   2.167   2.413
 3295SOL    HW110784   0.514   2.261   2.380
 3295SOL    HW210785   0.595   2.125   2.423
 3296SOL     OW10786   1.631   0.619   5.938
 3296SOL    HW110787   1.691   0.670   6.000
 3296SOL    HW210788   1.676   0.608   5.849
 3297SOL     OW10789   3.419   1.200   4.919
 3297SOL    HW110790   3.436   1.262   4.996
 3297SOL    HW210791   3.354   1.130   4.947
 3298SOL     OW10792   5.158   3.514   6.166
 3298SOL    HW110793   5.074   3.491   6.116
 3298SOL    HW210794   5.195   3.600   6.131
 3299SOL     OW10795   2.672   4.580   3.882
 3299SOL    HW110796   2.616   4.511   3.927
 3299SOL    HW210797   2.672   4.664   3.936
 3300SOL     OW10798   1.909   6.544   4.085
 3300SOL    HW110799   2.003   6.575   4.100
 3300SOL    HW210800   1.880   6.571   3.993
 3301SOL     OW10801   0.870   1.178   3.363
 3301SOL    HW110802   0.851   1.137   3.452
 3301SOL    HW210803   0.968   1.173   3.344
 3302SOL     OW10804   1.371   5.034   5.310
 3302SOL    HW110805   1.309   4.960   5.285
 3302SOL    HW210806   1.465   5.000   5.311
 3303SOL     OW10807   3.281   3.194   0.300
 3303SOL    HW110808   3.306   3.193   0.397
 3303SOL    HW210809   3.278   3.100   0.265
 3304SOL     OW10810   2.792   4.436   0.090
 3304SOL    HW110811   2.815   4.498   0.165
 3304SOL    HW210812   2.854   4.451   0.014
 3305SOL     OW10813   3.290   3.045   0.790
 3305SOL    HW110814   3.216   3.037   0.857
 3305SOL    HW210815   3.375   3.064   0.838
 3306SOL     OW10816   2.332   0.717   6.902
 3306SOL    HW110817   2.265   0.766   6.958
 3306SOL    HW210818   2.424   0.739   6.934
 3307SOL     OW10819   1.014   6.511   5.370
 3307SOL    HW110820   0.915   6.515   5.357
 3307SOL    HW210821   1.054   6.445   5.307
 3308SOL     OW10822   4.195   4.867   1.042
 3308SOL    HW110823   4.170   4.935   0.973
 3308SOL    HW210824   4.177   4.904   1.134
 3309SOL     OW10825   5.717   2.835   3.070
 3309SOL    HW110826   5.773   2.906   3.112
 3309SOL    HW210827   5.623   2.841   3.103
 3310SOL     OW10828   6.388   4.639   6.162
 3310SOL    HW110829   6.383   4.713   6.229
 3310SOL    HW210830   6.426   4.675   6.076
 3311SOL     OW10831   2.896   3.736   0.563
 3311SOL    HW110832   2.820   3.735   0.627
 3311SOL    HW210833   2.953   3.655   0.577
 3312SOL     OW10834   4.288   2.558   6.021
 3312SOL    HW110835   4.264   2.497   6.096
 3312SOL    HW210836   4.388   2.572   6.020
 3313SOL     OW10837   0.333   0.526   3.665
 3313SOL    HW110838   0.276   0.532   3.583
 3313SOL    HW210839   0.316   0.606   3.723
 3314SOL     OW10840   3.115   5.588   2.322
 3314SOL    HW110841   3.094   5.510   2.264
 3314SOL    HW210842   3.212   5.588   2.345
 3315SOL     OW10843   0.239   5.859   4.519
 3315SOL    HW110844   0.311   5.797   4.550
 3315SOL    HW210845   0.272   5.914   4.443
 3316SOL     OW10846   4.783   2.266   6.753
 3316SOL    HW110847   4.809   2.171   6.769
 3316SOL    HW210848   4.864   2.324   6.760
 3317SOL     OW10849   5.063   2.727   1.970
 3317SOL    HW110850   5.131   2.777   2.025
 3317SOL    HW210851   5.085   2.629   1.971
 3318SOL     OW10852   3.252   2.885   0.565
 3318SOL    HW110853   3.262   2.927   0.656
 3318SOL    HW210854   3.338   2.894   0.515
 3319SOL     OW10855   6.490   5.576   3.376
 3319SOL    HW110856   6.426   5.543   3.445
 3319SOL    HW210857   6.525   5.666   3.404
 3320SOL     OW10858   6.529   6.769   1.739
 3320SOL    HW110859   6.531   6.679   1.782
 3320SOL    HW210860   6.572   6.764   1.649
 3321SOL     OW10861   4.807   1.889   0.354
 3321SOL    HW110862   4.838   1.888   0.449
 3321SOL    HW210863   4.845   1.968   0.307
 3322SOL     OW10864   6.214   3.322   0.768
 3322SOL    HW110865   6.121   3.337   0.734
 3322SOL    HW210866   6.211   3.270   0.854
 3323SOL     OW10867   1.314   2.153   1.488
 3323SOL    HW110868   1.307   2.129   1.585
 3323SOL    HW210869   1.406   2.130   1.455
 3324SOL     OW10870   5.358   5.761   5.441
 3324SOL    HW110871   5.449   5.721   5.429
 3324SOL    HW210872   5.309   5.711   5.512
 3325SOL     OW10873   2.392   4.233   5.564
 3325SOL    HW110874   2.435   4.220   5.475
 3325SOL    HW210875   2.295   4.251   5.553
 3326SOL     OW10876   4.285   1.570   2.380
 3326SOL    HW110877   4.264   1.634   2.453
 3326SOL    HW210878   4.200   1.524   2.351
 3327SOL     OW10879   0.627   4.981   6.377
 3327SOL    HW110880   0.700   4.967   6.443
 3327SOL    HW210881   0.665   4.975   6.284
 3328SOL     OW10882   4.571   2.529   5.957
 3328SOL    HW110883   4.626   2.501   6.036
 3328SOL    HW210884   4.618   2.601   5.907
 3329SOL     OW10885   6.588   6.079   5.641
 3329SOL    HW110886   6.594   6.069   5.542
 3329SOL    HW210887   6.679   6.087   5.680
 3330SOL     OW10888   0.200   3.565   2.678
 3330SOL    HW110889   0.152   3.477   2.673
 3330SOL    HW210890   0.133   3.639   2.681
 3331SOL     OW10891   2.052   3.685   0.446
 3331SOL    HW110892   1.974   3.639   0.404
 3331SOL    HW210893   2.033   3.783   0.454
 3332SOL     OW10894   6.347   4.645   1.714
 3332SOL    HW110895   6.300   4.730   1.688
 3332SOL    HW210896   6.393   4.659   1.802
 3333SOL     OW10897   3.884   5.403   6.625
 3333SOL    HW110898   3.945   5.336   6.582
 3333SOL    HW210899   3.793   5.396   6.584
 3334SOL     OW10900   2.102   4.136   1.478
 3334SOL    HW110901   2.019   4.190   1.489
 3334SOL    HW210902   2.179   4.184   1.520
 3335SOL     OW10903   6.180   4.112   4.625
 3335SOL    HW110904   6.221   4.069   4.545
 3335SOL    HW210905   6.235   4.092   4.706
 3336SOL     OW10906   2.487   6.115   5.650
 3336SOL    HW110907   2.546   6.060   5.592
 3336SOL    HW210908   2.492   6.081   5.744
 3337SOL     OW10909   3.896   1.712   0.284
 3337SOL    HW110910   3.974   1.756   0.330
 3337SOL    HW210911   3.931   1.649   0.214
 3338SOL     OW10912   6.767   4.270   0.219
 3338SOL    HW110913   6.689   4.314   0.175
 3338SOL    HW210914   6.754   4.271   0.319
 3339SOL     OW10915   0.522   5.836   6.055
 3339SOL    HW110916   0.593   5.883   6.005
 3339SOL    HW210917   0.437   5.888   6.050
 3340SOL     OW10918   3.667   6.534   1.651
 3340SOL    HW110919   3.707   6.483   1.727
 3340SOL    HW210920   3.699   6.628   1.654
 3341SOL     OW10921   0.839   0.160   2.116
 3341SOL    HW110922   0.852   0.096   2.192
 3341SOL    HW210923   0.895   0.241   2.131
 3342SOL     OW10924   2.475   6.988   4.220
 3342SOL    HW110925   2.534   0.022   4.157
 3342SOL    HW210926   2.524   6.907   4.252
 3343SOL     OW10927   6.266   2.365   1.276
 3343SOL    HW110928   6.210   2.310   1.337
 3343SOL    HW210929   6.282   2.455   1.316
 3344SOL     OW10930   6.776   3.289   5.171
 3344SOL    HW110931   6.835   3.297   5.251
 3344SOL    HW210932   6.716   3.369   5.166
 3345SOL     OW10933   2.910   3.801   6.062
 3345SOL    HW110934   3.008   3.811   6.083
 3345SOL    HW210935   2.856   3.816   6.145
 3346SOL     OW10936   1.775   5.876   2.177
 3346SOL    HW110937   1.765   5.798   2.115
 3346SOL    HW210938   1.854   5.931   2.149
 3347SOL     OW10939   5.676   4.044   4.562
 3347SOL    HW110940   5.610   4.001   4.624
 3347SOL    HW210941   5.750   4.084   4.615
 3348SOL     OW10942   4.073   3.406   2.856
 3348SOL    HW110943   4.059   3.368   2.948
 3348SOL    HW210944   4.098   3.502   2.864
 3349SOL     OW10945   6.197   3.577   5.404
 3349SOL    HW110946   6.214   3.493   5.353
 3349SOL    HW210947   6.268   3.643   5.383
 3350SOL     OW10948   1.659   2.184   1.006
 3350SOL    HW110949   1.562   2.174   1.031
 3350SOL    HW210950   1.711   2.214   1.087
 3351SOL     OW10951   5.424   2.068   1.447
 3351SOL    HW110952   5.488   2.133   1.488
 3351SOL    HW210953   5.475   1.993   1.405
 3352SOL     OW10954   0.579   3.486   0.467
 3352SOL    HW110955   0.677   3.492   0.487
 3352SOL    HW210956   0.541   3.404   0.509
 3353SOL     OW10957   1.928   6.700   6.343
 3353SOL    HW110958   2.019   6.660   6.345
 3353SOL    HW210959   1.930   6.786   6.291
 3354SOL     OW10960   0.946   1.277   2.653
 3354SOL    HW110961   0.933   1.286   2.751
 3354SOL    HW210962   0.914   1.187   2.623
 3355SOL     OW10963   6.863   2.039   2.699
 3355SOL    HW110964   6.868   1.971   2.625
 3355SOL    HW210965   6.767   2.064   2.714
 3356SOL     OW10966   2.301   3.425   6.139
 3356SOL    HW110967   2.322   3.452   6.045
 3356SOL    HW210968   2.316   3.503   6.201
 3357SOL     OW10969   2.084   5.304   1.973
 3357SOL    HW110970   2.184   5.312   1.982
 3357SOL    HW210971   2.040   5.356   2.046
 3358SOL     OW10972   5.678   4.495   2.821
 3358SOL    HW110973   5.679   4.493   2.721
 3358SOL    HW210974   5.735   4.570   2.853
 3359SOL     OW10975   0.972   1.241   1.733
 3359SOL    HW110976   0.949   1.224   1.829
 3359SOL    HW210977   1.056   1.192   1.710
 3360SOL     OW10978   1.554   0.295   6.530
 3360SOL    HW110979   1.479   0.338   6.480
 3360SOL    HW210980   1.628   0.272   6.467
 3361SOL     OW10981   5.019   0.585   2.858
 3361SOL    HW110982   4.997   0.640   2.938
 3361SOL    HW210983   5.103   0.619   2.815
 3362SOL     OW10984   1.978   1.581   5.370
 3362SOL    HW110985   2.064   1.529   5.370
 3362SOL    HW210986   1.945   1.590   5.464
 3363SOL     OW10987   0.143   1.042   6.929
 3363SOL    HW110988   0.108   0.962   6.977
 3363SOL    HW210989   0.223   1.078   6.976
 3364SOL     OW10990   2.033   4.660   5.655
 3364SOL    HW110991   2.117   4.626   5.697
 3364SOL    HW210992   2.032   4.760   5.660
 3365SOL     OW10993   5.976   1.946   5.889
 3365SOL    HW110994   6.010   1.878   5.955
 3365SOL    HW210995   5.923   1.900   5.818
 3366SOL     OW10996   5.385   1.099   5.962
 3366SOL    HW110997   5.467   1.108   5.905
 3366SOL    HW210998   5.326   1.179   5.948
 3367SOL     OW10999   1.136   0.628   2.282
 3367SOL    HW111000   1.079   0.689   2.227
 3367SOL    HW211001   1.117   0.533   2.257
 3368SOL     OW11002   6.605   0.316   5.914
 3368SOL    HW111003   6.600   0.228   5.961
 3368SOL    HW211004   6.523   0.370   5.936
 3369SOL     OW11005   3.483   6.606   5.651
 3369SOL    HW111006   3.541   6.528   5.672
 3369SOL    HW211007   3.538   6.690   5.647
 3370SOL     OW11008   4.724   0.339   4.962
 3370SOL    HW111009   4.679   0.304   5.045
 3370SOL    HW211010   4.656   0.353   4.891
 3371SOL     OW11011   0.178   5.073   1.777
 3371SOL    HW111012   0.117   5.005   1.736
 3371SOL    HW211013   0.251   5.095   1.712
 3372SOL     OW11014   0.406   1.760   2.150
 3372SOL    HW111015   0.497   1.784   2.185
 3372SOL    HW211016   0.336   1.797   2.210
 3373SOL     OW11017   0.598   2.077   5.473
 3373SOL    HW111018   0.637   2.131   5.547
 3373SOL    HW211019   0.556   1.994   5.510
 3374SOL     OW11020   3.414   5.199   5.236
 3374SOL    HW111021   3.373   5.220   5.148
 3374SOL    HW211022   3.360   5.241   5.309
 3375SOL     OW11023   4.329   4.005   5.334
 3375SOL    HW111024   4.422   4.014   5.297
 3375SOL    HW211025   4.279   4.091   5.320
 3376SOL     OW11026   2.951   3.739   2.240
 3376SOL    HW111027   3.020   3.780   2.179
 3376SOL    HW211028   2.877   3.804   2.255
 3377SOL     OW11029   2.641   5.921   5.527
 3377SOL    HW111030   2.683   5.910   5.436
 3377SOL    HW211031   2.634   5.832   5.571
 3378SOL     OW11032   0.774   1.740   1.064
 3378SOL    HW111033   0.857   1.700   1.104
 3378SOL    HW211034   0.733   1.804   1.129
 3379SOL     OW11035   1.098   4.540   6.804
 3379SOL    HW111036   1.052   4.585   6.881
 3379SOL    HW211037   1.086   4.595   6.721
 3380SOL     OW11038   0.800   3.640   5.807
 3380SOL    HW111039   0.810   3.560   5.747
 3380SOL    HW211040   0.834   3.619   5.898
 3381SOL     OW11041   3.571   3.109   0.928
 3381SOL    HW111042   3.601   3.014   0.921
 3381SOL    HW211043   3.650   3.169   0.935
 3382SOL     OW11044   6.399   6.763   0.755
 3382SOL    HW111045   6.379   6.853   0.794
 3382SOL    HW211046   6.457   6.712   0.818
 3383SOL     OW11047   6.567   4.748   3.032
 3383SOL    HW111048   6.619   4.823   3.072
 3383SOL    HW211049   6.627   4.690   2.977
 3384SOL     OW11050   3.264   3.116   4.454
 3384SOL    HW111051   3.251   3.099   4.552
 3384SOL    HW211052   3.326   3.047   4.417
 3385SOL     OW11053   6.114   3.779   3.326
 3385SOL    HW111054   6.179   3.804   3.255
 3385SOL    HW211055   6.151   3.703   3.379
 3386SOL     OW11056   6.182   4.490   4.838
 3386SOL    HW111057   6.177   4.414   4.902
 3386SOL    HW211058   6.248   4.558   4.871
 3387SOL     OW11059   2.889   1.925   3.111
 3387SOL    HW111060   2.863   1.880   3.025
 3387SOL    HW211061   2.910   2.021   3.093
 3388SOL     OW11062   5.335   2.812   2.244
 3388SOL    HW111063   5.368   2.821   2.150
 3388SOL    HW211064   5.253   2.866   2.257
 3389SOL     OW11065   5.748   4.359   3.483
 3389SOL    HW111066   5.791   4.284   3.433
 3389SOL    HW211067   5.688   4.410   3.420
 3390SOL     OW11068   4.987   3.091   5.627
 3390SOL    HW111069   5.002   3.175   5.679
 3390SOL    HW211070   4.894   3.058   5.645
 3391SOL     OW11071   3.500   1.810   3.953
 3391SOL    HW111072   3.403   1.830   3.962
 3391SOL    HW211073   3.554   1.890   3.982
 3392SOL     OW11074   4.509   5.754   3.730
 3392SOL    HW111075   4.572   5.680   3.753
 3392SOL    HW211076   4.537   5.837   3.779
 3393SOL     OW11077   6.219   0.073   6.931
 3393SOL    HW111078   6.150   0.010   6.896
 3393SOL    HW211079   6.212   0.160   6.883
 3394SOL     OW11080   5.887   2.631   1.836
 3394SOL    HW111081   5.946   2.701   1.878
 3394SOL    HW211082   5.803   2.674   1.804
 3395SOL     OW11083   1.524   3.480   4.707
 3395SOL    HW111084   1.597   3.436   4.760
 3395SOL    HW211085   1.542   3.578   4.700
 3396SOL     OW11086   0.734   4.425   3.938
 3396SOL    HW111087   0.770   4.419   4.031
 3396SOL    HW211088   0.660   4.493   3.935
 3397SOL     OW11089   3.857   6.498   6.001
 3397SOL    HW111090   3.954   6.515   5.985
 3397SOL    HW211091   3.807   6.584   5.993
 3398SOL     OW11092   0.080   6.513   4.340
 3398SOL    HW111093   0.025   6.535   4.420
 3398SOL    HW211094   0.156   6.454   4.367
 3399SOL     OW11095   4.257   5.263   5.023
 3399SOL    HW111096   4.326   5.229   4.959
 3399SOL    HW211097   4.188   5.192   5.038
 3400SOL     OW11098   5.047   2.483   6.885
 3400SOL    HW111099   5.091   2.565   6.920
 3400SOL    HW211100   5.064   2.475   6.787
 3401SOL     OW11101   6.293   5.262   0.224
 3401SOL    HW111102   6.382   5.226   0.251
 3401SOL    HW211103   6.262   5.329   0.291
 3402SOL     OW11104   4.884   5.803   2.076
 3402SOL    HW111105   4.854   5.720   2.029
 3402SOL    HW211106   4.805   5.850   2.115
 3403SOL     OW11107   3.100   0.901   5.296
 3403SOL    HW111108   3.086   0.872   5.201
 3403SOL    HW211109   3.063   0.993   5.307
 3404SOL     OW11110   4.305   0.658   0.987
 3404SOL    HW111111   4.268   0.602   1.061
 3404SOL    HW211112   4.242   0.734   0.967
 3405SOL     OW11113   5.954   3.990   0.434
 3405SOL    HW111114   6.043   4.033   0.445
 3405SOL    HW211115   5.919   3.964   0.524
 3406SOL     OW11116   1.378   4.595   2.120
 3406SOL    HW111117   1.468   4.559   2.093
 3406SOL    HW211118   1.308   4.559   2.059
 3407SOL     OW11119   1.699   5.738   2.401
 3407SOL    HW111120   1.606   5.755   2.432
 3407SOL    HW211121   1.729   5.813   2.342
 3408SOL     OW11122   5.119   4.281   3.213
 3408SOL    HW111123   5.201   4.279   3.155
 3408SOL    HW211124   5.043   4.239   3.164
 3409SOL     OW11125   3.121   0.309   5.556
 3409SOL    HW111126   3.060   0.357   5.493
 3409SOL    HW211127   3.072   0.232   5.598
 3410SOL     OW11128   6.727   6.974   6.782
 3410SOL    HW111129   6.714   6.932   6.692
 3410SOL    HW211130   6.822   6.962   6.811
 3411SOL     OW11131   5.142   2.482   2.025
 3411SOL    HW111132   5.189   2.441   2.103
 3411SOL    HW211133   5.183   2.448   1.940
 3412SOL     OW11134   4.226   4.316   0.710
 3412SOL    HW111135   4.206   4.237   0.652
 3412SOL    HW211136   4.285   4.286   0.786
 3413SOL     OW11137   4.018   2.135   2.488
 3413SOL    HW111138   3.933   2.129   2.540
 3413SOL    HW211139   3.998   2.167   2.395
 3414SOL     OW11140   2.773   2.062   5.472
 3414SOL    HW111141   2.684   2.022   5.447
 3414SOL    HW211142   2.779   2.155   5.437
 3415SOL     OW11143   0.063   5.236   3.917
 3415SOL    HW111144   0.128   5.209   3.846
 3415SOL    HW211145   6.989   5.249   3.876
 3416SOL     OW11146   1.695   4.322   5.507
 3416SOL    HW111147   1.745   4.334   5.593
 3416SOL    HW211148   1.744   4.367   5.433
 3417SOL     OW11149   5.867   0.249   2.773
 3417SOL    HW111150   5.948   0.192   2.784
 3417SOL    HW211151   5.858   0.309   2.852
 3418SOL     OW11152   3.087   1.109   6.069
 3418SOL    HW111153   2.989   1.117   6.049
 3418SOL    HW211154   3.109   1.012   6.085
 3419SOL     OW11155   4.288   4.552   0.561
 3419SOL    HW111156   4.379   4.579   0.592
 3419SOL    HW211157   4.257   4.473   0.614
 3420SOL     OW11158   3.626   2.112   4.232
 3420SOL    HW111159   3.586   2.121   4.141
 3420SOL    HW211160   3.696   2.041   4.231
 3421SOL     OW11161   6.924   6.138   4.779
 3421SOL    HW111162   6.908   6.124   4.876
 3421SOL    HW211163   7.001   6.201   4.767
 3422SOL     OW11164   3.065   1.362   1.661
 3422SOL    HW111165   3.151   1.352   1.711
 3422SOL    HW211166   2.999   1.411   1.719
 3423SOL     OW11167   2.326   0.402   0.962
 3423SOL    HW111168   2.385   0.347   1.021
 3423SOL    HW211169   2.292   0.480   1.013
 3424SOL     OW11170   4.386   1.345   3.000
 3424SOL    HW111171   4.298   1.298   3.012
 3424SOL    HW211172   4.450   1.283   2.954
 3425SOL     OW11173   4.451   4.564   1.685
 3425SOL    HW111174   4.526   4.529   1.741
 3425SOL    HW211175   4.370   4.507   1.698
 3426SOL     OW11176   4.541   3.682   0.376
 3426SOL    HW111177   4.496   3.711   0.460
 3426SOL    HW211178   4.511   3.740   0.300
 3427SOL     OW11179   0.262   1.868   6.690
 3427SOL    HW111180   0.198   1.820   6.629
 3427SOL    HW211181   0.210   1.924   6.755
 3428SOL     OW11182   4.517   4.372   2.734
 3428SOL    HW111183   4.449   4.388   2.806
 3428SOL    HW211184   4.576   4.295   2.760
 3429SOL     OW11185   1.237   3.101   6.628
 3429SOL    HW111186   1.233   3.011   6.671
 3429SOL    HW211187   1.254   3.170   6.698
 3430SOL     OW11188   1.256   7.008   0.233
 3430SOL    HW111189   1.247   0.073   0.177
 3430SOL    HW211190   1.170   6.957   0.233
 3431SOL     OW11191   0.741   5.819   0.548
 3431SOL    HW111192   0.762   5.871   0.630
 3431SOL    HW211193   0.669   5.752   0.568
 3432SOL     OW11194   3.277   1.500   6.343
 3432SOL    HW111195   3.291   1.403   6.323
 3432SOL    HW211196   3.247   1.548   6.261
 3433SOL     OW11197   3.931   0.921   5.065
 3433SOL    HW111198   4.001   0.851   5.080
 3433SOL    HW211199   3.946   0.965   4.976
 3434SOL     OW11200   4.341   2.157   2.297
 3434SOL    HW111201   4.394   2.079   2.329
 3434SOL    HW211202   4.299   2.204   2.374
 3435SOL     OW11203   0.276   0.941   0.584
 3435SOL    HW111204   0.331   0.927   0.666
 3435SOL    HW211205   0.259   1.039   0.572
 3436SOL     OW11206   3.800   6.687   3.889
 3436SOL    HW111207   3.773   6.662   3.982
 3436SOL    HW211208   3.719   6.698   3.832
 3437SOL     OW11209   3.959   0.050   6.426
 3437SOL    HW111210   4.001   7.002   6.363
 3437SOL    HW211211   3.908   0.000   6.497
 3438SOL     OW11212   1.441   3.063   6.453
 3438SOL    HW111213   1.397   3.056   6.364
 3438SOL    HW211214   1.371   3.068   6.525
 3439SOL     OW11215   2.679   5.731   3.454
 3439SOL    HW111216   2.646   5.639   3.435
 3439SOL    HW211217   2.752   5.754   3.389
 3440SOL     OW11218   5.030   2.802   0.938
 3440SOL    HW111219   4.957   2.735   0.946
 3440SOL    HW211220   5.003   2.887   0.983
 3441SOL     OW11221   2.735   0.536   3.859
 3441SOL    HW111222   2.676   0.609   3.894
 3441SOL    HW211223   2.809   0.518   3.924
 3442SOL     OW11224   2.192   5.064   3.115
 3442SOL    HW111225   2.178   5.160   3.140
 3442SOL    HW211226   2.155   5.047   3.024
 3443SOL     OW11227   5.489   0.901   3.895
 3443SOL    HW111228   5.522   0.954   3.973
 3443SOL    HW211229   5.466   0.808   3.926
 3444SOL     OW11230   4.334   5.215   0.167
 3444SOL    HW111231   4.299   5.139   0.221
 3444SOL    HW211232   4.323   5.300   0.218
 3445SOL     OW11233   6.359   4.074   4.833
 3445SOL    HW111234   6.441   4.018   4.828
 3445SOL    HW211235   6.376   4.152   4.893
 3446SOL     OW11236   3.465   6.812   3.241
 3446SOL    HW111237   3.565   6.805   3.247
 3446SOL    HW211238   3.426   6.720   3.239
 3447SOL     OW11239   5.695   5.677   6.299
 3447SOL    HW111240   5.760   5.747   6.328
 3447SOL    HW211241   5.640   5.712   6.223
 3448SOL     OW11242   3.768   2.002   0.807
 3448SOL    HW111243   3.773   2.018   0.708
 3448SOL    HW211244   3.717   1.917   0.823
 3449SOL     OW11245   6.561   6.017   3.661
 3449SOL    HW111246   6.577   5.980   3.753
 3449SOL    HW211247   6.531   6.113   3.668
 3450SOL     OW11248   1.004   1.697   1.217
 3450SOL    HW111249   0.977   1.787   1.249
 3450SOL    HW211250   0.999   1.632   1.293
 3451SOL     OW11251   1.285   5.770   4.624
 3451SOL    HW111252   1.245   5.679   4.635
 3451SOL    HW211253   1.230   5.838   4.673
 3452SOL     OW11254   6.033   2.037   0.016
 3452SOL    HW111255   5.940   2.020   0.048
 3452SOL    HW211256   6.062   1.961   6.975
 3453SOL     OW11257   5.560   5.774   5.170
 3453SOL    HW111258   5.481   5.828   5.143
 3453SOL    HW211259   5.643   5.816   5.133
 3454SOL     OW11260   0.726   0.833   0.461
 3454SOL    HW111261   0.706   0.787   0.547
 3454SOL    HW211262   0.790   0.778   0.407
 3455SOL     OW11263   1.636   2.509   4.290
 3455SOL    HW111264   1.557   2.524   4.232
 3455SOL    HW211265   1.707   2.460   4.239
 3456SOL     OW11266   6.043   6.970   1.855
 3456SOL    HW111267   5.997   0.035   1.888
 3456SOL    HW211268   6.099   6.932   1.928
 3457SOL     OW11269   2.331   5.277   2.726
 3457SOL    HW111270   2.398   5.311   2.792
 3457SOL    HW211271   2.241   5.317   2.745
 3458SOL     OW11272   5.429   5.846   0.875
 3458SOL    HW111273   5.401   5.908   0.949
 3458SOL    HW211274   5.354   5.836   0.810
 3459SOL     OW11275   6.592   6.032   3.914
 3459SOL    HW111276   6.662   6.096   3.946
 3459SOL    HW211277   6.502   6.065   3.941
 3460SOL     OW11278   4.405   3.196   6.479
 3460SOL    HW111279   4.449   3.191   6.568
 3460SOL    HW211280   4.345   3.276   6.475
 3461SOL     OW11281   3.496   6.082   3.020
 3461SOL    HW111282   3.446   6.006   2.980
 3461SOL    HW211283   3.540   6.135   2.947
 3462SOL     OW11284   5.207   3.428   3.337
 3462SOL    HW111285   5.211   3.470   3.427
 3462SOL    HW211286   5.159   3.340   3.343
 3463SOL     OW11287   2.033   2.832   1.041
 3463SOL    HW111288   2.019   2.845   0.943
 3463SOL    HW211289   1.946   2.812   1.086
 3464SOL     OW11290   4.769   2.695   6.838
 3464SOL    HW111291   4.806   2.788   6.835
 3464SOL    HW211292   4.843   2.630   6.854
 3465SOL     OW11293   2.115   3.695   2.168
 3465SOL    HW111294   2.112   3.598   2.189
 3465SOL    HW211295   2.207   3.720   2.137
 3466SOL     OW11296   6.091   5.079   3.988
 3466SOL    HW111297   6.006   5.126   3.966
 3466SOL    HW211298   6.116   5.096   4.083
 3467SOL     OW11299   3.432   2.559   1.248
 3467SOL    HW111300   3.519   2.564   1.199
 3467SOL    HW211301   3.413   2.646   1.293
 3468SOL     OW11302   3.648   1.779   0.864
 3468SOL    HW111303   3.706   1.701   0.884
 3468SOL    HW211304   3.568   1.778   0.925
 3469SOL     OW11305   4.648   6.597   5.784
 3469SOL    HW111306   4.602   6.513   5.815
 3469SOL    HW211307   4.580   6.666   5.761
 3470SOL     OW11308   0.420   2.944   1.710
 3470SOL    HW111309   0.505   2.971   1.756
 3470SOL    HW211310   0.372   3.027   1.680
 3471SOL     OW11311   4.956   3.283   3.792
 3471SOL    HW111312   4.864   3.268   3.830
 3471SOL    HW211313   4.950   3.337   3.709
 3472SOL     OW11314   4.179   1.475   3.693
 3472SOL    HW111315   4.153   1.559   3.645
 3472SOL    HW211316   4.274   1.483   3.724
 3473SOL     OW11317   0.284   4.410   1.950
 3473SOL    HW111318   0.254   4.499   1.984
 3473SOL    HW211319   0.325   4.358   2.025
 3474SOL     OW11320   5.884   5.169   4.211
 3474SOL    HW111321   5.800   5.128   4.247
 3474SOL    HW211322   5.957   5.159   4.278
 3475SOL     OW11323   6.786   3.904   4.235
 3475SOL    HW111324   6.725   3.976   4.268
 3475SOL    HW211325   6.779   3.897   4.135
 3476SOL     OW11326   1.012   0.850   3.460
 3476SOL    HW111327   1.058   0.908   3.393
 3476SOL    HW211328   0.952   0.906   3.516
 3477SOL     OW11329   0.769   4.348   1.496
 3477SOL    HW111330   0.825   4.387   1.569
 3477SOL    HW211331   0.768   4.248   1.503
 3478SOL     OW11332   2.275   0.567   0.474
 3478SOL    HW111333   2.243   0.472   0.473
 3478SOL    HW211334   2.353   0.575   0.536
 3479SOL     OW11335   1.531   4.128   4.063
 3479SOL    HW111336   1.540   4.047   4.006
 3479SOL    HW211337   1.563   4.108   4.156
 3480SOL     OW11338   1.654   4.935   6.610
 3480SOL    HW111339   1.638   4.868   6.683
 3480SOL    HW211340   1.625   5.025   6.641
 3481SOL     OW11341   6.462   0.818   5.374
 3481SOL    HW111342   6.425   0.768   5.452
 3481SOL    HW211343   6.514   0.898   5.407
 3482SOL     OW11344   6.153   4.054   5.071
 3482SOL    HW111345   6.173   3.956   5.067
 3482SOL    HW211346   6.235   4.105   5.044
 3483SOL     OW11347   4.791   2.987   4.655
 3483SOL    HW111348   4.714   2.937   4.617
 3483SOL    HW211349   4.877   2.947   4.622
 3484SOL     OW11350   2.036   3.279   4.979
 3484SOL    HW111351   2.083   3.271   4.892
 3484SOL    HW211352   2.065   3.206   5.041
 3485SOL     OW11353   0.502   2.141   6.063
 3485SOL    HW111354   0.524   2.178   6.153
 3485SOL    HW211355   0.452   2.209   6.010
 3486SOL     OW11356   2.172   6.799   4.492
 3486SOL    HW111357   2.108   6.785   4.569
 3486SOL    HW211358   2.147   6.883   4.444
 3487SOL     OW11359   5.103   1.197   6.787
 3487SOL    HW111360   5.151   1.149   6.860
 3487SOL    HW211361   5.011   1.221   6.817
 3488SOL     OW11362   6.126   0.551   4.365
 3488SOL    HW111363   6.140   0.586   4.272
 3488SOL    HW211364   6.060   0.477   4.363
 3489SOL     OW11365   3.157   6.812   0.403
 3489SOL    HW111366   3.166   6.735   0.465
 3489SOL    HW211367   3.099   6.882   0.444
 3490SOL     OW11368   3.860   5.382   0.118
 3490SOL    HW111369   3.898   5.385   0.026
 3490SOL    HW211370   3.771   5.427   0.119
 3491SOL     OW11371   4.971   4.418   6.578
 3491SOL    HW111372   5.023   4.334   6.590
 3491SOL    HW211373   4.951   4.431   6.480
 3492SOL     OW11374   6.073   4.385   2.785
 3492SOL    HW111375   6.047   4.375   2.881
 3492SOL    HW211376   6.123   4.470   2.772
 3493SOL     OW11377   5.687   3.419   4.783
 3493SOL    HW111378   5.638   3.338   4.753
 3493SOL    HW211379   5.666   3.436   4.880
 3494SOL     OW11380   4.567   1.482   1.939
 3494SOL    HW111381   4.658   1.521   1.927
 3494SOL    HW211382   4.521   1.526   2.016
 3495SOL     OW11383   0.902   2.694   2.721
 3495SOL    HW111384   0.978   2.666   2.663
 3495SOL    HW211385   0.869   2.616   2.774
 3496SOL     OW11386   5.739   5.378   1.423
 3496SOL    HW111387   5.704   5.471   1.408
 3496SOL    HW211388   5.832   5.372   1.388
 3497SOL     OW11389   3.491   0.759   2.552
 3497SOL    HW111390   3.503   0.718   2.461
 3497SOL    HW211391   3.410   0.818   2.551
 3498SOL     OW11392   2.349   1.709   1.319
 3498SOL    HW111393   2.431   1.660   1.289
 3498SOL    HW211394   2.282   1.711   1.245
 3499SOL     OW11395   6.383   5.395   5.709
 3499SOL    HW111396   6.433   5.326   5.762
 3499SOL    HW211397   6.359   5.358   5.620
 3500SOL     OW11398   1.356   2.141   4.060
 3500SOL    HW111399   1.291   2.177   4.127
 3500SOL    HW211400   1.399   2.217   4.011
 3501SOL     OW11401   1.532   0.051   5.746
 3501SOL    HW111402   1.435   0.029   5.736
 3501SOL    HW211403   1.544   0.150   5.749
 3502SOL     OW11404   4.864   3.021   2.196
 3502SOL    HW111405   4.833   2.953   2.263
 3502SOL    HW211406   4.819   3.006   2.109
 3503SOL     OW11407   6.526   6.183   6.913
 3503SOL    HW111408   6.505   6.280   6.912
 3503SOL    HW211409   6.617   6.167   6.874
 3504SOL     OW11410   1.582   1.193   1.052
 3504SOL    HW111411   1.656   1.251   1.018
 3504SOL    HW211412   1.556   1.129   0.980
 3505SOL     OW11413   5.967   4.867   6.580
 3505SOL    HW111414   5.967   4.966   6.590
 3505SOL    HW211415   5.892   4.840   6.519
 3506SOL     OW11416   5.070   4.754   4.775
 3506SOL    HW111417   5.105   4.660   4.783
 3506SOL    HW211418   4.994   4.755   4.709
 3507SOL     OW11419   3.020   6.262   0.682
 3507SOL    HW111420   2.992   6.344   0.632
 3507SOL    HW211421   3.115   6.270   0.710
 3508SOL     OW11422   2.943   2.468   5.299
 3508SOL    HW111423   2.953   2.558   5.343
 3508SOL    HW211424   3.030   2.441   5.259
 3509SOL     OW11425   4.228   5.334   6.576
 3509SOL    HW111426   4.202   5.242   6.545
 3509SOL    HW211427   4.185   5.353   6.664
 3510SOL     OW11428   2.935   0.757   1.003
 3510SOL    HW111429   3.010   0.799   1.054
 3510SOL    HW211430   2.850   0.807   1.020
 3511SOL     OW11431   2.540   4.736   1.690
 3511SOL    HW111432   2.516   4.653   1.740
 3511SOL    HW211433   2.607   4.789   1.742
 3512SOL     OW11434   0.643   4.164   6.642
 3512SOL    HW111435   0.596   4.251   6.626
 3512SOL    HW211436   0.665   4.155   6.739
 3513SOL     OW11437   5.767   2.034   0.242
 3513SOL    HW111438   5.763   2.031   0.342
 3513SOL    HW211439   5.809   2.121   0.213
 3514SOL     OW11440   4.192   0.976   2.580
 3514SOL    HW111441   4.259   0.961   2.507
 3514SOL    HW211442   4.174   1.074   2.590
 3515SOL     OW11443   6.254   5.698   4.379
 3515SOL    HW111444   6.174   5.748   4.346
 3515SOL    HW211445   6.231   5.601   4.390
 3516SOL     OW11446   5.030   0.319   0.969
 3516SOL    HW111447   5.038   0.393   1.036
 3516SOL    HW211448   5.094   0.246   0.993
 3517SOL     OW11449   6.190   0.803   0.607
 3517SOL    HW111450   6.166   0.709   0.631
 3517SOL    HW211451   6.228   0.849   0.688
 3518SOL     OW11452   5.410   1.681   5.163
 3518SOL    HW111453   5.465   1.738   5.102
 3518SOL    HW211454   5.359   1.614   5.110
 3519SOL     OW11455   3.343   0.795   0.452
 3519SOL    HW111456   3.371   0.819   0.545
 3519SOL    HW211457   3.247   0.769   0.452
 3520SOL     OW11458   2.738   6.432   4.987
 3520SOL    HW111459   2.789   6.476   5.061
 3520SOL    HW211460   2.802   6.395   4.920
 3521SOL     OW11461   2.912   2.609   0.091
 3521SOL    HW111462   2.959   2.521   0.097
 3521SOL    HW211463   2.895   2.645   0.183
 3522SOL     OW11464   0.010   5.885   6.760
 3522SOL    HW111465   0.058   5.971   6.778
 3522SOL    HW211466   6.998   5.882   6.665
 3523SOL     OW11467   1.204   5.381   5.909
 3523SOL    HW111468   1.296   5.399   5.875
 3523SOL    HW211469   1.140   5.443   5.864
 3524SOL     OW11470   5.261   1.189   3.347
 3524SOL    HW111471   5.237   1.270   3.293
 3524SOL    HW211472   5.358   1.193   3.371
 3525SOL     OW11473   6.162   4.257   3.471
 3525SOL    HW111474   6.091   4.187   3.460
 3525SOL    HW211475   6.202   4.279   3.382
 3526SOL     OW11476   0.912   6.563   2.981
 3526SOL    HW111477   0.851   6.484   2.988
 3526SOL    HW211478   1.007   6.533   2.994
 3527SOL     OW11479   6.833   2.973   5.736
 3527SOL    HW111480   6.780   2.991   5.653
 3527SOL    HW211481   6.894   3.051   5.754
 3528SOL     OW11482   2.495   6.521   4.915
 3528SOL    HW111483   2.516   6.600   4.857
 3528SOL    HW211484   2.579   6.486   4.955
 3529SOL     OW11485   4.932   5.233   0.652
 3529SOL    HW111486   5.014   5.290   0.660
 3529SOL    HW211487   4.936   5.161   0.721
 3530SOL     OW11488   6.982   0.784   2.302
 3530SOL    HW111489   6.976   0.684   2.300
 3530SOL    HW211490   7.009   0.814   2.394
 3531SOL     OW11491   5.325   1.533   1.010
 3531SOL    HW111492   5.266   1.537   0.930
 3531SOL    HW211493   5.419   1.554   0.984
 3532SOL     OW11494   1.901   1.400   2.147
 3532SOL    HW111495   1.872   1.351   2.229
 3532SOL    HW211496   1.884   1.498   2.158
 3533SOL     OW11497   0.085   1.102   3.077
 3533SOL    HW111498   0.002   1.070   3.031
 3533SOL    HW211499   0.088   1.202   3.073
 3534SOL     OW11500   6.848   1.088   1.061
 3534SOL    HW111501   6.887   1.089   0.968
 3534SOL    HW211502   6.768   1.028   1.062
 3535SOL     OW11503   2.727   5.320   5.018
 3535SOL    HW111504   2.629   5.301   5.028
 3535SOL    HW211505   2.771   5.241   4.976
 3536SOL     OW11506   3.555   2.040   2.800
 3536SOL    HW111507   3.527   1.947   2.822
 3536SOL    HW211508   3.508   2.104   2.860
 3537SOL     OW11509   1.782   5.446   2.279
 3537SOL    HW111510   1.775   5.544   2.293
 3537SOL    HW211511   1.691   5.404   2.291
 3538SOL     OW11512   3.181   5.622   4.251
 3538SOL    HW111513   3.185   5.582   4.159
 3538SOL    HW211514   3.227   5.562   4.316
 3539SOL     OW11515   3.709   3.638   4.411
 3539SOL    HW111516   3.624   3.615   4.458
 3539SOL    HW211517   3.693   3.714   4.348
 3540SOL     OW11518   2.075   1.963   3.730
 3540SOL    HW111519   2.012   2.039   3.716
 3540SOL    HW211520   2.078   1.907   3.648
 3541SOL     OW11521   2.955   3.988   5.049
 3541SOL    HW111522   2.967   3.889   5.041
 3541SOL    HW211523   2.875   4.007   5.107
 3542SOL     OW11524   0.692   5.200   1.789
 3542SOL    HW111525   0.737   5.122   1.746
 3542SOL    HW211526   0.719   5.205   1.885
 3543SOL     OW11527   5.667   2.986   4.682
 3543SOL    HW111528   5.618   2.976   4.769
 3543SOL    HW211529   5.738   2.915   4.676
 3544SOL     OW11530   2.168   4.968   6.033
 3544SOL    HW111531   2.210   4.939   6.119
 3544SOL    HW211532   2.120   4.890   5.992
 3545SOL     OW11533   3.971   5.070   6.367
 3545SOL    HW111534   3.897   5.004   6.361
 3545SOL    HW211535   3.991   5.107   6.276
 3546SOL     OW11536   6.292   4.971   3.164
 3546SOL    HW111537   6.328   4.903   3.227
 3546SOL    HW211538   6.194   4.983   3.179
 3547SOL     OW11539   5.334   5.025   4.627
 3547SOL    HW111540   5.264   5.091   4.653
 3547SOL    HW211541   5.331   5.009   4.529
 3548SOL     OW11542   4.738   2.738   5.838
 3548SOL    HW111543   4.800   2.755   5.915
 3548SOL    HW211544   4.754   2.806   5.766
 3549SOL     OW11545   5.784   4.749   2.706
 3549SOL    HW111546   5.820   4.823   2.763
 3549SOL    HW211547   5.859   4.698   2.664
 3550SOL     OW11548   5.856   1.870   2.201
 3550SOL    HW111549   5.953   1.861   2.177
 3550SOL    HW211550   5.825   1.784   2.243
 3551SOL     OW11551   2.805   6.775   3.235
 3551SOL    HW111552   2.776   6.690   3.279
 3551SOL    HW211553   2.870   6.823   3.294
 3552SOL     OW11554   6.322   5.083   2.919
 3552SOL    HW111555   6.414   5.110   2.892
 3552SOL    HW211556   6.325   5.043   3.011
 3553SOL     OW11557   5.301   1.587   2.886
 3553SOL    HW111558   5.324   1.644   2.965
 3553SOL    HW211559   5.375   1.523   2.868
 3554SOL     OW11560   4.333   4.809   6.428
 3554SOL    HW111561   4.308   4.898   6.390
 3554SOL    HW211562   4.337   4.741   6.355
 3555SOL     OW11563   1.234   2.965   3.351
 3555SOL    HW111564   1.272   2.896   3.289
 3555SOL    HW211565   1.275   3.054   3.331
 3556SOL     OW11566   3.490   0.596   6.341
 3556SOL    HW111567   3.477   0.623   6.246
 3556SOL    HW211568   3.404   0.607   6.391
 3557SOL     OW11569   1.385   0.259   5.232
 3557SOL    HW111570   1.367   0.224   5.324
 3557SOL    HW211571   1.319   0.220   5.168
 3558SOL     OW11572   6.821   5.880   1.646
 3558SOL    HW111573   6.868   5.928   1.719
 3558SOL    HW211574   6.887   5.843   1.581
 3559SOL     OW11575   0.660   0.386   5.462
 3559SOL    HW111576   0.644   0.477   5.424
 3559SOL    HW211577   0.710   0.394   5.548
 3560SOL     OW11578   6.969   6.474   1.321
 3560SOL    HW111579   6.940   6.440   1.231
 3560SOL    HW211580   0.050   6.457   1.333
 3561SOL     OW11581   5.122   4.880   5.364
 3561SOL    HW111582   5.064   4.812   5.409
 3561SOL    HW211583   5.180   4.836   5.297
 3562SOL     OW11584   4.881   0.783   3.072
 3562SOL    HW111585   4.956   0.849   3.073
 3562SOL    HW211586   4.854   0.761   3.165
 3563SOL     OW11587   4.669   0.904   2.029
 3563SOL    HW111588   4.597   0.842   1.999
 3563SOL    HW211589   4.652   0.933   2.123
 3564SOL     OW11590   6.896   4.705   3.266
 3564SOL    HW111591   6.955   4.714   3.185
 3564SOL    HW211592   6.899   4.611   3.299
 3565SOL     OW11593   2.310   0.427   5.041
 3565SOL    HW111594   2.381   0.396   5.104
 3565SOL    HW211595   2.352   0.472   4.962
 3566SOL     OW11596   0.326   3.552   5.343
 3566SOL    HW111597   0.385   3.494   5.288
 3566SOL    HW211598   0.381   3.611   5.403
 3567SOL     OW11599   0.175   3.216   1.179
 3567SOL    HW111600   0.114   3.164   1.240
 3567SOL    HW211601   0.147   3.202   1.084
 3568SOL     OW11602   4.739   4.244   3.409
 3568SOL    HW111603   4.753   4.159   3.458
 3568SOL    HW211604   4.795   4.317   3.450
 3569SOL     OW11605   3.820   3.348   3.653
 3569SOL    HW111606   3.848   3.274   3.714
 3569SOL    HW211607   3.746   3.316   3.594
 3570SOL     OW11608   0.253   2.211   5.805
 3570SOL    HW111609   0.203   2.249   5.727
 3570SOL    HW211610   0.337   2.263   5.819
 3571SOL     OW11611   2.161   6.589   4.908
 3571SOL    HW111612   2.134   6.657   4.840
 3571SOL    HW211613   2.145   6.497   4.872
 3572SOL     OW11614   4.942   4.720   2.005
 3572SOL    HW111615   4.882   4.747   2.080
 3572SOL    HW211616   4.915   4.630   1.972
 3573SOL     OW11617   0.037   4.139   3.170
 3573SOL    HW111618   0.103   4.213   3.181
 3573SOL    HW211619   6.996   4.133   3.252
 3574SOL     OW11620   2.013   2.939   5.893
 3574SOL    HW111621   2.048   2.949   5.986
 3574SOL    HW211622   2.009   3.029   5.849
 3575SOL     OW11623   5.418   0.129   0.510
 3575SOL    HW111624   5.447   0.034   0.521
 3575SOL    HW211625   5.410   0.173   0.600
 3576SOL     OW11626   1.471   2.865   1.091
 3576SOL    HW111627   1.403   2.931   1.123
 3576SOL    HW211628   1.424   2.780   1.065
 3577SOL     OW11629   2.887   3.183   5.792
 3577SOL    HW111630   2.958   3.235   5.840
 3577SOL    HW211631   2.923   3.093   5.768
 3578SOL     OW11632   3.142   3.035   6.007
 3578SOL    HW111633   3.075   2.967   5.977
 3578SOL    HW211634   3.118   3.125   5.970
 3579SOL     OW11635   0.735   2.774   2.214
 3579SOL    HW111636   0.685   2.802   2.296
 3579SOL    HW211637   0.773   2.854   2.169
 3580SOL     OW11638   0.588   4.492   1.924
 3580SOL    HW111639   0.600   4.412   1.865
 3580SOL    HW211640   0.504   4.483   1.976
 3581SOL     OW11641   1.656   0.185   2.709
 3581SOL    HW111642   1.734   0.248   2.708
 3581SOL    HW211643   1.580   0.227   2.759
 3582SOL     OW11644   3.583   4.590   6.168
 3582SOL    HW111645   3.540   4.676   6.196
 3582SOL    HW211646   3.591   4.529   6.247
 3583SOL     OW11647   0.544   5.008   0.562
 3583SOL    HW111648   0.627   5.055   0.530
 3583SOL    HW211649   0.559   4.909   0.561
 3584SOL     OW11650   6.269   4.756   4.943
 3584SOL    HW111651   6.200   4.797   4.883
 3584SOL    HW211652   6.334   4.827   4.973
 3585SOL     OW11653   2.734   1.178   2.956
 3585SOL    HW111654   2.755   1.157   3.051
 3585SOL    HW211655   2.783   1.115   2.896
 3586SOL     OW11656   6.338   1.964   4.991
 3586SOL    HW111657   6.287   1.896   5.044
 3586SOL    HW211658   6.304   1.964   4.897
 3587SOL     OW11659   2.939   6.748   6.376
 3587SOL    HW111660   2.988   6.750   6.289
 3587SOL    HW211661   3.002   6.768   6.451
 3588SOL     OW11662   6.398   4.424   4.626
 3588SOL    HW111663   6.328   4.438   4.696
 3588SOL    HW211664   6.456   4.506   4.620
 3589SOL     OW11665   0.155   0.174   5.893
 3589SOL    HW111666   0.212   0.101   5.854
 3589SOL    HW211667   0.059   0.155   5.872
 3590SOL     OW11668   6.792   5.051   0.710
 3590SOL    HW111669   6.775   5.078   0.615
 3590SOL    HW211670   6.850   5.120   0.754
 3591SOL     OW11671   5.640   1.655   6.616
 3591SOL    HW111672   5.602   1.728   6.673
 3591SOL    HW211673   5.730   1.629   6.652
 3592SOL     OW11674   2.105   6.197   1.583
 3592SOL    HW111675   2.154   6.221   1.667
 3592SOL    HW211676   2.016   6.241   1.582
 3593SOL     OW11677   4.522   3.213   5.598
 3593SOL    HW111678   4.452   3.274   5.560
 3593SOL    HW211679   4.478   3.144   5.656
 3594SOL     OW11680   4.470   4.697   5.187
 3594SOL    HW111681   4.437   4.652   5.105
 3594SOL    HW211682   4.558   4.742   5.169
 3595SOL     OW11683   5.522   6.666   5.004
 3595SOL    HW111684   5.489   6.696   4.915
 3595SOL    HW211685   5.611   6.708   5.023
 3596SOL     OW11686   3.798   2.140   3.844
 3596SOL    HW111687   3.891   2.155   3.810
 3596SOL    HW211688   3.791   2.049   3.885
 3597SOL     OW11689   2.328   3.120   5.373
 3597SOL    HW111690   2.393   3.087   5.304
 3597SOL    HW211691   2.346   3.074   5.460
 3598SOL     OW11692   1.306   5.660   5.178
 3598SOL    HW111693   1.223   5.715   5.165
 3598SOL    HW211694   1.346   5.638   5.089
 3599SOL     OW11695   3.642   1.304   4.730
 3599SOL    HW111696   3.587   1.292   4.813
 3599SOL    HW211697   3.735   1.270   4.745
 3600SOL     OW11698   2.972   3.328   0.306
 3600SOL    HW111699   2.924   3.246   0.277
 3600SOL    HW211700   3.015   3.371   0.227
 3601SOL     OW11701   4.806   0.742   4.938
 3601SOL    HW111702   4.817   0.767   5.034
 3601SOL    HW211703   4.708   0.742   4.915
 3602SOL     OW11704   2.087   1.872   1.665
 3602SOL    HW111705   2.056   1.789   1.618
 3602SOL    HW211706   2.059   1.952   1.613
 3603SOL     OW11707   2.793   0.603   5.461
 3603SOL    HW111708   2.782   0.690   5.411
 3603SOL    HW211709   2.858   0.545   5.412
 3604SOL     OW11710   0.079   0.172   3.312
 3604SOL    HW111711   0.079   0.243   3.383
 3604SOL    HW211712   0.058   0.213   3.224
 3605SOL     OW11713   1.345   5.960   3.546
 3605SOL    HW111714   1.349   5.860   3.556
 3605SOL    HW211715   1.365   6.003   3.635
 3606SOL     OW11716   2.892   6.460   2.695
 3606SOL    HW111717   2.839   6.544   2.711
 3606SOL    HW211718   2.938   6.467   2.606
 3607SOL     OW11719   5.639   1.884   2.636
 3607SOL    HW111720   5.727   1.846   2.607
 3607SOL    HW211721   5.601   1.828   2.709
 3608SOL     OW11722   2.800   1.781   6.101
 3608SOL    HW111723   2.876   1.789   6.166
 3608SOL    HW211724   2.715   1.810   6.146
 3609SOL     OW11725   2.471   0.561   4.828
 3609SOL    HW111726   2.416   0.572   4.745
 3609SOL    HW211727   2.522   0.475   4.823
 3610SOL     OW11728   1.646   0.061   5.196
 3610SOL    HW111729   1.737   0.101   5.186
 3610SOL    HW211730   1.579   0.135   5.207
 3611SOL     OW11731   5.523   4.916   3.141
 3611SOL    HW111732   5.524   4.882   3.235
 3611SOL    HW211733   5.498   5.013   3.141
 3612SOL     OW11734   6.208   1.448   0.021
 3612SOL    HW111735   6.298   1.410   7.016
 3612SOL    HW211736   6.163   1.477   6.953
 3613SOL     OW11737   4.356   5.845   2.081
 3613SOL    HW111738   4.332   5.787   2.003
 3613SOL    HW211739   4.290   5.831   2.154
 3614SOL     OW11740   3.617   5.096   6.661
 3614SOL    HW111741   3.641   5.002   6.636
 3614SOL    HW211742   3.593   5.099   6.758
 3615SOL     OW11743   5.819   2.384   5.901
 3615SOL    HW111744   5.869   2.465   5.931
 3615SOL    HW211745   5.807   2.387   5.802
 3616SOL     OW11746   1.172   1.833   6.845
 3616SOL    HW111747   1.153   1.827   6.943
 3616SOL    HW211748   1.180   1.929   6.818
 3617SOL     OW11749   4.013   6.089   5.545
 3617SOL    HW111750   3.983   6.083   5.641
 3617SOL    HW211751   4.098   6.037   5.534
 3618SOL     OW11752   1.370   5.099   4.477
 3618SOL    HW111753   1.396   5.013   4.434
 3618SOL    HW211754   1.428   5.173   4.441
 3619SOL     OW11755   5.567   3.792   1.658
 3619SOL    HW111756   5.565   3.870   1.595
 3619SOL    HW211757   5.653   3.742   1.647
 3620SOL     OW11758   6.108   6.099   5.325
 3620SOL    HW111759   6.082   6.020   5.270
 3620SOL    HW211760   6.061   6.180   5.292
 3621SOL     OW11761   3.042   3.245   3.288
 3621SOL    HW111762   2.965   3.289   3.241
 3621SOL    HW211763   3.070   3.302   3.365
 3622SOL     OW11764   1.513   5.753   6.640
 3622SOL    HW111765   1.519   5.846   6.677
 3622SOL    HW211766   1.518   5.687   6.715
 3623SOL     OW11767   1.152   5.410   6.173
 3623SOL    HW111768   1.054   5.397   6.186
 3623SOL    HW211769   1.180   5.371   6.085
 3624SOL     OW11770   2.508   2.392   1.151
 3624SOL    HW111771   2.548   2.480   1.123
 3624SOL    HW211772   2.509   2.386   1.251
 3625SOL     OW11773   6.793   1.912   0.582
 3625SOL    HW111774   6.875   1.893   0.636
 3625SOL    HW211775   6.730   1.969   0.635
 3626SOL     OW11776   1.444   2.788   5.063
 3626SOL    HW111777   1.415   2.714   5.003
 3626SOL    HW211778   1.544   2.787   5.072
 3627SOL     OW11779   3.516   2.037   2.038
 3627SOL    HW111780   3.598   2.090   2.013
 3627SOL    HW211781   3.504   2.040   2.138
 3628SOL     OW11782   6.472   2.093   1.314
 3628SOL    HW111783   6.409   2.112   1.239
 3628SOL    HW211784   6.559   2.139   1.296
 3629SOL     OW11785   1.160   0.922   3.770
 3629SOL    HW111786   1.073   0.875   3.785
 3629SOL    HW211787   1.174   0.936   3.671
 3630SOL     OW11788   0.180   2.169   2.207
 3630SOL    HW111789   0.092   2.197   2.171
 3630SOL    HW211790   0.192   2.206   2.300
 3631SOL     OW11791   1.777   0.038   2.268
 3631SOL    HW111792   1.682   0.048   2.241
 3631SOL    HW211793   1.836   0.050   2.188
 3632SOL     OW11794   4.579   3.786   1.689
 3632SOL    HW111795   4.624   3.698   1.705
 3632SOL    HW211796   4.638   3.860   1.721
 3633SOL     OW11797   4.001   3.977   6.616
 3633SOL    HW111798   3.922   3.923   6.587
 3633SOL    HW211799   4.015   4.052   6.551
 3634SOL     OW11800   3.473   5.682   6.723
 3634SOL    HW111801   3.486   5.753   6.793
 3634SOL    HW211802   3.535   5.699   6.647
 3635SOL     OW11803   1.346   6.385   2.022
 3635SOL    HW111804   1.363   6.299   2.071
 3635SOL    HW211805   1.254   6.383   1.982
 3636SOL     OW11806   0.569   4.719   6.449
 3636SOL    HW111807   0.618   4.649   6.398
 3636SOL    HW211808   0.593   4.809   6.413
 3637SOL     OW11809   6.161   3.642   0.061
 3637SOL    HW111810   6.130   3.666   0.153
 3637SOL    HW211811   6.082   3.621   0.003
 3638SOL     OW11812   6.504   3.868   3.331
 3638SOL    HW111813   6.593   3.879   3.376
 3638SOL    HW211814   6.504   3.784   3.277
 3639SOL     OW11815   3.439   3.047   3.902
 3639SOL    HW111816   3.492   3.132   3.900
 3639SOL    HW211817   3.469   2.987   3.828
 3640SOL     OW11818   4.521   2.113   1.130
 3640SOL    HW111819   4.508   2.015   1.144
 3640SOL    HW211820   4.480   2.164   1.205
 3641SOL     OW11821   5.934   4.127   2.712
 3641SOL    HW111822   5.893   4.079   2.789
 3641SOL    HW211823   5.990   4.203   2.746
 3642SOL     OW11824   5.682   3.385   6.341
 3642SOL    HW111825   5.619   3.462   6.344
 3642SOL    HW211826   5.639   3.309   6.292
 3643SOL     OW11827   3.940   5.836   5.145
 3643SOL    HW111828   3.918   5.812   5.050
 3643SOL    HW211829   4.037   5.858   5.153
 3644SOL     OW11830   2.757   0.580   1.553
 3644SOL    HW111831   2.772   0.634   1.636
 3644SOL    HW211832   2.845   0.561   1.509
 3645SOL     OW11833   1.320   4.328   3.230
 3645SOL    HW111834   1.338   4.254   3.295
 3645SOL    HW211835   1.377   4.314   3.148
 3646SOL     OW11836   1.458   4.429   5.473
 3646SOL    HW111837   1.547   4.402   5.510
 3646SOL    HW211838   1.423   4.357   5.413
 3647SOL     OW11839   2.867   0.399   6.346
 3647SOL    HW111840   2.938   0.353   6.292
 3647SOL    HW211841   2.838   0.482   6.298
 3648SOL     OW11842   4.351   5.233   3.316
 3648SOL    HW111843   4.392   5.210   3.228
 3648SOL    HW211844   4.424   5.248   3.383
 3649SOL     OW11845   6.318   2.744   0.146
 3649SOL    HW111846   6.219   2.739   0.162
 3649SOL    HW211847   6.338   2.819   0.083
 3650SOL     OW11848   5.311   6.058   0.101
 3650SOL    HW111849   5.345   6.151   0.084
 3650SOL    HW211850   5.354   5.994   0.038
 3651SOL     OW11851   0.837   1.796   5.668
 3651SOL    HW111852   0.790   1.861   5.728
 3651SOL    HW211853   0.907   1.845   5.615
 3652SOL     OW11854   4.127   1.520   1.645
 3652SOL    HW111855   4.161   1.610   1.617
 3652SOL    HW211856   4.175   1.449   1.594
 3653SOL     OW11857   1.249   1.703   1.130
 3653SOL    HW111858   1.150   1.699   1.137
 3653SOL    HW211859   1.288   1.615   1.156
 3654SOL     OW11860   5.131   6.676   1.409
 3654SOL    HW111861   5.034   6.698   1.418
 3654SOL    HW211862   5.160   6.692   1.315
 3655SOL     OW11863   1.499   1.594   3.887
 3655SOL    HW111864   1.539   1.572   3.798
 3655SOL    HW211865   1.573   1.610   3.953
 3656SOL     OW11866   6.910   0.088   1.269
 3656SOL    HW111867   6.977   0.073   1.197
 3656SOL    HW211868   6.828   0.034   1.250
 3657SOL     OW11869   6.004   5.443   5.750
 3657SOL    HW111870   6.085   5.482   5.795
 3657SOL    HW211871   6.034   5.375   5.683
 3658SOL     OW11872   1.846   5.043   5.623
 3658SOL    HW111873   1.806   5.067   5.711
 3658SOL    HW211874   1.936   5.003   5.637
 3659SOL     OW11875   7.016   2.344   5.988
 3659SOL    HW111876   0.029   2.274   6.053
 3659SOL    HW211877   6.942   2.307   5.932
 3660SOL     OW11878   5.577   5.626   6.538
 3660SOL    HW111879   5.601   5.619   6.441
 3660SOL    HW211880   5.594   5.538   6.582
 3661SOL     OW11881   0.231   1.643   4.947
 3661SOL    HW111882   0.158   1.630   5.015
 3661SOL    HW211883   0.306   1.581   4.966
 3662SOL     OW11884   2.663   1.825   5.317
 3662SOL    HW111885   2.563   1.835   5.323
 3662SOL    HW211886   2.691   1.822   5.222
 3663SOL     OW11887   2.719   2.316   6.640
 3663SOL    HW111888   2.703   2.402   6.687
 3663SOL    HW211889   2.780   2.330   6.562
 3664SOL     OW11890   3.707   1.466   1.635
 3664SOL    HW111891   3.713   1.488   1.538
 3664SOL    HW211892   3.611   1.449   1.659
 3665SOL     OW11893   0.980   5.754   5.882
 3665SOL    HW111894   0.928   5.669   5.878
 3665SOL    HW211895   1.017   5.767   5.974
 3666SOL     OW11896   2.172   2.728   4.728
 3666SOL    HW111897   2.206   2.684   4.811
 3666SOL    HW211898   2.224   2.696   4.649
 3667SOL     OW11899   1.884   0.144   1.182
 3667SOL    HW111900   1.808   0.084   1.206
 3667SOL    HW211901   1.849   0.235   1.160
 3668SOL     OW11902   6.702   0.890   0.934
 3668SOL    HW111903   6.670   0.910   0.841
 3668SOL    HW211904   6.741   0.798   0.936
 3669SOL     OW11905   0.869   1.046   3.609
 3669SOL    HW111906   0.879   1.132   3.659
 3669SOL    HW211907   0.785   1.000   3.639
 3670SOL     OW11908   2.760   0.047   1.963
 3670SOL    HW111909   2.808   7.011   1.893
 3670SOL    HW211910   2.788   0.143   1.959
 3671SOL     OW11911   6.651   0.583   4.032
 3671SOL    HW111912   6.728   0.606   4.092
 3671SOL    HW211913   6.684   0.525   3.957
 3672SOL     OW11914   3.640   6.974   3.662
 3672SOL    HW111915   3.635   6.892   3.718
 3672SOL    HW211916   3.548   6.998   3.630
 3673SOL     OW11917   3.348   6.517   0.862
 3673SOL    HW111918   3.374   6.465   0.944
 3673SOL    HW211919   3.431   6.543   0.812
 3674SOL     OW11920   0.947   4.320   6.685
 3674SOL    HW111921   0.958   4.221   6.692
 3674SOL    HW211922   1.032   4.365   6.713
 3675SOL     OW11923   1.205   0.321   3.871
 3675SOL    HW111924   1.152   0.238   3.888
 3675SOL    HW211925   1.263   0.308   3.790
 3676SOL     OW11926   3.643   1.614   4.584
 3676SOL    HW111927   3.617   1.526   4.545
 3676SOL    HW211928   3.611   1.620   4.678
 3677SOL     OW11929   1.921   1.010   4.635
 3677SOL    HW111930   1.851   1.075   4.664
 3677SOL    HW211931   1.890   0.962   4.552
 3678SOL     OW11932   1.244   0.682   4.089
 3678SOL    HW111933   1.161   0.692   4.144
 3678SOL    HW211934   1.220   0.672   3.993
 3679SOL     OW11935   4.373   0.319   2.174
 3679SOL    HW111936   4.336   0.246   2.116
 3679SOL    HW211937   4.383   0.285   2.268
 3680SOL     OW11938   3.185   1.561   4.614
 3680SOL    HW111939   3.251   1.637   4.612
 3680SOL    HW211940   3.205   1.498   4.540
 3681SOL     OW11941   1.067   6.300   4.066
 3681SOL    HW111942   1.142   6.331   4.007
 3681SOL    HW211943   0.989   6.361   4.056
 3682SOL     OW11944   5.210   2.131   1.254
 3682SOL    HW111945   5.278   2.111   1.324
 3682SOL    HW211946   5.226   2.223   1.217
 3683SOL     OW11947   6.089   1.492   6.789
 3683SOL    HW111948   6.099   1.590   6.775
 3683SOL    HW211949   6.016   1.457   6.730
 3684SOL     OW11950   2.231   6.361   5.084
 3684SOL    HW111951   2.155   6.378   5.147
 3684SOL    HW211952   2.195   6.339   4.993
 3685SOL     OW11953   2.129   5.839   4.441
 3685SOL    HW111954   2.192   5.814   4.515
 3685SOL    HW211955   2.171   5.815   4.353
 3686SOL     OW11956   0.292   3.613   1.309
 3686SOL    HW111957   0.353   3.615   1.388
 3686SOL    HW211958   0.324   3.545   1.243
 3687SOL     OW11959   5.800   4.619   4.914
 3687SOL    HW111960   5.787   4.522   4.895
 3687SOL    HW211961   5.713   4.660   4.943
 3688SOL     OW11962   6.483   2.669   0.734
 3688SOL    HW111963   6.490   2.571   0.753
 3688SOL    HW211964   6.499   2.720   0.818
 3689SOL     OW11965   1.055   6.883   6.328
 3689SOL    HW111966   1.019   6.903   6.237
 3689SOL    HW211967   0.980   6.862   6.390
 3690SOL     OW11968   5.207   5.321   2.021
 3690SOL    HW111969   5.304   5.302   2.011
 3690SOL    HW211970   5.170   5.354   1.935
 3691SOL     OW11971   1.904   2.880   0.308
 3691SOL    HW111972   1.956   2.833   0.379
 3691SOL    HW211973   1.907   2.979   0.325
 3692SOL     OW11974   1.005   2.998   5.543
 3692SOL    HW111975   1.066   3.065   5.585
 3692SOL    HW211976   0.929   2.979   5.605
 3693SOL     OW11977   6.831   1.665   2.309
 3693SOL    HW111978   6.850   1.574   2.345
 3693SOL    HW211979   6.901   1.691   2.243
 3694SOL     OW11980   6.900   6.888   2.729
 3694SOL    HW111981   6.806   6.908   2.703
 3694SOL    HW211982   6.946   6.841   2.653
 3695SOL     OW11983   5.683   3.501   2.955
 3695SOL    HW111984   5.610   3.432   2.956
 3695SOL    HW211985   5.768   3.459   2.986
 3696SOL     OW11986   4.283   0.846   4.364
 3696SOL    HW111987   4.205   0.805   4.317
 3696SOL    HW211988   4.315   0.784   4.436
 3697SOL     OW11989   6.773   6.141   3.226
 3697SOL    HW111990   6.705   6.104   3.163
 3697SOL    HW211991   6.827   6.211   3.179
 3698SOL     OW11992   1.437   0.225   2.856
 3698SOL    HW111993   1.346   0.251   2.886
 3698SOL    HW211994   1.495   0.208   2.935
 3699SOL     OW11995   2.620   2.321   3.235
 3699SOL    HW111996   2.520   2.326   3.242
 3699SOL    HW211997   2.659   2.323   3.327
 3700SOL     OW11998   0.761   5.510   5.186
 3700SOL    HW111999   0.854   5.478   5.169
 3700SOL    HW212000   0.699   5.432   5.193
 3701SOL     OW12001   0.879   0.596   1.937
 3701SOL    HW112002   0.860   0.520   1.874
 3701SOL    HW212003   0.975   0.591   1.966
 3702SOL     OW12004   6.016   4.042   3.386
 3702SOL    HW112005   6.027   3.946   3.360
 3702SOL    HW212006   5.940   4.082   3.336
 3703SOL     OW12007   1.476   1.836   3.711
 3703SOL    HW112008   1.516   1.928   3.715
 3703SOL    HW212009   1.522   1.777   3.777
 3704SOL     OW12010   6.554   1.084   0.412
 3704SOL    HW112011   6.554   1.167   0.357
 3704SOL    HW212012   6.550   1.004   0.352
 3705SOL     OW12013   5.527   4.258   4.071
 3705SOL    HW112014   5.442   4.309   4.056
 3705SOL    HW212015   5.572   4.243   3.983
 3706SOL     OW12016   1.399   3.988   6.313
 3706SOL    HW112017   1.459   3.988   6.392
 3706SOL    HW212018   1.346   3.904   6.311
 3707SOL     OW12019   1.119   5.181   3.065
 3707SOL    HW112020   1.086   5.094   3.029
 3707SOL    HW212021   1.219   5.179   3.070
 3708SOL     OW12022   2.130   6.075   1.337
 3708SOL    HW112023   2.089   5.983   1.338
 3708SOL    HW212024   2.162   6.098   1.429
 3709SOL     OW12025   1.267   1.346   1.438
 3709SOL    HW112026   1.350   1.402   1.430
 3709SOL    HW212027   1.293   1.250   1.448
 3710SOL     OW12028   0.822   4.127   5.374
 3710SOL    HW112029   0.865   4.041   5.347
 3710SOL    HW212030   0.847   4.148   5.469
 3711SOL     OW12031   0.899   6.035   4.648
 3711SOL    HW112032   0.878   6.120   4.697
 3711SOL    HW212033   0.898   5.959   4.712
 3712SOL     OW12034   2.023   5.466   4.257
 3712SOL    HW112035   2.000   5.408   4.336
 3712SOL    HW212036   2.000   5.561   4.277
 3713SOL     OW12037   6.301   0.472   4.582
 3713SOL    HW112038   6.388   0.521   4.590
 3713SOL    HW212039   6.256   0.497   4.496
 3714SOL     OW12040   0.829   4.013   0.269
 3714SOL    HW112041   0.881   3.943   0.317
 3714SOL    HW212042   0.892   4.075   0.221
 3715SOL     OW12043   5.661   4.993   3.567
 3715SOL    HW112044   5.616   5.060   3.509
 3715SOL    HW212045   5.758   4.986   3.542
 3716SOL     OW12046   5.026   5.601   4.792
 3716SOL    HW112047   5.049   5.562   4.881
 3716SOL    HW212048   5.080   5.556   4.721
 3717SOL     OW12049   4.748   1.084   0.687
 3717SOL    HW112050   4.755   0.991   0.725
 3717SOL    HW212051   4.727   1.148   0.760
 3718SOL     OW12052   5.985   6.629   6.424
 3718SOL    HW112053   5.946   6.539   6.405
 3718SOL    HW212054   6.080   6.619   6.454
 3719SOL     OW12055   3.464   3.748   6.977
 3719SOL    HW112056   3.366   3.756   6.961
 3719SOL    HW212057   3.514   3.795   6.904
 3720SOL     OW12058   0.029   3.309   0.926
 3720SOL    HW112059   6.962   3.255   0.925
 3720SOL    HW212060   0.065   3.315   0.833
 3721SOL     OW12061   6.834   6.948   5.697
 3721SOL    HW112062   6.889   6.946   5.614
 3721SOL    HW212063   6.739   6.967   5.673
 3722SOL     OW12064   5.487   6.943   2.513
 3722SOL    HW112065   5.466   0.009   2.565
 3722SOL    HW212066   5.403   6.901   2.479
 3723SOL     OW12067   4.526   3.892   6.996
 3723SOL    HW112068   4.449   3.838   6.962
 3723SOL    HW212069   4.521   3.897   0.079
 3724SOL     OW12070   0.205   5.093   4.351
 3724SOL    HW112071   0.268   5.165   4.378
 3724SOL    HW212072   0.257   5.014   4.318
 3725SOL     OW12073   1.471   6.518   0.107
 3725SOL    HW112074   1.503   6.554   0.194
 3725SOL    HW212075   1.371   6.511   0.109
 3726SOL     OW12076   6.052   3.785   5.284
 3726SOL    HW112077   6.054   3.696   5.330
 3726SOL    HW212078   6.106   3.781   5.200
 3727SOL     OW12079   6.844   2.921   3.905
 3727SOL    HW112080   6.786   2.851   3.948
 3727SOL    HW212081   6.838   3.005   3.958
 3728SOL     OW12082   2.592   3.199   0.617
 3728SOL    HW112083   2.665   3.145   0.575
 3728SOL    HW212084   2.632   3.281   0.659
 3729SOL     OW12085   0.406   0.559   5.919
 3729SOL    HW112086   0.397   0.476   5.974
 3729SOL    HW212087   0.404   0.534   5.822
 3730SOL     OW12088   5.100   5.452   4.565
 3730SOL    HW112089   5.014   5.412   4.535
 3730SOL    HW212090   5.130   5.521   4.499
 3731SOL     OW12091   6.742   2.288   0.084
 3731SOL    HW112092   6.745   2.318   0.179
 3731SOL    HW212093   6.699   2.198   0.079
 3732SOL     OW12094   3.594   2.601   6.957
 3732SOL    HW112095   3.672   2.626   6.900
 3732SOL    HW212096   3.509   2.612   6.904
 3733SOL     OW12097   1.618   0.250   3.647
 3733SOL    HW112098   1.644   0.154   3.634
 3733SOL    HW212099   1.609   0.270   3.745
 3734SOL     OW12100   4.063   0.231   0.800
 3734SOL    HW112101   4.104   0.313   0.760
 3734SOL    HW212102   3.977   0.211   0.753
 3735SOL     OW12103   4.644   6.684   2.785
 3735SOL    HW112104   4.546   6.696   2.769
 3735SOL    HW212105   4.664   6.587   2.796
 3736SOL     OW12106   6.837   1.089   6.608
 3736SOL    HW112107   6.871   0.995   6.612
 3736SOL    HW212108   6.866   1.132   6.522
 3737SOL     OW12109   6.609   1.969   3.113
 3737SOL    HW112110   6.594   2.042   3.046
 3737SOL    HW212111   6.541   1.897   3.100
 3738SOL     OW12112   6.657   6.832   1.506
 3738SOL    HW112113   6.738   6.813   1.452
 3738SOL    HW212114   6.575   6.820   1.450
 3739SOL     OW12115   3.298   3.390   0.117
 3739SOL    HW112116   3.205   3.416   0.093
 3739SOL    HW212117   3.296   3.321   0.189
 3740SOL     OW12118   4.490   5.338   6.627
 3740SOL    HW112119   4.391   5.339   6.617
 3740SOL    HW212120   4.514   5.300   6.716
 3741SOL     OW12121   5.341   3.494   0.084
 3741SOL    HW112122   5.368   3.447   0.168
 3741SOL    HW212123   5.404   3.570   0.067
 3742SOL     OW12124   3.895   5.894   1.168
 3742SOL    HW112125   3.932   5.936   1.085
 3742SOL    HW212126   3.924   5.798   1.172
 3743SOL     OW12127   3.475   3.432   1.318
 3743SOL    HW112128   3.441   3.343   1.348
 3743SOL    HW212129   3.402   3.481   1.270
 3744SOL     OW12130   0.124   6.647   2.273
 3744SOL    HW112131   0.132   6.738   2.313
 3744SOL    HW212132   0.028   6.625   2.259
 3745SOL     OW12133   4.777   2.891   2.410
 3745SOL    HW112134   4.852   2.864   2.471
 3745SOL    HW212135   4.717   2.812   2.395
 3746SOL     OW12136   6.422   0.442   4.167
 3746SOL    HW112137   6.492   0.472   4.102
 3746SOL    HW212138   6.465   0.424   4.255
 3747SOL     OW12139   3.248   6.165   5.591
 3747SOL    HW112140   3.301   6.141   5.672
 3747SOL    HW212141   3.218   6.081   5.545
 3748SOL     OW12142   4.903   2.164   3.159
 3748SOL    HW112143   4.973   2.228   3.190
 3748SOL    HW212144   4.814   2.209   3.161
 3749SOL     OW12145   0.005   6.346   2.670
 3749SOL    HW112146   6.979   6.264   2.708
 3749SOL    HW212147   0.067   6.320   2.597
 3750SOL     OW12148   5.458   4.366   0.895
 3750SOL    HW112149   5.547   4.394   0.929
 3750SOL    HW212150   5.463   4.273   0.859
 3751SOL     OW12151   1.676   3.673   1.958
 3751SOL    HW112152   1.677   3.773   1.955
 3751SOL    HW212153   1.753   3.641   2.013
 3752SOL     OW12154   0.986   6.432   5.994
 3752SOL    HW112155   1.022   6.350   5.951
 3752SOL    HW212156   0.892   6.415   6.025
 3753SOL     OW12157   6.913   0.415   4.734
 3753SOL    HW112158   6.824   0.427   4.779
 3753SOL    HW212159   6.935   0.498   4.683
 3754SOL     OW12160   6.558   6.514   1.917
 3754SOL    HW112161   6.529   6.471   1.832
 3754SOL    HW212162   6.657   6.527   1.916
 3755SOL     OW12163   4.667   2.702   3.002
 3755SOL    HW112164   4.586   2.698   3.060
 3755SOL    HW212165   4.640   2.717   2.907
 3756SOL     OW12166   3.063   0.375   6.993
 3756SOL    HW112167   3.152   0.344   6.959
 3756SOL    HW212168   3.023   0.438   6.927
 3757SOL     OW12169   3.063   4.789   0.056
 3757SOL    HW112170   3.058   4.690   0.045
 3757SOL    HW212171   3.042   4.833   6.986
 3758SOL     OW12172   0.682   0.564   3.602
 3758SOL    HW112173   0.708   0.571   3.699
 3758SOL    HW212174   0.589   0.599   3.591
 3759SOL     OW12175   4.943   4.678   0.233
 3759SOL    HW112176   4.954   4.651   0.137
 3759SOL    HW212177   4.878   4.617   0.277
 3760SOL     OW12178   2.318   2.257   5.403
 3760SOL    HW112179   2.360   2.337   5.443
 3760SOL    HW212180   2.223   2.250   5.434
 3761SOL     OW12181   0.263   6.800   3.969
 3761SOL    HW112182   0.240   6.892   3.938
 3761SOL    HW212183   0.298   6.747   3.892
 3762SOL     OW12184   0.586   3.776   6.592
 3762SOL    HW112185   0.557   3.712   6.662
 3762SOL    HW212186   0.531   3.764   6.510
 3763SOL     OW12187   6.513   3.545   6.233
 3763SOL    HW112188   6.422   3.525   6.196
 3763SOL    HW212189   6.562   3.459   6.249
 3764SOL     OW12190   1.992   6.573   3.684
 3764SOL    HW112191   1.920   6.612   3.743
 3764SOL    HW212192   1.973   6.476   3.669
 3765SOL     OW12193   5.939   1.232   3.865
 3765SOL    HW112194   5.984   1.199   3.947
 3765SOL    HW212195   5.963   1.173   3.788
 3766SOL     OW12196   1.529   0.403   4.962
 3766SOL    HW112197   1.479   0.482   4.998
 3766SOL    HW212198   1.470   0.351   4.900
 3767SOL     OW12199   1.464   4.233   1.267
 3767SOL    HW112200   1.478   4.323   1.225
 3767SOL    HW212201   1.383   4.237   1.326
 3768SOL     OW12202   4.771   6.500   0.727
 3768SOL    HW112203   4.867   6.486   0.702
 3768SOL    HW212204   4.732   6.572   0.670
 3769SOL     OW12205   4.576   6.370   5.088
 3769SOL    HW112206   4.652   6.330   5.139
 3769SOL    HW212207   4.530   6.299   5.035
 3770SOL     OW12208   2.083   1.299   0.189
 3770SOL    HW112209   2.143   1.355   0.132
 3770SOL    HW212210   2.003   1.353   0.216
 3771SOL     OW12211   5.092   1.171   5.405
 3771SOL    HW112212   5.002   1.178   5.448
 3771SOL    HW212213   5.105   1.246   5.340
 3772SOL     OW12214   5.189   1.054   2.532
 3772SOL    HW112215   5.184   1.152   2.549
 3772SOL    HW212216   5.174   1.036   2.435
 3773SOL     OW12217   6.728   2.906   6.734
 3773SOL    HW112218   6.805   2.889   6.795
 3773SOL    HW212219   6.729   3.001   6.704
 3774SOL     OW12220   0.732   1.431   1.872
 3774SOL    HW112221   0.729   1.517   1.924
 3774SOL    HW212222   0.781   1.362   1.926
 3775SOL     OW12223   5.710   3.214   3.715
 3775SOL    HW112224   5.638   3.145   3.722
 3775SOL    HW212225   5.780   3.197   3.784
 3776SOL     OW12226   2.838   3.063   6.672
 3776SOL    HW112227   2.807   2.983   6.724
 3776SOL    HW212228   2.821   3.047   6.575
 3777SOL     OW12229   1.624   4.226   3.373
 3777SOL    HW112230   1.644   4.237   3.471
 3777SOL    HW212231   1.709   4.230   3.321
 3778SOL     OW12232   2.102   6.868   2.132
 3778SOL    HW112233   2.155   6.861   2.048
 3778SOL    HW212234   2.146   6.815   2.204
 3779SOL     OW12235   3.068   4.913   6.402
 3779SOL    HW112236   3.061   4.871   6.492
 3779SOL    HW212237   3.053   5.012   6.410
 3780SOL     OW12238   2.732   6.976   4.444
 3780SOL    HW112239   2.681   6.964   4.529
 3780SOL    HW212240   2.698   6.909   4.377
 3781SOL     OW12241   3.164   5.165   4.852
 3781SOL    HW112242   3.166   5.067   4.870
 3781SOL    HW212243   3.085   5.186   4.794
 3782SOL     OW12244   1.664   1.974   2.961
 3782SOL    HW112245   1.715   1.973   2.876
 3782SOL    HW212246   1.720   1.937   3.035
 3783SOL     OW12247   4.685   5.370   5.935
 3783SOL    HW112248   4.710   5.344   5.841
 3783SOL    HW212249   4.646   5.462   5.934
 3784SOL     OW12250   4.625   1.283   3.800
 3784SOL    HW112251   4.631   1.183   3.793
 3784SOL    HW212252   4.682   1.315   3.876
 3785SOL     OW12253   1.592   1.606   1.680
 3785SOL    HW112254   1.526   1.679   1.660
 3785SOL    HW212255   1.547   1.537   1.737
 3786SOL     OW12256   3.285   5.361   2.530
 3786SOL    HW112257   3.312   5.449   2.490
 3786SOL    HW212258   3.258   5.298   2.458
 3787SOL     OW12259   4.032   1.638   4.399
 3787SOL    HW112260   3.948   1.601   4.359
 3787SOL    HW212261   4.108   1.625   4.336
 3788SOL     OW12262   6.019   3.618   2.173
 3788SOL    HW112263   5.934   3.661   2.204
 3788SOL    HW212264   5.998   3.548   2.105
 3789SOL     OW12265   1.218   4.884   2.784
 3789SOL    HW112266   1.139   4.825   2.800
 3789SOL    HW212267   1.191   4.961   2.726
 3790SOL     OW12268   2.176   3.246   3.953
 3790SOL    HW112269   2.243   3.294   3.897
 3790SOL    HW212270   2.185   3.276   4.049
 3791SOL     OW12271   5.052   0.344   1.940
 3791SOL    HW112272   4.957   0.360   1.965
 3791SOL    HW212273   5.057   0.269   1.874
 3792SOL     OW12274   0.288   6.976   5.810
 3792SOL    HW112275   0.278   6.890   5.860
 3792SOL    HW212276   0.249   6.966   5.718
 3793SOL     OW12277   1.953   0.019   2.672
 3793SOL    HW112278   1.859   0.044   2.692
 3793SOL    HW212279   2.015   0.067   2.735
 3794SOL     OW12280   4.063   6.315   2.467
 3794SOL    HW112281   4.055   6.414   2.461
 3794SOL    HW212282   4.005   6.272   2.398
 3795SOL     OW12283   4.593   0.178   0.126
 3795SOL    HW112284   4.673   0.219   0.168
 3795SOL    HW212285   4.621   0.118   0.051
 3796SOL     OW12286   1.782   2.568   1.558
 3796SOL    HW112287   1.706   2.631   1.540
 3796SOL    HW212288   1.833   2.553   1.474
 3797SOL     OW12289   0.199   5.472   2.695
 3797SOL    HW112290   0.140   5.500   2.619
 3797SOL    HW212291   0.293   5.501   2.676
 3798SOL     OW12292   1.337   4.174   2.099
 3798SOL    HW112293   1.326   4.076   2.120
 3798SOL    HW212294   1.403   4.185   2.025
 3799SOL     OW12295   1.822   0.335   5.297
 3799SOL    HW112296   1.834   0.256   5.358
 3799SOL    HW212297   1.906   0.349   5.245
 3800SOL     OW12298   5.073   2.473   4.744
 3800SOL    HW112299   5.050   2.415   4.666
 3800SOL    HW212300   5.171   2.465   4.764
 3801SOL     OW12301   7.006   0.486   6.670
 3801SOL    HW112302   6.962   0.527   6.590
 3801SOL    HW212303   6.937   0.464   6.739
 3802SOL     OW12304   1.848   2.509   5.439
 3802SOL    HW112305   1.898   2.589   5.475
 3802SOL    HW212306   1.755   2.508   5.476
 3803SOL     OW12307   3.628   1.235   0.933
 3803SOL    HW112308   3.596   1.328   0.950
 3803SOL    HW212309   3.668   1.198   1.017
 3804SOL     OW12310   4.822   2.463   5.849
 3804SOL    HW112311   4.809   2.380   5.795
 3804SOL    HW212312   4.776   2.539   5.803
 3805SOL     OW12313   1.904   3.662   1.167
 3805SOL    HW112314   1.937   3.615   1.085
 3805SOL    HW212315   1.806   3.680   1.158
 3806SOL     OW12316   2.875   1.501   0.119
 3806SOL    HW112317   2.925   1.489   0.205
 3806SOL    HW212318   2.904   1.431   0.053
 3807SOL     OW12319   1.248   6.846   3.155
 3807SOL    HW112320   1.153   6.842   3.186
 3807SOL    HW212321   1.265   6.933   3.110
 3808SOL     OW12322   3.547   0.499   1.213
 3808SOL    HW112323   3.468   0.538   1.261
 3808SOL    HW212324   3.516   0.431   1.147
 3809SOL     OW12325   4.619   0.609   6.409
 3809SOL    HW112326   4.614   0.509   6.406
 3809SOL    HW212327   4.657   0.637   6.497
 3810SOL     OW12328   2.671   2.989   5.377
 3810SOL    HW112329   2.744   3.056   5.363
 3810SOL    HW212330   2.602   2.998   5.305
 3811SOL     OW12331   0.672   6.909   6.176
 3811SOL    HW112332   0.677   6.809   6.186
 3811SOL    HW212333   0.633   6.931   6.087
 3812SOL     OW12334   5.512   1.347   5.430
 3812SOL    HW112335   5.552   1.378   5.516
 3812SOL    HW212336   5.421   1.308   5.448
 3813SOL     OW12337   3.795   4.915   1.827
 3813SOL    HW112338   3.862   4.938   1.897
 3813SOL    HW212339   3.710   4.884   1.871
 3814SOL     OW12340   1.345   6.638   2.444
 3814SOL    HW112341   1.376   6.732   2.429
 3814SOL    HW212342   1.316   6.628   2.539
 3815SOL     OW12343   5.692   2.298   1.553
 3815SOL    HW112344   5.637   2.322   1.633
 3815SOL    HW212345   5.777   2.254   1.582
 3816SOL     OW12346   0.540   6.632   1.621
 3816SOL    HW112347   0.523   6.635   1.523
 3816SOL    HW212348   0.637   6.649   1.639
 3817SOL     OW12349   5.179   2.026   5.189
 3817SOL    HW112350   5.178   1.939   5.238
 3817SOL    HW212351   5.170   2.009   5.091
 3818SOL     OW12352   5.256   5.248   2.718
 3818SOL    HW112353   5.313   5.295   2.786
 3818SOL    HW212354   5.289   5.155   2.705
 3819SOL     OW12355   5.549   4.218   6.029
 3819SOL    HW112356   5.451   4.238   6.030
 3819SOL    HW212357   5.586   4.238   5.938
 3820SOL     OW12358   5.484   6.454   4.235
 3820SOL    HW112359   5.534   6.441   4.149
 3820SOL    HW212360   5.519   6.534   4.282
 3821SOL     OW12361   0.778   4.077   1.796
 3821SOL    HW112362   0.769   4.036   1.887
 3821SOL    HW212363   0.790   4.005   1.728
 3822SOL     OW12364   1.857   5.128   1.895
 3822SOL    HW112365   1.789   5.153   1.963
 3822SOL    HW212366   1.937   5.187   1.905
 3823SOL     OW12367   3.024   2.707   5.403
 3823SOL    HW112368   3.115   2.682   5.369
 3823SOL    HW212369   3.019   2.807   5.411
 3824SOL     OW12370   6.900   2.439   6.271
 3824SOL    HW112371   6.882   2.415   6.366
 3824SOL    HW212372   6.937   2.360   6.222
 3825SOL     OW12373   6.727   0.192   6.562
 3825SOL    HW112374   6.638   0.233   6.546
 3825SOL    HW212375   6.722   0.094   6.544
 3826SOL     OW12376   6.773   2.088   1.124
 3826SOL    HW112377   6.858   2.115   1.170
 3826SOL    HW212378   6.747   1.996   1.153
 3827SOL     OW12379   4.660   3.707   0.820
 3827SOL    HW112380   4.565   3.684   0.801
 3827SOL    HW212381   4.717   3.626   0.808
 3828SOL     OW12382   3.960   1.163   1.808
 3828SOL    HW112383   3.960   1.162   1.708
 3828SOL    HW212384   3.908   1.242   1.840
 3829SOL     OW12385   1.405   5.183   3.124
 3829SOL    HW112386   1.465   5.136   3.188
 3829SOL    HW212387   1.460   5.231   3.056
 3830SOL     OW12388   2.951   0.162   4.938
 3830SOL    HW112389   2.989   0.166   4.846
 3830SOL    HW212390   2.984   0.080   4.984
 3831SOL     OW12391   4.414   1.599   2.131
 3831SOL    HW112392   4.366   1.577   2.216
 3831SOL    HW212393   4.357   1.571   2.054
 3832SOL     OW12394   5.458   6.591   2.651
 3832SOL    HW112395   5.518   6.604   2.572
 3832SOL    HW212396   5.507   6.615   2.735
 3833SOL     OW12397   1.317   5.168   6.772
 3833SOL    HW112398   1.327   5.264   6.745
 3833SOL    HW212399   1.235   5.158   6.829
 3834SOL     OW12400   2.298   2.294   0.969
 3834SOL    HW112401   2.332   2.369   1.026
 3834SOL    HW212402   2.292   2.324   0.874
 3835SOL     OW12403   3.542   6.072   4.173
 3835SOL    HW112404   3.547   6.162   4.129
 3835SOL    HW212405   3.455   6.029   4.151
 3836SOL     OW12406   1.628   3.059   4.963
 3836SOL    HW112407   1.529   3.070   4.968
 3836SOL    HW212408   1.663   3.030   5.052
 3837SOL     OW12409   3.571   3.244   0.305
 3837SOL    HW112410   3.483   3.227   0.348
 3837SOL    HW212411   3.600   3.338   0.323
 3838SOL     OW12412   5.827   3.730   5.074
 3838SOL    HW112413   5.858   3.734   5.168
 3838SOL    HW212414   5.885   3.667   5.022
 3839SOL     OW12415   6.280   6.415   6.109
 3839SOL    HW112416   6.312   6.325   6.080
 3839SOL    HW212417   6.181   6.420   6.099
 3840SOL     OW12418   2.523   0.121   3.705
 3840SOL    HW112419   2.571   0.157   3.625
 3840SOL    HW212420   2.526   0.188   3.779
 3841SOL     OW12421   0.451   3.912   4.410
 3841SOL    HW112422   0.377   3.977   4.425
 3841SOL    HW212423   0.513   3.911   4.489
 3842SOL     OW12424   1.296   4.780   6.540
 3842SOL    HW112425   1.283   4.879   6.527
 3842SOL    HW212426   1.211   4.732   6.515
 3843SOL     OW12427   6.277   4.263   0.770
 3843SOL    HW112428   6.223   4.347   0.776
 3843SOL    HW212429   6.217   4.186   0.749
 3844SOL     OW12430   2.325   4.221   6.356
 3844SOL    HW112431   2.247   4.265   6.311
 3844SOL    HW212432   2.297   4.134   6.396
 3845SOL     OW12433   3.292   3.561   3.801
 3845SOL    HW112434   3.330   3.646   3.837
 3845SOL    HW212435   3.192   3.565   3.805
 3846SOL     OW12436   6.959   4.244   3.625
 3846SOL    HW112437   7.012   4.288   3.553
 3846SOL    HW212438   7.006   4.253   3.713
 3847SOL     OW12439   0.841   0.244   0.742
 3847SOL    HW112440   0.775   0.199   0.681
 3847SOL    HW212441   0.890   0.314   0.691
 3848SOL     OW12442   3.292   4.972   0.499
 3848SOL    HW112443   3.390   4.974   0.478
 3848SOL    HW212444   3.240   4.997   0.416
 3849SOL     OW12445   2.391   2.068   5.987
 3849SOL    HW112446   2.490   2.054   5.986
 3849SOL    HW212447   2.367   2.124   6.066
 3850SOL     OW12448   2.483   3.443   1.435
 3850SOL    HW112449   2.385   3.443   1.417
 3850SOL    HW212450   2.513   3.538   1.450
 3851SOL     OW12451   2.106   2.993   1.413
 3851SOL    HW112452   2.127   2.955   1.503
 3851SOL    HW212453   2.191   3.001   1.360
 3852SOL     OW12454   4.750   0.751   5.902
 3852SOL    HW112455   4.678   0.683   5.893
 3852SOL    HW212456   4.760   0.775   5.999
 3853SOL     OW12457   1.502   2.788   2.134
 3853SOL    HW112458   1.435   2.778   2.208
 3853SOL    HW212459   1.593   2.769   2.169
 3854SOL     OW12460   1.278   3.155   4.797
 3854SOL    HW112461   1.352   3.127   4.736
 3854SOL    HW212462   1.230   3.233   4.758
 3855SOL     OW12463   0.166   1.902   5.042
 3855SOL    HW112464   0.231   1.975   5.061
 3855SOL    HW212465   0.215   1.822   5.007
 3856SOL     OW12466   0.676   6.574   5.564
 3856SOL    HW112467   0.759   6.541   5.609
 3856SOL    HW212468   0.697   6.660   5.516
 3857SOL     OW12469   1.086   6.901   6.646
 3857SOL    HW112470   1.026   6.980   6.638
 3857SOL    HW212471   1.181   6.931   6.651
 3858SOL     OW12472   2.401   5.298   6.735
 3858SOL    HW112473   2.498   5.291   6.712
 3858SOL    HW212474   2.370   5.391   6.717
 3859SOL     OW12475   6.702   2.693   1.598
 3859SOL    HW112476   6.773   2.706   1.667
 3859SOL    HW212477   6.632   2.764   1.608
 3860SOL     OW12478   1.856   6.581   5.011
 3860SOL    HW112479   1.930   6.521   5.041
 3860SOL    HW212480   1.895   6.664   4.972
 3861SOL     OW12481   3.996   4.541   0.517
 3861SOL    HW112482   3.966   4.631   0.487
 3861SOL    HW212483   4.095   4.532   0.505
 3862SOL     OW12484   1.123   5.123   5.914
 3862SOL    HW112485   1.161   5.210   5.883
 3862SOL    HW212486   1.046   5.140   5.976
 3863SOL     OW12487   3.368   3.233   0.544
 3863SOL    HW112488   3.406   3.325   0.553
 3863SOL    HW212489   3.383   3.182   0.628
 3864SOL     OW12490   2.981   1.834   7.007
 3864SOL    HW112491   2.987   1.759   6.941
 3864SOL    HW212492   2.885   1.855   0.008
 3865SOL     OW12493   4.513   0.510   2.380
 3865SOL    HW112494   4.479   0.435   2.436
 3865SOL    HW212495   4.439   0.545   2.322
 3866SOL     OW12496   3.800   6.235   6.036
 3866SOL    HW112497   3.832   6.330   6.034
 3866SOL    HW212498   3.710   6.231   6.080
 3867SOL     OW12499   1.922   4.182   3.769
 3867SOL    HW112500   1.975   4.100   3.793
 3867SOL    HW212501   1.873   4.214   3.850
 3868SOL     OW12502   1.513   5.390   2.327
 3868SOL    HW112503   1.462   5.308   2.352
 3868SOL    HW212504   1.453   5.450   2.273
 3869SOL     OW12505   1.832   1.654   3.834
 3869SOL    HW112506   1.797   1.599   3.910
 3869SOL    HW212507   1.847   1.748   3.865
 3870SOL     OW12508   4.177   4.081   0.521
 3870SOL    HW112509   4.167   3.982   0.525
 3870SOL    HW212510   4.267   4.103   0.483
 3871SOL     OW12511   2.748   1.619   4.567
 3871SOL    HW112512   2.733   1.708   4.609
 3871SOL    HW212513   2.814   1.567   4.621
 3872SOL     OW12514   4.205   3.829   0.442
 3872SOL    HW112515   4.152   3.746   0.425
 3872SOL    HW212516   4.290   3.806   0.488
 3873SOL     OW12517   5.233   4.691   1.761
 3873SOL    HW112518   5.289   4.727   1.687
 3873SOL    HW212519   5.196   4.766   1.815
 3874SOL     OW12520   4.912   5.808   6.217
 3874SOL    HW112521   4.976   5.816   6.293
 3874SOL    HW212522   4.841   5.742   6.241
 3875SOL     OW12523   2.158   4.200   0.441
 3875SOL    HW112524   2.219   4.212   0.520
 3875SOL    HW212525   2.165   4.280   0.382
 3876SOL     OW12526   5.656   4.138   2.224
 3876SOL    HW112527   5.652   4.108   2.319
 3876SOL    HW212528   5.751   4.146   2.196
 3877SOL     OW12529   5.584   1.340   2.204
 3877SOL    HW112530   5.673   1.295   2.194
 3877SOL    HW212531   5.581   1.421   2.144
 3878SOL     OW12532   4.001   6.134   4.419
 3878SOL    HW112533   3.985   6.154   4.515
 3878SOL    HW212534   4.001   6.035   4.405
 3879SOL     OW12535   3.210   5.668   1.585
 3879SOL    HW112536   3.192   5.595   1.520
 3879SOL    HW212537   3.303   5.658   1.621
 3880SOL     OW12538   5.506   2.376   3.893
 3880SOL    HW112539   5.594   2.373   3.846
 3880SOL    HW212540   5.442   2.434   3.841
 3881SOL     OW12541   1.177   5.238   0.790
 3881SOL    HW112542   1.189   5.334   0.763
 3881SOL    HW212543   1.256   5.209   0.844
 3882SOL     OW12544   1.306   5.803   6.450
 3882SOL    HW112545   1.377   5.786   6.519
 3882SOL    HW212546   1.247   5.877   6.482
 3883SOL     OW12547   3.178   1.999   6.391
 3883SOL    HW112548   3.230   1.979   6.475
 3883SOL    HW212549   3.157   2.097   6.389
 3884SOL     OW12550   1.875   4.851   5.322
 3884SOL    HW112551   1.899   4.779   5.387
 3884SOL    HW212552   1.836   4.929   5.372
 3885SOL     OW12553   0.231   1.753   5.342
 3885SOL    HW112554   0.174   1.688   5.291
 3885SOL    HW212555   0.300   1.704   5.394
 3886SOL     OW12556   0.476   6.165   5.310
 3886SOL    HW112557   0.425   6.083   5.285
 3886SOL    HW212558   0.533   6.195   5.233
 3887SOL     OW12559   5.312   3.145   5.005
 3887SOL    HW112560   5.322   3.235   5.047
 3887SOL    HW212561   5.223   3.140   4.958
 3888SOL     OW12562   5.656   2.213   2.033
 3888SOL    HW112563   5.627   2.119   2.012
 3888SOL    HW212564   5.740   2.234   1.981
 3889SOL     OW12565   6.909   5.670   6.866
 3889SOL    HW112566   6.941   5.749   6.814
 3889SOL    HW212567   6.981   5.601   6.871
 3890SOL     OW12568   6.894   3.198   2.495
 3890SOL    HW112569   6.836   3.118   2.476
 3890SOL    HW212570   6.901   3.254   2.412
 3891SOL     OW12571   6.084   5.289   6.260
 3891SOL    HW112572   6.022   5.227   6.211
 3891SOL    HW212573   6.039   5.325   6.341
 3892SOL     OW12574   5.582   5.294   4.427
 3892SOL    HW112575   5.484   5.299   4.409
 3892SOL    HW212576   5.613   5.200   4.419
 3893SOL     OW12577   3.302   5.995   4.066
 3893SOL    HW112578   3.254   5.908   4.055
 3893SOL    HW212579   3.236   6.068   4.078
 3894SOL     OW12580   4.943   5.786   6.956
 3894SOL    HW112581   4.910   5.815   6.866
 3894SOL    HW212582   4.981   5.865   7.004
 3895SOL     OW12583   2.029   2.324   5.739
 3895SOL    HW112584   2.044   2.235   5.781
 3895SOL    HW212585   1.952   2.370   5.783
 3896SOL     OW12586   6.513   2.575   6.317
 3896SOL    HW112587   6.566   2.546   6.397
 3896SOL    HW212588   6.575   2.595   6.241
 3897SOL     OW12589   3.156   6.665   3.307
 3897SOL    HW112590   3.167   6.704   3.216
 3897SOL    HW212591   3.238   6.614   3.332
 3898SOL     OW12592   2.897   3.800   4.714
 3898SOL    HW112593   2.914   3.753   4.800
 3898SOL    HW212594   2.799   3.803   4.696
 3899SOL     OW12595   4.487   1.566   5.084
 3899SOL    HW112596   4.521   1.588   4.993
 3899SOL    HW212597   4.389   1.550   5.081
 3900SOL     OW12598   6.789   2.737   4.142
 3900SOL    HW112599   6.851   2.661   4.122
 3900SOL    HW212600   6.821   2.785   4.224
 3901SOL     OW12601   2.781   5.573   4.897
 3901SOL    HW112602   2.870   5.609   4.870
 3901SOL    HW212603   2.785   5.473   4.905
 3902SOL     OW12604   4.311   4.657   2.643
 3902SOL    HW112605   4.245   4.716   2.597
 3902SOL    HW212606   4.302   4.564   2.607
 3903SOL     OW12607   4.436   3.360   5.843
 3903SOL    HW112608   4.414   3.447   5.797
 3903SOL    HW212609   4.450   3.289   5.774
 3904SOL     OW12610   2.376   6.386   0.358
 3904SOL    HW112611   2.445   6.444   0.401
 3904SOL    HW212612   2.363   6.303   0.412
 3905SOL     OW12613   6.054   0.490   6.142
 3905SOL    HW112614   6.057   0.554   6.065
 3905SOL    HW212615   6.082   0.399   6.110
 3906SOL     OW12616   0.118   6.306   4.841
 3906SOL    HW112617   0.092   6.400   4.862
 3906SOL    HW212618   0.162   6.266   4.922
 3907SOL     OW12619   0.800   1.736   4.950
 3907SOL    HW112620   0.723   1.784   4.992
 3907SOL    HW212621   0.885   1.787   4.966
 3908SOL     OW12622   2.392   1.079   4.588
 3908SOL    HW112623   2.386   1.028   4.674
 3908SOL    HW212624   2.466   1.146   4.594
 3909SOL     OW12625   4.992   3.237   1.432
 3909SOL    HW112626   5.067   3.300   1.413
 3909SOL    HW212627   5.027   3.157   1.482
 3910SOL     OW12628   2.697   2.445   0.666
 3910SOL    HW112629   2.781   2.396   0.645
 3910SOL    HW212630   2.690   2.459   0.765
 3911SOL     OW12631   6.891   0.846   1.857
 3911SOL    HW112632   6.831   0.841   1.938
 3911SOL    HW212633   6.919   0.753   1.831
 3912SOL     OW12634   4.195   4.291   6.913
 3912SOL    HW112635   4.281   4.315   6.958
 3912SOL    HW212636   4.120   4.340   6.956
 3913SOL     OW12637   4.214   5.501   1.400
 3913SOL    HW112638   4.296   5.548   1.368
 3913SOL    HW212639   4.154   5.567   1.446
 3914SOL     OW12640   6.549   2.416   6.965
 3914SOL    HW112641   6.527   2.344   6.899
 3914SOL    HW212642   6.620   2.382   0.011
 3915SOL     OW12643   4.969   0.585   5.645
 3915SOL    HW112644   4.973   0.575   5.545
 3915SOL    HW212645   5.057   0.616   5.679
 3916SOL     OW12646   1.969   2.615   2.073
 3916SOL    HW112647   1.895   2.605   2.141
 3916SOL    HW212648   2.003   2.524   2.048
 3917SOL     OW12649   3.831   4.824   2.333
 3917SOL    HW112650   3.766   4.882   2.284
 3917SOL    HW212651   3.829   4.732   2.293
 3918SOL     OW12652   5.064   0.158   0.556
 3918SOL    HW112653   4.973   0.137   0.591
 3918SOL    HW212654   5.086   0.254   0.576
 3919SOL     OW12655   4.935   5.853   3.615
 3919SOL    HW112656   4.893   5.818   3.698
 3919SOL    HW212657   4.867   5.906   3.563
 3920SOL     OW12658   2.905   1.737   5.492
 3920SOL    HW112659   2.808   1.754   5.471
 3920SOL    HW212660   2.962   1.801   5.443
 3921SOL     OW12661   1.534   3.426   6.173
 3921SOL    HW112662   1.602   3.499   6.187
 3921SOL    HW212663   1.546   3.387   6.082
 3922SOL     OW12664   4.895   3.389   3.522
 3922SOL    HW112665   4.860   3.481   3.536
 3922SOL    HW212666   4.919   3.377   3.426
 3923SOL     OW12667   5.950   2.034   1.403
 3923SOL    HW112668   6.011   2.097   1.354
 3923SOL    HW212669   5.908   2.081   1.481
 3924SOL     OW12670   4.851   4.710   4.595
 3924SOL    HW112671   4.771   4.651   4.607
 3924SOL    HW212672   4.907   4.675   4.521
 3925SOL     OW12673   4.639   5.917   1.621
 3925SOL    HW112674   4.696   5.978   1.676
 3925SOL    HW212675   4.545   5.951   1.619
 3926SOL     OW12676   0.845   5.774   5.215
 3926SOL    HW112677   0.811   5.680   5.210
 3926SOL    HW212678   0.767   5.837   5.207
 3927SOL     OW12679   5.899   1.583   5.138
 3927SOL    HW112680   5.931   1.548   5.226
 3927SOL    HW212681   5.819   1.530   5.108
 3928SOL     OW12682   3.768   5.553   2.302
 3928SOL    HW112683   3.793   5.625   2.367
 3928SOL    HW212684   3.851   5.520   2.256
 3929SOL     OW12685   0.827   1.520   5.651
 3929SOL    HW112686   0.894   1.497   5.581
 3929SOL    HW212687   0.821   1.619   5.661
 3930SOL     OW12688   1.295   5.236   3.546
 3930SOL    HW112689   1.366   5.246   3.616
 3930SOL    HW212690   1.267   5.327   3.515
 3931SOL     OW12691   1.139   2.548   0.018
 3931SOL    HW112692   1.225   2.594   0.038
 3931SOL    HW212693   1.155   2.450   0.007
 3932SOL     OW12694   2.353   4.395   2.753
 3932SOL    HW112695   2.422   4.457   2.717
 3932SOL    HW212696   2.346   4.314   2.695
 3933SOL     OW12697   2.171   5.692   1.399
 3933SOL    HW112698   2.090   5.742   1.371
 3933SOL    HW212699   2.241   5.756   1.430
 3934SOL     OW12700   2.084   6.738   1.303
 3934SOL    HW112701   2.023   6.665   1.271
 3934SOL    HW212702   2.127   6.710   1.389
 3935SOL     OW12703   6.972   2.966   5.001
 3935SOL    HW112704   0.000   3.022   4.932
 3935SOL    HW212705   6.873   2.979   4.996
 3936SOL     OW12706   0.390   4.443   4.854
 3936SOL    HW112707   0.424   4.507   4.785
 3936SOL    HW212708   0.308   4.398   4.819
 3937SOL     OW12709   0.986   6.393   0.340
 3937SOL    HW112710   0.999   6.446   0.423
 3937SOL    HW212711   1.034   6.437   0.264
 3938SOL     OW12712   0.483   3.167   0.735
 3938SOL    HW112713   0.383   3.161   0.731
 3938SOL    HW212714   0.509   3.230   0.808
 3939SOL     OW12715   1.639   6.076   3.406
 3939SOL    HW112716   1.689   6.098   3.322
 3939SOL    HW212717   1.582   5.995   3.391
 3940SOL     OW12718   2.761   5.655   6.780
 3940SOL    HW112719   2.813   5.661   6.695
 3940SOL    HW212720   2.672   5.700   6.768
 3941SOL     OW12721   4.909   5.775   2.531
 3941SOL    HW112722   4.970   5.739   2.601
 3941SOL    HW212723   4.937   5.741   2.442
 3942SOL     OW12724   6.688   6.431   6.268
 3942SOL    HW112725   6.599   6.438   6.313
 3942SOL    HW212726   6.690   6.350   6.209
 3943SOL     OW12727   2.091   3.157   6.620
 3943SOL    HW112728   2.100   3.233   6.684
 3943SOL    HW212729   2.165   3.162   6.552
 3944SOL     OW12730   4.350   2.972   6.717
 3944SOL    HW112731   4.409   3.045   6.681
 3944SOL    HW212732   4.398   2.924   6.790
 3945SOL     OW12733   5.435   0.512   3.329
 3945SOL    HW112734   5.458   0.420   3.297
 3945SOL    HW212735   5.453   0.519   3.427
 3946SOL     OW12736   0.611   3.172   0.232
 3946SOL    HW112737   0.515   3.173   0.203
 3946SOL    HW212738   0.664   3.233   0.174
 3947SOL     OW12739   5.411   6.527   2.166
 3947SOL    HW112740   5.403   6.472   2.249
 3947SOL    HW212741   5.329   6.583   2.154
 3948SOL     OW12742   1.931   1.932   4.965
 3948SOL    HW112743   1.873   1.904   5.041
 3948SOL    HW212744   2.024   1.897   4.978
 3949SOL     OW12745   6.670   6.877   2.372
 3949SOL    HW112746   6.635   6.791   2.410
 3949SOL    HW212747   6.635   6.889   2.279
 3950SOL     OW12748   2.962   4.540   1.614
 3950SOL    HW112749   2.893   4.474   1.585
 3950SOL    HW212750   2.968   4.540   1.714
 3951SOL     OW12751   0.722   2.434   4.136
 3951SOL    HW112752   0.698   2.374   4.060
 3951SOL    HW212753   0.791   2.388   4.193
 3952SOL     OW12754   5.744   4.253   6.851
 3952SOL    HW112755   5.709   4.332   6.901
 3952SOL    HW212756   5.835   4.228   6.886
 3953SOL     OW12757   2.951   3.804   5.797
 3953SOL    HW112758   2.891   3.862   5.742
 3953SOL    HW212759   2.907   3.783   5.884
 3954SOL     OW12760   0.494   3.223   5.040
 3954SOL    HW112761   0.400   3.189   5.049
 3954SOL    HW212762   0.507   3.299   5.102
 3955SOL     OW12763   5.919   3.883   0.185
 3955SOL    HW112764   5.979   3.811   0.149
 3955SOL    HW212765   5.936   3.893   0.283
 3956SOL     OW12766   6.693   2.697   5.468
 3956SOL    HW112767   6.625   2.634   5.430
 3956SOL    HW212768   6.735   2.749   5.394
 3957SOL     OW12769   0.440   1.886   1.685
 3957SOL    HW112770   0.457   1.865   1.781
 3957SOL    HW212771   0.406   1.804   1.639
 3958SOL     OW12772   5.244   6.265   0.646
 3958SOL    HW112773   5.258   6.314   0.559
 3958SOL    HW212774   5.329   6.219   0.672
 3959SOL     OW12775   1.826   5.372   1.605
 3959SOL    HW112776   1.920   5.362   1.638
 3959SOL    HW212777   1.784   5.281   1.598
 3960SOL     OW12778   4.754   3.269   0.870
 3960SOL    HW112779   4.692   3.283   0.948
 3960SOL    HW212780   4.793   3.357   0.843
 3961SOL     OW12781   6.738   0.417   1.647
 3961SOL    HW112782   6.763   0.332   1.600
 3961SOL    HW212783   6.677   0.471   1.590
 3962SOL     OW12784   0.510   0.134   6.314
 3962SOL    HW112785   0.532   0.051   6.264
 3962SOL    HW212786   0.410   0.143   6.322
 3963SOL     OW12787   5.282   4.424   4.080
 3963SOL    HW112788   5.206   4.431   4.144
 3963SOL    HW212789   5.250   4.443   3.987
 3964SOL     OW12790   5.719   5.915   0.313
 3964SOL    HW112791   5.623   5.930   0.291
 3964SOL    HW212792   5.776   5.979   0.262
 3965SOL     OW12793   3.737   3.406   1.246
 3965SOL    HW112794   3.646   3.401   1.287
 3965SOL    HW212795   3.766   3.501   1.240
 3966SOL     OW12796   6.669   4.286   5.810
 3966SOL    HW112797   6.763   4.261   5.830
 3966SOL    HW212798   6.638   4.357   5.874
 3967SOL     OW12799   1.917   6.407   0.315
 3967SOL    HW112800   1.958   6.356   0.391
 3967SOL    HW212801   1.856   6.477   0.352
 3968SOL     OW12802   5.003   2.204   1.085
 3968SOL    HW112803   4.928   2.144   1.056
 3968SOL    HW212804   5.073   2.149   1.130
 3969SOL     OW12805   0.129   6.399   0.960
 3969SOL    HW112806   0.066   6.365   0.890
 3969SOL    HW212807   0.199   6.329   0.980
 3970SOL     OW12808   5.011   4.312   4.231
 3970SOL    HW112809   4.926   4.262   4.247
 3970SOL    HW212810   5.087   4.248   4.228
 3971SOL     OW12811   6.846   6.557   3.915
 3971SOL    HW112812   6.863   6.628   3.847
 3971SOL    HW212813   6.757   6.572   3.958
 3972SOL     OW12814   0.829   0.161   6.222
 3972SOL    HW112815   0.895   0.231   6.194
 3972SOL    HW212816   0.802   0.177   6.317
 3973SOL     OW12817   3.178   3.073   3.125
 3973SOL    HW112818   3.129   3.120   3.198
 3973SOL    HW212819   3.118   3.063   3.045
 3974SOL     OW12820   5.657   1.226   6.642
 3974SOL    HW112821   5.593   1.269   6.578
 3974SOL    HW212822   5.647   1.126   6.637
 3975SOL     OW12823   0.168   6.580   5.489
 3975SOL    HW112824   0.205   6.564   5.398
 3975SOL    HW212825   0.084   6.633   5.483
 3976SOL     OW12826   0.655   2.735   6.465
 3976SOL    HW112827   0.559   2.738   6.490
 3976SOL    HW212828   0.695   2.826   6.477
 3977SOL     OW12829   3.093   5.733   4.703
 3977SOL    HW112830   3.107   5.703   4.798
 3977SOL    HW212831   3.170   5.789   4.675
 3978SOL     OW12832   6.534   3.978   6.916
 3978SOL    HW112833   6.538   4.040   6.995
 3978SOL    HW212834   6.447   3.929   6.918
 3979SOL     OW12835   1.491   6.706   3.289
 3979SOL    HW112836   1.431   6.704   3.209
 3979SOL    HW212837   1.583   6.675   3.263
 3980SOL     OW12838   4.795   4.085   4.086
 3980SOL    HW112839   4.791   4.008   4.023
 3980SOL    HW212840   4.764   4.168   4.040
 3981SOL     OW12841   6.717   1.550   6.035
 3981SOL    HW112842   6.742   1.485   6.107
 3981SOL    HW212843   6.692   1.637   6.076
 3982SOL     OW12844   1.907   2.933   4.094
 3982SOL    HW112845   1.978   2.998   4.120
 3982SOL    HW212846   1.892   2.869   4.169
 3983SOL     OW12847   2.993   6.590   3.979
 3983SOL    HW112848   3.009   6.493   3.959
 3983SOL    HW212849   2.908   6.599   4.032
 3984SOL     OW12850   2.009   6.050   2.096
 3984SOL    HW112851   2.096   6.023   2.056
 3984SOL    HW212852   2.016   6.143   2.132
 3985SOL     OW12853   1.637   2.852   1.677
 3985SOL    HW112854   1.721   2.905   1.679
 3985SOL    HW212855   1.589   2.867   1.590
 3986SOL     OW12856   0.916   2.242   2.130
 3986SOL    HW112857   0.952   2.208   2.043
 3986SOL    HW212858   0.904   2.341   2.125
 3987SOL     OW12859   1.819   4.063   5.266
 3987SOL    HW112860   1.887   4.085   5.336
 3987SOL    HW212861   1.852   3.986   5.211
 3988SOL     OW12862   5.207   0.106   0.980
 3988SOL    HW112863   5.192   0.039   0.907
 3988SOL    HW212864   5.288   0.080   1.033
 3989SOL     OW12865   4.308   0.359   5.791
 3989SOL    HW112866   4.279   0.353   5.696
 3989SOL    HW212867   4.228   0.367   5.850
 3990SOL     OW12868   0.317   2.195   3.551
 3990SOL    HW112869   0.246   2.130   3.580
 3990SOL    HW212870   0.399   2.181   3.606
 3991SOL     OW12871   1.035   2.058   3.659
 3991SOL    HW112872   1.039   2.012   3.570
 3991SOL    HW212873   0.999   1.994   3.727
 3992SOL     OW12874   6.076   3.627   6.546
 3992SOL    HW112875   6.027   3.540   6.536
 3992SOL    HW212876   6.087   3.669   6.456
 3993SOL     OW12877   1.892   0.604   4.022
 3993SOL    HW112878   1.901   0.534   4.094
 3993SOL    HW212879   1.840   0.566   3.945
 3994SOL     OW12880   3.100   1.841   3.279
 3994SOL    HW112881   3.090   1.743   3.291
 3994SOL    HW212882   3.016   1.879   3.241
 3995SOL     OW12883   1.670   3.089   2.360
 3995SOL    HW112884   1.671   3.081   2.261
 3995SOL    HW212885   1.727   3.018   2.401
 3996SOL     OW12886   5.974   6.340   5.247
 3996SOL    HW112887   5.911   6.376   5.179
 3996SOL    HW212888   5.927   6.329   5.334
 3997SOL     OW12889   5.156   3.424   2.925
 3997SOL    HW112890   5.071   3.474   2.907
 3997SOL    HW212891   5.135   3.329   2.946
 3998SOL     OW12892   4.541   1.990   3.268
 3998SOL    HW112893   4.575   2.060   3.331
 3998SOL    HW212894   4.578   2.008   3.177
 3999SOL     OW12895   3.999   3.361   0.922
 3999SOL    HW112896   4.025   3.286   0.983
 3999SOL    HW212897   4.077   3.422   0.910
 4000SOL     OW12898   2.186   5.066   2.521
 4000SOL    HW112899   2.206   5.086   2.425
 4000SOL    HW212900   2.271   5.040   2.568
 4001SOL     OW12901   6.747   5.967   4.690
 4001SOL    HW112902   6.825   6.025   4.715
 4001SOL    HW212903   6.686   6.019   4.630
 4002SOL     OW12904   3.811   3.451   4.122
 4002SOL    HW112905   3.773   3.385   4.188
 4002SOL    HW212906   3.739   3.513   4.092
 4003SOL     OW12907   2.115   0.845   4.738
 4003SOL    HW112908   2.059   0.912   4.688
 4003SOL    HW212909   2.189   0.814   4.679
 4004SOL     OW12910   1.592   4.048   4.312
 4004SOL    HW112911   1.521   4.099   4.360
 4004SOL    HW212912   1.680   4.060   4.359
 4005SOL     OW12913   4.564   3.213   6.700
 4005SOL    HW112914   4.599   3.174   6.785
 4005SOL    HW212915   4.630   3.280   6.665
 4006SOL     OW12916   6.656   5.862   2.079
 4006SOL    HW112917   6.654   5.914   1.994
 4006SOL    HW212918   6.750   5.855   2.111
 4007SOL     OW12919   0.181   0.675   2.146
 4007SOL    HW112920   0.143   0.748   2.203
 4007SOL    HW212921   0.110   0.606   2.130
 4008SOL     OW12922   3.085   1.015   1.201
 4008SOL    HW112923   3.015   1.042   1.134
 4008SOL    HW212924   3.175   1.044   1.168
 4009SOL     OW12925   4.631   2.214   0.502
 4009SOL    HW112926   4.574   2.228   0.583
 4009SOL    HW212927   4.574   2.219   0.420
 4010SOL     OW12928   1.734   4.668   1.307
 4010SOL    HW112929   1.820   4.618   1.305
 4010SOL    HW212930   1.738   4.746   1.245
 4011SOL     OW12931   6.548   5.790   5.699
 4011SOL    HW112932   6.638   5.786   5.657
 4011SOL    HW212933   6.508   5.881   5.686
 4012SOL     OW12934   5.486   6.165   2.767
 4012SOL    HW112935   5.544   6.198   2.842
 4012SOL    HW212936   5.396   6.140   2.802
 4013SOL     OW12937   0.134   1.727   6.489
 4013SOL    HW112938   0.135   1.637   6.446
 4013SOL    HW212939   0.067   1.785   6.443
 4014SOL     OW12940   3.115   5.018   2.075
 4014SOL    HW112941   3.098   4.928   2.034
 4014SOL    HW212942   3.088   5.089   2.010
 4015SOL     OW12943   4.211   5.099   6.092
 4015SOL    HW112944   4.224   5.028   6.023
 4015SOL    HW212945   4.117   5.131   6.089
 4016SOL     OW12946   5.090   4.838   5.052
 4016SOL    HW112947   5.086   4.808   4.956
 4016SOL    HW212948   5.069   4.761   5.112
 4017SOL     OW12949   1.283   4.958   5.699
 4017SOL    HW112950   1.226   4.987   5.776
 4017SOL    HW212951   1.358   4.901   5.733
 4018SOL     OW12952   3.777   6.170   0.578
 4018SOL    HW112953   3.870   6.135   0.591
 4018SOL    HW212954   3.769   6.259   0.623
 4019SOL     OW12955   6.073   3.762   2.452
 4019SOL    HW112956   6.028   3.679   2.484
 4019SOL    HW212957   6.094   3.753   2.355
 4020SOL     OW12958   6.356   5.048   5.020
 4020SOL    HW112959   6.367   5.097   4.933
 4020SOL    HW212960   6.423   5.082   5.086
 4021SOL     OW12961   4.868   4.546   6.313
 4021SOL    HW112962   4.905   4.554   6.221
 4021SOL    HW212963   4.788   4.485   6.312
 4022SOL     OW12964   2.824   6.146   1.405
 4022SOL    HW112965   2.754   6.208   1.370
 4022SOL    HW212966   2.895   6.132   1.336
 4023SOL     OW12967   0.785   1.502   4.254
 4023SOL    HW112968   0.777   1.440   4.176
 4023SOL    HW212969   0.882   1.512   4.278
 4024SOL     OW12970   0.344   6.599   4.872
 4024SOL    HW112971   0.408   6.572   4.943
 4024SOL    HW212972   0.392   6.601   4.783
 4025SOL     OW12973   6.557   5.676   3.724
 4025SOL    HW112974   6.560   5.738   3.645
 4025SOL    HW212975   6.468   5.683   3.769
 4026SOL     OW12976   0.528   6.716   4.610
 4026SOL    HW112977   0.541   6.644   4.543
 4026SOL    HW212978   0.463   6.784   4.575
 4027SOL     OW12979   3.319   4.951   5.129
 4027SOL    HW112980   3.326   5.005   5.213
 4027SOL    HW212981   3.242   4.888   5.136
 4028SOL     OW12982   4.675   0.728   3.688
 4028SOL    HW112983   4.683   0.660   3.761
 4028SOL    HW212984   4.767   0.757   3.659
 4029SOL     OW12985   1.815   6.032   0.476
 4029SOL    HW112986   1.864   5.951   0.510
 4029SOL    HW212987   1.878   6.109   0.469
 4030SOL     OW12988   0.767   1.653   2.004
 4030SOL    HW112989   0.798   1.738   1.962
 4030SOL    HW212990   0.785   1.657   2.103
 4031SOL     OW12991   5.940   6.224   0.623
 4031SOL    HW112992   6.039   6.219   0.638
 4031SOL    HW212993   5.904   6.131   0.614
 4032SOL     OW12994   4.959   0.547   2.201
 4032SOL    HW112995   5.046   0.580   2.163
 4032SOL    HW212996   4.954   0.570   2.298
 4033SOL     OW12997   1.789   2.366   2.237
 4033SOL    HW112998   1.854   2.366   2.162
 4033SOL    HW212999   1.783   2.458   2.275
 4034SOL     OW13000   1.135   2.820   5.306
 4034SOL    HW113001   1.113   2.761   5.229
 4034SOL    HW213002   1.056   2.828   5.367
 4035SOL     OW13003   4.472   2.004   1.723
 4035SOL    HW113004   4.549   2.006   1.659
 4035SOL    HW213005   4.446   1.909   1.740
 4036SOL     OW13006   2.863   5.471   3.233
 4036SOL    HW113007   2.821   5.386   3.202
 4036SOL    HW213008   2.827   5.547   3.178
 4037SOL     OW13009   2.534   1.555   5.682
 4037SOL    HW113010   2.607   1.564   5.750
 4037SOL    HW213011   2.453   1.517   5.726
 4038SOL     OW13012   3.102   4.883   5.486
 4038SOL    HW113013   3.105   4.859   5.389
 4038SOL    HW213014   3.117   4.801   5.542
 4039SOL     OW13015   5.205   5.328   1.171
 4039SOL    HW113016   5.266   5.326   1.251
 4039SOL    HW213017   5.118   5.284   1.194
 4040SOL     OW13018   3.363   6.586   5.099
 4040SOL    HW113019   3.406   6.647   5.033
 4040SOL    HW213020   3.407   6.596   5.188
 4041SOL     OW13021   1.866   6.300   1.491
 4041SOL    HW113022   1.803   6.245   1.437
 4041SOL    HW213023   1.814   6.355   1.557
 4042SOL     OW13024   6.930   1.215   2.639
 4042SOL    HW113025   6.877   1.155   2.579
 4042SOL    HW213026   0.007   1.222   2.605
 4043SOL     OW13027   5.426   2.907   6.278
 4043SOL    HW113028   5.479   2.822   6.270
 4043SOL    HW213029   5.331   2.884   6.299
 4044SOL     OW13030   4.896   4.066   3.109
 4044SOL    HW113031   4.895   3.983   3.164
 4044SOL    HW213032   4.816   4.122   3.132
 4045SOL     OW13033   5.248   0.879   5.424
 4045SOL    HW113034   5.229   0.832   5.510
 4045SOL    HW213035   5.184   0.955   5.412
 4046SOL     OW13036   5.261   1.756   3.336
 4046SOL    HW113037   5.334   1.749   3.268
 4046SOL    HW213038   5.173   1.763   3.290
 4047SOL     OW13039   2.895   2.937   6.410
 4047SOL    HW113040   2.988   2.947   6.444
 4047SOL    HW213041   2.897   2.898   6.318
 4048SOL     OW13042   5.054   1.722   2.524
 4048SOL    HW113043   5.067   1.654   2.596
 4048SOL    HW213044   4.956   1.735   2.508
 4049SOL     OW13045   4.566   4.273   0.750
 4049SOL    HW113046   4.609   4.298   0.837
 4049SOL    HW213047   4.506   4.347   0.720
 4050SOL     OW13048   1.018   5.706   2.139
 4050SOL    HW113049   0.929   5.752   2.136
 4050SOL    HW213050   1.091   5.774   2.146
 4051SOL     OW13051   5.689   1.297   4.892
 4051SOL    HW113052   5.787   1.280   4.880
 4051SOL    HW213053   5.677   1.381   4.945
 4052SOL     OW13054   5.645   1.746   3.333
 4052SOL    HW113055   5.643   1.649   3.360
 4052SOL    HW213056   5.739   1.780   3.342
 4053SOL     OW13057   1.105   5.532   4.170
 4053SOL    HW113058   1.177   5.467   4.147
 4053SOL    HW213059   1.055   5.557   4.087
 4054SOL     OW13060   4.060   3.458   1.389
 4054SOL    HW113061   3.971   3.503   1.379
 4054SOL    HW213062   4.047   3.370   1.435
 4055SOL     OW13063   0.222   3.884   0.097
 4055SOL    HW113064   0.200   3.926   0.185
 4055SOL    HW213065   0.321   3.879   0.087
 4056SOL     OW13066   4.759   3.678   0.010
 4056SOL    HW113067   4.723   3.761   0.053
 4056SOL    HW213068   4.833   3.702   6.964
 4057SOL     OW13069   0.193   3.513   0.248
 4057SOL    HW113070   0.110   3.541   0.200
 4057SOL    HW213071   0.264   3.582   0.235
 4058SOL     OW13072   2.674   0.560   5.085
 4058SOL    HW113073   2.656   0.655   5.060
 4058SOL    HW213074   2.743   0.521   5.023
 4059SOL     OW13075   0.642   1.294   3.730
 4059SOL    HW113076   0.619   1.346   3.812
 4059SOL    HW213077   0.741   1.284   3.724
 4060SOL     OW13078   6.809   6.405   5.147
 4060SOL    HW113079   6.751   6.480   5.114
 4060SOL    HW213080   6.780   6.379   5.239
 4061SOL     OW13081   0.928   5.468   0.803
 4061SOL    HW113082   0.970   5.379   0.821
 4061SOL    HW213083   0.989   5.541   0.836
 4062SOL     OW13084   1.890   3.255   1.501
 4062SOL    HW113085   1.900   3.260   1.600
 4062SOL    HW213086   1.971   3.213   1.461
 4063SOL     OW13087   4.445   0.517   0.262
 4063SOL    HW113088   4.492   0.481   0.342
 4063SOL    HW213089   4.450   0.617   0.263
 4064SOL     OW13090   1.742   1.399   5.994
 4064SOL    HW113091   1.703   1.323   5.943
 4064SOL    HW213092   1.767   1.368   6.086
 4065SOL     OW13093   2.742   6.413   0.831
 4065SOL    HW113094   2.665   6.474   0.811
 4065SOL    HW213095   2.715   6.318   0.815
 4066SOL     OW13096   0.916   3.761   3.677
 4066SOL    HW113097   0.971   3.678   3.676
 4066SOL    HW213098   0.885   3.780   3.770
 4067SOL     OW13099   5.431   5.157   0.351
 4067SOL    HW113100   5.391   5.066   0.338
 4067SOL    HW213101   5.357   5.225   0.357
 4068SOL     OW13102   2.254   3.023   4.764
 4068SOL    HW113103   2.226   2.928   4.749
 4068SOL    HW213104   2.299   3.031   4.852
 4069SOL     OW13105   3.852   6.715   6.421
 4069SOL    HW113106   3.862   6.731   6.519
 4069SOL    HW213107   3.933   6.667   6.387
 4070SOL     OW13108   1.263   3.343   3.666
 4070SOL    HW113109   1.304   3.354   3.756
 4070SOL    HW213110   1.280   3.250   3.633
 4071SOL     OW13111   1.532   0.731   4.266
 4071SOL    HW113112   1.452   0.713   4.323
 4071SOL    HW213113   1.555   0.649   4.214
 4072SOL     OW13114   2.478   5.430   2.892
 4072SOL    HW113115   2.576   5.415   2.878
 4072SOL    HW213116   2.465   5.506   2.955
 4073SOL     OW13117   3.977   4.683   0.032
 4073SOL    HW113118   3.939   4.765   7.006
 4073SOL    HW213119   4.075   4.696   0.047
 4074SOL     OW13120   1.414   5.659   2.718
 4074SOL    HW113121   1.330   5.657   2.772
 4074SOL    HW213122   1.422   5.575   2.665
 4075SOL     OW13123   6.980   1.381   0.912
 4075SOL    HW113124   7.006   1.359   1.006
 4075SOL    HW213125   6.940   1.300   0.868
 4076SOL     OW13126   2.280   4.306   5.014
 4076SOL    HW113127   2.266   4.333   5.109
 4076SOL    HW213128   2.297   4.208   5.009
 4077SOL     OW13129   3.369   0.593   1.510
 4077SOL    HW113130   3.332   0.568   1.420
 4077SOL    HW213131   3.440   0.527   1.536
 4078SOL     OW13132   3.077   4.970   2.429
 4078SOL    HW113133   3.046   4.902   2.362
 4078SOL    HW213134   3.087   4.926   2.518
 4079SOL     OW13135   0.920   1.877   4.069
 4079SOL    HW113136   0.938   1.975   4.063
 4079SOL    HW213137   0.821   1.861   4.063
 4080SOL     OW13138   6.340   1.480   5.145
 4080SOL    HW113139   6.399   1.519   5.074
 4080SOL    HW213140   6.391   1.474   5.231
 4081SOL     OW13141   1.916   3.289   3.645
 4081SOL    HW113142   1.918   3.193   3.614
 4081SOL    HW213143   1.921   3.292   3.744
 4082SOL     OW13144   0.965   3.264   1.212
 4082SOL    HW113145   1.000   3.256   1.118
 4082SOL    HW213146   0.866   3.254   1.211
 4083SOL     OW13147   5.520   2.819   4.438
 4083SOL    HW113148   5.600   2.784   4.487
 4083SOL    HW213149   5.445   2.833   4.503
 4084SOL     OW13150   0.569   1.606   3.919
 4084SOL    HW113151   0.631   1.641   3.849
 4084SOL    HW213152   0.613   1.529   3.967
 4085SOL     OW13153   2.592   6.059   0.616
 4085SOL    HW113154   2.643   6.088   0.535
 4085SOL    HW213155   2.494   6.067   0.598
 4086SOL     OW13156   1.158   4.906   0.442
 4086SOL    HW113157   1.223   4.951   0.503
 4086SOL    HW213158   1.069   4.900   0.488
 4087SOL     OW13159   1.552   1.662   2.617
 4087SOL    HW113160   1.482   1.639   2.684
 4087SOL    HW213161   1.545   1.760   2.594
 4088SOL     OW13162   6.672   1.947   0.886
 4088SOL    HW113163   6.711   1.998   0.963
 4088SOL    HW213164   6.641   2.011   0.816
 4089SOL     OW13165   0.995   1.396   5.472
 4089SOL    HW113166   1.086   1.393   5.515
 4089SOL    HW213167   1.003   1.369   5.376
 4090SOL     OW13168   2.014   4.627   5.373
 4090SOL    HW113169   2.057   4.616   5.463
 4090SOL    HW213170   2.085   4.636   5.304
 4091SOL     OW13171   4.823   5.925   0.451
 4091SOL    HW113172   4.915   5.892   0.430
 4091SOL    HW213173   4.826   5.982   0.533
 4092SOL     OW13174   0.589   2.431   4.411
 4092SOL    HW113175   0.491   2.453   4.412
 4092SOL    HW213176   0.622   2.428   4.317
 4093SOL     OW13177   5.784   0.904   4.784
 4093SOL    HW113178   5.749   0.836   4.848
 4093SOL    HW213179   5.878   0.928   4.810
 4094SOL     OW13180   2.729   4.563   5.306
 4094SOL    HW113181   2.809   4.559   5.247
 4094SOL    HW213182   2.716   4.656   5.340
 4095SOL     OW13183   1.541   4.082   6.100
 4095SOL    HW113184   1.484   4.076   6.182
 4095SOL    HW213185   1.519   4.007   6.038
 4096SOL     OW13186   4.294   4.847   1.914
 4096SOL    HW113187   4.374   4.834   1.973
 4096SOL    HW213188   4.323   4.843   1.818
 4097SOL     OW13189   3.183   3.591   4.991
 4097SOL    HW113190   3.177   3.563   4.895
 4097SOL    HW213191   3.279   3.597   5.018
 4098SOL     OW13192   0.139   1.795   2.534
 4098SOL    HW113193   0.192   1.874   2.562
 4098SOL    HW213194   0.116   1.740   2.614
 4099SOL     OW13195   3.810   6.346   1.792
 4099SOL    HW113196   3.826   6.311   1.884
 4099SOL    HW213197   3.867   6.297   1.727
 4100SOL     OW13198   3.856   5.864   3.070
 4100SOL    HW113199   3.783   5.857   3.002
 4100SOL    HW213200   3.935   5.909   3.030
 4101SOL     OW13201   5.083   1.073   6.266
 4101SOL    HW113202   5.179   1.050   6.253
 4101SOL    HW213203   5.039   1.005   6.324
 4102SOL     OW13204   6.010   1.406   0.633
 4102SOL    HW113205   6.052   1.429   0.721
 4102SOL    HW213206   6.002   1.489   0.577
 4103SOL     OW13207   0.434   0.542   2.295
 4103SOL    HW113208   0.404   0.535   2.200
 4103SOL    HW213209   0.467   0.635   2.312
 4104SOL     OW13210   1.781   4.928   3.127
 4104SOL    HW113211   1.853   4.870   3.165
 4104SOL    HW213212   1.720   4.871   3.071
 4105SOL     OW13213   5.047   5.111   6.946
 4105SOL    HW113214   4.975   5.179   6.955
 4105SOL    HW213215   5.006   5.023   6.918
 4106SOL     OW13216   6.989   3.933   4.922
 4106SOL    HW113217   0.059   3.893   4.950
 4106SOL    HW213218   6.922   3.860   4.909
 4107SOL     OW13219   6.865   0.681   0.983
 4107SOL    HW113220   6.809   0.712   1.060
 4107SOL    HW213221   6.900   0.590   1.002
 4108SOL     OW13222   6.420   3.371   5.646
 4108SOL    HW113223   6.478   3.452   5.644
 4108SOL    HW213224   6.372   3.363   5.559
 4109SOL     OW13225   3.260   6.374   3.761
 4109SOL    HW113226   3.254   6.398   3.858
 4109SOL    HW213227   3.228   6.451   3.706
 4110SOL     OW13228   4.717   3.311   5.788
 4110SOL    HW113229   4.662   3.302   5.705
 4110SOL    HW213230   4.698   3.398   5.832
 4111SOL     OW13231   4.474   2.884   6.939
 4111SOL    HW113232   4.418   2.838   7.008
 4111SOL    HW213233   4.509   2.970   6.977
 4112SOL     OW13234   3.842   0.919   4.377
 4112SOL    HW113235   3.765   0.859   4.398
 4112SOL    HW213236   3.820   1.012   4.406
 4113SOL     OW13237   3.802   5.237   4.415
 4113SOL    HW113238   3.830   5.229   4.511
 4113SOL    HW213239   3.852   5.312   4.372
 4114SOL     OW13240   2.885   1.915   2.666
 4114SOL    HW113241   2.905   2.005   2.628
 4114SOL    HW213242   2.834   1.861   2.598
 4115SOL     OW13243   5.182   4.837   1.999
 4115SOL    HW113244   5.099   4.782   1.991
 4115SOL    HW213245   5.171   4.903   2.074
 4116SOL     OW13246   2.933   1.141   1.991
 4116SOL    HW113247   2.889   1.231   1.987
 4116SOL    HW213248   2.867   1.071   1.963
 4117SOL     OW13249   0.920   5.912   1.913
 4117SOL    HW113250   0.968   5.918   1.825
 4117SOL    HW213251   0.885   6.002   1.938
 4118SOL     OW13252   2.488   6.797   0.126
 4118SOL    HW113253   2.532   6.785   0.037
 4118SOL    HW213254   2.535   6.869   0.177
 4119SOL     OW13255   4.221   0.944   3.357
 4119SOL    HW113256   4.304   0.921   3.407
 4119SOL    HW213257   4.230   0.914   3.262
 4120SOL     OW13258   4.036   0.847   1.546
 4120SOL    HW113259   4.094   0.781   1.594
 4120SOL    HW213260   3.948   0.804   1.525
 4121SOL     OW13261   6.263   2.787   4.905
 4121SOL    HW113262   6.173   2.788   4.862
 4121SOL    HW213263   6.332   2.762   4.837
 4122SOL     OW13264   1.675   5.841   6.237
 4122SOL    HW113265   1.577   5.827   6.248
 4122SOL    HW213266   1.712   5.775   6.172
 4123SOL     OW13267   5.540   3.626   6.353
 4123SOL    HW113268   5.465   3.683   6.318
 4123SOL    HW213269   5.536   3.623   6.453
 4124SOL     OW13270   4.903   6.763   3.830
 4124SOL    HW113271   4.979   6.819   3.862
 4124SOL    HW213272   4.918   6.738   3.734
 4125SOL     OW13273   5.167   1.330   1.462
 4125SOL    HW113274   5.148   1.236   1.433
 4125SOL    HW213275   5.176   1.389   1.381
 4126SOL     OW13276   2.022   4.682   4.268
 4126SOL    HW113277   2.121   4.682   4.285
 4126SOL    HW213278   2.005   4.684   4.170
 4127SOL     OW13279   6.550   3.609   5.673
 4127SOL    HW113280   6.509   3.698   5.696
 4127SOL    HW213281   6.644   3.607   5.708
 4128SOL     OW13282   0.904   2.115   2.833
 4128SOL    HW113283   0.865   2.033   2.876
 4128SOL    HW213284   0.972   2.155   2.895
 4129SOL     OW13285   5.868   2.168   6.051
 4129SOL    HW113286   5.839   2.235   5.982
 4129SOL    HW213287   5.871   2.077   6.010
 4130SOL     OW13288   5.929   3.726   0.703
 4130SOL    HW113289   5.864   3.759   0.771
 4130SOL    HW213290   5.881   3.704   0.618
 4131SOL     OW13291   6.327   4.499   3.565
 4131SOL    HW113292   6.282   4.575   3.519
 4131SOL    HW213293   6.276   4.414   3.549
 4132SOL     OW13294   4.774   2.398   3.734
 4132SOL    HW113295   4.723   2.390   3.820
 4132SOL    HW213296   4.773   2.310   3.686
 4133SOL     OW13297   2.898   1.840   1.258
 4133SOL    HW113298   2.970   1.807   1.319
 4133SOL    HW213299   2.813   1.849   1.310
 4134SOL     OW13300   0.844   1.421   7.015
 4134SOL    HW113301   0.915   1.464   0.053
 4134SOL    HW213302   0.768   1.486   7.003
 4135SOL     OW13303   1.235   0.736   1.284
 4135SOL    HW113304   1.141   0.760   1.261
 4135SOL    HW213305   1.283   0.818   1.316
 4136SOL     OW13306   1.162   2.176   3.340
 4136SOL    HW113307   1.177   2.275   3.335
 4136SOL    HW213308   1.250   2.130   3.350
 4137SOL     OW13309   3.172   4.344   6.110
 4137SOL    HW113310   3.186   4.443   6.104
 4137SOL    HW213311   3.085   4.325   6.154
 4138SOL     OW13312   4.351   4.883   3.411
 4138SOL    HW113313   4.340   4.901   3.314
 4138SOL    HW213314   4.429   4.934   3.446
 4139SOL     OW13315   1.919   1.139   6.812
 4139SOL    HW113316   1.918   1.112   6.715
 4139SOL    HW213317   2.008   1.120   6.851
 4140SOL     OW13318   4.627   1.364   4.746
 4140SOL    HW113319   4.677   1.403   4.824
 4140SOL    HW213320   4.658   1.408   4.662
 4141SOL     OW13321   5.307   5.543   0.468
 4141SOL    HW113322   5.334   5.598   0.389
 4141SOL    HW213323   5.377   5.549   0.539
 4142SOL     OW13324   6.306   3.740   1.487
 4142SOL    HW113325   6.284   3.661   1.430
 4142SOL    HW213326   6.223   3.773   1.532
 4143SOL     OW13327   0.287   2.717   1.400
 4143SOL    HW113328   0.378   2.684   1.425
 4143SOL    HW213329   0.258   2.675   1.314
 4144SOL     OW13330   4.259   0.304   2.547
 4144SOL    HW113331   4.191   0.363   2.589
 4144SOL    HW213332   4.318   0.264   2.618
 4145SOL     OW13333   2.642   0.089   2.999
 4145SOL    HW113334   2.649   0.062   2.903
 4145SOL    HW213335   2.731   0.121   3.032
 4146SOL     OW13336   5.099   5.897   0.420
 4146SOL    HW113337   5.178   5.929   0.474
 4146SOL    HW213338   5.072   5.807   0.452
 4147SOL     OW13339   3.397   2.440   5.583
 4147SOL    HW113340   3.388   2.428   5.681
 4147SOL    HW213341   3.352   2.364   5.535
 4148SOL     OW13342   5.966   0.287   3.294
 4148SOL    HW113343   5.931   0.359   3.355
 4148SOL    HW213344   6.007   0.329   3.213
 4149SOL     OW13345   5.224   3.629   1.905
 4149SOL    HW113346   5.302   3.609   1.846
 4149SOL    HW213347   5.213   3.555   1.971
 4150SOL     OW13348   4.870   0.411   6.276
 4150SOL    HW113349   4.823   0.322   6.281
 4150SOL    HW213350   4.964   0.401   6.309
 4151SOL     OW13351   0.459   5.692   0.931
 4151SOL    HW113352   0.428   5.600   0.906
 4151SOL    HW213353   0.423   5.757   0.864
 4152SOL     OW13354   3.494   4.069   1.332
 4152SOL    HW113355   3.527   4.137   1.398
 4152SOL    HW213356   3.435   4.115   1.265
 4153SOL     OW13357   6.522   5.176   5.827
 4153SOL    HW113358   6.476   5.087   5.819
 4153SOL    HW213359   6.522   5.205   5.922
 4154SOL     OW13360   4.991   3.307   5.815
 4154SOL    HW113361   4.895   3.297   5.839
 4154SOL    HW213362   5.047   3.306   5.899
 4155SOL     OW13363   0.855   2.994   2.109
 4155SOL    HW113364   0.954   3.007   2.113
 4155SOL    HW213365   0.809   3.074   2.148
 4156SOL     OW13366   5.988   0.175   5.760
 4156SOL    HW113367   5.939   0.208   5.679
 4156SOL    HW213368   5.922   0.145   5.828
 4157SOL     OW13369   3.501   0.703   5.086
 4157SOL    HW113370   3.569   0.763   5.130
 4157SOL    HW213371   3.447   0.756   5.021
 4158SOL     OW13372   1.124   6.615   4.187
 4158SOL    HW113373   1.203   6.555   4.200
 4158SOL    HW213374   1.102   6.621   4.090
 4159SOL     OW13375   0.932   2.806   4.787
 4159SOL    HW113376   0.994   2.855   4.726
 4159SOL    HW213377   0.883   2.872   4.845
 4160SOL     OW13378   1.507   1.276   0.598
 4160SOL    HW113379   1.462   1.214   0.663
 4160SOL    HW213380   1.512   1.232   0.509
 4161SOL     OW13381   6.443   2.044   0.445
 4161SOL    HW113382   6.476   1.954   0.415
 4161SOL    HW213383   6.415   2.098   0.365
 4162SOL     OW13384   6.283   0.421   5.466
 4162SOL    HW113385   6.226   0.342   5.490
 4162SOL    HW213386   6.259   0.453   5.374
 4163SOL     OW13387   5.740   1.505   4.221
 4163SOL    HW113388   5.682   1.507   4.303
 4163SOL    HW213389   5.760   1.410   4.196
 4164SOL     OW13390   2.405   0.164   5.774
 4164SOL    HW113391   2.361   0.251   5.752
 4164SOL    HW213392   2.454   0.173   5.861
 4165SOL     OW13393   3.699   6.295   2.261
 4165SOL    HW113394   3.688   6.332   2.354
 4165SOL    HW213395   3.660   6.358   2.195
 4166SOL     OW13396   5.607   3.029   0.826
 4166SOL    HW113397   5.704   3.022   0.851
 4166SOL    HW213398   5.596   3.006   0.729
 4167SOL     OW13399   1.855   2.819   1.346
 4167SOL    HW113400   1.918   2.873   1.401
 4167SOL    HW213401   1.799   2.879   1.289
 4168SOL     OW13402   1.529   4.896   0.942
 4168SOL    HW113403   1.490   4.804   0.948
 4168SOL    HW213404   1.594   4.900   0.866
 4169SOL     OW13405   5.944   3.521   4.785
 4169SOL    HW113406   5.852   3.484   4.774
 4169SOL    HW213407   5.961   3.590   4.715
 4170SOL     OW13408   4.570   2.480   5.605
 4170SOL    HW113409   4.568   2.573   5.568
 4170SOL    HW213410   4.576   2.414   5.531
 4171SOL     OW13411   5.839   3.672   1.595
 4171SOL    HW113412   5.838   3.579   1.631
 4171SOL    HW213413   5.933   3.706   1.592
 4172SOL     OW13414   1.800   1.742   0.571
 4172SOL    HW113415   1.825   1.834   0.540
 4172SOL    HW213416   1.768   1.746   0.666
 4173SOL     OW13417   5.247   3.640   5.711
 4173SOL    HW113418   5.272   3.698   5.634
 4173SOL    HW213419   5.169   3.582   5.686
 4174SOL     OW13420   4.965   0.848   4.522
 4174SOL    HW113421   4.895   0.780   4.503
 4174SOL    HW213422   5.006   0.830   4.612
 4175SOL     OW13423   3.589   1.175   3.414
 4175SOL    HW113424   3.599   1.243   3.341
 4175SOL    HW213425   3.661   1.106   3.405
 4176SOL     OW13426   5.843   6.088   2.963
 4176SOL    HW113427   5.914   6.088   3.033
 4176SOL    HW213428   5.789   6.172   2.971
 4177SOL     OW13429   6.999   5.668   2.614
 4177SOL    HW113430   0.037   5.721   2.678
 4177SOL    HW213431   6.948   5.598   2.663
 4178SOL     OW13432   4.142   2.258   5.700
 4178SOL    HW113433   4.066   2.311   5.737
 4178SOL    HW213434   4.229   2.302   5.725
 4179SOL     OW13435   5.798   3.132   5.935
 4179SOL    HW113436   5.857   3.100   5.861
 4179SOL    HW213437   5.802   3.232   5.940
 4180SOL     OW13438   4.279   3.760   1.732
 4180SOL    HW113439   4.288   3.854   1.698
 4180SOL    HW213440   4.369   3.717   1.734
 4181SOL     OW13441   0.389   1.149   0.056
 4181SOL    HW113442   0.329   1.111   0.126
 4181SOL    HW213443   0.457   1.209   0.099
 4182SOL     OW13444   5.454   1.022   3.653
 4182SOL    HW113445   5.520   0.983   3.589
 4182SOL    HW213446   5.460   0.975   3.740
 4183SOL     OW13447   1.525   1.881   1.248
 4183SOL    HW113448   1.428   1.891   1.228
 4183SOL    HW213449   1.549   1.784   1.256
 4184SOL     OW13450   4.870   5.405   0.430
 4184SOL    HW113451   4.888   5.361   0.518
 4184SOL    HW213452   4.786   5.459   0.436
 4185SOL     OW13453   0.463   6.904   4.327
 4185SOL    HW113454   0.395   6.904   4.400
 4185SOL    HW213455   0.454   6.988   4.273
 4186SOL     OW13456   3.122   4.251   1.354
 4186SOL    HW113457   3.199   4.278   1.411
 4186SOL    HW213458   3.044   4.230   1.412
 4187SOL     OW13459   4.441   4.265   6.646
 4187SOL    HW113460   4.500   4.288   6.568
 4187SOL    HW213461   4.360   4.323   6.644
 4188SOL     OW13462   5.110   6.744   4.531
 4188SOL    HW113463   5.137   6.745   4.628
 4188SOL    HW213464   5.027   6.690   4.521
 4189SOL     OW13465   2.283   2.549   3.656
 4189SOL    HW113466   2.264   2.597   3.741
 4189SOL    HW213467   2.380   2.560   3.633
 4190SOL     OW13468   2.797   0.252   1.652
 4190SOL    HW113469   2.730   0.180   1.675
 4190SOL    HW213470   2.774   0.290   1.563
 4191SOL     OW13471   6.422   2.136   2.535
 4191SOL    HW113472   6.394   2.076   2.459
 4191SOL    HW213473   6.343   2.184   2.571
 4192SOL     OW13474   6.233   1.445   3.412
 4192SOL    HW113475   6.138   1.470   3.390
 4192SOL    HW213476   6.277   1.520   3.460
 4193SOL     OW13477   2.026   0.118   2.139
 4193SOL    HW113478   2.040   0.035   2.085
 4193SOL    HW213479   2.055   0.198   2.086
 4194SOL     OW13480   0.622   0.783   4.113
 4194SOL    HW113481   0.566   0.828   4.183
 4194SOL    HW213482   0.651   0.693   4.147
 4195SOL     OW13483   5.099   1.099   2.272
 4195SOL    HW113484   5.191   1.140   2.273
 4195SOL    HW213485   5.062   1.101   2.179
 4196SOL     OW13486   4.584   2.663   3.328
 4196SOL    HW113487   4.542   2.599   3.264
 4196SOL    HW213488   4.602   2.616   3.415
 4197SOL     OW13489   4.584   4.537   4.114
 4197SOL    HW113490   4.506   4.581   4.158
 4197SOL    HW213491   4.588   4.564   4.018
 4198SOL     OW13492   5.876   3.979   5.750
 4198SOL    HW113493   5.824   3.895   5.758
 4198SOL    HW213494   5.943   3.984   5.823
 4199SOL     OW13495   3.289   4.107   5.006
 4199SOL    HW113496   3.287   4.057   4.919
 4199SOL    HW213497   3.261   4.202   4.991
 4200SOL     OW13498   2.532   0.117   5.995
 4200SOL    HW113499   2.496   0.025   6.013
 4200SOL    HW213500   2.611   0.134   6.054
 4201SOL     OW13501   6.327   6.575   4.327
 4201SOL    HW113502   6.398   6.625   4.276
 4201SOL    HW213503   6.341   6.589   4.425
 4202SOL     OW13504   5.445   4.357   4.928
 4202SOL    HW113505   5.392   4.424   4.979
 4202SOL    HW213506   5.437   4.375   4.830
 4203SOL     OW13507   5.263   5.255   3.876
 4203SOL    HW113508   5.212   5.339   3.860
 4203SOL    HW213509   5.354   5.262   3.835
 4204SOL     OW13510   3.163   3.968   0.734
 4204SOL    HW113511   3.064   3.971   0.751
 4204SOL    HW213512   3.179   3.956   0.636
 4205SOL     OW13513   2.703   5.098   2.714
 4205SOL    HW113514   2.752   5.011   2.720
 4205SOL    HW213515   2.760   5.165   2.666
 4206SOL     OW13516   5.850   0.078   4.756
 4206SOL    HW113517   5.909   0.114   4.684
 4206SOL    HW213518   5.823   0.152   4.818
 4207SOL     OW13519   0.978   0.742   1.156
 4207SOL    HW113520   0.990   0.782   1.065
 4207SOL    HW213521   0.963   0.815   1.223
 4208SOL     OW13522   1.014   3.083   1.436
 4208SOL    HW113523   1.111   3.066   1.453
 4208SOL    HW213524   1.000   3.103   1.339
 4209SOL     OW13525   2.951   6.957   4.641
 4209SOL    HW113526   2.941   6.947   4.542
 4209SOL    HW213527   2.961   0.037   4.663
 4210SOL     OW13528   5.163   2.438   0.710
 4210SOL    HW113529   5.181   2.516   0.770
 4210SOL    HW213530   5.176   2.466   0.615
 4211SOL     OW13531   4.890   4.013   3.513
 4211SOL    HW113532   4.980   4.056   3.509
 4211SOL    HW213533   4.877   3.956   3.433
 4212SOL     OW13534   6.207   6.905   2.824
 4212SOL    HW113535   6.205   6.970   2.748
 4212SOL    HW213536   6.267   6.939   2.895
 4213SOL     OW13537   0.730   0.796   2.379
 4213SOL    HW113538   0.634   0.807   2.352
 4213SOL    HW213539   0.734   0.762   2.473
 4214SOL     OW13540   2.163   4.239   4.497
 4214SOL    HW113541   2.134   4.309   4.432
 4214SOL    HW213542   2.255   4.260   4.529
 4215SOL     OW13543   0.583   5.200   4.896
 4215SOL    HW113544   0.618   5.106   4.902
 4215SOL    HW213545   0.485   5.200   4.918
 4216SOL     OW13546   2.290   3.404   5.343
 4216SOL    HW113547   2.306   3.310   5.312
 4216SOL    HW213548   2.267   3.403   5.440
 4217SOL     OW13549   6.686   0.895   3.283
 4217SOL    HW113550   6.643   0.955   3.350
 4217SOL    HW213551   6.676   0.800   3.313
 4218SOL     OW13552   2.995   6.732   2.841
 4218SOL    HW113553   3.053   6.794   2.893
 4218SOL    HW213554   3.051   6.683   2.774
 4219SOL     OW13555   4.945   6.453   3.493
 4219SOL    HW113556   4.875   6.512   3.533
 4219SOL    HW213557   4.982   6.392   3.563
 4220SOL     OW13558   0.440   3.884   3.562
 4220SOL    HW113559   0.439   3.799   3.615
 4220SOL    HW213560   0.425   3.863   3.465
 4221SOL     OW13561   5.635   5.633   6.015
 4221SOL    HW113562   5.634   5.732   6.005
 4221SOL    HW213563   5.720   5.605   6.058
 4222SOL     OW13564   4.274   2.360   0.220
 4222SOL    HW113565   4.174   2.368   0.217
 4222SOL    HW213566   4.313   2.445   0.257
 4223SOL     OW13567   3.486   4.130   2.926
 4223SOL    HW113568   3.521   4.179   2.845
 4223SOL    HW213569   3.389   4.111   2.914
 4224SOL     OW13570   4.425   1.957   5.351
 4224SOL    HW113571   4.336   2.002   5.342
 4224SOL    HW213572   4.496   2.027   5.365
 4225SOL     OW13573   5.457   0.792   4.772
 4225SOL    HW113574   5.463   0.842   4.859
 4225SOL    HW213575   5.484   0.697   4.786
 4226SOL     OW13576   1.600   0.685   3.230
 4226SOL    HW113577   1.564   0.778   3.221
 4226SOL    HW213578   1.566   0.644   3.315
 4227SOL     OW13579   6.141   4.193   0.522
 4227SOL    HW113580   6.217   4.234   0.572
 4227SOL    HW213581   6.115   4.252   0.446
 4228SOL     OW13582   6.219   5.495   2.418
 4228SOL    HW113583   6.172   5.468   2.502
 4228SOL    HW213584   6.156   5.549   2.361
 4229SOL     OW13585   5.047   4.786   5.644
 4229SOL    HW113586   4.978   4.829   5.586
 4229SOL    HW213587   5.077   4.852   5.713
 4230SOL     OW13588   3.480   0.525   4.497
 4230SOL    HW113589   3.545   0.548   4.569
 4230SOL    HW213590   3.529   0.496   4.415
 4231SOL     OW13591   4.186   6.215   5.152
 4231SOL    HW113592   4.229   6.215   5.062
 4231SOL    HW213593   4.152   6.123   5.173
 4232SOL     OW13594   2.247   3.961   1.760
 4232SOL    HW113595   2.277   3.866   1.770
 4232SOL    HW213596   2.287   4.000   1.676
 4233SOL     OW13597   5.437   6.773   1.266
 4233SOL    HW113598   5.521   6.739   1.223
 4233SOL    HW213599   5.358   6.725   1.229
 4234SOL     OW13600   3.456   4.189   5.405
 4234SOL    HW113601   3.394   4.130   5.354
 4234SOL    HW213602   3.489   4.141   5.487
 4235SOL     OW13603   6.899   3.473   5.502
 4235SOL    HW113604   6.908   3.465   5.601
 4235SOL    HW213605   6.953   3.549   5.468
 4236SOL     OW13606   1.189   4.272   5.111
 4236SOL    HW113607   1.198   4.335   5.034
 4236SOL    HW213608   1.092   4.257   5.131
 4237SOL     OW13609   5.236   4.229   4.719
 4237SOL    HW113610   5.312   4.277   4.674
 4237SOL    HW213611   5.188   4.173   4.652
 4238SOL     OW13612   4.049   5.095   3.870
 4238SOL    HW113613   4.148   5.093   3.884
 4238SOL    HW213614   4.019   5.190   3.858
 4239SOL     OW13615   5.114   5.357   5.883
 4239SOL    HW113616   5.210   5.384   5.892
 4239SOL    HW213617   5.065   5.382   5.966
 4240SOL     OW13618   2.521   4.824   6.057
 4240SOL    HW113619   2.443   4.787   6.106
 4240SOL    HW213620   2.605   4.783   6.092
 4241SOL     OW13621   3.911   1.353   0.279
 4241SOL    HW113622   3.913   1.372   0.377
 4241SOL    HW213623   3.853   1.422   0.234
 4242SOL     OW13624   1.676   0.333   2.394
 4242SOL    HW113625   1.588   0.312   2.438
 4242SOL    HW213626   1.679   0.430   2.372
 4243SOL     OW13627   1.697   3.218   3.266
 4243SOL    HW113628   1.700   3.188   3.361
 4243SOL    HW213629   1.622   3.173   3.219
 4244SOL     OW13630   3.203   6.352   1.222
 4244SOL    HW113631   3.259   6.406   1.159
 4244SOL    HW213632   3.248   6.349   1.311
 4245SOL     OW13633   6.234   2.987   1.752
 4245SOL    HW113634   6.246   3.043   1.670
 4245SOL    HW213635   6.293   2.906   1.745
 4246SOL     OW13636   3.995   2.144   4.083
 4246SOL    HW113637   4.019   2.236   4.113
 4246SOL    HW213638   4.018   2.079   4.156
 4247SOL     OW13639   1.981   4.014   6.309
 4247SOL    HW113640   2.031   3.943   6.260
 4247SOL    HW213641   1.931   4.071   6.244
 4248SOL     OW13642   1.699   0.267   3.134
 4248SOL    HW113643   1.642   0.302   3.208
 4248SOL    HW213644   1.663   0.178   3.104
 4249SOL     OW13645   6.547   6.995   5.638
 4249SOL    HW113646   6.528   6.996   5.540
 4249SOL    HW213647   6.462   6.993   5.690
 4250SOL     OW13648   6.528   5.775   4.416
 4250SOL    HW113649   6.554   5.698   4.474
 4250SOL    HW213650   6.428   5.775   4.403
 4251SOL     OW13651   5.953   2.278   5.333
 4251SOL    HW113652   5.895   2.299   5.254
 4251SOL    HW213653   6.044   2.251   5.300
 4252SOL     OW13654   6.891   6.751   0.119
 4252SOL    HW113655   6.792   6.751   0.105
 4252SOL    HW213656   6.911   6.742   0.217
 4253SOL     OW13657   4.575   5.587   2.924
 4253SOL    HW113658   4.595   5.566   2.828
 4253SOL    HW213659   4.588   5.505   2.980
 4254SOL     OW13660   2.280   2.442   5.833
 4254SOL    HW113661   2.205   2.388   5.796
 4254SOL    HW213662   2.245   2.530   5.864
 4255SOL     OW13663   1.250   3.260   3.296
 4255SOL    HW113664   1.267   3.225   3.204
 4255SOL    HW213665   1.337   3.264   3.346
 4256SOL     OW13666   0.331   6.200   1.021
 4256SOL    HW113667   0.270   6.124   0.997
 4256SOL    HW213668   0.382   6.229   0.940
 4257SOL     OW13669   6.946   0.684   4.067
 4257SOL    HW113670   6.939   0.601   4.122
 4257SOL    HW213671   6.933   0.764   4.126
 4258SOL     OW13672   3.108   5.215   0.734
 4258SOL    HW113673   3.207   5.217   0.745
 4258SOL    HW213674   3.064   5.207   0.824
 4259SOL     OW13675   0.945   0.354   0.520
 4259SOL    HW113676   1.038   0.334   0.491
 4259SOL    HW213677   0.883   0.347   0.441
 4260SOL     OW13678   5.668   1.131   4.665
 4260SOL    HW113679   5.673   1.212   4.724
 4260SOL    HW213680   5.725   1.058   4.704
 4261SOL     OW13681   2.842   6.119   4.184
 4261SOL    HW113682   2.821   6.214   4.163
 4261SOL    HW213683   2.897   6.080   4.109
 4262SOL     OW13684   2.646   4.880   5.809
 4262SOL    HW113685   2.576   4.842   5.869
 4262SOL    HW213686   2.726   4.906   5.863
 4263SOL     OW13687   2.072   2.151   3.290
 4263SOL    HW113688   2.133   2.083   3.250
 4263SOL    HW213689   2.108   2.182   3.377
 4264SOL     OW13690   4.765   2.219   5.716
 4264SOL    HW113691   4.750   2.123   5.740
 4264SOL    HW213692   4.676   2.263   5.699
 4265SOL     OW13693   2.178   6.952   5.871
 4265SOL    HW113694   2.228   6.940   5.957
 4265SOL    HW213695   2.194   6.873   5.812
 4266SOL     OW13696   1.525   4.942   1.813
 4266SOL    HW113697   1.567   5.033   1.820
 4266SOL    HW213698   1.443   4.948   1.756
 4267SOL     OW13699   1.063   4.459   4.399
 4267SOL    HW113700   1.010   4.543   4.409
 4267SOL    HW213701   1.158   4.477   4.425
 4268SOL     OW13702   0.987   4.000   6.236
 4268SOL    HW113703   0.949   3.998   6.143
 4268SOL    HW213704   0.915   4.021   6.301
 4269SOL     OW13705   2.819   1.584   5.003
 4269SOL    HW113706   2.747   1.546   5.062
 4269SOL    HW213707   2.784   1.662   4.953
 4270SOL     OW13708   3.739   3.129   0.083
 4270SOL    HW113709   3.663   3.169   0.135
 4270SOL    HW213710   3.706   3.099   7.011
 4271SOL     OW13711   6.603   0.655   1.075
 4271SOL    HW113712   6.602   0.592   1.152
 4271SOL    HW213713   6.536   0.626   1.007
 4272SOL     OW13714   6.603   0.858   6.046
 4272SOL    HW113715   6.578   0.868   6.142
 4272SOL    HW213716   6.695   0.893   6.032
 4273SOL     OW13717   3.064   5.846   4.443
 4273SOL    HW113718   2.977   5.805   4.470
 4273SOL    HW213719   3.104   5.792   4.369
 4274SOL     OW13720   6.822   1.399   2.387
 4274SOL    HW113721   6.778   1.326   2.441
 4274SOL    HW213722   6.899   1.361   2.337
 4275SOL     OW13723   0.665   2.611   3.548
 4275SOL    HW113724   0.576   2.564   3.551
 4275SOL    HW213725   0.733   2.557   3.596
 4276SOL     OW13726   2.007   6.008   2.827
 4276SOL    HW113727   2.027   5.976   2.920
 4276SOL    HW213728   1.920   5.971   2.797
 4277SOL     OW13729   6.969   5.342   2.823
 4277SOL    HW113730   0.033   5.395   2.847
 4277SOL    HW213731   6.957   5.342   2.724
 4278SOL     OW13732   1.152   6.620   1.517
 4278SOL    HW113733   1.082   6.610   1.447
 4278SOL    HW213734   1.136   6.704   1.569
 4279SOL     OW13735   1.047   2.523   3.452
 4279SOL    HW113736   1.126   2.487   3.402
 4279SOL    HW213737   1.065   2.616   3.482
 4280SOL     OW13738   2.173   6.598   6.308
 4280SOL    HW113739   2.155   6.503   6.283
 4280SOL    HW213740   2.265   6.623   6.278
 4281SOL     OW13741   5.336   6.116   3.143
 4281SOL    HW113742   5.355   6.100   3.046
 4281SOL    HW213743   5.301   6.209   3.155
 4282SOL     OW13744   4.710   5.282   2.217
 4282SOL    HW113745   4.804   5.291   2.184
 4282SOL    HW213746   4.648   5.279   2.139
 4283SOL     OW13747   4.981   1.294   4.552
 4283SOL    HW113748   5.039   1.215   4.572
 4283SOL    HW213749   4.986   1.360   4.627
 4284SOL     OW13750   4.524   4.984   6.502
 4284SOL    HW113751   4.571   5.046   6.439
 4284SOL    HW213752   4.437   4.956   6.464
 4285SOL     OW13753   3.293   1.217   6.255
 4285SOL    HW113754   3.237   1.217   6.172
 4285SOL    HW213755   3.349   1.134   6.257
 4286SOL     OW13756   5.909   0.673   6.544
 4286SOL    HW113757   5.898   0.755   6.487
 4286SOL    HW213758   5.847   0.679   6.623
 4287SOL     OW13759   3.519   0.959   1.245
 4287SOL    HW113760   3.599   1.010   1.277
 4287SOL    HW213761   3.549   0.876   1.198
 4288SOL     OW13762   6.789   6.234   1.906
 4288SOL    HW113763   6.753   6.308   1.850
 4288SOL    HW213764   6.864   6.269   1.963
 4289SOL     OW13765   0.264   4.651   4.558
 4289SOL    HW113766   0.189   4.694   4.508
 4289SOL    HW213767   0.288   4.565   4.513
 4290SOL     OW13768   0.278   1.367   3.106
 4290SOL    HW113769   0.359   1.386   3.050
 4290SOL    HW213770   0.301   1.380   3.202
 4291SOL     OW13771   3.722   4.289   6.596
 4291SOL    HW113772   3.644   4.234   6.626
 4291SOL    HW213773   3.801   4.271   6.656
 4292SOL     OW13774   6.518   1.308   1.870
 4292SOL    HW113775   6.585   1.346   1.933
 4292SOL    HW213776   6.506   1.211   1.888
 4293SOL     OW13777   3.988   2.735   0.042
 4293SOL    HW113778   3.936   2.803   7.007
 4293SOL    HW213779   4.068   2.706   7.006
 4294SOL     OW13780   2.779   1.826   6.449
 4294SOL    HW113781   2.805   1.877   6.531
 4294SOL    HW213782   2.720   1.750   6.474
 4295SOL     OW13783   4.403   6.138   3.182
 4295SOL    HW113784   4.399   6.139   3.082
 4295SOL    HW213785   4.457   6.216   3.214
 4296SOL     OW13786   2.663   6.759   2.375
 4296SOL    HW113787   2.708   6.673   2.349
 4296SOL    HW213788   2.680   6.828   2.305
 4297SOL     OW13789   5.050   5.194   0.221
 4297SOL    HW113790   5.081   5.162   0.132
 4297SOL    HW213791   5.081   5.288   0.235
 4298SOL     OW13792   1.913   0.467   0.684
 4298SOL    HW113793   1.992   0.412   0.708
 4298SOL    HW213794   1.927   0.507   0.593
 4299SOL     OW13795   0.713   3.020   6.618
 4299SOL    HW113796   0.641   3.057   6.560
 4299SOL    HW213797   0.802   3.040   6.577
 4300SOL     OW13798   3.498   0.708   1.755
 4300SOL    HW113799   3.484   0.616   1.792
 4300SOL    HW213800   3.459   0.713   1.663
 4301SOL     OW13801   2.519   5.828   6.737
 4301SOL    HW113802   2.433   5.876   6.724
 4301SOL    HW213803   2.572   5.830   6.652
 4302SOL     OW13804   3.265   4.834   5.927
 4302SOL    HW113805   3.306   4.860   6.014
 4302SOL    HW213806   3.219   4.914   5.887
 4303SOL     OW13807   4.895   5.212   3.577
 4303SOL    HW113808   4.961   5.162   3.521
 4303SOL    HW213809   4.863   5.154   3.652
 4304SOL     OW13810   3.193   4.123   1.732
 4304SOL    HW113811   3.254   4.106   1.810
 4304SOL    HW213812   3.196   4.219   1.707
 4305SOL     OW13813   0.958   6.123   6.183
 4305SOL    HW113814   1.038   6.100   6.127
 4305SOL    HW213815   0.885   6.158   6.124
 4306SOL     OW13816   5.754   4.117   5.418
 4306SOL    HW113817   5.854   4.125   5.407
 4306SOL    HW213818   5.711   4.113   5.328
 4307SOL     OW13819   0.650   0.715   5.903
 4307SOL    HW113820   0.551   0.724   5.891
 4307SOL    HW213821   0.686   0.799   5.944
 4308SOL     OW13822   4.746   5.597   6.267
 4308SOL    HW113823   4.811   5.526   6.238
 4308SOL    HW213824   4.669   5.555   6.315
 4309SOL     OW13825   1.286   1.237   6.900
 4309SOL    HW113826   1.319   1.304   6.834
 4309SOL    HW213827   1.362   1.206   6.957
 4310SOL     OW13828   6.386   2.009   3.277
 4310SOL    HW113829   6.482   2.014   3.248
 4310SOL    HW213830   6.359   2.098   3.315
 4311SOL     OW13831   0.795   0.422   1.752
 4311SOL    HW113832   0.698   0.439   1.732
 4311SOL    HW213833   0.821   0.333   1.715
 4312SOL     OW13834   6.579   4.514   2.399
 4312SOL    HW113835   6.570   4.476   2.491
 4312SOL    HW213836   6.627   4.601   2.404
 4313SOL     OW13837   0.529   3.095   6.421
 4313SOL    HW113838   0.452   3.155   6.441
 4313SOL    HW213839   0.530   3.074   6.323
 4314SOL     OW13840   0.785   1.260   6.235
 4314SOL    HW113841   0.715   1.206   6.281
 4314SOL    HW213842   0.765   1.264   6.137
 4315SOL     OW13843   2.811   1.105   5.064
 4315SOL    HW113844   2.820   1.008   5.041
 4315SOL    HW213845   2.717   1.134   5.048
 4316SOL     OW13846   4.316   5.690   1.875
 4316SOL    HW113847   4.380   5.619   1.846
 4316SOL    HW213848   4.272   5.729   1.794
 4317SOL     OW13849   4.879   0.728   5.381
 4317SOL    HW113850   4.841   0.783   5.307
 4317SOL    HW213851   4.875   0.780   5.467
 4318SOL     OW13852   1.153   6.273   4.610
 4318SOL    HW113853   1.252   6.258   4.599
 4318SOL    HW213854   1.108   6.259   4.522
 4319SOL     OW13855   0.959   4.145   2.517
 4319SOL    HW113856   1.006   4.233   2.516
 4319SOL    HW213857   0.965   4.106   2.609
 4320SOL     OW13858   2.797   0.251   0.910
 4320SOL    HW113859   2.877   0.229   0.856
 4320SOL    HW213860   2.790   0.351   0.919
 4321SOL     OW13861   6.948   6.338   3.165
 4321SOL    HW113862   6.934   6.421   3.110
 4321SOL    HW213863   6.954   6.363   3.261
 4322SOL     OW13864   1.995   1.919   4.679
 4322SOL    HW113865   1.984   1.858   4.600
 4322SOL    HW213866   1.924   1.899   4.746
 4323SOL     OW13867   4.752   5.081   0.209
 4323SOL    HW113868   4.848   5.076   0.237
 4323SOL    HW213869   4.740   5.153   0.141
 4324SOL     OW13870   1.027   4.957   5.598
 4324SOL    HW113871   1.108   4.956   5.658
 4324SOL    HW213872   0.967   4.880   5.622
 4325SOL     OW13873   2.203   6.774   2.365
 4325SOL    HW113874   2.122   6.816   2.407
 4325SOL    HW213875   2.234   6.698   2.422
 4326SOL     OW13876   5.267   2.358   2.260
 4326SOL    HW113877   5.306   2.419   2.330
 4326SOL    HW213878   5.318   2.272   2.260
 4327SOL     OW13879   2.604   5.455   3.434
 4327SOL    HW113880   2.671   5.384   3.412
 4327SOL    HW213881   2.579   5.448   3.530
 4328SOL     OW13882   6.862   0.696   3.826
 4328SOL    HW113883   6.772   0.737   3.839
 4328SOL    HW213884   6.911   0.696   3.913
 4329SOL     OW13885   0.163   2.566   6.529
 4329SOL    HW113886   0.165   2.466   6.531
 4329SOL    HW213887   0.086   2.598   6.584
 4330SOL     OW13888   2.639   5.174   4.486
 4330SOL    HW113889   2.546   5.138   4.477
 4330SOL    HW213890   2.647   5.225   4.572
 4331SOL     OW13891   6.044   2.074   2.592
 4331SOL    HW113892   6.125   2.132   2.583
 4331SOL    HW213893   6.061   2.005   2.664
 4332SOL     OW13894   0.849   5.529   1.370
 4332SOL    HW113895   0.910   5.512   1.448
 4332SOL    HW213896   0.834   5.628   1.360
 4333SOL     OW13897   3.928   2.368   6.125
 4333SOL    HW113898   3.832   2.353   6.102
 4333SOL    HW213899   3.983   2.293   6.087
 4334SOL     OW13900   0.487   2.681   4.171
 4334SOL    HW113901   0.403   2.686   4.224
 4334SOL    HW213902   0.550   2.752   4.203
 4335SOL     OW13903   2.414   4.029   1.529
 4335SOL    HW113904   2.423   4.029   1.430
 4335SOL    HW213905   2.480   4.093   1.568
 4336SOL     OW13906   2.615   5.931   5.137
 4336SOL    HW113907   2.616   6.031   5.132
 4336SOL    HW213908   2.526   5.900   5.172
 4337SOL     OW13909   0.751   4.838   3.844
 4337SOL    HW113910   0.719   4.933   3.846
 4337SOL    HW213911   0.825   4.830   3.777
 4338SOL     OW13912   2.950   2.458   6.079
 4338SOL    HW113913   2.870   2.406   6.107
 4338SOL    HW213914   2.945   2.478   5.981
 4339SOL     OW13915   4.360   5.073   5.519
 4339SOL    HW113916   4.378   5.168   5.542
 4339SOL    HW213917   4.418   5.013   5.573
 4340SOL     OW13918   6.596   4.227   1.410
 4340SOL    HW113919   6.695   4.243   1.407
 4340SOL    HW213920   6.576   4.138   1.370
 4341SOL     OW13921   5.750   6.129   1.721
 4341SOL    HW113922   5.676   6.067   1.694
 4341SOL    HW213923   5.757   6.203   1.654
 4342SOL     OW13924   5.530   2.968   2.430
 4342SOL    HW113925   5.583   2.918   2.499
 4342SOL    HW213926   5.466   2.905   2.386
 4343SOL     OW13927   3.596   0.057   6.327
 4343SOL    HW113928   3.544   0.078   6.244
 4343SOL    HW213929   3.599   0.138   6.386
 4344SOL     OW13930   0.244   3.998   3.129
 4344SOL    HW113931   0.259   3.975   3.033
 4344SOL    HW213932   0.156   4.046   3.138
 4345SOL     OW13933   3.495   3.072   2.417
 4345SOL    HW113934   3.445   2.986   2.412
 4345SOL    HW213935   3.431   3.147   2.435
 4346SOL     OW13936   0.647   3.097   2.894
 4346SOL    HW113937   0.686   3.188   2.909
 4346SOL    HW213938   0.718   3.034   2.862
 4347SOL     OW13939   6.679   5.867   0.634
 4347SOL    HW113940   6.655   5.773   0.658
 4347SOL    HW213941   6.595   5.919   0.613
 4348SOL     OW13942   5.911   5.089   5.455
 4348SOL    HW113943   5.894   5.121   5.548
 4348SOL    HW213944   5.935   5.167   5.397
 4349SOL     OW13945   0.027   3.335   4.135
 4349SOL    HW113946   0.011   3.295   4.045
 4349SOL    HW213947   0.095   3.281   4.185
 4350SOL     OW13948   3.654   0.940   3.963
 4350SOL    HW113949   3.582   0.986   3.910
 4350SOL    HW213950   3.711   1.009   4.009
 4351SOL     OW13951   0.886   5.548   0.418
 4351SOL    HW113952   0.953   5.604   0.465
 4351SOL    HW213953   0.802   5.600   0.404
 4352SOL     OW13954   3.634   5.073   1.663
 4352SOL    HW113955   3.678   5.034   1.744
 4352SOL    HW213956   3.690   5.148   1.628
 4353SOL     OW13957   2.845   2.627   1.426
 4353SOL    HW113958   2.918   2.695   1.434
 4353SOL    HW213959   2.859   2.572   1.344
 4354SOL     OW13960   5.852   6.466   2.841
 4354SOL    HW113961   5.886   6.556   2.811
 4354SOL    HW213962   5.898   6.394   2.789
 4355SOL     OW13963   1.822   5.105   2.325
 4355SOL    HW113964   1.775   5.063   2.403
 4355SOL    HW213965   1.852   5.197   2.351
 4356SOL     OW13966   5.961   2.788   5.259
 4356SOL    HW113967   6.009   2.710   5.218
 4356SOL    HW213968   6.010   2.818   5.341
 4357SOL     OW13969   5.884   0.155   1.947
 4357SOL    HW113970   5.825   0.133   2.025
 4357SOL    HW213971   5.894   0.254   1.940
 4358SOL     OW13972   2.605   0.128   0.364
 4358SOL    HW113973   2.639   0.067   0.292
 4358SOL    HW213974   2.591   0.220   0.326
 4359SOL     OW13975   2.733   2.085   1.145
 4359SOL    HW113976   2.691   2.129   1.066
 4359SOL    HW213977   2.817   2.038   1.116
 4360SOL     OW13978   2.301   4.869   4.062
 4360SOL    HW113979   2.376   4.919   4.020
 4360SOL    HW213980   2.218   4.880   4.008
 4361SOL     OW13981   0.050   1.960   6.987
 4361SOL    HW113982   0.030   2.043   6.935
 4361SOL    HW213983   0.140   1.968   0.013
 4362SOL     OW13984   0.863   5.327   2.996
 4362SOL    HW113985   0.823   5.267   2.927
 4362SOL    HW213986   0.946   5.285   3.032
 4363SOL     OW13987   4.106   1.129   2.349
 4363SOL    HW113988   4.060   1.176   2.274
 4363SOL    HW213989   4.154   1.195   2.407
 4364SOL     OW13990   4.066   3.146   2.721
 4364SOL    HW113991   4.103   3.229   2.762
 4364SOL    HW213992   3.998   3.106   2.782
 4365SOL     OW13993   1.988   1.116   1.405
 4365SOL    HW113994   2.013   1.195   1.351
 4365SOL    HW213995   1.945   1.146   1.491
 4366SOL     OW13996   5.002   0.058   4.760
 4366SOL    HW113997   4.996   0.067   4.661
 4366SOL    HW213998   5.087   0.011   4.784
 4367SOL     OW13999   2.715   6.255   2.666
 4367SOL    HW114000   2.769   6.178   2.630
 4367SOL    HW214001   2.773   6.337   2.669
 4368SOL     OW14002   4.881   3.987   3.814
 4368SOL    HW114003   4.916   3.904   3.857
 4368SOL    HW214004   4.870   3.972   3.716
 4369SOL     OW14005   5.337   4.027   3.746
 4369SOL    HW114006   5.312   4.121   3.724
 4369SOL    HW214007   5.308   3.966   3.672
 4370SOL     OW14008   3.955   4.598   1.735
 4370SOL    HW114009   3.857   4.588   1.749
 4370SOL    HW214010   3.991   4.516   1.690
 4371SOL     OW14011   2.205   1.234   1.811
 4371SOL    HW114012   2.197   1.134   1.810
 4371SOL    HW214013   2.284   1.262   1.758
 4372SOL     OW14014   1.776   3.479   4.194
 4372SOL    HW114015   1.818   3.548   4.136
 4372SOL    HW214016   1.773   3.512   4.289
 4373SOL     OW14017   3.731   0.980   6.468
 4373SOL    HW114018   3.686   0.987   6.557
 4373SOL    HW214019   3.739   0.883   6.443
 4374SOL     OW14020   2.651   6.411   0.457
 4374SOL    HW114021   2.712   6.483   0.422
 4374SOL    HW214022   2.702   6.325   0.463
 4375SOL     OW14023   4.941   1.545   5.372
 4375SOL    HW114024   4.938   1.556   5.471
 4375SOL    HW214025   4.848   1.546   5.336
 4376SOL     OW14026   2.249   5.814   6.683
 4376SOL    HW114027   2.182   5.885   6.703
 4376SOL    HW214028   2.234   5.778   6.591
 4377SOL     OW14029   5.097   6.799   6.562
 4377SOL    HW114030   5.101   6.711   6.610
 4377SOL    HW214031   5.087   6.873   6.629
 4378SOL     OW14032   2.513   5.122   2.297
 4378SOL    HW114033   2.459   5.132   2.213
 4378SOL    HW214034   2.569   5.039   2.291
 4379SOL     OW14035   0.943   0.185   1.689
 4379SOL    HW114036   0.967   0.103   1.637
 4379SOL    HW214037   1.020   0.208   1.750
 4380SOL     OW14038   2.103   5.032   4.295
 4380SOL    HW114039   2.156   4.956   4.257
 4380SOL    HW214040   2.142   5.118   4.263
 4381SOL     OW14041   5.006   6.051   5.271
 4381SOL    HW114042   5.012   6.122   5.200
 4381SOL    HW214043   5.040   6.087   5.357
 4382SOL     OW14044   4.893   3.382   3.221
 4382SOL    HW114045   4.857   3.346   3.135
 4382SOL    HW214046   4.971   3.326   3.251
 4383SOL     OW14047   1.068   2.180   0.109
 4383SOL    HW114048   0.995   2.229   0.156
 4383SOL    HW214049   1.041   2.162   0.014
 4384SOL     OW14050   3.991   6.416   1.026
 4384SOL    HW114051   3.922   6.359   1.071
 4384SOL    HW214052   3.946   6.478   0.962
 4385SOL     OW14053   6.435   1.990   2.284
 4385SOL    HW114054   6.384   2.064   2.240
 4385SOL    HW214055   6.531   2.018   2.296
 4386SOL     OW14056   1.380   3.586   6.647
 4386SOL    HW114057   1.322   3.619   6.573
 4386SOL    HW214058   1.447   3.521   6.610
 4387SOL     OW14059   6.666   2.915   2.006
 4387SOL    HW114060   6.702   2.985   1.943
 4387SOL    HW214061   6.712   2.828   1.987
 4388SOL     OW14062   2.874   1.352   5.450
 4388SOL    HW114063   2.781   1.322   5.474
 4388SOL    HW214064   2.881   1.451   5.462
 4389SOL     OW14065   6.033   2.078   2.319
 4389SOL    HW114066   5.943   2.048   2.285
 4389SOL    HW214067   6.034   2.071   2.419
 4390SOL     OW14068   4.262   2.538   1.794
 4390SOL    HW114069   4.357   2.567   1.788
 4390SOL    HW214070   4.205   2.600   1.740
 4391SOL     OW14071   0.537   6.246   0.850
 4391SOL    HW114072   0.613   6.266   0.788
 4391SOL    HW214073   0.571   6.193   0.928
 4392SOL     OW14074   5.278   3.259   4.653
 4392SOL    HW114075   5.235   3.298   4.572
 4392SOL    HW214076   5.219   3.189   4.693
 4393SOL     OW14077   5.218   5.767   3.838
 4393SOL    HW114078   5.175   5.688   3.794
 4393SOL    HW214079   5.183   5.775   3.932
 4394SOL     OW14080   4.652   0.465   2.657
 4394SOL    HW114081   4.713   0.515   2.719
 4394SOL    HW214082   4.563   0.454   2.700
 4395SOL     OW14083   4.778   2.169   1.438
 4395SOL    HW114084   4.803   2.265   1.451
 4395SOL    HW214085   4.678   2.161   1.438
 4396SOL     OW14086   1.656   0.974   4.248
 4396SOL    HW114087   1.674   1.004   4.154
 4396SOL    HW214088   1.608   0.887   4.246
 4397SOL     OW14089   6.109   0.199   6.471
 4397SOL    HW114090   6.038   0.187   6.402
 4397SOL    HW214091   6.076   0.261   6.542
 4398SOL     OW14092   6.673   4.999   3.715
 4398SOL    HW114093   6.607   4.940   3.762
 4398SOL    HW214094   6.629   5.086   3.694
 4399SOL     OW14095   2.863   1.506   1.790
 4399SOL    HW114096   2.771   1.493   1.752
 4399SOL    HW214097   2.855   1.543   1.883
 4400SOL     OW14098   3.371   5.591   3.685
 4400SOL    HW114099   3.341   5.680   3.650
 4400SOL    HW214100   3.295   5.546   3.732
 4401SOL     OW14101   6.004   6.397   4.727
 4401SOL    HW114102   6.006   6.371   4.631
 4401SOL    HW214103   6.075   6.347   4.777
 4402SOL     OW14104   6.239   0.553   3.325
 4402SOL    HW114105   6.250   0.509   3.414
 4402SOL    HW214106   6.317   0.532   3.267
 4403SOL     OW14107   0.678   6.978   2.778
 4403SOL    HW114108   0.724   0.019   2.846
 4403SOL    HW214109   0.682   0.004   2.688
 4404SOL     OW14110   1.695   4.279   3.627
 4404SOL    HW114111   1.777   4.234   3.661
 4404SOL    HW214112   1.714   4.376   3.611
 4405SOL     OW14113   3.147   3.937   6.372
 4405SOL    HW114114   3.186   4.028   6.360
 4405SOL    HW214115   3.211   3.879   6.423
 4406SOL     OW14116   5.373   3.807   2.110
 4406SOL    HW114117   5.317   3.735   2.070
 4406SOL    HW214118   5.350   3.818   2.206
 4407SOL     OW14119   6.918   6.856   0.375
 4407SOL    HW114120   6.983   6.930   0.394
 4407SOL    HW214121   6.907   6.800   0.457
 4408SOL     OW14122   4.638   6.379   0.943
 4408SOL    HW114123   4.583   6.302   0.911
 4408SOL    HW214124   4.670   6.432   0.865
 4409SOL     OW14125   2.118   1.281   2.677
 4409SOL    HW114126   2.116   1.274   2.777
 4409SOL    HW214127   2.040   1.232   2.639
 4410SOL     OW14128   2.325   5.891   1.516
 4410SOL    HW114129   2.368   5.973   1.478
 4410SOL    HW214130   2.374   5.862   1.597
 4411SOL     OW14131   3.712   3.259   2.812
 4411SOL    HW114132   3.777   3.191   2.845
 4411SOL    HW214133   3.666   3.223   2.730
 4412SOL     OW14134   3.654   1.786   5.945
 4412SOL    HW114135   3.684   1.691   5.942
 4412SOL    HW214136   3.580   1.796   6.012
 4413SOL     OW14137   4.409   5.265   4.695
 4413SOL    HW114138   4.334   5.201   4.678
 4413SOL    HW214139   4.495   5.215   4.702
 4414SOL     OW14140   3.192   5.498   1.366
 4414SOL    HW114141   3.190   5.399   1.352
 4414SOL    HW214142   3.237   5.542   1.288
 4415SOL     OW14143   4.055   1.558   1.111
 4415SOL    HW114144   4.072   1.655   1.128
 4415SOL    HW214145   4.111   1.527   1.034
 4416SOL     OW14146   3.166   1.781   4.222
 4416SOL    HW114147   3.235   1.847   4.192
 4416SOL    HW214148   3.145   1.796   4.318
 4417SOL     OW14149   0.057   0.756   0.805
 4417SOL    HW114150   6.990   0.752   0.859
 4417SOL    HW214151   0.114   0.677   0.827
 4418SOL     OW14152   4.988   0.690   3.922
 4418SOL    HW114153   4.926   0.710   3.998
 4418SOL    HW214154   5.057   0.762   3.915
 4419SOL     OW14155   6.789   5.681   0.422
 4419SOL    HW114156   6.740   5.753   0.471
 4419SOL    HW214157   6.763   5.683   0.326
 4420SOL     OW14158   4.326   1.126   0.132
 4420SOL    HW114159   4.241   1.169   0.161
 4420SOL    HW214160   4.305   1.052   0.068
 4421SOL     OW14161   1.812   1.849   3.583
 4421SOL    HW114162   1.819   1.876   3.679
 4421SOL    HW214163   1.902   1.821   3.549
 4422SOL     OW14164   2.090   3.929   5.711
 4422SOL    HW114165   2.135   3.931   5.800
 4422SOL    HW214166   2.145   3.875   5.647
 4423SOL     OW14167   6.707   1.747   6.520
 4423SOL    HW114168   6.784   1.795   6.477
 4423SOL    HW214169   6.730   1.651   6.532
 4424SOL     OW14170   0.389   6.667   4.193
 4424SOL    HW114171   0.425   6.748   4.240
 4424SOL    HW214172   0.323   6.696   4.124
 4425SOL     OW14173   5.051   4.144   0.343
 4425SOL    HW114174   5.026   4.207   0.269
 4425SOL    HW214175   4.973   4.085   0.363
 4426SOL     OW14176   1.039   0.349   5.678
 4426SOL    HW114177   1.015   0.409   5.602
 4426SOL    HW214178   0.955   0.322   5.726
 4427SOL     OW14179   1.220   6.161   3.415
 4427SOL    HW114180   1.268   6.180   3.330
 4427SOL    HW214181   1.276   6.103   3.473
 4428SOL     OW14182   2.346   6.208   3.030
 4428SOL    HW114183   2.343   6.241   2.936
 4428SOL    HW214184   2.371   6.283   3.091
 4429SOL     OW14185   3.413   0.564   3.215
 4429SOL    HW114186   3.437   0.522   3.303
 4429SOL    HW214187   3.357   0.501   3.162
 4430SOL     OW14188   1.268   0.427   1.413
 4430SOL    HW114189   1.264   0.376   1.499
 4430SOL    HW214190   1.361   0.459   1.397
 4431SOL     OW14191   2.072   1.785   3.489
 4431SOL    HW114192   2.138   1.778   3.415
 4431SOL    HW214193   2.069   1.699   3.541
 4432SOL     OW14194   2.963   3.786   3.628
 4432SOL    HW114195   2.977   3.694   3.665
 4432SOL    HW214196   2.880   3.787   3.571
 4433SOL     OW14197   6.895   0.547   3.325
 4433SOL    HW114198   6.821   0.491   3.289
 4433SOL    HW214199   6.895   0.542   3.425
 4434SOL     OW14200   4.730   2.366   4.740
 4434SOL    HW114201   4.808   2.344   4.681
 4434SOL    HW214202   4.693   2.281   4.779
 4435SOL     OW14203   3.760   3.100   2.307
 4435SOL    HW114204   3.668   3.099   2.345
 4435SOL    HW214205   3.762   3.043   2.224
 4436SOL     OW14206   5.168   0.326   0.736
 4436SOL    HW114207   5.123   0.300   0.822
 4436SOL    HW214208   5.265   0.304   0.741
 4437SOL     OW14209   3.672   0.057   4.839
 4437SOL    HW114210   3.582   0.014   4.827
 4437SOL    HW214211   3.741   7.003   4.856
 4438SOL     OW14212   3.819   3.942   6.390
 4438SOL    HW114213   3.738   3.932   6.333
 4438SOL    HW214214   3.831   4.038   6.414
 4439SOL     OW14215   2.158   4.954   2.214
 4439SOL    HW114216   2.221   4.877   2.226
 4439SOL    HW214217   2.071   4.933   2.260
 4440SOL     OW14218   6.574   0.815   6.816
 4440SOL    HW114219   6.501   0.847   6.877
 4440SOL    HW214220   6.549   0.726   6.778
 4441SOL     OW14221   5.788   1.997   3.808
 4441SOL    HW114222   5.721   2.054   3.762
 4441SOL    HW214223   5.860   1.972   3.743
 4442SOL     OW14224   1.762   6.750   2.230
 4442SOL    HW114225   1.821   6.825   2.262
 4442SOL    HW214226   1.743   6.689   2.307
 4443SOL     OW14227   2.500   1.174   6.084
 4443SOL    HW114228   2.506   1.272   6.101
 4443SOL    HW214229   2.591   1.133   6.092
 4444SOL     OW14230   5.277   0.672   2.755
 4444SOL    HW114231   5.321   0.686   2.666
 4444SOL    HW214232   5.239   0.758   2.787
 4445SOL     OW14233   1.436   0.897   6.376
 4445SOL    HW114234   1.397   0.984   6.344
 4445SOL    HW214235   1.386   0.866   6.456
 4446SOL     OW14236   5.523   5.266   3.763
 4446SOL    HW114237   5.518   5.207   3.682
 4446SOL    HW214238   5.616   5.265   3.799
 4447SOL     OW14239   4.928   3.513   4.741
 4447SOL    HW114240   4.904   3.540   4.834
 4447SOL    HW214241   4.910   3.415   4.730
 4448SOL     OW14242   2.498   2.690   6.395
 4448SOL    HW114243   2.501   2.784   6.361
 4448SOL    HW214244   2.571   2.637   6.351
 4449SOL     OW14245   0.734   1.742   5.276
 4449SOL    HW114246   0.694   1.663   5.230
 4449SOL    HW214247   0.731   1.729   5.375
 4450SOL     OW14248   4.074   3.732   3.166
 4450SOL    HW114249   3.974   3.722   3.170
 4450SOL    HW214250   4.101   3.813   3.218
 4451SOL     OW14251   0.116   4.211   1.653
 4451SOL    HW114252   0.135   4.291   1.710
 4451SOL    HW214253   0.116   4.129   1.709
 4452SOL     OW14254   6.568   4.260   6.528
 4452SOL    HW114255   6.540   4.336   6.586
 4452SOL    HW214256   6.546   4.281   6.433
 4453SOL     OW14257   5.243   1.824   1.376
 4453SOL    HW114258   5.263   1.915   1.339
 4453SOL    HW214259   5.163   1.830   1.436
 4454SOL     OW14260   5.386   3.197   1.585
 4454SOL    HW114261   5.461   3.263   1.581
 4454SOL    HW214262   5.364   3.167   1.492
 4455SOL     OW14263   4.770   1.886   1.831
 4455SOL    HW114264   4.761   1.896   1.732
 4455SOL    HW214265   4.718   1.958   1.877
 4456SOL     OW14266   1.016   5.829   2.558
 4456SOL    HW114267   1.039   5.926   2.569
 4456SOL    HW214268   1.086   5.784   2.503
 4457SOL     OW14269   5.107   1.986   6.286
 4457SOL    HW114270   5.163   1.946   6.359
 4457SOL    HW214271   5.127   1.940   6.200
 4458SOL     OW14272   3.804   1.602   6.908
 4458SOL    HW114273   3.844   1.675   6.852
 4458SOL    HW214274   3.870   1.575   6.979
 4459SOL     OW14275   5.141   6.102   5.506
 4459SOL    HW114276   5.132   6.198   5.479
 4459SOL    HW214277   5.237   6.075   5.503
 4460SOL     OW14278   1.021   1.476   6.312
 4460SOL    HW114279   1.104   1.457   6.260
 4460SOL    HW214280   1.031   1.442   6.406
 4461SOL     OW14281   1.859   0.359   2.065
 4461SOL    HW114282   1.890   0.292   2.132
 4461SOL    HW214283   1.789   0.318   2.007
 4462SOL     OW14284   6.981   5.626   1.000
 4462SOL    HW114285   6.891   5.588   1.021
 4462SOL    HW214286   6.990   5.716   1.042
 4463SOL     OW14287   1.566   3.574   5.550
 4463SOL    HW114288   1.511   3.496   5.519
 4463SOL    HW214289   1.624   3.545   5.626
 4464SOL     OW14290   6.218   3.341   6.831
 4464SOL    HW114291   6.272   3.280   6.887
 4464SOL    HW214292   6.138   3.373   6.882
 4465SOL     OW14293   0.798   6.167   1.863
 4465SOL    HW114294   0.704   6.195   1.843
 4465SOL    HW214295   0.861   6.223   1.810
 4466SOL     OW14296   0.838   2.808   3.506
 4466SOL    HW114297   0.786   2.722   3.505
 4466SOL    HW214298   0.776   2.884   3.525
 4467SOL     OW14299   1.545   0.051   3.321
 4467SOL    HW114300   1.565   0.142   3.357
 4467SOL    HW214301   1.564   7.000   3.391
 4468SOL     OW14302   1.705   2.448   0.582
 4468SOL    HW114303   1.705   2.391   0.664
 4468SOL    HW214304   1.611   2.470   0.557
 4469SOL     OW14305   4.369   6.891   0.558
 4469SOL    HW114306   4.375   6.944   0.643
 4469SOL    HW214307   4.273   6.870   0.539
 4470SOL     OW14308   4.913   5.483   1.312
 4470SOL    HW114309   4.955   5.571   1.289
 4470SOL    HW214310   4.816   5.486   1.289
 4471SOL     OW14311   6.687   3.092   0.642
 4471SOL    HW114312   6.719   3.076   0.736
 4471SOL    HW214313   6.764   3.118   0.584
 4472SOL     OW14314   2.062   4.613   1.517
 4472SOL    HW114315   2.049   4.584   1.422
 4472SOL    HW214316   2.020   4.702   1.531
 4473SOL     OW14317   0.970   0.344   6.086
 4473SOL    HW114318   0.917   0.399   6.021
 4473SOL    HW214319   0.981   0.394   6.172
 4474SOL     OW14320   6.270   0.226   4.161
 4474SOL    HW114321   6.333   0.302   4.143
 4474SOL    HW214322   6.232   0.235   4.253
 4475SOL     OW14323   1.465   3.737   0.177
 4475SOL    HW114324   1.499   3.807   0.114
 4475SOL    HW214325   1.524   3.656   0.171
 4476SOL     OW14326   5.059   6.272   1.998
 4476SOL    HW114327   4.997   6.217   2.054
 4476SOL    HW214328   5.154   6.247   2.019
 4477SOL     OW14329   1.295   1.339   0.207
 4477SOL    HW114330   1.294   1.239   0.208
 4477SOL    HW214331   1.377   1.372   0.161
 4478SOL     OW14332   1.407   5.461   1.762
 4478SOL    HW114333   1.348   5.526   1.811
 4478SOL    HW214334   1.425   5.495   1.670
 4479SOL     OW14335   0.647   0.052   5.624
 4479SOL    HW114336   0.605   0.073   5.535
 4479SOL    HW214337   0.702   0.130   5.653
 4480SOL     OW14338   1.107   4.620   3.962
 4480SOL    HW114339   1.092   4.558   3.885
 4480SOL    HW214340   1.190   4.673   3.947
 4481SOL     OW14341   1.230   6.965   3.676
 4481SOL    HW114342   1.147   6.946   3.624
 4481SOL    HW214343   1.206   7.016   3.759
 4482SOL     OW14344   0.589   4.546   3.621
 4482SOL    HW114345   0.518   4.509   3.562
 4482SOL    HW214346   0.549   4.615   3.682
 4483SOL     OW14347   5.053   3.016   1.564
 4483SOL    HW114348   4.998   2.981   1.640
 4483SOL    HW214349   5.051   2.951   1.488
 4484SOL     OW14350   4.141   3.322   6.193
 4484SOL    HW114351   4.072   3.315   6.121
 4484SOL    HW214352   4.105   3.376   6.269
 4485SOL     OW14353   4.575   0.989   0.106
 4485SOL    HW114354   4.501   1.045   0.145
 4485SOL    HW214355   4.554   0.892   0.119
 4486SOL     OW14356   6.591   2.492   3.776
 4486SOL    HW114357   6.590   2.486   3.875
 4486SOL    HW214358   6.685   2.499   3.744
 4487SOL     OW14359   2.830   3.438   5.726
 4487SOL    HW114360   2.835   3.338   5.726
 4487SOL    HW214361   2.807   3.470   5.634
 4488SOL     OW14362   0.016   1.671   6.053
 4488SOL    HW114363   0.068   1.632   5.977
 4488SOL    HW214364   0.050   1.634   6.140
 4489SOL     OW14365   6.489   0.472   3.011
 4489SOL    HW114366   6.512   0.568   3.027
 4489SOL    HW214367   6.403   0.467   2.960
 4490SOL     OW14368   6.704   2.383   3.481
 4490SOL    HW114369   6.764   2.387   3.561
 4490SOL    HW214370   6.753   2.418   3.401
 4491SOL     OW14371   1.766   3.491   3.065
 4491SOL    HW114372   1.697   3.527   3.128
 4491SOL    HW214373   1.818   3.418   3.110
 4492SOL     OW14374   4.455   4.041   6.403
 4492SOL    HW114375   4.514   3.965   6.377
 4492SOL    HW214376   4.436   4.098   6.323
 4493SOL     OW14377   5.745   5.208   3.229
 4493SOL    HW114378   5.820   5.211   3.163
 4493SOL    HW214379   5.658   5.201   3.181
 4494SOL     OW14380   6.320   2.875   3.676
 4494SOL    HW114381   6.309   2.923   3.588
 4494SOL    HW214382   6.242   2.815   3.691
 4495SOL     OW14383   4.210   6.503   2.186
 4495SOL    HW114384   4.114   6.514   2.213
 4495SOL    HW214385   4.257   6.591   2.194
 4496SOL     OW14386   5.277   4.233   6.077
 4496SOL    HW114387   5.256   4.218   6.173
 4496SOL    HW214388   5.245   4.323   6.049
 4497SOL     OW14389   6.072   5.606   1.082
 4497SOL    HW114390   6.139   5.619   1.155
 4497SOL    HW214391   5.980   5.603   1.120
 4498SOL     OW14392   0.523   3.646   6.830
 4498SOL    HW114393   0.499   3.726   6.884
 4498SOL    HW214394   0.504   3.563   6.883
 4499SOL     OW14395   5.901   3.129   7.016
 4499SOL    HW114396   5.854   3.123   6.929
 4499SOL    HW214397   5.965   3.206   7.015
 4500SOL     OW14398   3.423   4.013   4.465
 4500SOL    HW114399   3.409   3.928   4.414
 4500SOL    HW214400   3.519   4.040   4.459
 4501SOL     OW14401   1.337   4.461   4.412
 4501SOL    HW114402   1.427   4.426   4.439
 4501SOL    HW214403   1.341   4.491   4.317
 4502SOL     OW14404   6.290   3.249   0.154
 4502SOL    HW114405   6.283   3.151   0.173
 4502SOL    HW214406   6.378   3.267   0.110
 4503SOL     OW14407   1.504   2.279   2.838
 4503SOL    HW114408   1.549   2.367   2.822
 4503SOL    HW214409   1.461   2.247   2.753
 4504SOL     OW14410   4.354   2.359   4.644
 4504SOL    HW114411   4.330   2.306   4.563
 4504SOL    HW214412   4.313   2.317   4.725
 4505SOL     OW14413   1.385   4.904   6.100
 4505SOL    HW114414   1.326   4.961   6.158
 4505SOL    HW214415   1.338   4.818   6.079
 4506SOL     OW14416   4.389   6.747   5.055
 4506SOL    HW114417   4.472   6.726   5.004
 4506SOL    HW214418   4.380   6.846   5.066
 4507SOL     OW14419   6.519   4.167   1.676
 4507SOL    HW114420   6.518   4.182   1.577
 4507SOL    HW214421   6.543   4.253   1.722
 4508SOL     OW14422   1.382   4.101   0.679
 4508SOL    HW114423   1.295   4.087   0.728
 4508SOL    HW214424   1.368   4.086   0.581
 4509SOL     OW14425   0.991   1.827   3.805
 4509SOL    HW114426   1.086   1.855   3.801
 4509SOL    HW214427   0.953   1.845   3.896
 4510SOL     OW14428   3.580   6.375   5.253
 4510SOL    HW114429   3.572   6.330   5.342
 4510SOL    HW214430   3.538   6.466   5.256
 4511SOL     OW14431   6.480   3.308   6.548
 4511SOL    HW114432   6.564   3.347   6.585
 4511SOL    HW214433   6.487   3.304   6.448
 4512SOL     OW14434   2.873   5.149   0.629
 4512SOL    HW114435   2.970   5.172   0.640
 4512SOL    HW214436   2.823   5.229   0.598
 4513SOL     OW14437   5.496   0.952   2.322
 4513SOL    HW114438   5.587   0.970   2.286
 4513SOL    HW214439   5.438   0.915   2.250
 4514SOL     OW14440   3.641   0.995   5.353
 4514SOL    HW114441   3.601   0.929   5.417
 4514SOL    HW214442   3.699   0.946   5.288
 4515SOL     OW14443   6.630   5.358   1.216
 4515SOL    HW114444   6.543   5.388   1.255
 4515SOL    HW214445   6.662   5.277   1.265
 4516SOL     OW14446   1.148   7.015   4.627
 4516SOL    HW114447   1.134   6.940   4.563
 4516SOL    HW214448   1.225   6.994   4.686
 4517SOL     OW14449   3.643   6.714   5.935
 4517SOL    HW114450   3.590   6.733   6.018
 4517SOL    HW214451   3.648   6.798   5.880
 4518SOL     OW14452   1.461   1.284   3.898
 4518SOL    HW114453   1.387   1.289   3.831
 4518SOL    HW214454   1.521   1.363   3.887
 4519SOL     OW14455   6.370   2.654   4.426
 4519SOL    HW114456   6.431   2.577   4.406
 4519SOL    HW214457   6.372   2.674   4.524
 4520SOL     OW14458   0.591   4.604   3.059
 4520SOL    HW114459   0.554   4.646   3.142
 4520SOL    HW214460   0.548   4.515   3.044
 4521SOL     OW14461   5.825   2.130   5.634
 4521SOL    HW114462   5.891   2.170   5.698
 4521SOL    HW214463   5.737   2.176   5.644
 4522SOL     OW14464   5.550   0.588   3.065
 4522SOL    HW114465   5.526   0.561   3.158
 4522SOL    HW214466   5.556   0.688   3.059
 4523SOL     OW14467   4.128   3.090   6.862
 4523SOL    HW114468   4.048   3.032   6.847
 4523SOL    HW214469   4.197   3.072   6.792
 4524SOL     OW14470   5.961   0.476   5.169
 4524SOL    HW114471   6.008   0.559   5.139
 4524SOL    HW214472   6.024   0.399   5.167
 4525SOL     OW14473   6.647   1.707   5.586
 4525SOL    HW114474   6.577   1.778   5.596
 4525SOL    HW214475   6.732   1.749   5.555
 4526SOL     OW14476   3.954   1.234   0.828
 4526SOL    HW114477   3.893   1.253   0.905
 4526SOL    HW214478   3.945   1.138   0.801
 4527SOL     OW14479   3.809   1.175   4.124
 4527SOL    HW114480   3.814   1.185   4.223
 4527SOL    HW214481   3.846   1.257   4.080
 4528SOL     OW14482   5.549   6.934   6.548
 4528SOL    HW114483   5.623   6.999   6.566
 4528SOL    HW214484   5.531   6.931   6.449
 4529SOL     OW14485   3.775   0.184   3.450
 4529SOL    HW114486   3.691   0.185   3.396
 4529SOL    HW214487   3.758   0.223   3.540
 4530SOL     OW14488   0.581   2.845   4.765
 4530SOL    HW114489   0.579   2.900   4.681
 4530SOL    HW214490   0.631   2.895   4.836
 4531SOL     OW14491   0.129   3.550   3.354
 4531SOL    HW114492   0.102   3.627   3.296
 4531SOL    HW214493   0.132   3.581   3.450
 4532SOL     OW14494   6.399   1.766   0.527
 4532SOL    HW114495   6.348   1.797   0.607
 4532SOL    HW214496   6.491   1.739   0.555
 4533SOL     OW14497   3.076   5.849   2.354
 4533SOL    HW114498   3.055   5.757   2.322
 4533SOL    HW214499   3.082   5.850   2.453
 4534SOL     OW14500   6.935   4.384   5.494
 4534SOL    HW114501   6.883   4.403   5.576
 4534SOL    HW214502   0.014   4.369   5.517
 4535SOL     OW14503   5.035   2.230   2.627
 4535SOL    HW114504   5.057   2.318   2.669
 4535SOL    HW214505   5.079   2.223   2.538
 4536SOL     OW14506   6.476   0.846   4.017
 4536SOL    HW114507   6.549   0.786   4.050
 4536SOL    HW214508   6.440   0.900   4.094
 4537SOL     OW14509   4.048   2.986   6.075
 4537SOL    HW114510   4.102   2.941   6.004
 4537SOL    HW214511   3.977   2.924   6.107
 4538SOL     OW14512   3.822   1.355   2.277
 4538SOL    HW114513   3.756   1.377   2.348
 4538SOL    HW214514   3.774   1.323   2.195
 4539SOL     OW14515   1.075   1.851   2.301
 4539SOL    HW114516   1.086   1.839   2.399
 4539SOL    HW214517   1.165   1.859   2.258
 4540SOL     OW14518   3.107   3.137   4.711
 4540SOL    HW114519   3.017   3.125   4.669
 4540SOL    HW214520   3.129   3.057   4.767
 4541SOL     OW14521   6.135   1.536   1.220
 4541SOL    HW114522   6.112   1.627   1.254
 4541SOL    HW214523   6.189   1.487   1.288
 4542SOL     OW14524   4.635   0.478   3.850
 4542SOL    HW114525   4.668   0.438   3.765
 4542SOL    HW214526   4.669   0.425   3.927
 4543SOL     OW14527   5.386   1.948   1.695
 4543SOL    HW114528   5.354   2.006   1.770
 4543SOL    HW214529   5.388   2.001   1.610
 4544SOL     OW14530   3.600   4.789   6.650
 4544SOL    HW114531   3.573   4.769   6.744
 4544SOL    HW214532   3.518   4.806   6.595
 4545SOL     OW14533   4.162   2.858   5.878
 4545SOL    HW114534   4.139   2.762   5.896
 4545SOL    HW214535   4.144   2.879   5.782
 4546SOL     OW14536   0.405   0.028   6.907
 4546SOL    HW114537   0.390   7.005   6.997
 4546SOL    HW214538   0.500   0.058   6.899
 4547SOL     OW14539   4.151   1.825   1.314
 4547SOL    HW114540   4.165   1.910   1.264
 4547SOL    HW214541   4.088   1.842   1.390
 4548SOL     OW14542   1.508   3.189   3.885
 4548SOL    HW114543   1.555   3.115   3.838
 4548SOL    HW214544   1.570   3.231   3.951
 4549SOL     OW14545   4.905   1.670   2.973
 4549SOL    HW114546   4.989   1.702   3.016
 4549SOL    HW214547   4.915   1.673   2.874
 4550SOL     OW14548   1.836   6.239   4.804
 4550SOL    HW114549   1.739   6.262   4.813
 4550SOL    HW214550   1.849   6.142   4.826
 4551SOL     OW14551   0.444   2.379   5.936
 4551SOL    HW114552   0.378   2.450   5.961
 4551SOL    HW214553   0.534   2.421   5.925
 4552SOL     OW14554   0.116   2.892   3.898
 4552SOL    HW114555   0.167   2.841   3.966
 4552SOL    HW214556   0.019   2.867   3.902
 4553SOL     OW14557   4.913   4.635   0.599
 4553SOL    HW114558   4.846   4.696   0.558
 4553SOL    HW214559   4.926   4.555   0.540
 4554SOL     OW14560   5.470   6.764   3.293
 4554SOL    HW114561   5.413   6.763   3.211
 4554SOL    HW214562   5.420   6.721   3.369
 4555SOL     OW14563   5.355   1.813   0.114
 4555SOL    HW114564   5.379   1.737   0.054
 4555SOL    HW214565   5.407   1.806   0.199
 4556SOL     OW14566   5.287   1.127   4.865
 4556SOL    HW114567   5.306   1.223   4.845
 4556SOL    HW214568   5.330   1.070   4.795
 4557SOL     OW14569   5.131   0.194   5.663
 4557SOL    HW114570   5.068   0.209   5.739
 4557SOL    HW214571   5.187   0.275   5.649
 4558SOL     OW14572   6.661   3.450   5.992
 4558SOL    HW114573   6.658   3.377   5.924
 4558SOL    HW214574   6.588   3.437   6.059
 4559SOL     OW14575   0.638   6.371   1.691
 4559SOL    HW114576   0.575   6.293   1.689
 4559SOL    HW214577   0.593   6.451   1.650
 4560SOL     OW14578   5.152   2.727   3.168
 4560SOL    HW114579   5.061   2.701   3.200
 4560SOL    HW214580   5.186   2.659   3.104
 4561SOL     OW14581   3.232   0.564   6.766
 4561SOL    HW114582   3.166   0.517   6.707
 4561SOL    HW214583   3.282   0.496   6.820
 4562SOL     OW14584   3.240   5.315   5.402
 4562SOL    HW114585   3.218   5.384   5.471
 4562SOL    HW214586   3.161   5.256   5.387
 4563SOL     OW14587   5.191   2.291   5.902
 4563SOL    HW114588   5.274   2.246   5.869
 4563SOL    HW214589   5.161   2.359   5.835
 4564SOL     OW14590   1.763   5.710   6.887
 4564SOL    HW114591   1.802   5.802   6.876
 4564SOL    HW214592   1.686   5.714   6.950
 4565SOL     OW14593   2.695   0.786   3.943
 4565SOL    HW114594   2.683   0.838   3.858
 4565SOL    HW214595   2.614   0.797   4.001
 4566SOL     OW14596   0.644   2.000   0.322
 4566SOL    HW114597   0.555   2.001   0.367
 4566SOL    HW214598   0.688   1.912   0.336
 4567SOL     OW14599   0.023   0.829   0.557
 4567SOL    HW114600   0.111   0.876   0.565
 4567SOL    HW214601   0.002   0.784   0.644
 4568SOL     OW14602   3.341   4.982   4.631
 4568SOL    HW114603   3.245   4.972   4.607
 4568SOL    HW214604   3.350   5.033   4.717
 4569SOL     OW14605   0.101   2.164   3.769
 4569SOL    HW114606   0.073   2.223   3.844
 4569SOL    HW214607   0.195   2.132   3.784
 4570SOL     OW14608   6.680   5.154   4.410
 4570SOL    HW114609   6.643   5.133   4.319
 4570SOL    HW214610   6.779   5.165   4.404
 4571SOL     OW14611   3.581   3.296   3.921
 4571SOL    HW114612   3.559   3.372   3.983
 4571SOL    HW214613   3.575   3.327   3.826
 4572SOL     OW14614   2.176   5.983   1.836
 4572SOL    HW114615   2.149   5.987   1.740
 4572SOL    HW214616   2.247   5.915   1.848
 4573SOL     OW14617   5.326   6.523   0.544
 4573SOL    HW114618   5.425   6.524   0.550
 4573SOL    HW214619   5.298   6.480   0.458
 4574SOL     OW14620   0.681   4.706   1.759
 4574SOL    HW114621   0.773   4.729   1.791
 4574SOL    HW214622   0.664   4.608   1.773
 4575SOL     OW14623   6.320   6.785   2.317
 4575SOL    HW114624   6.384   6.760   2.390
 4575SOL    HW214625   6.272   6.703   2.286
 4576SOL     OW14626   3.383   5.797   4.389
 4576SOL    HW114627   3.337   5.878   4.426
 4576SOL    HW214628   3.334   5.766   4.307
 4577SOL     OW14629   1.041   2.438   4.074
 4577SOL    HW114630   1.063   2.533   4.053
 4577SOL    HW214631   1.025   2.428   4.172
 4578SOL     OW14632   0.467   4.148   4.084
 4578SOL    HW114633   0.459   4.221   4.016
 4578SOL    HW214634   0.416   4.068   4.054
 4579SOL     OW14635   5.157   2.231   4.034
 4579SOL    HW114636   5.149   2.330   4.039
 4579SOL    HW214637   5.253   2.204   4.043
 4580SOL     OW14638   0.064   6.042   0.212
 4580SOL    HW114639   7.007   6.010   0.271
 4580SOL    HW214640   0.026   6.099   0.139
 4581SOL     OW14641   3.424   5.912   3.648
 4581SOL    HW114642   3.494   5.964   3.599
 4581SOL    HW214643   3.337   5.918   3.598
 4582SOL     OW14644   4.656   6.969   3.253
 4582SOL    HW114645   4.562   7.004   3.257
 4582SOL    HW214646   4.671   6.927   3.164
 4583SOL     OW14647   4.512   1.504   5.560
 4583SOL    HW114648   4.473   1.458   5.640
 4583SOL    HW214649   4.601   1.543   5.585
 4584SOL     OW14650   0.318   4.646   5.382
 4584SOL    HW114651   0.331   4.724   5.321
 4584SOL    HW214652   0.234   4.597   5.356
 4585SOL     OW14653   3.552   6.616   2.760
 4585SOL    HW114654   3.482   6.556   2.722
 4585SOL    HW214655   3.603   6.567   2.831
 4586SOL     OW14656   3.128   6.517   1.999
 4586SOL    HW114657   3.198   6.583   2.027
 4586SOL    HW214658   3.171   6.446   1.942
 4587SOL     OW14659   2.180   4.606   1.133
 4587SOL    HW114660   2.226   4.595   1.221
 4587SOL    HW214661   2.133   4.694   1.130
 4588SOL     OW14662   4.267   4.015   5.619
 4588SOL    HW114663   4.262   4.099   5.565
 4588SOL    HW214664   4.272   3.936   5.557
 4589SOL     OW14665   1.110   1.515   3.739
 4589SOL    HW114666   1.151   1.544   3.825
 4589SOL    HW214667   1.092   1.595   3.681
 4590SOL     OW14668   4.295   5.575   2.704
 4590SOL    HW114669   4.280   5.634   2.783
 4590SOL    HW214670   4.335   5.628   2.630
 4591SOL     OW14671   6.420   6.496   5.371
 4591SOL    HW114672   6.328   6.497   5.410
 4591SOL    HW214673   6.473   6.572   5.408
 4592SOL     OW14674   3.178   1.772   5.927
 4592SOL    HW114675   3.224   1.840   5.871
 4592SOL    HW214676   3.107   1.727   5.873
 4593SOL     OW14677   4.184   6.830   1.233
 4593SOL    HW114678   4.223   6.845   1.143
 4593SOL    HW214679   4.149   6.917   1.269
 4594SOL     OW14680   3.044   1.516   2.929
 4594SOL    HW114681   3.073   1.608   2.902
 4594SOL    HW214682   3.124   1.456   2.934
 4595SOL     OW14683   4.325   2.452   5.750
 4595SOL    HW114684   4.406   2.464   5.693
 4595SOL    HW214685   4.341   2.495   5.839
 4596SOL     OW14686   6.185   0.139   2.306
 4596SOL    HW114687   6.127   0.215   2.336
 4596SOL    HW214688   6.139   0.053   2.325
 4597SOL     OW14689   0.386   4.707   6.671
 4597SOL    HW114690   0.434   4.669   6.750
 4597SOL    HW214691   0.446   4.703   6.591
 4598SOL     OW14692   2.950   4.592   0.579
 4598SOL    HW114693   3.012   4.670   0.590
 4598SOL    HW214694   2.906   4.572   0.666
 4599SOL     OW14695   1.938   5.197   0.259
 4599SOL    HW114696   1.868   5.268   0.249
 4599SOL    HW214697   1.944   5.171   0.355
 4600SOL     OW14698   3.926   5.339   1.573
 4600SOL    HW114699   3.948   5.334   1.476
 4600SOL    HW214700   3.853   5.406   1.588
 4601SOL     OW14701   1.822   6.026   4.482
 4601SOL    HW114702   1.841   6.008   4.579
 4601SOL    HW214703   1.900   6.074   4.441
 4602SOL     OW14704   1.897   1.090   0.572
 4602SOL    HW114705   1.809   1.054   0.542
 4602SOL    HW214706   1.920   1.052   0.662
 4603SOL     OW14707   3.265   1.176   2.154
 4603SOL    HW114708   3.179   1.225   2.171
 4603SOL    HW214709   3.338   1.217   2.208
 4604SOL     OW14710   2.556   0.615   2.643
 4604SOL    HW114711   2.520   0.522   2.652
 4604SOL    HW214712   2.490   0.672   2.593
 4605SOL     OW14713   4.934   6.789   5.607
 4605SOL    HW114714   5.020   6.832   5.581
 4605SOL    HW214715   4.912   6.813   5.701
 4606SOL     OW14716   6.943   6.481   5.898
 4606SOL    HW114717   6.951   6.578   5.920
 4606SOL    HW214718   6.897   6.471   5.810
 4607SOL     OW14719   2.472   2.110   1.236
 4607SOL    HW114720   2.564   2.073   1.246
 4607SOL    HW214721   2.478   2.204   1.201
 4608SOL     OW14722   1.839   3.382   5.172
 4608SOL    HW114723   1.904   3.393   5.096
 4608SOL    HW214724   1.746   3.383   5.137
 4609SOL     OW14725   3.761   6.736   6.682
 4609SOL    HW114726   3.742   6.638   6.669
 4609SOL    HW214727   3.773   6.755   6.779
 4610SOL     OW14728   0.792   3.286   6.791
 4610SOL    HW114729   0.799   3.194   6.830
 4610SOL    HW214730   0.873   3.339   6.817
 4611SOL     OW14731   0.974   3.465   6.899
 4611SOL    HW114732   0.946   3.554   6.936
 4611SOL    HW214733   1.073   3.454   6.911
 4612SOL     OW14734   2.420   0.521   6.270
 4612SOL    HW114735   2.472   0.513   6.355
 4612SOL    HW214736   2.364   0.604   6.274
 4613SOL     OW14737   2.746   5.436   2.044
 4613SOL    HW114738   2.663   5.471   2.087
 4613SOL    HW214739   2.757   5.339   2.067
 4614SOL     OW14740   2.247   5.225   0.542
 4614SOL    HW114741   2.227   5.291   0.469
 4614SOL    HW214742   2.173   5.158   0.547
 4615SOL     OW14743   0.083   3.126   0.327
 4615SOL    HW114744   7.006   3.159   0.315
 4615SOL    HW214745   0.135   3.194   0.380
 4616SOL     OW14746   6.151   0.758   0.168
 4616SOL    HW114747   6.185   0.817   0.242
 4616SOL    HW214748   6.062   0.791   0.138
 4617SOL     OW14749   0.200   3.612   2.110
 4617SOL    HW114750   0.204   3.604   2.210
 4617SOL    HW214751   0.282   3.571   2.070
 4618SOL     OW14752   1.149   2.122   6.121
 4618SOL    HW114753   1.227   2.122   6.060
 4618SOL    HW214754   1.180   2.113   6.216
 4619SOL     OW14755   3.202   0.557   3.959
 4619SOL    HW114756   3.255   0.499   4.021
 4619SOL    HW214757   3.176   0.504   3.878
 4620SOL     OW14758   2.310   4.747   6.233
 4620SOL    HW114759   2.214   4.737   6.206
 4620SOL    HW214760   2.342   4.660   6.271
 4621SOL     OW14761   0.432   6.728   6.528
 4621SOL    HW114762   0.481   6.812   6.505
 4621SOL    HW214763   0.397   6.686   6.444
 4622SOL     OW14764   2.015   3.407   1.226
 4622SOL    HW114765   2.004   3.503   1.250
 4622SOL    HW214766   2.051   3.356   1.304
 4623SOL     OW14767   5.958   4.580   2.618
 4623SOL    HW114768   6.046   4.611   2.581
 4623SOL    HW214769   5.965   4.484   2.646
 4624SOL     OW14770   4.477   6.808   5.695
 4624SOL    HW114771   4.485   6.890   5.637
 4624SOL    HW214772   4.438   6.734   5.641
 4625SOL     OW14773   1.273   3.346   6.234
 4625SOL    HW114774   1.243   3.365   6.327
 4625SOL    HW214775   1.353   3.401   6.213
 4626SOL     OW14776   5.723   5.520   2.154
 4626SOL    HW114777   5.722   5.585   2.078
 4626SOL    HW214778   5.734   5.570   2.240
 4627SOL     OW14779   2.100   0.473   5.961
 4627SOL    HW114780   2.102   0.561   5.915
 4627SOL    HW214781   2.192   0.445   5.985
 4628SOL     OW14782   0.123   3.848   1.248
 4628SOL    HW114783   0.040   3.848   1.303
 4628SOL    HW214784   0.176   3.765   1.265
 4629SOL     OW14785   3.646   4.990   4.672
 4629SOL    HW114786   3.556   4.952   4.652
 4629SOL    HW214787   3.640   5.056   4.747
 4630SOL     OW14788   2.477   0.361   2.689
 4630SOL    HW114789   2.471   0.305   2.606
 4630SOL    HW214790   2.566   0.347   2.732
 4631SOL     OW14791   2.443   0.945   2.624
 4631SOL    HW114792   2.370   1.013   2.622
 4631SOL    HW214793   2.404   0.854   2.609
 4632SOL     OW14794   5.592   5.531   4.197
 4632SOL    HW114795   5.565   5.437   4.174
 4632SOL    HW214796   5.537   5.595   4.144
 4633SOL     OW14797   5.939   2.453   5.555
 4633SOL    HW114798   5.874   2.528   5.558
 4633SOL    HW214799   5.912   2.388   5.483
 4634SOL     OW14800   3.585   4.846   1.117
 4634SOL    HW114801   3.597   4.876   1.212
 4634SOL    HW214802   3.650   4.772   1.098
 4635SOL     OW14803   5.154   4.443   1.059
 4635SOL    HW114804   5.073   4.438   1.117
 4635SOL    HW214805   5.166   4.357   1.010
 4636SOL     OW14806   1.382   5.150   0.932
 4636SOL    HW114807   1.373   5.208   1.013
 4636SOL    HW214808   1.428   5.065   0.956
 4637SOL     OW14809   1.862   0.708   5.226
 4637SOL    HW114810   1.864   0.788   5.286
 4637SOL    HW214811   1.776   0.707   5.174
 4638SOL     OW14812   5.146   3.422   6.407
 4638SOL    HW114813   5.094   3.337   6.418
 4638SOL    HW214814   5.151   3.446   6.310
 4639SOL     OW14815   6.416   3.044   4.993
 4639SOL    HW114816   6.407   3.023   5.090
 4639SOL    HW214817   6.362   2.978   4.940
 4640SOL     OW14818   6.307   4.229   2.460
 4640SOL    HW114819   6.378   4.239   2.530
 4640SOL    HW214820   6.249   4.151   2.482
 4641SOL     OW14821   2.710   4.678   5.658
 4641SOL    HW114822   2.796   4.627   5.647
 4641SOL    HW214823   2.722   4.749   5.728
 4642SOL     OW14824   5.947   5.919   4.671
 4642SOL    HW114825   5.960   5.942   4.574
 4642SOL    HW214826   6.030   5.877   4.707
 4643SOL     OW14827   3.999   2.685   1.126
 4643SOL    HW114828   3.968   2.725   1.040
 4643SOL    HW214829   4.018   2.757   1.192
 4644SOL     OW14830   2.414   5.167   4.738
 4644SOL    HW114831   2.433   5.098   4.808
 4644SOL    HW214832   2.441   5.258   4.772
 4645SOL     OW14833   1.846   5.954   4.903
 4645SOL    HW114834   1.871   5.890   4.830
 4645SOL    HW214835   1.887   5.924   4.989
 4646SOL     OW14836   4.030   0.365   1.534
 4646SOL    HW114837   4.105   0.306   1.566
 4646SOL    HW214838   3.953   0.357   1.597
 4647SOL     OW14839   0.126   0.613   4.447
 4647SOL    HW114840   0.215   0.600   4.492
 4647SOL    HW214841   0.077   0.687   4.492
 4648SOL     OW14842   1.893   4.740   2.589
 4648SOL    HW114843   1.983   4.781   2.577
 4648SOL    HW214844   1.902   4.640   2.589
 4649SOL     OW14845   5.498   6.296   6.531
 4649SOL    HW114846   5.457   6.382   6.562
 4649SOL    HW214847   5.461   6.271   6.441
 4650SOL     OW14848   0.064   4.943   2.030
 4650SOL    HW114849   0.124   5.013   1.991
 4650SOL    HW214850   0.002   4.909   1.960
 4651SOL     OW14851   0.069   1.855   1.427
 4651SOL    HW114852   0.147   1.895   1.379
 4651SOL    HW214853   0.097   1.828   1.520
 4652SOL     OW14854   0.496   5.910   5.593
 4652SOL    HW114855   0.448   5.824   5.580
 4652SOL    HW214856   0.433   5.987   5.581
 4653SOL     OW14857   0.901   5.565   6.594
 4653SOL    HW114858   0.826   5.536   6.533
 4653SOL    HW214859   0.967   5.490   6.603
 4654SOL     OW14860   0.722   1.506   6.376
 4654SOL    HW114861   0.802   1.566   6.370
 4654SOL    HW214862   0.750   1.412   6.353
 4655SOL     OW14863   0.338   5.418   3.597
 4655SOL    HW114864   0.358   5.373   3.510
 4655SOL    HW214865   0.252   5.468   3.590
 4656SOL     OW14866   2.452   0.285   2.997
 4656SOL    HW114867   2.526   0.218   3.002
 4656SOL    HW214868   2.367   0.240   2.969
 4657SOL     OW14869   5.930   6.863   6.571
 4657SOL    HW114870   5.929   6.824   6.479
 4657SOL    HW214871   5.860   6.934   6.577
 4658SOL     OW14872   4.966   0.768   3.593
 4658SOL    HW114873   5.012   0.855   3.574
 4658SOL    HW214874   5.029   0.706   3.640
 4659SOL     OW14875   2.477   2.414   4.441
 4659SOL    HW114876   2.442   2.419   4.348
 4659SOL    HW214877   2.405   2.381   4.502
 4660SOL     OW14878   6.983   1.385   5.690
 4660SOL    HW114879   7.004   1.301   5.641
 4660SOL    HW214880   6.900   1.372   5.745
 4661SOL     OW14881   4.058   3.213   3.555
 4661SOL    HW114882   3.990   3.277   3.520
 4661SOL    HW214883   4.052   3.207   3.654
 4662SOL     OW14884   5.601   0.278   4.276
 4662SOL    HW114885   5.619   0.220   4.197
 4662SOL    HW214886   5.531   0.236   4.334
 4663SOL     OW14887   0.176   1.540   2.348
 4663SOL    HW114888   0.141   1.633   2.352
 4663SOL    HW214889   0.107   1.480   2.308
 4664SOL     OW14890   3.135   3.527   0.390
 4664SOL    HW114891   3.126   3.565   0.482
 4664SOL    HW214892   3.089   3.438   0.385
 4665SOL     OW14893   5.563   0.826   6.940
 4665SOL    HW114894   5.510   0.742   6.956
 4665SOL    HW214895   5.585   0.868   0.011
 4666SOL     OW14896   3.014   1.430   0.373
 4666SOL    HW114897   3.079   1.355   0.363
 4666SOL    HW214898   3.063   1.517   0.374
 4667SOL     OW14899   0.645   5.616   5.441
 4667SOL    HW114900   0.704   5.665   5.377
 4667SOL    HW214901   0.649   5.518   5.422
 4668SOL     OW14902   5.543   1.870   4.996
 4668SOL    HW114903   5.520   1.868   4.898
 4668SOL    HW214904   5.636   1.834   5.008
 4669SOL     OW14905   2.535   0.320   1.248
 4669SOL    HW114906   2.521   0.338   1.345
 4669SOL    HW214907   2.631   0.300   1.231
 4670SOL     OW14908   1.807   1.169   4.354
 4670SOL    HW114909   1.732   1.104   4.336
 4670SOL    HW214910   1.838   1.157   4.448
 4671SOL     OW14911   5.620   3.405   0.745
 4671SOL    HW114912   5.524   3.425   0.730
 4671SOL    HW214913   5.661   3.373   0.659
 4672SOL     OW14914   2.569   3.325   5.535
 4672SOL    HW114915   2.470   3.310   5.526
 4672SOL    HW214916   2.598   3.395   5.470
 4673SOL     OW14917   3.760   0.177   2.567
 4673SOL    HW114918   3.763   0.151   2.663
 4673SOL    HW214919   3.689   0.247   2.554
 4674SOL     OW14920   4.151   6.360   5.977
 4674SOL    HW114921   4.226   6.301   5.946
 4674SOL    HW214922   4.185   6.453   5.990
 4675SOL     OW14923   1.197   3.802   6.255
 4675SOL    HW114924   1.237   3.798   6.164
 4675SOL    HW214925   1.131   3.878   6.259
 4676SOL     OW14926   0.454   5.438   3.902
 4676SOL    HW114927   0.498   5.415   3.989
 4676SOL    HW214928   0.384   5.370   3.881
 4677SOL     OW14929   0.869   3.453   0.460
 4677SOL    HW114930   0.906   3.369   0.419
 4677SOL    HW214931   0.912   3.467   0.550
 4678SOL     OW14932   2.244   4.147   1.976
 4678SOL    HW114933   2.292   4.225   1.935
 4678SOL    HW214934   2.247   4.070   1.913
 4679SOL     OW14935   4.346   0.408   1.446
 4679SOL    HW114936   4.415   0.418   1.374
 4679SOL    HW214937   4.330   0.311   1.464
 4680SOL     OW14938   1.760   0.705   0.633
 4680SOL    HW114939   1.789   0.613   0.661
 4680SOL    HW214940   1.832   0.770   0.654
 4681SOL     OW14941   4.817   5.572   1.963
 4681SOL    HW114942   4.822   5.596   1.866
 4681SOL    HW214943   4.849   5.478   1.975
 4682SOL     OW14944   3.310   4.037   0.020
 4682SOL    HW114945   3.355   4.003   0.103
 4682SOL    HW214946   3.274   3.960   6.984
 4683SOL     OW14947   6.139   4.339   4.084
 4683SOL    HW114948   6.149   4.289   3.998
 4683SOL    HW214949   6.184   4.427   4.077
 4684SOL     OW14950   5.656   6.365   0.306
 4684SOL    HW114951   5.742   6.415   0.301
 4684SOL    HW214952   5.579   6.429   0.300
 4685SOL     OW14953   3.604   3.913   4.869
 4685SOL    HW114954   3.649   3.864   4.794
 4685SOL    HW214955   3.602   4.011   4.849
 4686SOL     OW14956   2.947   6.017   0.203
 4686SOL    HW114957   3.024   6.067   0.244
 4686SOL    HW214958   2.941   5.927   0.245
 4687SOL     OW14959   2.967   0.535   2.758
 4687SOL    HW114960   2.900   0.609   2.744
 4687SOL    HW214961   3.059   0.573   2.758
 4688SOL     OW14962   5.959   3.162   5.674
 4688SOL    HW114963   5.921   3.196   5.588
 4688SOL    HW214964   6.047   3.118   5.656
 4689SOL     OW14965   6.350   0.646   2.496
 4689SOL    HW114966   6.373   0.552   2.521
 4689SOL    HW214967   6.275   0.678   2.554
 4690SOL     OW14968   2.493   1.971   0.714
 4690SOL    HW114969   2.487   1.897   0.781
 4690SOL    HW214970   2.457   1.939   0.626
 4691SOL     OW14971   6.862   4.313   1.881
 4691SOL    HW114972   6.862   4.226   1.832
 4691SOL    HW214973   6.786   4.316   1.946
 4692SOL     OW14974   5.133   2.999   2.219
 4692SOL    HW114975   5.169   3.090   2.202
 4692SOL    HW214976   5.033   3.004   2.227
 4693SOL     OW14977   1.460   0.519   3.043
 4693SOL    HW114978   1.518   0.540   2.965
 4693SOL    HW214979   1.496   0.565   3.124
 4694SOL     OW14980   1.509   0.693   6.840
 4694SOL    HW114981   1.442   0.628   6.875
 4694SOL    HW214982   1.552   0.656   6.758
 4695SOL     OW14983   1.325   6.042   1.697
 4695SOL    HW114984   1.398   6.031   1.764
 4695SOL    HW214985   1.239   6.061   1.744
 4696SOL     OW14986   2.190   5.274   5.611
 4696SOL    HW114987   2.125   5.199   5.598
 4696SOL    HW214988   2.144   5.361   5.599
 4697SOL     OW14989   4.325   5.433   1.647
 4697SOL    HW114990   4.246   5.431   1.708
 4697SOL    HW214991   4.295   5.458   1.555
 4698SOL     OW14992   5.172   1.078   4.550
 4698SOL    HW114993   5.269   1.081   4.573
 4698SOL    HW214994   5.154   1.001   4.488
 4699SOL     OW14995   1.500   0.141   2.208
 4699SOL    HW114996   1.402   0.156   2.196
 4699SOL    HW214997   1.541   0.224   2.246
 4700SOL     OW14998   6.525   2.224   1.849
 4700SOL    HW114999   6.520   2.126   1.870
 4700SOL    HW215000   6.589   2.237   1.772
 4701SOL     OW15001   3.066   2.192   1.748
 4701SOL    HW115002   3.145   2.200   1.808
 4701SOL    HW215003   2.985   2.227   1.794
 4702SOL     OW15004   5.526   5.042   6.416
 4702SOL    HW115005   5.578   5.067   6.498
 4702SOL    HW215006   5.459   5.114   6.396
 4703SOL     OW15007   0.738   5.315   3.343
 4703SOL    HW115008   0.803   5.247   3.308
 4703SOL    HW215009   0.704   5.370   3.267
 4704SOL     OW15010   1.443   5.198   4.732
 4704SOL    HW115011   1.542   5.203   4.743
 4704SOL    HW215012   1.422   5.159   4.643
 4705SOL     OW15013   3.568   1.871   1.593
 4705SOL    HW115014   3.495   1.880   1.661
 4705SOL    HW215015   3.644   1.932   1.616
 4706SOL     OW15016   2.263   0.726   0.727
 4706SOL    HW115017   2.261   0.812   0.675
 4706SOL    HW215018   2.169   0.701   0.751
 4707SOL     OW15019   1.520   5.815   1.838
 4707SOL    HW115020   1.603   5.771   1.871
 4707SOL    HW215021   1.531   5.840   1.741
 4708SOL     OW15022   1.535   2.835   4.655
 4708SOL    HW115023   1.435   2.834   4.659
 4708SOL    HW215024   1.572   2.777   4.728
 4709SOL     OW15025   4.678   3.946   5.735
 4709SOL    HW115026   4.610   3.914   5.800
 4709SOL    HW215027   4.769   3.934   5.773
 4710SOL     OW15028   6.087   5.827   5.450
 4710SOL    HW115029   6.173   5.775   5.447
 4710SOL    HW215030   6.103   5.921   5.420
 4711SOL     OW15031   5.340   3.915   2.382
 4711SOL    HW115032   5.267   3.970   2.421
 4711SOL    HW215033   5.428   3.960   2.396
 4712SOL     OW15034   4.774   4.300   5.571
 4712SOL    HW115035   4.677   4.282   5.556
 4712SOL    HW215036   4.797   4.281   5.666
 4713SOL     OW15037   6.376   4.191   1.065
 4713SOL    HW115038   6.401   4.095   1.048
 4713SOL    HW215039   6.305   4.219   1.001
 4714SOL     OW15040   4.222   1.449   6.596
 4714SOL    HW115041   4.255   1.480   6.685
 4714SOL    HW215042   4.147   1.509   6.565
 4715SOL     OW15043   6.458   1.652   1.990
 4715SOL    HW115044   6.533   1.589   2.007
 4715SOL    HW215045   6.414   1.630   1.903
 4716SOL     OW15046   3.517   4.801   5.811
 4716SOL    HW115047   3.454   4.749   5.870
 4716SOL    HW215048   3.509   4.768   5.717
 4717SOL     OW15049   2.611   4.802   5.411
 4717SOL    HW115050   2.642   4.810   5.506
 4717SOL    HW215051   2.513   4.825   5.406
 4718SOL     OW15052   4.620   4.771   0.444
 4718SOL    HW115053   4.535   4.821   0.423
 4718SOL    HW215054   4.675   4.825   0.508
 4719SOL     OW15055   0.197   4.570   3.877
 4719SOL    HW115056   0.244   4.534   3.957
 4719SOL    HW215057   0.098   4.569   3.893
 4720SOL     OW15058   1.924   3.010   6.894
 4720SOL    HW115059   2.013   3.054   6.889
 4720SOL    HW215060   1.930   2.929   6.952
 4721SOL     OW15061   7.001   3.044   2.738
 4721SOL    HW115062   6.987   3.113   2.667
 4721SOL    HW215063   6.954   2.959   2.713
 4722SOL     OW15064   1.201   6.196   6.776
 4722SOL    HW115065   1.258   6.267   6.734
 4722SOL    HW215066   1.257   6.136   6.831
 4723SOL     OW15067   3.854   4.296   0.232
 4723SOL    HW115068   3.842   4.201   0.202
 4723SOL    HW215069   3.857   4.299   0.332
 4724SOL     OW15070   0.345   6.794   5.107
 4724SOL    HW115071   0.357   6.871   5.170
 4724SOL    HW215072   0.427   6.785   5.050
 4725SOL     OW15073   5.084   6.101   1.192
 4725SOL    HW115074   5.047   6.057   1.274
 4725SOL    HW215075   5.013   6.161   1.152
 4726SOL     OW15076   1.340   3.346   5.444
 4726SOL    HW115077   1.403   3.275   5.476
 4726SOL    HW215078   1.324   3.336   5.346
 4727SOL     OW15079   6.958   4.822   1.265
 4727SOL    HW115080   6.889   4.749   1.259
 4727SOL    HW215081   6.949   4.883   1.186
 4728SOL     OW15082   6.466   1.136   4.420
 4728SOL    HW115083   6.544   1.187   4.384
 4728SOL    HW215084   6.382   1.189   4.406
 4729SOL     OW15085   6.474   1.934   1.954
 4729SOL    HW115086   6.493   1.840   1.983
 4729SOL    HW215087   6.375   1.949   1.955
 4730SOL     OW15088   2.839   6.680   4.412
 4730SOL    HW115089   2.841   6.654   4.509
 4730SOL    HW215090   2.924   6.652   4.368
 4731SOL     OW15091   2.974   6.372   0.408
 4731SOL    HW115092   2.941   6.452   0.358
 4731SOL    HW215093   3.074   6.375   0.414
 4732SOL     OW15094   6.958   5.210   4.413
 4732SOL    HW115095   6.990   5.279   4.348
 4732SOL    HW215096   0.020   5.166   4.456
 4733SOL     OW15097   2.282   4.177   2.594
 4733SOL    HW115098   2.210   4.108   2.584
 4733SOL    HW215099   2.314   4.205   2.504
 4734SOL     OW15100   5.281   3.638   6.534
 4734SOL    HW115101   5.242   3.619   6.624
 4734SOL    HW215102   5.234   3.584   6.465
 4735SOL     OW15103   0.372   0.863   5.104
 4735SOL    HW115104   0.459   0.905   5.079
 4735SOL    HW215105   0.302   0.887   5.037
 4736SOL     OW15106   6.083   1.994   3.288
 4736SOL    HW115107   6.140   2.075   3.304
 4736SOL    HW215108   6.043   1.999   3.196
 4737SOL     OW15109   2.305   4.849   6.829
 4737SOL    HW115110   2.322   4.755   6.799
 4737SOL    HW215111   2.275   4.905   6.751
 4738SOL     OW15112   1.373   6.452   3.335
 4738SOL    HW115113   1.344   6.425   3.427
 4738SOL    HW215114   1.395   6.550   3.334
 4739SOL     OW15115   6.477   2.901   3.082
 4739SOL    HW115116   6.575   2.915   3.073
 4739SOL    HW215117   6.441   2.856   3.000
 4740SOL     OW15118   0.883   0.936   1.357
 4740SOL    HW115119   0.785   0.952   1.345
 4740SOL    HW215120   0.912   0.970   1.447
 4741SOL     OW15121   4.791   4.507   1.568
 4741SOL    HW115122   4.740   4.420   1.564
 4741SOL    HW215123   4.882   4.490   1.608
 4742SOL     OW15124   2.618   5.915   2.089
 4742SOL    HW115125   2.692   5.850   2.104
 4742SOL    HW215126   2.654   5.997   2.044
 4743SOL     OW15127   2.338   2.846   0.243
 4743SOL    HW115128   2.277   2.920   0.271
 4743SOL    HW215129   2.302   2.759   0.276
 4744SOL     OW15130   1.959   2.643   4.921
 4744SOL    HW115131   1.868   2.614   4.890
 4744SOL    HW215132   2.018   2.655   4.842
 4745SOL     OW15133   3.351   5.592   5.045
 4745SOL    HW115134   3.448   5.615   5.057
 4745SOL    HW215135   3.295   5.669   5.076
 4746SOL     OW15136   5.974   0.816   0.913
 4746SOL    HW115137   5.919   0.749   0.864
 4746SOL    HW215138   5.963   0.906   0.871
 4747SOL     OW15139   6.345   2.575   1.459
 4747SOL    HW115140   6.259   2.571   1.511
 4747SOL    HW215141   6.420   2.545   1.517
 4748SOL     OW15142   1.610   0.561   1.280
 4748SOL    HW115143   1.584   0.645   1.233
 4748SOL    HW215144   1.559   0.484   1.242
 4749SOL     OW15145   2.377   0.382   6.033
 4749SOL    HW115146   2.412   0.437   6.109
 4749SOL    HW215147   2.431   0.298   6.026
 4750SOL     OW15148   0.611   1.734   4.633
 4750SOL    HW115149   0.678   1.683   4.688
 4750SOL    HW215150   0.638   1.732   4.537
 4751SOL     OW15151   0.821   3.388   5.726
 4751SOL    HW115152   0.892   3.364   5.659
 4751SOL    HW215153   0.851   3.358   5.817
 4752SOL     OW15154   2.321   6.150   1.989
 4752SOL    HW115155   2.242   6.099   1.956
 4752SOL    HW215156   2.393   6.149   1.920
 4753SOL     OW15157   0.039   6.990   5.198
 4753SOL    HW115158   0.056   6.942   5.112
 4753SOL    HW215159   0.125   0.010   5.233
 4754SOL     OW15160   0.666   0.228   5.988
 4754SOL    HW115161   0.696   0.185   6.073
 4754SOL    HW215162   0.690   0.325   5.990
 4755SOL     OW15163   2.233   1.007   0.600
 4755SOL    HW115164   2.209   1.001   0.502
 4755SOL    HW215165   2.216   1.101   0.632
 4756SOL     OW15166   4.846   3.127   1.242
 4756SOL    HW115167   4.807   3.048   1.289
 4756SOL    HW215168   4.920   3.166   1.297
 4757SOL     OW15169   1.865   1.659   1.993
 4757SOL    HW115170   1.938   1.619   1.937
 4757SOL    HW215171   1.896   1.746   2.031
 4758SOL     OW15172   5.093   4.285   5.306
 4758SOL    HW115173   5.190   4.303   5.322
 4758SOL    HW215174   5.066   4.324   5.218
 4759SOL     OW15175   5.912   4.594   6.004
 4759SOL    HW115176   5.943   4.632   6.092
 4759SOL    HW215177   5.929   4.496   6.003
 4760SOL     OW15178   1.971   2.162   0.893
 4760SOL    HW115179   2.064   2.190   0.872
 4760SOL    HW215180   1.907   2.233   0.862
 4761SOL     OW15181   1.498   5.651   5.601
 4761SOL    HW115182   1.469   5.597   5.522
 4761SOL    HW215183   1.588   5.689   5.584
 4762SOL     OW15184   3.725   0.030   2.839
 4762SOL    HW115185   3.641   6.998   2.862
 4762SOL    HW215186   3.777   6.994   2.772
 4763SOL     OW15187   6.346   5.748   5.142
 4763SOL    HW115188   6.401   5.739   5.059
 4763SOL    HW215189   6.325   5.658   5.178
 4764SOL     OW15190   4.240   3.590   5.129
 4764SOL    HW115191   4.243   3.648   5.047
 4764SOL    HW215192   4.167   3.522   5.118
 4765SOL     OW15193   7.015   4.657   5.459
 4765SOL    HW115194   0.047   4.635   5.543
 4765SOL    HW215195   6.987   4.572   5.413
 4766SOL     OW15196   3.140   0.417   3.738
 4766SOL    HW115197   3.168   0.485   3.670
 4766SOL    HW215198   3.065   0.362   3.701
 4767SOL     OW15199   4.152   5.945   6.206
 4767SOL    HW115200   4.132   5.956   6.108
 4767SOL    HW215201   4.251   5.951   6.221
 4768SOL     OW15202   0.433   1.300   4.876
 4768SOL    HW115203   0.481   1.266   4.956
 4768SOL    HW215204   0.475   1.385   4.845
 4769SOL     OW15205   3.455   0.441   1.839
 4769SOL    HW115206   3.420   0.368   1.896
 4769SOL    HW215207   3.514   0.402   1.768
 4770SOL     OW15208   2.547   0.305   3.884
 4770SOL    HW115209   2.627   0.361   3.861
 4770SOL    HW215210   2.571   0.239   3.955
 4771SOL     OW15211   3.908   4.297   5.367
 4771SOL    HW115212   3.877   4.382   5.325
 4771SOL    HW215213   3.853   4.221   5.332
 4772SOL     OW15214   2.218   2.643   0.876
 4772SOL    HW115215   2.154   2.708   0.834
 4772SOL    HW215216   2.255   2.683   0.960
 4773SOL     OW15217   6.295   5.495   3.564
 4773SOL    HW115218   6.262   5.582   3.600
 4773SOL    HW215219   6.319   5.435   3.641
 4774SOL     OW15220   1.088   4.102   0.715
 4774SOL    HW115221   1.067   4.167   0.787
 4774SOL    HW215222   1.024   4.025   0.720
 4775SOL     OW15223   2.534   1.511   2.729
 4775SOL    HW115224   2.624   1.468   2.725
 4775SOL    HW215225   2.509   1.542   2.638
 4776SOL     OW15226   4.145   5.139   1.673
 4776SOL    HW115227   4.096   5.222   1.644
 4776SOL    HW215228   4.100   5.100   1.753
 4777SOL     OW15229   2.601   4.532   1.527
 4777SOL    HW115230   2.596   4.605   1.595
 4777SOL    HW215231   2.619   4.572   1.437
 4778SOL     OW15232   5.147   3.495   2.119
 4778SOL    HW115233   5.132   3.557   2.196
 4778SOL    HW215234   5.136   3.400   2.150
 4779SOL     OW15235   4.776   0.593   3.443
 4779SOL    HW115236   4.708   0.646   3.393
 4779SOL    HW215237   4.846   0.655   3.479
 4780SOL     OW15238   1.915   6.853   5.681
 4780SOL    HW115239   1.898   6.855   5.779
 4780SOL    HW215240   1.833   6.884   5.632
 4781SOL     OW15241   2.023   5.482   2.195
 4781SOL    HW115242   1.934   5.462   2.237
 4781SOL    HW215243   2.095   5.470   2.263
 4782SOL     OW15244   5.365   5.880   6.897
 4782SOL    HW115245   5.419   5.933   6.832
 4782SOL    HW215246   5.363   5.784   6.868
 4783SOL     OW15247   6.344   3.858   2.211
 4783SOL    HW115248   6.335   3.916   2.131
 4783SOL    HW215249   6.400   3.903   2.280
 4784SOL     OW15250   6.065   4.534   5.558
 4784SOL    HW115251   6.038   4.557   5.464
 4784SOL    HW215252   6.083   4.436   5.564
 4785SOL     OW15253   6.268   6.984   0.895
 4785SOL    HW115254   6.284   6.972   0.993
 4785SOL    HW215255   6.198   6.919   0.864
 4786SOL     OW15256   1.558   3.158   2.658
 4786SOL    HW115257   1.612   3.133   2.578
 4786SOL    HW215258   1.602   3.121   2.740
 4787SOL     OW15259   3.858   2.085   2.235
 4787SOL    HW115260   3.934   2.061   2.175
 4787SOL    HW215261   3.801   2.154   2.190
 4788SOL     OW15262   1.026   6.144   5.114
 4788SOL    HW115263   0.989   6.162   5.205
 4788SOL    HW215264   0.951   6.116   5.053
 4789SOL     OW15265   6.333   0.362   0.660
 4789SOL    HW115266   6.394   0.410   0.597
 4789SOL    HW215267   6.240   0.394   0.647
 4790SOL     OW15268   5.103   1.311   0.039
 4790SOL    HW115269   5.188   1.266   0.067
 4790SOL    HW215270   5.119   1.367   6.976
 4791SOL     OW15271   4.929   0.324   2.812
 4791SOL    HW115272   4.943   0.303   2.715
 4791SOL    HW215273   4.969   0.413   2.833
 4792SOL     OW15274   2.528   2.352   1.543
 4792SOL    HW115275   2.481   2.438   1.565
 4792SOL    HW215276   2.626   2.368   1.537
 4793SOL     OW15277   0.689   6.726   5.898
 4793SOL    HW115278   0.669   6.824   5.898
 4793SOL    HW215279   0.624   6.679   5.838
 4794SOL     OW15280   4.013   0.868   1.934
 4794SOL    HW115281   3.927   0.919   1.942
 4794SOL    HW215282   4.089   0.931   1.921
 4795SOL     OW15283   6.054   2.894   4.561
 4795SOL    HW115284   5.967   2.857   4.529
 4795SOL    HW215285   6.055   2.895   4.661
 4796SOL     OW15286   6.154   3.866   1.003
 4796SOL    HW115287   6.210   3.783   1.000
 4796SOL    HW215288   6.135   3.889   1.099
 4797SOL     OW15289   0.161   4.693   4.819
 4797SOL    HW115290   0.071   4.651   4.810
 4797SOL    HW215291   0.213   4.679   4.735
 4798SOL     OW15292   6.704   4.392   5.350
 4798SOL    HW115293   6.785   4.367   5.403
 4798SOL    HW215294   6.689   4.323   5.279
 4799SOL     OW15295   4.407   1.175   5.273
 4799SOL    HW115296   4.334   1.223   5.321
 4799SOL    HW215297   4.495   1.217   5.295
 4800SOL     OW15298   2.064   2.028   4.366
 4800SOL    HW115299   1.983   2.061   4.413
 4800SOL    HW215300   2.143   2.033   4.427
 4801SOL     OW15301   1.270   2.413   0.661
 4801SOL    HW115302   1.255   2.488   0.726
 4801SOL    HW215303   1.249   2.326   0.705
 4802SOL     OW15304   1.892   0.843   2.436
 4802SOL    HW115305   1.932   0.857   2.345
 4802SOL    HW215306   1.815   0.905   2.448
 4803SOL     OW15307   1.062   0.022   1.523
 4803SOL    HW115308   1.005   6.967   1.486
 4803SOL    HW215309   1.127   0.053   1.453
 4804SOL     OW15310   4.293   5.622   0.324
 4804SOL    HW115311   4.310   5.669   0.238
 4804SOL    HW215312   4.357   5.547   0.335
 4805SOL     OW15313   0.831   1.760   0.395
 4805SOL    HW115314   0.842   1.727   0.489
 4805SOL    HW215315   0.900   1.829   0.376
 4806SOL     OW15316   0.357   3.068   3.266
 4806SOL    HW115317   0.404   3.010   3.199
 4806SOL    HW215318   0.363   3.163   3.237
 4807SOL     OW15319   0.569   6.907   1.358
 4807SOL    HW115320   0.551   6.934   1.453
 4807SOL    HW215321   0.641   6.965   1.320
 4808SOL     OW15322   5.188   3.487   1.450
 4808SOL    HW115323   5.250   3.442   1.386
 4808SOL    HW215324   5.177   3.583   1.425
 4809SOL     OW15325   4.221   5.961   6.600
 4809SOL    HW115326   4.248   6.041   6.654
 4809SOL    HW215327   4.302   5.914   6.567
 4810SOL     OW15328   0.707   0.475   1.230
 4810SOL    HW115329   0.685   0.414   1.154
 4810SOL    HW215330   0.627   0.530   1.253
 4811SOL     OW15331   5.084   5.953   2.736
 4811SOL    HW115332   4.993   5.916   2.757
 4811SOL    HW215333   5.137   5.884   2.686
 4812SOL     OW15334   6.404   4.985   4.591
 4812SOL    HW115335   6.478   5.024   4.645
 4812SOL    HW215336   6.390   4.889   4.618
 4813SOL     OW15337   5.657   2.343   2.662
 4813SOL    HW115338   5.676   2.430   2.618
 4813SOL    HW215339   5.699   2.269   2.609
 4814SOL     OW15340   6.929   3.599   1.600
 4814SOL    HW115341   6.930   3.505   1.567
 4814SOL    HW215342   6.903   3.600   1.696
 4815SOL     OW15343   3.739   6.154   2.635
 4815SOL    HW115344   3.730   6.244   2.593
 4815SOL    HW215345   3.800   6.097   2.579
 4816SOL     OW15346   5.354   5.406   3.120
 4816SOL    HW115347   5.264   5.414   3.163
 4816SOL    HW215348   5.421   5.456   3.175
 4817SOL     OW15349   6.810   2.099   6.428
 4817SOL    HW115350   6.731   2.069   6.375
 4817SOL    HW215351   6.793   2.082   6.526
 4818SOL     OW15352   0.164   6.133   3.826
 4818SOL    HW115353   0.097   6.202   3.853
 4818SOL    HW215354   0.209   6.098   3.908
 4819SOL     OW15355   1.709   3.063   0.858
 4819SOL    HW115356   1.789   3.115   0.885
 4819SOL    HW215357   1.629   3.095   0.909
 4820SOL     OW15358   0.503   2.996   2.655
 4820SOL    HW115359   0.546   3.052   2.726
 4820SOL    HW215360   0.407   3.022   2.647
 4821SOL     OW15361   6.836   5.750   3.870
 4821SOL    HW115362   6.755   5.759   3.813
 4821SOL    HW215363   6.856   5.838   3.913
 4822SOL     OW15364   2.071   4.018   4.322
 4822SOL    HW115365   1.978   4.054   4.331
 4822SOL    HW215366   2.131   4.063   4.388
 4823SOL     OW15367   1.900   2.894   1.987
 4823SOL    HW115368   1.900   2.903   1.887
 4823SOL    HW215369   1.894   2.798   2.012
 4824SOL     OW15370   6.049   1.779   6.718
 4824SOL    HW115371   5.984   1.832   6.664
 4824SOL    HW215372   6.129   1.836   6.739
 4825SOL     OW15373   1.219   6.673   3.749
 4825SOL    HW115374   1.204   6.758   3.699
 4825SOL    HW215375   1.267   6.694   3.835
 4826SOL     OW15376   3.902   0.507   0.991
 4826SOL    HW115377   3.850   0.515   1.076
 4826SOL    HW215378   3.887   0.416   0.951
 4827SOL     OW15379   6.977   1.655   0.363
 4827SOL    HW115380   6.992   1.753   0.379
 4827SOL    HW215381   6.993   1.605   0.448
 4828SOL     OW15382   5.442   1.015   4.600
 4828SOL    HW115383   5.520   1.074   4.622
 4828SOL    HW215384   5.446   0.932   4.656
 4829SOL     OW15385   4.134   6.442   5.271
 4829SOL    HW115386   4.047   6.466   5.229
 4829SOL    HW215387   4.164   6.352   5.238
 4830SOL     OW15388   2.016   6.316   3.052
 4830SOL    HW115389   1.955   6.335   2.975
 4830SOL    HW215390   2.050   6.222   3.045
 4831SOL     OW15391   3.096   4.754   5.215
 4831SOL    HW115392   3.027   4.687   5.188
 4831SOL    HW215393   3.181   4.707   5.238
 4832SOL     OW15394   3.580   3.598   4.057
 4832SOL    HW115395   3.482   3.578   4.046
 4832SOL    HW215396   3.605   3.675   3.998
 4833SOL     OW15397   6.173   3.781   5.024
 4833SOL    HW115398   6.131   3.690   5.024
 4833SOL    HW215399   6.273   3.771   5.017
 4834SOL     OW15400   1.188   4.737   0.881
 4834SOL    HW115401   1.182   4.721   0.979
 4834SOL    HW215402   1.124   4.809   0.855
 4835SOL     OW15403   6.731   2.890   6.020
 4835SOL    HW115404   6.734   2.801   6.064
 4835SOL    HW215405   6.789   2.890   5.939
 4836SOL     OW15406   4.442   1.840   5.980
 4836SOL    HW115407   4.491   1.757   6.005
 4836SOL    HW215408   4.442   1.850   5.880
 4837SOL     OW15409   6.888   3.711   3.813
 4837SOL    HW115410   6.887   3.791   3.872
 4837SOL    HW215411   6.799   3.665   3.817
 4838SOL     OW15412   1.940   3.535   6.085
 4838SOL    HW115413   1.984   3.505   6.001
 4838SOL    HW215414   1.971   3.478   6.161
 4839SOL     OW15415   2.403   1.025   0.813
 4839SOL    HW115416   2.496   1.046   0.782
 4839SOL    HW215417   2.342   1.024   0.734
 4840SOL     OW15418   6.070   3.516   5.013
 4840SOL    HW115419   6.027   3.519   4.923
 4840SOL    HW215420   6.157   3.469   5.008
 4841SOL     OW15421   2.779   6.634   2.984
 4841SOL    HW115422   2.782   6.662   3.080
 4841SOL    HW215423   2.865   6.659   2.940
 4842SOL     OW15424   3.765   5.600   3.064
 4842SOL    HW115425   3.755   5.544   3.146
 4842SOL    HW215426   3.774   5.696   3.090
 4843SOL     OW15427   6.847   1.430   6.975
 4843SOL    HW115428   6.924   1.479   7.017
 4843SOL    HW215429   6.881   1.364   6.908
 4844SOL     OW15430   1.780   5.519   5.856
 4844SOL    HW115431   1.858   5.567   5.815
 4844SOL    HW215432   1.715   5.495   5.785
 4845SOL     OW15433   5.073   3.626   5.003
 4845SOL    HW115434   5.076   3.711   5.055
 4845SOL    HW215435   4.981   3.587   5.008
 4846SOL     OW15436   6.347   3.509   4.613
 4846SOL    HW115437   6.324   3.603   4.586
 4846SOL    HW215438   6.303   3.489   4.701
 4847SOL     OW15439   2.441   6.622   6.224
 4847SOL    HW115440   2.464   6.607   6.128
 4847SOL    HW215441   2.524   6.645   6.275
 4848SOL     OW15442   4.962   1.129   4.131
 4848SOL    HW115443   4.955   1.195   4.205
 4848SOL    HW215444   5.047   1.078   4.139
 4849SOL     OW15445   2.500   6.072   1.207
 4849SOL    HW115446   2.475   6.088   1.112
 4849SOL    HW215447   2.536   6.156   1.247
 4850SOL     OW15448   3.572   0.006   0.844
 4850SOL    HW115449   3.507   0.008   0.768
 4850SOL    HW215450   3.558   0.086   0.902
 4851SOL     OW15451   3.618   4.470   6.437
 4851SOL    HW115452   3.656   4.389   6.482
 4851SOL    HW215453   3.676   4.549   6.454
 4852SOL     OW15454   5.630   4.836   5.809
 4852SOL    HW115455   5.664   4.914   5.862
 4852SOL    HW215456   5.707   4.775   5.788
 4853SOL     OW15457   4.472   6.985   2.736
 4853SOL    HW115458   4.442   0.052   2.782
 4853SOL    HW215459   4.561   7.000   2.695
 4854SOL     OW15460   4.463   6.540   2.503
 4854SOL    HW115461   4.392   6.496   2.447
 4854SOL    HW215462   4.514   6.470   2.552
 4855SOL     OW15463   4.992   5.095   5.884
 4855SOL    HW115464   5.060   5.029   5.855
 4855SOL    HW215465   4.990   5.172   5.820
 4856SOL     OW15466   0.770   4.307   2.878
 4856SOL    HW115467   0.679   4.339   2.906
 4856SOL    HW215468   0.809   4.251   2.950
 4857SOL     OW15469   2.206   2.341   5.142
 4857SOL    HW115470   2.249   2.258   5.178
 4857SOL    HW215471   2.126   2.364   5.198
 4858SOL     OW15472   1.652   6.247   4.393
 4858SOL    HW115473   1.736   6.293   4.365
 4858SOL    HW215474   1.674   6.155   4.426
 4859SOL     OW15475   6.870   5.732   2.937
 4859SOL    HW115476   6.957   5.766   2.901
 4859SOL    HW215477   6.883   5.641   2.976
 4860SOL     OW15478   4.048   5.142   2.217
 4860SOL    HW115479   3.951   5.167   2.216
 4860SOL    HW215480   4.104   5.224   2.229
 4861SOL     OW15481   6.977   3.943   5.902
 4861SOL    HW115482   0.035   4.006   5.921
 4861SOL    HW215483   6.964   3.936   5.803
 4862SOL     OW15484   1.905   5.935   4.034
 4862SOL    HW115485   1.882   5.883   3.952
 4862SOL    HW215486   1.822   5.975   4.073
 4863SOL     OW15487   5.096   2.182   2.368
 4863SOL    HW115488   5.130   2.099   2.322
 4863SOL    HW215489   5.157   2.258   2.346
 4864SOL     OW15490   2.320   1.318   1.351
 4864SOL    HW115491   2.232   1.303   1.305
 4864SOL    HW215492   2.335   1.246   1.418
 4865SOL     OW15493   4.136   5.549   4.682
 4865SOL    HW115494   4.213   5.607   4.706
 4865SOL    HW215495   4.051   5.597   4.700
 4866SOL     OW15496   0.521   5.205   2.233
 4866SOL    HW115497   0.495   5.220   2.138
 4866SOL    HW215498   0.481   5.120   2.266
 4867SOL     OW15499   4.899   4.840   4.159
 4867SOL    HW115500   4.849   4.867   4.241
 4867SOL    HW215501   4.921   4.742   4.165
 4868SOL     OW15502   1.601   6.191   1.534
 4868SOL    HW115503   1.552   6.162   1.452
 4868SOL    HW215504   1.535   6.209   1.607
 4869SOL     OW15505   5.950   1.872   1.012
 4869SOL    HW115506   6.045   1.841   1.022
 4869SOL    HW215507   5.948   1.972   1.006
 4870SOL     OW15508   6.449   0.285   1.132
 4870SOL    HW115509   6.487   0.304   1.041
 4870SOL    HW215510   6.350   0.279   1.126
 4871SOL     OW15511   1.911   3.714   4.493
 4871SOL    HW115512   1.901   3.790   4.556
 4871SOL    HW215513   1.989   3.731   4.432
 4872SOL     OW15514   0.780   0.528   4.109
 4872SOL    HW115515   0.732   0.440   4.114
 4872SOL    HW215516   0.838   0.529   4.028
 4873SOL     OW15517   1.150   6.642   5.048
 4873SOL    HW115518   1.121   6.593   5.130
 4873SOL    HW215519   1.131   6.740   5.059
 4874SOL     OW15520   5.970   3.068   3.562
 4874SOL    HW115521   5.872   3.046   3.559
 4874SOL    HW215522   5.983   3.165   3.544
 4875SOL     OW15523   6.734   2.625   6.140
 4875SOL    HW115524   6.702   2.581   6.055
 4875SOL    HW215525   6.809   2.572   6.179
 4876SOL     OW15526   7.003   1.580   0.117
 4876SOL    HW115527   0.085   1.566   0.116
 4876SOL    HW215528   6.975   1.616   0.205
 4877SOL     OW15529   6.175   1.136   1.816
 4877SOL    HW115530   6.182   1.169   1.722
 4877SOL    HW215531   6.229   1.053   1.827
 4878SOL     OW15532   0.093   3.002   1.794
 4878SOL    HW115533   0.017   3.063   1.819
 4878SOL    HW215534   0.150   3.048   1.726
 4879SOL     OW15535   4.366   5.678   3.484
 4879SOL    HW115536   4.378   5.711   3.578
 4879SOL    HW215537   4.270   5.655   3.469
 4880SOL     OW15538   5.851   1.850   5.662
 4880SOL    HW115539   5.839   1.946   5.637
 4880SOL    HW215540   5.887   1.799   5.585
 4881SOL     OW15541   2.757   5.417   6.890
 4881SOL    HW115542   2.745   5.513   6.863
 4881SOL    HW215543   2.700   5.359   6.832
 4882SOL     OW15544   4.807   6.852   6.868
 4882SOL    HW115545   4.753   6.786   6.815
 4882SOL    HW215546   4.745   6.921   6.907
 4883SOL     OW15547   6.372   5.523   0.205
 4883SOL    HW115548   6.279   5.557   0.200
 4883SOL    HW215549   6.383   5.446   0.143
 4884SOL     OW15550   3.974   6.618   1.345
 4884SOL    HW115551   4.006   6.629   1.251
 4884SOL    HW215552   3.902   6.549   1.348
 4885SOL     OW15553   2.131   6.647   2.797
 4885SOL    HW115554   2.123   6.687   2.889
 4885SOL    HW215555   2.219   6.601   2.789
 4886SOL     OW15556   5.859   0.879   6.165
 4886SOL    HW115557   5.802   0.798   6.175
 4886SOL    HW215558   5.891   0.886   6.071
 4887SOL     OW15559   0.189   1.967   5.891
 4887SOL    HW115560   0.223   2.054   5.856
 4887SOL    HW215561   0.160   1.979   5.986
 4888SOL     OW15562   3.492   5.700   1.701
 4888SOL    HW115563   3.507   5.707   1.603
 4888SOL    HW215564   3.472   5.791   1.739
 4889SOL     OW15565   1.526   2.839   6.248
 4889SOL    HW115566   1.494   2.877   6.161
 4889SOL    HW215567   1.461   2.769   6.280
 4890SOL     OW15568   0.973   0.136   4.225
 4890SOL    HW115569   0.922   0.210   4.181
 4890SOL    HW215570   1.047   0.175   4.280
 4891SOL     OW15571   1.892   3.747   0.811
 4891SOL    HW115572   1.953   3.760   0.889
 4891SOL    HW215573   1.940   3.771   0.727
 4892SOL     OW15574   1.091   5.816   1.691
 4892SOL    HW115575   1.160   5.746   1.709
 4892SOL    HW215576   1.074   5.821   1.593
 4893SOL     OW15577   0.921   3.489   6.241
 4893SOL    HW115578   0.845   3.516   6.299
 4893SOL    HW215579   0.971   3.413   6.283
 4894SOL     OW15580   1.801   0.831   3.062
 4894SOL    HW115581   1.763   0.762   3.124
 4894SOL    HW215582   1.850   0.785   2.988
 4895SOL     OW15583   6.147   4.387   0.297
 4895SOL    HW115584   6.088   4.464   0.321
 4895SOL    HW215585   6.133   4.363   0.201
 4896SOL     OW15586   4.096   5.808   3.361
 4896SOL    HW115587   4.153   5.890   3.367
 4896SOL    HW215588   4.039   5.800   3.443
 4897SOL     OW15589   2.575   6.123   6.364
 4897SOL    HW115590   2.646   6.147   6.299
 4897SOL    HW215591   2.614   6.069   6.439
 4898SOL     OW15592   6.402   2.306   4.684
 4898SOL    HW115593   6.407   2.208   4.669
 4898SOL    HW215594   6.445   2.354   4.608
 4899SOL     OW15595   5.277   4.593   4.982
 4899SOL    HW115596   5.222   4.648   5.045
 4899SOL    HW215597   5.314   4.652   4.910
 4900SOL     OW15598   0.417   6.606   5.663
 4900SOL    HW115599   0.336   6.608   5.604
 4900SOL    HW215600   0.492   6.560   5.614
 4901SOL     OW15601   0.306   6.789   3.191
 4901SOL    HW115602   0.333   6.777   3.096
 4901SOL    HW215603   0.327   6.705   3.242
 4902SOL     OW15604   3.390   4.745   1.668
 4902SOL    HW115605   3.318   4.688   1.628
 4902SOL    HW215606   3.458   4.687   1.712
 4903SOL     OW15607   5.619   5.958   5.753
 4903SOL    HW115608   5.622   5.968   5.853
 4903SOL    HW215609   5.630   5.861   5.729
 4904SOL     OW15610   3.114   6.394   3.170
 4904SOL    HW115611   3.141   6.488   3.152
 4904SOL    HW215612   3.073   6.354   3.088
 4905SOL     OW15613   6.245   3.535   3.188
 4905SOL    HW115614   6.244   3.525   3.288
 4905SOL    HW215615   6.194   3.460   3.146
 4906SOL     OW15616   5.308   1.015   1.206
 4906SOL    HW115617   5.331   1.089   1.144
 4906SOL    HW215618   5.245   1.048   1.277
 4907SOL     OW15619   2.306   1.993   2.290
 4907SOL    HW115620   2.329   1.903   2.253
 4907SOL    HW215621   2.378   2.058   2.266
 4908SOL     OW15622   3.751   5.205   0.363
 4908SOL    HW115623   3.774   5.277   0.428
 4908SOL    HW215624   3.709   5.246   0.281
 4909SOL     OW15625   5.608   0.361   5.291
 4909SOL    HW115626   5.563   0.450   5.296
 4909SOL    HW215627   5.704   0.370   5.317
 4910SOL     OW15628   5.664   6.702   6.498
 4910SOL    HW115629   5.761   6.680   6.505
 4910SOL    HW215630   5.650   6.798   6.523
 4911SOL     OW15631   1.149   2.866   6.083
 4911SOL    HW115632   1.164   2.965   6.086
 4911SOL    HW215633   1.061   2.848   6.039
 4912SOL     OW15634   2.615   2.372   2.071
 4912SOL    HW115635   2.617   2.409   1.978
 4912SOL    HW215636   2.708   2.354   2.101
 4913SOL     OW15637   2.939   3.455   2.076
 4913SOL    HW115638   2.935   3.442   1.977
 4913SOL    HW215639   2.968   3.548   2.097
 4914SOL     OW15640   1.668   6.126   2.408
 4914SOL    HW115641   1.623   6.206   2.447
 4914SOL    HW215642   1.757   6.113   2.451
 4915SOL     OW15643   2.765   6.135   3.240
 4915SOL    HW115644   2.744   6.229   3.212
 4915SOL    HW215645   2.681   6.088   3.263
 4916SOL     OW15646   2.065   1.747   2.336
 4916SOL    HW115647   2.133   1.817   2.357
 4916SOL    HW215648   1.979   1.769   2.383
 4917SOL     OW15649   2.390   5.365   6.160
 4917SOL    HW115650   2.354   5.311   6.084
 4917SOL    HW215651   2.405   5.305   6.239
 4918SOL     OW15652   2.134   0.341   3.805
 4918SOL    HW115653   2.158   0.253   3.763
 4918SOL    HW215654   2.189   0.355   3.887
 4919SOL     OW15655   2.436   2.941   1.696
 4919SOL    HW115656   2.517   2.930   1.638
 4919SOL    HW215657   2.428   3.037   1.724
 4920SOL     OW15658   4.227   0.764   0.329
 4920SOL    HW115659   4.200   0.770   0.425
 4920SOL    HW215660   4.152   0.794   0.271
 4921SOL     OW15661   0.938   4.742   1.839
 4921SOL    HW115662   0.985   4.823   1.804
 4921SOL    HW215663   0.934   4.746   1.939
 4922SOL     OW15664   0.900   2.789   5.706
 4922SOL    HW115665   0.830   2.824   5.643
 4922SOL    HW215666   0.947   2.711   5.665
 4923SOL     OW15667   3.008   2.515   0.469
 4923SOL    HW115668   2.961   2.436   0.509
 4923SOL    HW215669   2.942   2.573   0.424
 4924SOL     OW15670   0.073   3.752   4.315
 4924SOL    HW115671   0.077   3.657   4.346
 4924SOL    HW215672   6.995   3.782   4.314
 4925SOL     OW15673   4.536   5.469   6.379
 4925SOL    HW115674   4.554   5.400   6.308
 4925SOL    HW215675   4.530   5.424   6.468
 4926SOL     OW15676   4.144   2.775   0.745
 4926SOL    HW115677   4.061   2.767   0.800
 4926SOL    HW215678   4.130   2.846   0.676
 4927SOL     OW15679   3.711   4.079   2.762
 4927SOL    HW115680   3.671   4.074   2.854
 4927SOL    HW215681   3.638   4.072   2.694
 4928SOL     OW15682   0.872   6.414   0.968
 4928SOL    HW115683   0.851   6.436   1.063
 4928SOL    HW215684   0.798   6.449   0.909
 4929SOL     OW15685   0.961   5.345   4.469
 4929SOL    HW115686   1.006   5.316   4.385
 4929SOL    HW215687   0.989   5.285   4.544
 4930SOL     OW15688   0.372   2.730   0.565
 4930SOL    HW115689   0.386   2.692   0.657
 4930SOL    HW215690   0.450   2.787   0.540
 4931SOL     OW15691   6.511   6.768   1.181
 4931SOL    HW115692   6.442   6.772   1.253
 4931SOL    HW215693   6.593   6.818   1.209
 4932SOL     OW15694   4.015   2.098   0.935
 4932SOL    HW115695   3.933   2.053   0.900
 4932SOL    HW215696   4.005   2.116   1.033
 4933SOL     OW15697   2.913   0.449   4.952
 4933SOL    HW115698   2.995   0.502   4.978
 4933SOL    HW215699   2.938   0.353   4.940
 4934SOL     OW15700   1.731   5.855   5.299
 4934SOL    HW115701   1.673   5.804   5.235
 4934SOL    HW215702   1.744   5.801   5.382
 4935SOL     OW15703   1.528   1.120   0.364
 4935SOL    HW115704   1.574   1.035   0.388
 4935SOL    HW215705   1.581   1.169   0.295
 4936SOL     OW15706   4.679   6.082   1.247
 4936SOL    HW115707   4.637   6.154   1.302
 4936SOL    HW215708   4.744   6.123   1.182
 4937SOL     OW15709   1.167   2.612   5.135
 4937SOL    HW115710   1.103   2.551   5.089
 4937SOL    HW215711   1.235   2.645   5.069
 4938SOL     OW15712   3.367   5.021   1.688
 4938SOL    HW115713   3.462   5.050   1.679
 4938SOL    HW215714   3.362   4.921   1.688
 4939SOL     OW15715   1.057   1.519   1.431
 4939SOL    HW115716   1.025   1.538   1.524
 4939SOL    HW215717   1.130   1.450   1.434
 4940SOL     OW15718   0.475   1.856   5.556
 4940SOL    HW115719   0.541   1.783   5.538
 4940SOL    HW215720   0.424   1.834   5.640
 4941SOL     OW15721   4.041   2.780   5.331
 4941SOL    HW115722   4.117   2.836   5.365
 4941SOL    HW215723   4.077   2.707   5.273
 4942SOL     OW15724   0.525   1.473   3.036
 4942SOL    HW115725   0.527   1.573   3.036
 4942SOL    HW215726   0.588   1.438   3.105
 4943SOL     OW15727   5.486   2.511   7.006
 4943SOL    HW115728   5.583   2.533   6.995
 4943SOL    HW215729   5.475   2.411   7.002
 4944SOL     OW15730   1.034   5.264   6.802
 4944SOL    HW115731   1.060   5.301   6.712
 4944SOL    HW215732   0.972   5.328   6.847
 4945SOL     OW15733   2.524   0.440   5.283
 4945SOL    HW115734   2.469   0.506   5.334
 4945SOL    HW215735   2.588   0.489   5.223
 4946SOL     OW15736   2.710   5.219   0.080
 4946SOL    HW115737   2.746   5.293   0.023
 4946SOL    HW215738   2.769   5.209   0.161
 4947SOL     OW15739   1.234   0.320   1.056
 4947SOL    HW115740   1.138   0.307   1.082
 4947SOL    HW215741   1.242   0.321   0.956
 4948SOL     OW15742   1.797   2.168   1.889
 4948SOL    HW115743   1.737   2.110   1.946
 4948SOL    HW215744   1.888   2.128   1.886
 4949SOL     OW15745   0.053   4.262   6.393
 4949SOL    HW115746   0.077   4.316   6.473
 4949SOL    HW215747   7.002   4.312   6.339
 4950SOL     OW15748   3.525   4.654   5.572
 4950SOL    HW115749   3.557   4.619   5.484
 4950SOL    HW215750   3.558   4.595   5.646
 4951SOL     OW15751   4.901   5.657   3.318
 4951SOL    HW115752   4.990   5.692   3.347
 4951SOL    HW215753   4.877   5.696   3.229
 4952SOL     OW15754   0.362   0.568   6.366
 4952SOL    HW115755   0.314   0.483   6.347
 4952SOL    HW215756   0.379   0.575   6.465
 4953SOL     OW15757   1.628   2.399   5.039
 4953SOL    HW115758   1.534   2.402   5.071
 4953SOL    HW215759   1.675   2.484   5.062
 4954SOL     OW15760   3.051   4.011   4.773
 4954SOL    HW115761   3.030   4.015   4.871
 4954SOL    HW215762   2.995   3.941   4.730
 4955SOL     OW15763   4.136   5.949   5.933
 4955SOL    HW115764   4.154   5.850   5.933
 4955SOL    HW215765   4.043   5.966   5.902
 4956SOL     OW15766   3.235   0.120   4.755
 4956SOL    HW115767   3.220   0.131   4.657
 4956SOL    HW215768   3.248   0.210   4.797
 4957SOL     OW15769   5.845   4.471   0.069
 4957SOL    HW115770   5.847   4.526   0.152
 4957SOL    HW215771   5.905   4.392   0.080
 4958SOL     OW15772   3.896   5.885   0.508
 4958SOL    HW115773   3.802   5.864   0.482
 4958SOL    HW215774   3.953   5.803   0.496
 4959SOL     OW15775   0.223   2.047   3.049
 4959SOL    HW115776   0.293   2.108   3.085
 4959SOL    HW215777   0.149   2.101   3.009
 4960SOL     OW15778   5.003   4.670   3.895
 4960SOL    HW115779   4.923   4.634   3.944
 4960SOL    HW215780   5.039   4.749   3.944
 4961SOL     OW15781   3.341   2.079   1.501
 4961SOL    HW115782   3.264   2.142   1.517
 4961SOL    HW215783   3.344   2.012   1.575
 4962SOL     OW15784   1.184   3.307   0.294
 4962SOL    HW115785   1.252   3.234   0.293
 4962SOL    HW215786   1.096   3.270   0.324
 4963SOL     OW15787   0.898   3.329   5.974
 4963SOL    HW115788   0.833   3.357   6.045
 4963SOL    HW215789   0.990   3.354   6.001
 4964SOL     OW15790   2.658   6.367   4.451
 4964SOL    HW115791   2.559   6.368   4.465
 4964SOL    HW215792   2.697   6.450   4.490
 4965SOL     OW15793   1.365   6.199   3.035
 4965SOL    HW115794   1.339   6.281   3.085
 4965SOL    HW215795   1.396   6.129   3.099
 4966SOL     OW15796   3.133   6.195   4.190
 4966SOL    HW115797   3.062   6.193   4.120
 4966SOL    HW215798   3.094   6.229   4.276
 4967SOL     OW15799   4.324   4.769   4.838
 4967SOL    HW115800   4.333   4.676   4.874
 4967SOL    HW215801   4.259   4.820   4.895
 4968SOL     OW15802   0.122   2.486   3.110
 4968SOL    HW115803   0.143   2.583   3.103
 4968SOL    HW215804   0.188   2.442   3.171
 4969SOL     OW15805   6.992   5.562   3.978
 4969SOL    HW115806   6.938   5.643   3.956
 4969SOL    HW215807   0.052   5.588   4.037
 4970SOL     OW15808   1.818   1.654   1.096
 4970SOL    HW115809   1.824   1.574   1.156
 4970SOL    HW215810   1.733   1.649   1.043
 4971SOL     OW15811   0.151   5.797   2.318
 4971SOL    HW115812   0.207   5.723   2.357
 4971SOL    HW215813   0.138   5.869   2.386
 4972SOL     OW15814   0.580   4.430   0.776
 4972SOL    HW115815   0.672   4.395   0.758
 4972SOL    HW215816   0.555   4.411   0.871
 4973SOL     OW15817   6.077   1.547   0.952
 4973SOL    HW115818   6.108   1.547   1.047
 4973SOL    HW215819   6.103   1.633   0.908
 4974SOL     OW15820   3.172   6.499   4.881
 4974SOL    HW115821   3.244   6.518   4.948
 4974SOL    HW215822   3.144   6.585   4.838
 4975SOL     OW15823   5.148   4.962   0.927
 4975SOL    HW115824   5.228   5.006   0.967
 4975SOL    HW215825   5.133   4.873   0.971
 4976SOL     OW15826   1.630   6.638   3.546
 4976SOL    HW115827   1.690   6.565   3.513
 4976SOL    HW215828   1.570   6.667   3.472
 4977SOL     OW15829   1.358   3.902   5.928
 4977SOL    HW115830   1.327   3.997   5.922
 4977SOL    HW215831   1.298   3.845   5.873
 4978SOL     OW15832   5.909   4.722   4.658
 4978SOL    HW115833   5.980   4.658   4.628
 4978SOL    HW215834   5.887   4.705   4.754
 4979SOL     OW15835   2.394   6.874   6.045
 4979SOL    HW115836   2.470   6.827   6.001
 4979SOL    HW215837   2.385   6.842   6.139
 4980SOL     OW15838   5.362   3.193   3.940
 4980SOL    HW115839   5.281   3.231   3.984
 4980SOL    HW215840   5.388   3.250   3.862
 4981SOL     OW15841   2.870   4.863   2.728
 4981SOL    HW115842   2.851   4.797   2.801
 4981SOL    HW215843   2.967   4.858   2.704
 4982SOL     OW15844   3.657   2.590   5.746
 4982SOL    HW115845   3.646   2.631   5.836
 4982SOL    HW215846   3.718   2.511   5.752
 4983SOL     OW15847   6.014   4.999   3.119
 4983SOL    HW115848   6.024   4.939   3.040
 4983SOL    HW215849   5.970   5.085   3.090
 4984SOL     OW15850   4.895   3.668   3.530
 4984SOL    HW115851   4.816   3.725   3.507
 4984SOL    HW215852   4.978   3.710   3.494
 4985SOL     OW15853   5.503   0.579   2.006
 4985SOL    HW115854   5.407   0.555   2.018
 4985SOL    HW215855   5.511   0.659   1.947
 4986SOL     OW15856   0.749   4.717   1.463
 4986SOL    HW115857   0.734   4.732   1.561
 4986SOL    HW215858   0.715   4.796   1.412
 4987SOL     OW15859   0.661   1.326   2.418
 4987SOL    HW115860   0.624   1.402   2.471
 4987SOL    HW215861   0.632   1.239   2.459
 4988SOL     OW15862   6.327   5.938   4.147
 4988SOL    HW115863   6.303   5.915   4.241
 4988SOL    HW215864   6.247   5.927   4.088
 4989SOL     OW15865   5.217   0.117   3.822
 4989SOL    HW115866   5.129   0.162   3.837
 4989SOL    HW215867   5.226   0.093   3.725
 4990SOL     OW15868   4.587   2.163   5.377
 4990SOL    HW115869   4.539   2.246   5.351
 4990SOL    HW215870   4.583   2.152   5.476
 4991SOL     OW15871   0.992   4.873   6.006
 4991SOL    HW115872   1.062   4.934   5.968
 4991SOL    HW215873   0.904   4.920   6.008
 4992SOL     OW15874   0.998   3.537   4.187
 4992SOL    HW115875   0.922   3.512   4.247
 4992SOL    HW215876   1.056   3.603   4.234
 4993SOL     OW15877   2.780   5.983   3.806
 4993SOL    HW115878   2.696   6.033   3.787
 4993SOL    HW215879   2.842   6.041   3.858
 4994SOL     OW15880   3.747   4.966   5.500
 4994SOL    HW115881   3.738   5.064   5.484
 4994SOL    HW215882   3.821   4.949   5.565
 4995SOL     OW15883   0.041   0.807   5.898
 4995SOL    HW115884   0.138   0.815   5.919
 4995SOL    HW215885   0.029   0.750   5.817
 4996SOL     OW15886   0.522   1.195   4.178
 4996SOL    HW115887   0.455   1.235   4.240
 4996SOL    HW215888   0.591   1.146   4.231
 4997SOL     OW15889   3.792   1.577   0.964
 4997SOL    HW115890   3.710   1.544   1.011
 4997SOL    HW215891   3.873   1.553   1.017
 4998SOL     OW15892   0.850   3.681   3.411
 4998SOL    HW115893   0.760   3.639   3.421
 4998SOL    HW215894   0.887   3.703   3.502
 4999SOL     OW15895   0.838   2.679   4.183
 4999SOL    HW115896   0.789   2.604   4.137
 4999SOL    HW215897   0.916   2.708   4.127
 5000SOL     OW15898   3.142   5.901   2.615
 5000SOL    HW115899   3.111   5.825   2.673
 5000SOL    HW215900   3.158   5.982   2.671
 5001SOL     OW15901   0.692   6.490   3.380
 5001SOL    HW115902   0.635   6.471   3.460
 5001SOL    HW215903   0.780   6.526   3.410
 5002SOL     OW15904   1.756   4.289   3.935
 5002SOL    HW115905   1.663   4.252   3.939
 5002SOL    HW215906   1.752   4.384   3.907
 5003SOL     OW15907   4.120   0.563   3.326
 5003SOL    HW115908   4.046   0.499   3.346
 5003SOL    HW215909   4.091   0.656   3.350
 5004SOL     OW15910   3.319   5.108   0.103
 5004SOL    HW115911   3.249   5.115   0.174
 5004SOL    HW215912   3.276   5.109   0.013
 5005SOL     OW15913   2.668   2.883   6.860
 5005SOL    HW115914   2.607   2.910   6.786
 5005SOL    HW215915   2.635   2.798   6.901
 5006SOL     OW15916   5.045   1.902   1.801
 5006SOL    HW115917   4.949   1.908   1.828
 5006SOL    HW215918   5.100   1.963   1.858
 5007SOL     OW15919   5.989   6.367   2.072
 5007SOL    HW115920   5.972   6.304   1.996
 5007SOL    HW215921   5.919   6.353   2.142
 5008SOL     OW15922   5.484   0.572   2.365
 5008SOL    HW115923   5.427   0.636   2.416
 5008SOL    HW215924   5.426   0.504   2.320
 5009SOL     OW15925   6.734   2.297   0.348
 5009SOL    HW115926   6.678   2.378   0.365
 5009SOL    HW215927   6.810   2.295   0.414
 5010SOL     OW15928   3.795   3.663   1.211
 5010SOL    HW115929   3.713   3.695   1.259
 5010SOL    HW215930   3.852   3.741   1.186
 5011SOL     OW15931   1.963   2.893   6.535
 5011SOL    HW115932   1.866   2.887   6.511
 5011SOL    HW215933   1.985   2.987   6.560
 5012SOL     OW15934   6.084   1.848   6.171
 5012SOL    HW115935   6.090   1.758   6.214
 5012SOL    HW215936   6.018   1.905   6.221
 5013SOL     OW15937   5.814   6.844   5.816
 5013SOL    HW115938   5.733   6.848   5.875
 5013SOL    HW215939   5.894   6.874   5.868
 5014SOL     OW15940   6.259   3.190   1.938
 5014SOL    HW115941   6.245   3.273   1.885
 5014SOL    HW215942   6.294   3.118   1.879
 5015SOL     OW15943   5.614   6.440   3.980
 5015SOL    HW115944   5.610   6.386   3.897
 5015SOL    HW215945   5.708   6.446   4.012
 5016SOL     OW15946   1.849   3.325   5.446
 5016SOL    HW115947   1.920   3.255   5.445
 5016SOL    HW215948   1.843   3.367   5.355
 5017SOL     OW15949   0.542   3.492   2.255
 5017SOL    HW115950   0.513   3.420   2.318
 5017SOL    HW215951   0.524   3.582   2.296
 5018SOL     OW15952   1.160   0.314   0.365
 5018SOL    HW115953   1.145   0.287   0.270
 5018SOL    HW215954   1.252   0.350   0.376
 5019SOL     OW15955   1.303   5.108   4.944
 5019SOL    HW115956   1.272   5.012   4.944
 5019SOL    HW215957   1.347   5.129   4.857
 5020SOL     OW15958   2.596   0.320   4.769
 5020SOL    HW115959   2.647   0.252   4.821
 5020SOL    HW215960   2.520   0.276   4.721
 5021SOL     OW15961   1.998   0.897   0.744
 5021SOL    HW115962   2.096   0.911   0.732
 5021SOL    HW215963   1.979   0.869   0.838
 5022SOL     OW15964   6.677   3.071   1.690
 5022SOL    HW115965   6.774   3.074   1.714
 5022SOL    HW215966   6.626   3.134   1.749
 5023SOL     OW15967   6.706   4.286   2.332
 5023SOL    HW115968   6.662   4.375   2.343
 5023SOL    HW215969   6.806   4.298   2.332
 5024SOL     OW15970   4.449   3.805   1.201
 5024SOL    HW115971   4.363   3.753   1.199
 5024SOL    HW215972   4.445   3.874   1.274
 5025SOL     OW15973   4.466   1.451   4.391
 5025SOL    HW115974   4.482   1.352   4.391
 5025SOL    HW215975   4.477   1.487   4.299
 5026SOL     OW15976   4.184   6.713   4.512
 5026SOL    HW115977   4.226   6.673   4.593
 5026SOL    HW215978   4.249   6.775   4.467
 5027SOL     OW15979   5.021   6.473   0.659
 5027SOL    HW115980   5.075   6.391   0.639
 5027SOL    HW215981   5.051   6.547   0.600
 5028SOL     OW15982   6.241   1.764   2.308
 5028SOL    HW115983   6.321   1.759   2.248
 5028SOL    HW215984   6.233   1.856   2.346
 5029SOL     OW15985   6.133   1.899   2.768
 5029SOL    HW115986   6.113   1.855   2.855
 5029SOL    HW215987   6.141   1.829   2.697
 5030SOL     OW15988   0.096   4.174   6.697
 5030SOL    HW115989   0.029   4.124   6.641
 5030SOL    HW215990   0.139   4.110   6.761
 5031SOL     OW15991   6.566   0.063   6.072
 5031SOL    HW115992   6.655   0.019   6.070
 5031SOL    HW215993   6.514   0.030   6.151
 5032SOL     OW15994   2.872   3.186   5.408
 5032SOL    HW115995   2.909   3.279   5.400
 5032SOL    HW215996   2.859   3.163   5.504
 5033SOL     OW15997   2.119   0.449   6.529
 5033SOL    HW115998   2.038   0.391   6.533
 5033SOL    HW215999   2.107   0.520   6.460
 5034SOL     OW16000   4.883   6.556   4.533
 5034SOL    HW116001   4.783   6.562   4.539
 5034SOL    HW216002   4.909   6.481   4.472
 5035SOL     OW16003   2.133   3.498   3.768
 5035SOL    HW116004   2.107   3.436   3.694
 5035SOL    HW216005   2.132   3.592   3.735
 5036SOL     OW16006   0.341   2.115   5.072
 5036SOL    HW116007   0.372   2.079   5.160
 5036SOL    HW216008   0.419   2.128   5.012
 5037SOL     OW16009   4.509   3.954   1.444
 5037SOL    HW116010   4.477   4.044   1.474
 5037SOL    HW216011   4.522   3.895   1.524
 5038SOL     OW16012   4.115   3.692   4.010
 5038SOL    HW116013   4.123   3.626   4.084
 5038SOL    HW216014   4.117   3.644   3.922
 5039SOL     OW16015   1.168   3.420   6.473
 5039SOL    HW116016   1.131   3.510   6.492
 5039SOL    HW216017   1.131   3.354   6.538
 5040SOL     OW16018   0.057   0.676   5.616
 5040SOL    HW116019   0.044   0.705   5.521
 5040SOL    HW216020   0.087   0.581   5.618
 5041SOL     OW16021   6.872   3.094   1.914
 5041SOL    HW116022   6.900   3.074   2.007
 5041SOL    HW216023   6.850   3.192   1.905
 5042SOL     OW16024   0.726   2.365   6.183
 5042SOL    HW116025   0.703   2.285   6.238
 5042SOL    HW216026   0.649   2.428   6.182
 5043SOL     OW16027   4.212   6.372   1.438
 5043SOL    HW116028   4.219   6.453   1.380
 5043SOL    HW216029   4.288   6.310   1.419
 5044SOL     OW16030   6.649   4.590   0.624
 5044SOL    HW116031   6.730   4.543   0.660
 5044SOL    HW216032   6.568   4.561   0.675
 5045SOL     OW16033   6.209   3.297   6.571
 5045SOL    HW116034   6.292   3.331   6.527
 5045SOL    HW216035   6.200   3.337   6.662
 5046SOL     OW16036   3.384   3.147   2.922
 5046SOL    HW116037   3.467   3.167   2.976
 5046SOL    HW216038   3.391   3.056   2.883
 5047SOL     OW16039   0.883   4.031   3.623
 5047SOL    HW116040   0.824   4.092   3.675
 5047SOL    HW216041   0.885   3.941   3.668
 5048SOL     OW16042   1.778   1.032   6.042
 5048SOL    HW116043   1.782   1.086   5.958
 5048SOL    HW216044   1.857   1.054   6.100
 5049SOL     OW16045   5.038   1.579   6.587
 5049SOL    HW116046   4.996   1.554   6.500
 5049SOL    HW216047   4.985   1.540   6.662
 5050SOL     OW16048   1.583   0.368   0.780
 5050SOL    HW116049   1.599   0.465   0.800
 5050SOL    HW216050   1.641   0.340   0.703
 5051SOL     OW16051   4.608   5.440   1.213
 5051SOL    HW116052   4.513   5.455   1.187
 5051SOL    HW216053   4.634   5.346   1.194
 5052SOL     OW16054   2.530   1.135   5.066
 5052SOL    HW116055   2.510   1.232   5.081
 5052SOL    HW216056   2.445   1.083   5.064
 5053SOL     OW16057   0.049   0.226   1.459
 5053SOL    HW116058   7.016   0.189   1.380
 5053SOL    HW216059   0.017   0.319   1.478
 5054SOL     OW16060   3.811   4.886   4.079
 5054SOL    HW116061   3.727   4.878   4.027
 5054SOL    HW216062   3.791   4.929   4.167
 5055SOL     OW16063   0.005   3.221   6.763
 5055SOL    HW116064   0.095   3.201   6.802
 5055SOL    HW216065   0.010   3.219   6.664
 5056SOL     OW16066   5.496   4.376   4.657
 5056SOL    HW116067   5.507   4.475   4.649
 5056SOL    HW216068   5.542   4.331   4.581
 5057SOL     OW16069   0.772   6.096   2.170
 5057SOL    HW116070   0.774   5.998   2.153
 5057SOL    HW216071   0.748   6.144   2.086
 5058SOL     OW16072   2.923   5.584   5.455
 5058SOL    HW116073   2.939   5.546   5.364
 5058SOL    HW216074   3.000   5.562   5.514
 5059SOL     OW16075   0.077   0.346   2.193
 5059SOL    HW116076   0.139   0.272   2.217
 5059SOL    HW216077   0.031   0.325   2.107
 5060SOL     OW16078   6.484   1.927   5.609
 5060SOL    HW116079   6.534   2.012   5.590
 5060SOL    HW216080   6.390   1.935   5.573
 5061SOL     OW16081   5.579   4.256   0.278
 5061SOL    HW116082   5.542   4.340   0.239
 5061SOL    HW216083   5.533   4.237   0.364
 5062SOL     OW16084   0.141   0.513   1.171
 5062SOL    HW116085   0.057   0.502   1.225
 5062SOL    HW216086   0.212   0.453   1.208
 5063SOL     OW16087   1.423   6.125   1.331
 5063SOL    HW116088   1.475   6.062   1.273
 5063SOL    HW216089   1.325   6.109   1.317
 5064SOL     OW16090   4.889   3.295   0.148
 5064SOL    HW116091   4.919   3.230   0.078
 5064SOL    HW216092   4.932   3.384   0.132
 5065SOL     OW16093   2.124   6.026   5.373
 5065SOL    HW116094   2.184   6.082   5.316
 5065SOL    HW216095   2.173   6.002   5.457
 5066SOL     OW16096   4.884   5.040   1.113
 5066SOL    HW116097   4.859   4.945   1.131
 5066SOL    HW216098   4.901   5.087   1.200
 5067SOL     OW16099   4.774   1.255   6.885
 5067SOL    HW116100   4.742   1.308   6.963
 5067SOL    HW216101   4.801   1.163   6.917
 5068SOL     OW16102   2.741   5.095   1.810
 5068SOL    HW116103   2.721   5.111   1.713
 5068SOL    HW216104   2.837   5.116   1.828
 5069SOL     OW16105   0.488   4.984   3.170
 5069SOL    HW116106   0.391   4.960   3.161
 5069SOL    HW216107   0.510   4.998   3.266
 5070SOL     OW16108   4.917   3.141   4.384
 5070SOL    HW116109   5.002   3.097   4.410
 5070SOL    HW216110   4.845   3.071   4.374
 5071SOL     OW16111   4.222   0.929   6.540
 5071SOL    HW116112   4.248   1.025   6.531
 5071SOL    HW216113   4.279   0.873   6.479
 5072SOL     OW16114   1.163   4.363   1.220
 5072SOL    HW116115   1.192   4.357   1.125
 5072SOL    HW216116   1.063   4.360   1.225
 5073SOL     OW16117   4.282   1.786   3.724
 5073SOL    HW116118   4.246   1.846   3.652
 5073SOL    HW216119   4.252   1.820   3.813
 5074SOL     OW16120   3.237   4.202   5.691
 5074SOL    HW116121   3.152   4.150   5.681
 5074SOL    HW216122   3.232   4.285   5.635
 5075SOL     OW16123   0.053   5.879   4.237
 5075SOL    HW116124   0.078   5.921   4.324
 5075SOL    HW216125   7.015   5.797   4.254
 5076SOL     OW16126   3.260   0.096   1.216
 5076SOL    HW116127   3.348   0.139   1.195
 5076SOL    HW216128   3.193   0.123   1.147
 5077SOL     OW16129   0.416   2.282   2.097
 5077SOL    HW116130   0.505   2.237   2.090
 5077SOL    HW216131   0.362   2.238   2.169
 5078SOL     OW16132   1.454   0.825   3.896
 5078SOL    HW116133   1.436   0.745   3.953
 5078SOL    HW216134   1.368   0.873   3.878
 5079SOL     OW16135   4.143   4.888   5.043
 5079SOL    HW116136   4.109   4.870   4.951
 5079SOL    HW216137   4.067   4.908   5.104
 5080SOL     OW16138   6.020   6.411   5.977
 5080SOL    HW116139   6.028   6.319   6.014
 5080SOL    HW216140   5.943   6.416   5.914
 5081SOL     OW16141   3.310   3.722   3.130
 5081SOL    HW116142   3.398   3.708   3.174
 5081SOL    HW216143   3.241   3.743   3.199
 5082SOL     OW16144   6.418   6.497   5.107
 5082SOL    HW116145   6.414   6.511   5.206
 5082SOL    HW216146   6.327   6.509   5.067
 5083SOL     OW16147   1.463   5.885   1.534
 5083SOL    HW116148   1.428   5.963   1.586
 5083SOL    HW216149   1.543   5.913   1.481
 5084SOL     OW16150   2.334   5.948   2.962
 5084SOL    HW116151   2.342   6.047   2.966
 5084SOL    HW216152   2.277   5.921   2.885
 5085SOL     OW16153   6.587   3.245   5.829
 5085SOL    HW116154   6.551   3.154   5.850
 5085SOL    HW216155   6.588   3.259   5.730
 5086SOL     OW16156   6.526   5.193   3.581
 5086SOL    HW116157   6.563   5.250   3.655
 5086SOL    HW216158   6.558   5.228   3.493
 5087SOL     OW16159   0.332   5.909   5.311
 5087SOL    HW116160   0.329   5.860   5.398
 5087SOL    HW216161   0.351   5.844   5.237
 5088SOL     OW16162   5.940   0.542   6.986
 5088SOL    HW116163   6.029   0.585   6.997
 5088SOL    HW216164   5.940   0.453   0.015
 5089SOL     OW16165   5.037   2.908   3.448
 5089SOL    HW116166   4.961   2.915   3.384
 5089SOL    HW216167   5.023   2.971   3.524
 5090SOL     OW16168   1.428   4.650   0.979
 5090SOL    HW116169   1.476   4.621   0.896
 5090SOL    HW216170   1.337   4.682   0.955
 5091SOL     OW16171   1.457   5.877   2.510
 5091SOL    HW116172   1.496   5.969   2.521
 5091SOL    HW216173   1.478   5.822   2.590
 5092SOL     OW16174   3.587   2.686   1.757
 5092SOL    HW116175   3.516   2.720   1.694
 5092SOL    HW216176   3.574   2.726   1.847
 5093SOL     OW16177   0.746   2.115   1.090
 5093SOL    HW116178   0.682   2.075   1.024
 5093SOL    HW216179   0.720   2.210   1.108
 5094SOL     OW16180   6.697   0.589   6.597
 5094SOL    HW116181   6.718   0.535   6.678
 5094SOL    HW216182   6.741   0.547   6.517
 5095SOL     OW16183   3.178   6.966   4.946
 5095SOL    HW116184   3.249   7.007   5.002
 5095SOL    HW216185   3.176   7.011   4.857
 5096SOL     OW16186   4.379   5.108   2.253
 5096SOL    HW116187   4.412   5.045   2.182
 5096SOL    HW216188   4.294   5.073   2.291
 5097SOL     OW16189   0.589   0.763   6.704
 5097SOL    HW116190   0.655   0.737   6.774
 5097SOL    HW216191   0.626   0.838   6.649
 5098SOL     OW16192   7.009   2.836   2.389
 5098SOL    HW116193   6.958   2.763   2.344
 5098SOL    HW216194   0.033   2.801   2.473
 5099SOL     OW16195   0.837   6.621   4.534
 5099SOL    HW116196   0.919   6.630   4.590
 5099SOL    HW216197   0.832   6.528   4.497
 5100SOL     OW16198   5.255   6.103   6.555
 5100SOL    HW116199   5.312   6.024   6.532
 5100SOL    HW216200   5.159   6.081   6.538
 5101SOL     OW16201   4.350   5.940   0.446
 5101SOL    HW116202   4.438   5.939   0.397
 5101SOL    HW216203   4.277   5.909   0.385
 5102SOL     OW16204   3.609   5.959   5.034
 5102SOL    HW116205   3.614   5.910   5.121
 5102SOL    HW216206   3.521   5.942   4.990
 5103SOL     OW16207   1.370   0.444   4.562
 5103SOL    HW116208   1.375   0.501   4.480
 5103SOL    HW216209   1.373   0.347   4.535
 5104SOL     OW16210   1.405   6.561   1.048
 5104SOL    HW116211   1.482   6.617   1.018
 5104SOL    HW216212   1.434   6.500   1.121
 5105SOL     OW16213   2.199   3.202   6.369
 5105SOL    HW116214   2.121   3.255   6.335
 5105SOL    HW216215   2.264   3.264   6.414
 5106SOL     OW16216   3.473   0.676   2.301
 5106SOL    HW116217   3.378   0.644   2.297
 5106SOL    HW216218   3.498   0.718   2.214
 5107SOL     OW16219   1.249   0.132   5.777
 5107SOL    HW116220   1.265   0.099   5.870
 5107SOL    HW216221   1.151   0.145   5.763
 5108SOL     OW16222   3.013   3.922   3.876
 5108SOL    HW116223   3.001   3.873   3.790
 5108SOL    HW216224   2.930   3.914   3.930
 5109SOL     OW16225   0.223   1.404   0.838
 5109SOL    HW116226   0.248   1.492   0.799
 5109SOL    HW216227   0.125   1.402   0.857
 5110SOL     OW16228   1.928   6.032   5.622
 5110SOL    HW116229   1.939   5.998   5.529
 5110SOL    HW216230   1.904   6.129   5.619
 5111SOL     OW16231   1.684   1.191   0.165
 5111SOL    HW116232   1.748   1.115   0.147
 5111SOL    HW216233   1.666   1.239   0.079
 5112SOL     OW16234   0.514   6.762   3.460
 5112SOL    HW116235   0.419   6.753   3.430
 5112SOL    HW216236   0.558   6.837   3.410
 5113SOL     OW16237   0.691   0.082   6.882
 5113SOL    HW116238   0.701   7.014   6.831
 5113SOL    HW216239   0.781   0.115   6.910
 5114SOL     OW16240   3.812   4.863   6.912
 5114SOL    HW116241   3.713   4.868   6.926
 5114SOL    HW216242   3.848   4.956   6.903
 5115SOL     OW16243   2.037   4.075   5.016
 5115SOL    HW116244   1.997   3.984   5.029
 5115SOL    HW216245   2.137   4.068   5.014
 5116SOL     OW16246   6.904   3.333   1.506
 5116SOL    HW116247   6.804   3.329   1.502
 5116SOL    HW216248   6.942   3.267   1.442
 5117SOL     OW16249   2.481   4.442   4.028
 5117SOL    HW116250   2.398   4.456   3.974
 5117SOL    HW216251   2.457   4.409   4.119
 5118SOL     OW16252   4.451   6.964   1.480
 5118SOL    HW116253   4.434   7.008   1.392
 5118SOL    HW216254   4.502   0.010   1.539
 5119SOL     OW16255   6.616   0.007   2.733
 5119SOL    HW116256   6.581   6.948   2.788
 5119SOL    HW216257   6.595   0.093   2.780
 5120SOL     OW16258   4.537   0.965   2.771
 5120SOL    HW116259   4.474   0.908   2.718
 5120SOL    HW216260   4.539   1.057   2.733
 5121SOL     OW16261   1.244   3.557   4.568
 5121SOL    HW116262   1.263   3.613   4.649
 5121SOL    HW216263   1.328   3.509   4.541
 5122SOL     OW16264   2.325   5.628   3.549
 5122SOL    HW116265   2.329   5.544   3.603
 5122SOL    HW216266   2.258   5.690   3.588
 5123SOL     OW16267   6.056   4.302   1.864
 5123SOL    HW116268   6.134   4.244   1.840
 5123SOL    HW216269   5.985   4.293   1.795
 5124SOL     OW16270   2.841   5.824   0.497
 5124SOL    HW116271   2.897   5.796   0.420
 5124SOL    HW216272   2.745   5.830   0.469
 5125SOL     OW16273   6.634   2.565   5.897
 5125SOL    HW116274   6.544   2.540   5.860
 5125SOL    HW216275   6.690   2.604   5.824
 5126SOL     OW16276   4.591   2.651   6.629
 5126SOL    HW116277   4.618   2.726   6.568
 5126SOL    HW216278   4.625   2.670   6.722
 5127SOL     OW16279   5.271   3.125   6.642
 5127SOL    HW116280   5.334   3.195   6.608
 5127SOL    HW216281   5.290   3.108   6.739
 5128SOL     OW16282   0.425   6.973   0.232
 5128SOL    HW116283   0.330   6.943   0.223
 5128SOL    HW216284   0.486   6.894   0.227
 5129SOL     OW16285   4.272   2.322   2.091
 5129SOL    HW116286   4.295   2.272   2.175
 5129SOL    HW216287   4.354   2.368   2.057
 5130SOL     OW16288   0.778   6.697   5.134
 5130SOL    HW116289   0.832   6.753   5.198
 5130SOL    HW216290   0.776   6.603   5.167
 5131SOL     OW16291   3.640   4.876   3.716
 5131SOL    HW116292   3.721   4.818   3.715
 5131SOL    HW216293   3.655   4.956   3.657
 5132SOL     OW16294   3.550   1.371   6.613
 5132SOL    HW116295   3.583   1.367   6.518
 5132SOL    HW216296   3.470   1.312   6.623
 5133SOL     OW16297   4.896   4.903   6.876
 5133SOL    HW116298   4.797   4.883   6.879
 5133SOL    HW216299   4.935   4.861   6.794
 5134SOL     OW16300   5.917   5.962   0.704
 5134SOL    HW116301   5.823   5.930   0.692
 5134SOL    HW216302   5.951   5.931   0.793
 5135SOL     OW16303   0.188   2.709   2.558
 5135SOL    HW116304   0.210   2.657   2.475
 5135SOL    HW216305   0.185   2.647   2.636
 5136SOL     OW16306   1.081   1.464   5.785
 5136SOL    HW116307   1.072   1.410   5.868
 5136SOL    HW216308   0.991   1.474   5.742
 5137SOL     OW16309   5.391   0.375   3.835
 5137SOL    HW116310   5.466   0.333   3.784
 5137SOL    HW216311   5.311   0.315   3.831
 5138SOL     OW16312   3.047   3.303   2.882
 5138SOL    HW116313   3.065   3.206   2.900
 5138SOL    HW216314   3.010   3.313   2.789
 5139SOL     OW16315   2.918   0.412   5.831
 5139SOL    HW116316   2.838   0.411   5.771
 5139SOL    HW216317   2.997   0.449   5.781
 5140SOL     OW16318   3.322   3.262   6.575
 5140SOL    HW116319   3.355   3.215   6.493
 5140SOL    HW216320   3.271   3.197   6.632
 5141SOL     OW16321   6.931   2.882   1.470
 5141SOL    HW116322   6.943   2.831   1.555
 5141SOL    HW216323   6.835   2.908   1.460
 5142SOL     OW16324   0.268   0.115   2.179
 5142SOL    HW116325   0.332   0.071   2.116
 5142SOL    HW216326   0.313   0.129   2.267
 5143SOL     OW16327   6.872   6.152   2.786
 5143SOL    HW116328   6.835   6.081   2.727
 5143SOL    HW216329   6.897   6.113   2.875
 5144SOL     OW16330   2.311   2.809   5.321
 5144SOL    HW116331   2.259   2.744   5.266
 5144SOL    HW216332   2.347   2.882   5.262
 5145SOL     OW16333   2.481   5.702   5.942
 5145SOL    HW116334   2.404   5.761   5.966
 5145SOL    HW216335   2.447   5.618   5.899
 5146SOL     OW16336   5.774   6.328   6.806
 5146SOL    HW116337   5.689   6.379   6.820
 5146SOL    HW216338   5.763   6.234   6.838
 5147SOL     OW16339   4.676   2.280   3.173
 5147SOL    HW116340   4.595   2.335   3.154
 5147SOL    HW216341   4.679   2.258   3.270
 5148SOL     OW16342   0.352   0.673   6.615
 5148SOL    HW116343   0.439   0.694   6.659
 5148SOL    HW216344   0.280   0.666   6.684
 5149SOL     OW16345   3.859   5.638   4.356
 5149SOL    HW116346   3.816   5.710   4.302
 5149SOL    HW216347   3.890   5.565   4.294
 5150SOL     OW16348   6.276   6.940   3.209
 5150SOL    HW116349   6.343   7.004   3.245
 5150SOL    HW216350   6.323   6.858   3.175
 5151SOL     OW16351   6.017   6.003   2.232
 5151SOL    HW116352   6.062   5.987   2.320
 5151SOL    HW216353   6.059   5.945   2.162
 5152SOL     OW16354   2.030   1.701   6.996
 5152SOL    HW116355   2.039   1.602   6.985
 5152SOL    HW216356   2.079   1.748   6.923
 5153SOL     OW16357   1.021   1.964   0.332
 5153SOL    HW116358   1.013   2.062   0.316
 5153SOL    HW216359   1.086   1.948   0.407
 5154SOL     OW16360   0.373   2.922   1.132
 5154SOL    HW116361   0.279   2.937   1.105
 5154SOL    HW216362   0.401   2.992   1.198
 5155SOL     OW16363   1.836   1.399   0.235
 5155SOL    HW116364   1.778   1.479   0.224
 5155SOL    HW216365   1.786   1.317   0.207
 5156SOL     OW16366   6.260   6.362   5.712
 5156SOL    HW116367   6.297   6.325   5.626
 5156SOL    HW216368   6.257   6.462   5.706
 5157SOL     OW16369   3.449   0.121   1.732
 5157SOL    HW116370   3.410   0.146   1.644
 5157SOL    HW216371   3.381   0.137   1.804
 5158SOL     OW16372   1.034   2.161   1.900
 5158SOL    HW116373   0.988   2.178   1.813
 5158SOL    HW216374   1.133   2.165   1.886
 5159SOL     OW16375   5.994   3.420   5.748
 5159SOL    HW116376   5.998   3.322   5.733
 5159SOL    HW216377   6.004   3.467   5.660
 5160SOL     OW16378   6.185   6.579   3.023
 5160SOL    HW116379   6.110   6.628   3.067
 5160SOL    HW216380   6.163   6.564   2.927
 5161SOL     OW16381   1.444   3.010   0.011
 5161SOL    HW116382   1.529   3.056   7.002
 5161SOL    HW216383   1.463   2.938   0.077
 5162SOL     OW16384   0.056   6.920   4.595
 5162SOL    HW116385   7.004   6.977   4.639
 5162SOL    HW216386   0.029   6.902   4.500
 5163SOL     OW16387   3.594   0.322   2.081
 5163SOL    HW116388   3.512   0.316   2.137
 5163SOL    HW216389   3.595   0.248   2.014
 5164SOL     OW16390   3.012   3.794   0.315
 5164SOL    HW116391   3.097   3.745   0.336
 5164SOL    HW216392   2.944   3.773   0.385
 5165SOL     OW16393   1.591   4.024   5.577
 5165SOL    HW116394   1.639   4.111   5.573
 5165SOL    HW216395   1.576   3.990   5.484
 5166SOL     OW16396   0.837   4.305   0.754
 5166SOL    HW116397   0.867   4.270   0.843
 5166SOL    HW216398   0.810   4.229   0.695
 5167SOL     OW16399   5.326   3.438   5.434
 5167SOL    HW116400   5.274   3.368   5.482
 5167SOL    HW216401   5.291   3.529   5.460
 5168SOL     OW16402   4.228   2.284   2.838
 5168SOL    HW116403   4.282   2.367   2.824
 5168SOL    HW216404   4.258   2.238   2.921
 5169SOL     OW16405   4.917   5.667   4.420
 5169SOL    HW116406   5.011   5.670   4.387
 5169SOL    HW216407   4.917   5.683   4.519
 5170SOL     OW16408   1.823   3.616   6.419
 5170SOL    HW116409   1.797   3.637   6.325
 5170SOL    HW216410   1.792   3.689   6.480
 5171SOL     OW16411   1.812   6.325   5.956
 5171SOL    HW116412   1.824   6.390   6.031
 5171SOL    HW216413   1.820   6.232   5.991
 5172SOL     OW16414   5.925   5.628   5.135
 5172SOL    HW116415   5.880   5.549   5.093
 5172SOL    HW216416   5.890   5.640   5.228
 5173SOL     OW16417   4.497   5.704   5.348
 5173SOL    HW116418   4.546   5.783   5.312
 5173SOL    HW216419   4.529   5.620   5.302
 5174SOL     OW16420   2.134   6.718   3.081
 5174SOL    HW116421   2.228   6.688   3.094
 5174SOL    HW216422   2.071   6.650   3.119
 5175SOL     OW16423   2.594   3.002   0.099
 5175SOL    HW116424   2.521   3.065   0.074
 5175SOL    HW216425   2.616   2.945   0.019
 5176SOL     OW16426   6.611   5.960   6.647
 5176SOL    HW116427   6.546   5.884   6.651
 5176SOL    HW216428   6.588   6.019   6.569
 5177SOL     OW16429   6.151   6.970   0.563
 5177SOL    HW116430   6.146   6.907   0.640
 5177SOL    HW216431   6.239   0.001   0.564
 5178SOL     OW16432   0.896   4.332   1.255
 5178SOL    HW116433   0.872   4.237   1.237
 5178SOL    HW216434   0.850   4.363   1.338
 5179SOL     OW16435   4.637   5.996   3.292
 5179SOL    HW116436   4.549   6.011   3.247
 5179SOL    HW216437   4.668   5.902   3.274
 5180SOL     OW16438   1.744   4.530   2.873
 5180SOL    HW116439   1.805   4.451   2.866
 5180SOL    HW216440   1.649   4.499   2.867
 5181SOL     OW16441   6.350   1.103   5.637
 5181SOL    HW116442   6.410   1.079   5.561
 5181SOL    HW216443   6.392   1.076   5.723
 5182SOL     OW16444   2.452   6.237   2.772
 5182SOL    HW116445   2.539   6.222   2.724
 5182SOL    HW216446   2.393   6.158   2.759
 5183SOL     OW16447   4.069   2.071   3.827
 5183SOL    HW116448   4.154   2.112   3.792
 5183SOL    HW216449   4.049   2.106   3.918
 5184SOL     OW16450   1.895   1.230   3.096
 5184SOL    HW116451   1.992   1.206   3.104
 5184SOL    HW216452   1.839   1.162   3.143
 5185SOL     OW16453   0.029   0.185   2.782
 5185SOL    HW116454   0.014   0.087   2.763
 5185SOL    HW216455   7.006   0.239   2.708
 5186SOL     OW16456   6.493   4.016   6.639
 5186SOL    HW116457   6.534   4.015   6.730
 5186SOL    HW216458   6.525   4.097   6.590
 5187SOL     OW16459   1.297   4.669   5.102
 5187SOL    HW116460   1.296   4.742   5.034
 5187SOL    HW216461   1.392   4.641   5.119
 5188SOL     OW16462   6.003   0.385   2.279
 5188SOL    HW116463   5.966   0.429   2.360
 5188SOL    HW216464   6.076   0.442   2.240
 5189SOL     OW16465   4.647   6.279   6.881
 5189SOL    HW116466   4.645   6.260   6.782
 5189SOL    HW216467   4.718   6.348   6.899
 5190SOL     OW16468   1.647   4.762   6.815
 5190SOL    HW116469   1.686   4.729   6.901
 5190SOL    HW216470   1.564   4.711   6.794
 5191SOL     OW16471   2.513   4.557   1.983
 5191SOL    HW116472   2.611   4.547   1.999
 5191SOL    HW216473   2.487   4.653   1.995
 5192SOL     OW16474   1.111   4.749   2.328
 5192SOL    HW116475   1.039   4.788   2.386
 5192SOL    HW216476   1.193   4.806   2.334
 5193SOL     OW16477   5.615   0.844   5.811
 5193SOL    HW116478   5.550   0.920   5.806
 5193SOL    HW216479   5.703   0.879   5.844
 5194SOL     OW16480   4.802   1.287   5.602
 5194SOL    HW116481   4.717   1.256   5.644
 5194SOL    HW216482   4.802   1.387   5.597
 5195SOL     OW16483   0.346   0.577   5.419
 5195SOL    HW116484   0.390   0.559   5.331
 5195SOL    HW216485   0.267   0.518   5.429
 5196SOL     OW16486   5.679   6.568   3.584
 5196SOL    HW116487   5.778   6.578   3.569
 5196SOL    HW216488   5.662   6.483   3.635
 5197SOL     OW16489   0.870   2.542   4.806
 5197SOL    HW116490   0.880   2.641   4.792
 5197SOL    HW216491   0.792   2.509   4.752
 5198SOL     OW16492   5.944   5.238   3.027
 5198SOL    HW116493   5.888   5.286   2.960
 5198SOL    HW216494   6.038   5.272   3.022
 5199SOL     OW16495   0.232   4.796   1.172
 5199SOL    HW116496   0.198   4.740   1.097
 5199SOL    HW216497   0.200   4.890   1.161
 5200SOL     OW16498   6.836   3.711   4.914
 5200SOL    HW116499   6.848   3.615   4.938
 5200SOL    HW216500   6.741   3.726   4.883
 5201SOL     OW16501   0.160   5.511   4.387
 5201SOL    HW116502   0.127   5.450   4.315
 5201SOL    HW216503   0.185   5.599   4.346
 5202SOL     OW16504   0.946   4.648   1.277
 5202SOL    HW116505   0.947   4.548   1.280
 5202SOL    HW216506   0.893   4.683   1.354
 5203SOL     OW16507   0.389   2.676   0.046
 5203SOL    HW116508   0.364   2.606   6.997
 5203SOL    HW216509   0.319   2.681   0.117
 5204SOL     OW16510   4.589   4.603   6.791
 5204SOL    HW116511   4.626   4.693   6.814
 5204SOL    HW216512   4.494   4.613   6.762
 5205SOL     OW16513   1.262   0.033   0.774
 5205SOL    HW116514   1.271   0.008   0.678
 5205SOL    HW216515   1.169   0.015   0.805
 5206SOL     OW16516   0.529   4.238   4.978
 5206SOL    HW116517   0.515   4.317   4.919
 5206SOL    HW216518   0.444   4.186   4.985
 5207SOL     OW16519   1.691   4.540   3.563
 5207SOL    HW116520   1.753   4.558   3.487
 5207SOL    HW216521   1.626   4.615   3.571
 5208SOL     OW16522   4.793   1.086   0.271
 5208SOL    HW116523   4.811   1.035   0.355
 5208SOL    HW216524   4.710   1.051   0.227
 5209SOL     OW16525   5.619   5.659   2.811
 5209SOL    HW116526   5.648   5.723   2.881
 5209SOL    HW216527   5.548   5.700   2.754
 5210SOL     OW16528   4.665   4.212   3.157
 5210SOL    HW116529   4.650   4.219   3.256
 5210SOL    HW216530   4.595   4.153   3.117
 5211SOL     OW16531   3.664   3.862   2.363
 5211SOL    HW116532   3.633   3.794   2.429
 5211SOL    HW216533   3.740   3.914   2.402
 5212SOL     OW16534   0.877   1.002   0.125
 5212SOL    HW116535   0.889   1.064   0.047
 5212SOL    HW216536   0.933   0.921   0.112
 5213SOL     OW16537   4.526   2.378   6.677
 5213SOL    HW116538   4.608   2.356   6.730
 5213SOL    HW216539   4.535   2.470   6.639
 5214SOL     OW16540   5.837   1.696   6.871
 5214SOL    HW116541   5.931   1.702   6.836
 5214SOL    HW216542   5.827   1.612   6.924
 5215SOL     OW16543   5.839   5.047   2.515
 5215SOL    HW116544   5.928   5.065   2.473
 5215SOL    HW216545   5.786   5.131   2.518
 5216SOL     OW16546   4.723   5.696   1.520
 5216SOL    HW116547   4.689   5.776   1.571
 5216SOL    HW216548   4.750   5.725   1.428
 5217SOL     OW16549   2.973   4.821   3.487
 5217SOL    HW116550   2.936   4.748   3.429
 5217SOL    HW216551   2.927   4.819   3.576
 5218SOL     OW16552   1.815   6.570   4.588
 5218SOL    HW116553   1.828   6.507   4.512
 5218SOL    HW216554   1.765   6.524   4.661
 5219SOL     OW16555   2.831   5.787   0.909
 5219SOL    HW116556   2.780   5.838   0.980
 5219SOL    HW216557   2.864   5.851   0.840
 5220SOL     OW16558   1.076   6.931   2.245
 5220SOL    HW116559   1.069   6.935   2.344
 5220SOL    HW216560   1.169   6.905   2.219
 5221SOL     OW16561   4.925   1.721   5.104
 5221SOL    HW116562   4.982   1.723   5.186
 5221SOL    HW216563   4.833   1.754   5.126
 5222SOL     OW16564   1.028   6.686   2.615
 5222SOL    HW116565   0.931   6.702   2.632
 5222SOL    HW216566   1.038   6.600   2.564
 5223SOL     OW16567   5.208   6.985   0.717
 5223SOL    HW116568   5.182   0.044   0.657
 5223SOL    HW216569   5.299   6.952   0.693
 5224SOL     OW16570   5.130   1.336   3.123
 5224SOL    HW116571   5.081   1.345   3.037
 5224SOL    HW216572   5.072   1.367   3.199
 5225SOL     OW16573   6.126   6.526   5.385
 5225SOL    HW116574   6.042   6.562   5.425
 5225SOL    HW216575   6.111   6.433   5.352
 5226SOL     OW16576   1.930   6.300   3.740
 5226SOL    HW116577   2.013   6.245   3.744
 5226SOL    HW216578   1.853   6.242   3.716
 5227SOL     OW16579   5.452   3.828   3.513
 5227SOL    HW116580   5.487   3.919   3.495
 5227SOL    HW216581   5.470   3.769   3.433
 5228SOL     OW16582   5.208   0.301   1.249
 5228SOL    HW116583   5.196   0.400   1.260
 5228SOL    HW216584   5.305   0.279   1.260
 5229SOL     OW16585   1.138   4.222   3.879
 5229SOL    HW116586   1.187   4.257   3.959
 5229SOL    HW216587   1.095   4.135   3.902
 5230SOL     OW16588   1.389   6.374   6.697
 5230SOL    HW116589   1.486   6.389   6.713
 5230SOL    HW216590   1.342   6.462   6.691
 5231SOL     OW16591   3.703   2.971   3.726
 5231SOL    HW116592   3.766   2.998   3.653
 5231SOL    HW216593   3.746   2.987   3.815
 5232SOL     OW16594   5.048   3.027   5.290
 5232SOL    HW116595   5.016   3.122   5.290
 5232SOL    HW216596   5.034   2.986   5.200
 5233SOL     OW16597   0.434   0.691   2.685
 5233SOL    HW116598   0.348   0.742   2.689
 5233SOL    HW216599   0.416   0.594   2.703
 5234SOL     OW16600   4.242   5.963   1.169
 5234SOL    HW116601   4.180   6.016   1.227
 5234SOL    HW216602   4.206   5.959   1.076
 5235SOL     OW16603   0.917   3.791   1.236
 5235SOL    HW116604   0.983   3.758   1.168
 5235SOL    HW216605   0.835   3.735   1.233
 5236SOL     OW16606   5.270   3.139   1.261
 5236SOL    HW116607   5.233   3.138   1.168
 5236SOL    HW216608   5.332   3.061   1.273
 5237SOL     OW16609   2.064   1.729   4.445
 5237SOL    HW116610   2.142   1.699   4.499
 5237SOL    HW216611   2.089   1.810   4.392
 5238SOL     OW16612   1.607   4.002   1.201
 5238SOL    HW116613   1.693   4.015   1.251
 5238SOL    HW216614   1.543   4.076   1.225
 5239SOL     OW16615   3.227   2.977   5.148
 5239SOL    HW116616   3.280   2.907   5.197
 5239SOL    HW216617   3.238   2.964   5.050
 5240SOL     OW16618   2.512   1.788   4.810
 5240SOL    HW116619   2.483   1.746   4.896
 5240SOL    HW216620   2.437   1.842   4.772
 5241SOL     OW16621   2.831   5.719   5.801
 5241SOL    HW116622   2.928   5.728   5.779
 5241SOL    HW216623   2.808   5.779   5.877
 5242SOL     OW16624   4.678   0.970   6.243
 5242SOL    HW116625   4.726   1.003   6.161
 5242SOL    HW216626   4.598   1.027   6.260
 5243SOL     OW16627   0.514   3.846   7.011
 5243SOL    HW116628   0.562   3.816   0.076
 5243SOL    HW216629   0.531   3.944   6.996
 5244SOL     OW16630   5.998   3.776   6.880
 5244SOL    HW116631   5.903   3.748   6.869
 5244SOL    HW216632   6.054   3.732   6.810
 5245SOL     OW16633   4.824   4.090   6.580
 5245SOL    HW116634   4.858   4.117   6.671
 5245SOL    HW216635   4.755   4.019   6.590
 5246SOL     OW16636   0.878   3.801   2.854
 5246SOL    HW116637   0.836   3.745   2.782
 5246SOL    HW216638   0.942   3.745   2.907
 5247SOL     OW16639   0.529   5.125   1.357
 5247SOL    HW116640   0.586   5.052   1.321
 5247SOL    HW216641   0.506   5.189   1.284
 5248SOL     OW16642   4.349   0.555   6.894
 5248SOL    HW116643   4.320   0.645   6.926
 5248SOL    HW216644   4.435   0.530   6.938
 5249SOL     OW16645   1.521   5.271   5.223
 5249SOL    HW116646   1.573   5.234   5.300
 5249SOL    HW216647   1.449   5.207   5.197
 5250SOL     OW16648   0.379   1.365   5.736
 5250SOL    HW116649   0.339   1.454   5.711
 5250SOL    HW216650   0.306   1.297   5.740
 5251SOL     OW16651   0.168   2.962   1.410
 5251SOL    HW116652   0.232   2.886   1.399
 5251SOL    HW216653   0.078   2.926   1.436
 5252SOL     OW16654   4.096   6.319   0.485
 5252SOL    HW116655   4.046   6.297   0.401
 5252SOL    HW216656   4.194   6.314   0.467
 5253SOL     OW16657   5.918   2.623   3.648
 5253SOL    HW116658   5.867   2.690   3.702
 5253SOL    HW216659   5.975   2.670   3.581
 5254SOL     OW16660   4.508   1.261   4.140
 5254SOL    HW116661   4.554   1.173   4.139
 5254SOL    HW216662   4.555   1.324   4.078
 5255SOL     OW16663   3.251   6.447   4.586
 5255SOL    HW116664   3.328   6.408   4.636
 5255SOL    HW216665   3.208   6.518   4.642
 5256SOL     OW16666   5.668   6.706   2.798
 5256SOL    HW116667   5.738   6.755   2.745
 5256SOL    HW216668   5.702   6.616   2.823
 5257SOL     OW16669   3.241   1.476   2.383
 5257SOL    HW116670   3.172   1.420   2.336
 5257SOL    HW216671   3.205   1.505   2.471
 5258SOL     OW16672   5.838   2.453   2.168
 5258SOL    HW116673   5.762   2.427   2.228
 5258SOL    HW216674   5.830   2.405   2.081
 5259SOL     OW16675   5.189   4.451   2.163
 5259SOL    HW116676   5.254   4.470   2.090
 5259SOL    HW216677   5.101   4.492   2.142
 5260SOL     OW16678   5.144   3.313   1.679
 5260SOL    HW116679   5.108   3.379   1.613
 5260SOL    HW216680   5.217   3.260   1.636
 5261SOL     OW16681   2.233   2.347   4.578
 5261SOL    HW116682   2.250   2.390   4.666
 5261SOL    HW216683   2.136   2.358   4.554
 5262SOL     OW16684   2.367   0.669   1.962
 5262SOL    HW116685   2.354   0.683   1.864
 5262SOL    HW216686   2.280   0.643   2.004
 5263SOL     OW16687   0.629   6.716   0.634
 5263SOL    HW116688   0.654   6.643   0.698
 5263SOL    HW216689   0.562   6.681   0.568
 5264SOL     OW16690   0.883   2.122   0.687
 5264SOL    HW116691   0.930   2.209   0.702
 5264SOL    HW216692   0.951   2.049   0.674
 5265SOL     OW16693   5.845   4.659   2.369
 5265SOL    HW116694   5.766   4.716   2.390
 5265SOL    HW216695   5.876   4.614   2.453
 5266SOL     OW16696   1.602   6.719   0.975
 5266SOL    HW116697   1.554   6.806   0.965
 5266SOL    HW216698   1.699   6.732   0.959
 5267SOL     OW16699   4.885   4.244   4.859
 5267SOL    HW116700   4.819   4.277   4.792
 5267SOL    HW216701   4.900   4.146   4.846
 5268SOL     OW16702   5.557   4.978   5.590
 5268SOL    HW116703   5.598   4.927   5.666
 5268SOL    HW216704   5.551   4.920   5.509
 5269SOL     OW16705   1.119   5.205   4.692
 5269SOL    HW116706   1.066   5.178   4.772
 5269SOL    HW216707   1.118   5.131   4.625
 5270SOL     OW16708   6.794   3.099   2.888
 5270SOL    HW116709   6.885   3.115   2.851
 5270SOL    HW216710   6.726   3.143   2.829
 5271SOL     OW16711   5.046   4.389   5.026
 5271SOL    HW116712   4.974   4.339   4.978
 5271SOL    HW216713   5.111   4.426   4.960
 5272SOL     OW16714   1.506   1.251   3.589
 5272SOL    HW116715   1.578   1.320   3.602
 5272SOL    HW216716   1.422   1.282   3.632
 5273SOL     OW16717   0.674   0.664   4.862
 5273SOL    HW116718   0.630   0.751   4.884
 5273SOL    HW216719   0.765   0.661   4.904
 5274SOL     OW16720   6.491   5.314   4.545
 5274SOL    HW116721   6.398   5.309   4.508
 5274SOL    HW216722   6.551   5.254   4.493
 5275SOL     OW16723   2.696   6.565   6.566
 5275SOL    HW116724   2.637   6.490   6.595
 5275SOL    HW216725   2.648   6.621   6.498
 5276SOL     OW16726   6.885   0.464   1.271
 5276SOL    HW116727   6.787   0.450   1.262
 5276SOL    HW216728   6.906   0.491   1.365
 5277SOL     OW16729   1.164   1.830   2.605
 5277SOL    HW116730   1.121   1.920   2.610
 5277SOL    HW216731   1.176   1.794   2.697
 5278SOL     OW16732   0.491   3.941   6.306
 5278SOL    HW116733   0.573   3.942   6.363
 5278SOL    HW216734   0.480   4.030   6.262
 5279SOL     OW16735   2.346   6.055   6.505
 5279SOL    HW116736   2.422   6.085   6.448
 5279SOL    HW216737   2.287   5.994   6.452
 5280SOL     OW16738   4.637   6.664   4.988
 5280SOL    HW116739   4.595   6.634   4.902
 5280SOL    HW216740   4.722   6.713   4.968
 5281SOL     OW16741   2.696   6.855   5.084
 5281SOL    HW116742   2.710   6.900   5.172
 5281SOL    HW216743   2.762   6.781   5.073
 5282SOL     OW16744   1.228   6.660   1.787
 5282SOL    HW116745   1.205   6.624   1.696
 5282SOL    HW216746   1.177   6.610   1.857
 5283SOL     OW16747   0.958   0.693   4.225
 5283SOL    HW116748   0.894   0.624   4.191
 5283SOL    HW216749   0.951   0.775   4.169
 5284SOL     OW16750   4.471   2.773   1.540
 5284SOL    HW116751   4.446   2.841   1.609
 5284SOL    HW216752   4.526   2.701   1.582
 5285SOL     OW16753   1.768   2.154   4.433
 5285SOL    HW116754   1.696   2.093   4.400
 5285SOL    HW216755   1.753   2.176   4.529
 5286SOL     OW16756   5.989   3.111   1.432
 5286SOL    HW116757   6.077   3.151   1.459
 5286SOL    HW216758   5.997   3.011   1.432
 5287SOL     OW16759   2.063   5.071   1.363
 5287SOL    HW116760   2.010   5.010   1.422
 5287SOL    HW216761   2.138   5.019   1.322
 5288SOL     OW16762   4.227   0.555   1.225
 5288SOL    HW116763   4.250   0.509   1.310
 5288SOL    HW216764   4.150   0.617   1.240
 5289SOL     OW16765   2.634   5.076   6.146
 5289SOL    HW116766   2.588   4.996   6.107
 5289SOL    HW216767   2.589   5.102   6.232
 5290SOL     OW16768   1.734   3.278   4.504
 5290SOL    HW116769   1.736   3.364   4.453
 5290SOL    HW216770   1.786   3.209   4.455
 5291SOL     OW16771   2.650   4.726   4.645
 5291SOL    HW116772   2.618   4.688   4.558
 5291SOL    HW216773   2.615   4.669   4.720
 5292SOL     OW16774   0.253   3.666   5.764
 5292SOL    HW116775   0.327   3.698   5.824
 5292SOL    HW216776   0.257   3.715   5.677
 5293SOL     OW16777   2.142   6.346   4.163
 5293SOL    HW116778   2.240   6.355   4.181
 5293SOL    HW216779   2.109   6.432   4.123
 5294SOL     OW16780   3.999   6.857   5.156
 5294SOL    HW116781   4.043   6.867   5.067
 5294SOL    HW216782   4.058   6.806   5.217
 5295SOL     OW16783   3.119   1.586   2.603
 5295SOL    HW116784   3.023   1.571   2.581
 5295SOL    HW216785   3.142   1.682   2.590
 5296SOL     OW16786   4.680   4.931   1.606
 5296SOL    HW116787   4.728   4.940   1.693
 5296SOL    HW216788   4.632   5.017   1.586
 5297SOL     OW16789   2.865   5.071   0.273
 5297SOL    HW116790   2.819   5.043   0.188
 5297SOL    HW216791   2.831   5.016   0.349
 5298SOL     OW16792   2.038   0.512   0.175
 5298SOL    HW116793   2.040   0.412   0.168
 5298SOL    HW216794   1.994   0.539   0.261
 5299SOL     OW16795   2.761   1.263   1.298
 5299SOL    HW116796   2.849   1.310   1.301
 5299SOL    HW216797   2.753   1.202   1.377
 5300SOL     OW16798   2.372   4.566   6.792
 5300SOL    HW116799   2.383   4.489   6.854
 5300SOL    HW216800   2.424   4.550   6.708
 5301SOL     OW16801   5.204   0.070   5.969
 5301SOL    HW116802   5.254   0.002   6.024
 5301SOL    HW216803   5.197   0.036   5.875
 5302SOL     OW16804   5.654   6.103   3.394
 5302SOL    HW116805   5.587   6.155   3.447
 5302SOL    HW216806   5.644   6.005   3.413
 5303SOL     OW16807   0.878   5.434   6.143
 5303SOL    HW116808   0.797   5.472   6.099
 5303SOL    HW216809   0.904   5.492   6.220
 5304SOL     OW16810   6.856   0.630   2.603
 5304SOL    HW116811   6.926   0.583   2.656
 5304SOL    HW216812   6.830   0.572   2.525
 5305SOL     OW16813   0.943   5.087   3.296
 5305SOL    HW116814   0.864   5.050   3.247
 5305SOL    HW216815   1.021   5.093   3.234
 5306SOL     OW16816   0.305   3.236   6.068
 5306SOL    HW116817   0.260   3.278   6.146
 5306SOL    HW216818   0.256   3.259   5.984
 5307SOL     OW16819   6.482   1.491   1.658
 5307SOL    HW116820   6.517   1.486   1.564
 5307SOL    HW216821   6.530   1.423   1.714
 5308SOL     OW16822   1.774   3.961   3.085
 5308SOL    HW116823   1.691   3.966   3.141
 5308SOL    HW216824   1.762   4.017   3.003
 5309SOL     OW16825   6.108   6.084   2.805
 5309SOL    HW116826   6.032   6.048   2.859
 5309SOL    HW216827   6.076   6.159   2.747
 5310SOL     OW16828   5.483   2.780   2.764
 5310SOL    HW116829   5.563   2.803   2.709
 5310SOL    HW216830   5.490   2.685   2.795
 5311SOL     OW16831   5.710   0.105   0.454
 5311SOL    HW116832   5.636   0.052   0.413
 5311SOL    HW216833   5.674   0.192   0.487
 5312SOL     OW16834   0.025   6.575   0.602
 5312SOL    HW116835   6.948   6.607   0.611
 5312SOL    HW216836   0.027   6.496   0.540
 5313SOL     OW16837   1.108   5.615   5.456
 5313SOL    HW116838   1.186   5.601   5.395
 5313SOL    HW216839   1.072   5.707   5.443
 5314SOL     OW16840   6.094   0.769   2.171
 5314SOL    HW116841   6.128   0.675   2.167
 5314SOL    HW216842   6.003   0.773   2.130
 5315SOL     OW16843   4.579   1.160   4.456
 5315SOL    HW116844   4.622   1.139   4.544
 5315SOL    HW216845   4.649   1.170   4.386
 5316SOL     OW16846   0.734   2.126   4.398
 5316SOL    HW116847   0.815   2.170   4.358
 5316SOL    HW216848   0.764   2.060   4.468
 5317SOL     OW16849   6.164   2.091   6.526
 5317SOL    HW116850   6.070   2.122   6.541
 5317SOL    HW216851   6.212   2.088   6.614
 5318SOL     OW16852   6.795   3.836   6.544
 5318SOL    HW116853   6.715   3.778   6.526
 5318SOL    HW216854   6.811   3.840   6.643
 5319SOL     OW16855   4.491   6.826   1.140
 5319SOL    HW116856   4.425   6.771   1.088
 5319SOL    HW216857   4.443   6.900   1.186
 5320SOL     OW16858   3.043   5.601   0.957
 5320SOL    HW116859   2.971   5.669   0.947
 5320SOL    HW216860   3.113   5.615   0.887
 5321SOL     OW16861   1.747   4.287   4.604
 5321SOL    HW116862   1.668   4.316   4.658
 5321SOL    HW216863   1.821   4.259   4.665
 5322SOL     OW16864   5.589   6.633   2.419
 5322SOL    HW116865   5.559   6.592   2.334
 5322SOL    HW216866   5.636   6.719   2.400
 5323SOL     OW16867   4.122   1.050   5.715
 5323SOL    HW116868   4.081   0.997   5.790
 5323SOL    HW216869   4.084   1.019   5.628
 5324SOL     OW16870   2.316   1.554   0.609
 5324SOL    HW116871   2.268   1.562   0.696
 5324SOL    HW216872   2.256   1.584   0.535
 5325SOL     OW16873   2.121   1.656   4.783
 5325SOL    HW116874   2.142   1.729   4.849
 5325SOL    HW216875   2.198   1.644   4.721
 5326SOL     OW16876   6.219   6.449   2.745
 5326SOL    HW116877   6.262   6.533   2.713
 5326SOL    HW216878   6.282   6.398   2.803
 5327SOL     OW16879   6.144   2.463   4.716
 5327SOL    HW116880   6.111   2.489   4.807
 5327SOL    HW216881   6.216   2.394   4.725
 5328SOL     OW16882   4.263   4.634   0.036
 5328SOL    HW116883   4.280   4.569   0.111
 5328SOL    HW216884   4.340   4.697   0.028
 5329SOL     OW16885   1.527   6.722   6.280
 5329SOL    HW116886   1.543   6.816   6.310
 5329SOL    HW216887   1.609   6.668   6.293
 5330SOL     OW16888   2.433   3.663   0.581
 5330SOL    HW116889   2.365   3.651   0.654
 5330SOL    HW216890   2.429   3.586   0.518
 5331SOL     OW16891   6.202   0.757   6.476
 5331SOL    HW116892   6.222   0.678   6.418
 5331SOL    HW216893   6.127   0.734   6.539
 5332SOL     OW16894   1.142   5.201   2.349
 5332SOL    HW116895   1.098   5.213   2.260
 5332SOL    HW216896   1.144   5.289   2.397
 5333SOL     OW16897   0.630   6.025   4.281
 5333SOL    HW116898   0.627   6.027   4.182
 5333SOL    HW216899   0.722   5.998   4.311
 5334SOL     OW16900   2.832   0.228   4.395
 5334SOL    HW116901   2.930   0.245   4.388
 5334SOL    HW216902   2.815   0.130   4.406
 5335SOL     OW16903   6.878   5.907   0.780
 5335SOL    HW116904   6.816   5.949   0.846
 5335SOL    HW216905   6.826   5.882   0.698
 5336SOL     OW16906   1.281   3.965   1.856
 5336SOL    HW116907   1.268   4.061   1.831
 5336SOL    HW216908   1.278   3.956   1.956
 5337SOL     OW16909   5.093   4.547   1.368
 5337SOL    HW116910   5.119   4.643   1.353
 5337SOL    HW216911   5.077   4.533   1.466
 5338SOL     OW16912   6.370   2.475   6.560
 5338SOL    HW116913   6.351   2.522   6.646
 5338SOL    HW216914   6.361   2.540   6.484
 5339SOL     OW16915   6.300   1.587   3.648
 5339SOL    HW116916   6.234   1.535   3.703
 5339SOL    HW216917   6.258   1.671   3.616
 5340SOL     OW16918   5.331   2.157   6.145
 5340SOL    HW116919   5.249   2.195   6.101
 5340SOL    HW216920   5.324   2.058   6.149
 5341SOL     OW16921   4.335   0.283   0.136
 5341SOL    HW116922   4.350   0.382   0.146
 5341SOL    HW216923   4.421   0.235   0.151
 5342SOL     OW16924   3.552   0.834   5.689
 5342SOL    HW116925   3.500   0.875   5.614
 5342SOL    HW216926   3.615   0.765   5.652
 5343SOL     OW16927   3.858   3.981   2.496
 5343SOL    HW116928   3.913   3.922   2.555
 5343SOL    HW216929   3.856   4.074   2.533
 5344SOL     OW16930   2.404   2.146   3.031
 5344SOL    HW116931   2.416   2.158   2.932
 5344SOL    HW216932   2.444   2.225   3.079
 5345SOL     OW16933   4.666   6.750   1.757
 5345SOL    HW116934   4.680   6.848   1.747
 5345SOL    HW216935   4.611   6.716   1.681
 5346SOL     OW16936   2.689   6.380   3.092
 5346SOL    HW116937   2.730   6.452   3.037
 5346SOL    HW216938   2.599   6.410   3.126
 5347SOL     OW16939   0.301   1.979   1.320
 5347SOL    HW116940   0.354   1.899   1.294
 5347SOL    HW216941   0.346   2.062   1.287
 5348SOL     OW16942   0.589   1.207   6.819
 5348SOL    HW116943   0.554   1.237   6.908
 5348SOL    HW216944   0.533   1.245   6.746
 5349SOL     OW16945   6.208   0.837   1.404
 5349SOL    HW116946   6.133   0.781   1.366
 5349SOL    HW216947   6.247   0.791   1.483
 5350SOL     OW16948   2.555   1.446   6.135
 5350SOL    HW116949   2.615   1.444   6.215
 5350SOL    HW216950   2.490   1.522   6.144
 5351SOL     OW16951   4.084   6.826   1.927
 5351SOL    HW116952   4.151   6.838   1.854
 5351SOL    HW216953   4.079   6.910   1.982
 5352SOL     OW16954   3.322   5.196   3.766
 5352SOL    HW116955   3.352   5.232   3.855
 5352SOL    HW216956   3.289   5.102   3.778
 5353SOL     OW16957   5.842   6.309   5.483
 5353SOL    HW116958   5.818   6.406   5.488
 5353SOL    HW216959   5.913   6.289   5.550
 5354SOL     OW16960   0.679   4.053   1.487
 5354SOL    HW116961   0.625   4.046   1.404
 5354SOL    HW216962   0.623   4.027   1.566
 5355SOL     OW16963   4.598   1.818   5.167
 5355SOL    HW116964   4.563   1.778   5.083
 5355SOL    HW216965   4.524   1.865   5.216
 5356SOL     OW16966   6.371   3.766   1.195
 5356SOL    HW116967   6.334   3.796   1.283
 5356SOL    HW216968   6.464   3.731   1.208
 5357SOL     OW16969   3.562   0.060   0.312
 5357SOL    HW116970   3.567   0.149   0.267
 5357SOL    HW216971   3.532   7.008   0.246
 5358SOL     OW16972   4.637   3.082   0.694
 5358SOL    HW116973   4.684   2.995   0.677
 5358SOL    HW216974   4.698   3.144   0.743
 5359SOL     OW16975   1.934   0.786   6.755
 5359SOL    HW116976   1.852   0.790   6.698
 5359SOL    HW216977   1.927   0.707   6.817
 5360SOL     OW16978   3.596   0.119   6.952
 5360SOL    HW116979   3.679   0.140   6.901
 5360SOL    HW216980   3.575   0.022   6.942
 5361SOL     OW16981   1.993   0.793   5.916
 5361SOL    HW116982   1.911   0.821   5.966
 5361SOL    HW216983   1.994   0.837   5.826
 5362SOL     OW16984   4.685   5.486   2.675
 5362SOL    HW116985   4.668   5.502   2.578
 5362SOL    HW216986   4.700   5.388   2.690
 5363SOL     OW16987   0.895   5.692   6.286
 5363SOL    HW116988   0.884   5.768   6.351
 5363SOL    HW216989   0.822   5.625   6.301
 5364SOL     OW16990   0.749   6.298   0.708
 5364SOL    HW116991   0.834   6.297   0.762
 5364SOL    HW216992   0.762   6.354   0.626
 5365SOL     OW16993   4.324   2.081   6.040
 5365SOL    HW116994   4.383   2.152   6.002
 5365SOL    HW216995   4.366   1.991   6.027
 5366SOL     OW16996   3.994   3.194   0.068
 5366SOL    HW116997   4.043   3.146   7.012
 5366SOL    HW216998   3.899   3.163   0.071
 5367SOL     OW16999   0.233   5.106   1.210
 5367SOL    HW117000   0.265   5.201   1.210
 5367SOL    HW217001   0.164   5.094   1.282
 5368SOL     OW17002   6.095   1.444   3.789
 5368SOL    HW117003   6.044   1.358   3.788
 5368SOL    HW217004   6.059   1.503   3.862
 5369SOL     OW17005   2.154   3.944   2.886
 5369SOL    HW117006   2.114   3.854   2.902
 5369SOL    HW217007   2.176   3.954   2.789
 5370SOL     OW17008   3.857   3.144   1.275
 5370SOL    HW117009   3.818   3.108   1.359
 5370SOL    HW217010   3.818   3.235   1.257
 5371SOL     OW17011   0.573   3.862   5.287
 5371SOL    HW117012   0.667   3.897   5.283
 5371SOL    HW217013   0.553   3.834   5.381
 5372SOL     OW17014   2.832   5.279   2.542
 5372SOL    HW117015   2.801   5.368   2.575
 5372SOL    HW217016   2.927   5.285   2.513
 5373SOL     OW17017   2.983   4.868   3.108
 5373SOL    HW117018   2.927   4.819   3.174
 5373SOL    HW217019   2.930   4.942   3.067
 5374SOL     OW17020   2.776   2.094   0.121
 5374SOL    HW117021   2.795   2.060   0.213
 5374SOL    HW217022   2.708   2.168   0.127
 5375SOL     OW17023   1.615   4.769   3.931
 5375SOL    HW117024   1.667   4.823   3.865
 5375SOL    HW217025   1.642   4.795   4.024
 5376SOL     OW17026   1.732   3.536   0.764
 5376SOL    HW117027   1.786   3.606   0.810
 5376SOL    HW217028   1.793   3.466   0.726
 5377SOL     OW17029   0.476   1.522   1.267
 5377SOL    HW117030   0.543   1.520   1.342
 5377SOL    HW217031   0.490   1.443   1.208
 5378SOL     OW17032   5.496   0.518   0.856
 5378SOL    HW117033   5.466   0.607   0.890
 5378SOL    HW217034   5.586   0.496   0.895
 5379SOL     OW17035   6.998   6.395   1.980
 5379SOL    HW117036   0.042   6.318   1.999
 5379SOL    HW217037   0.034   6.480   1.978
 5380SOL     OW17038   2.936   0.463   4.077
 5380SOL    HW117039   2.967   0.555   4.053
 5380SOL    HW217040   2.879   0.467   4.158
 5381SOL     OW17041   5.592   4.282   1.467
 5381SOL    HW117042   5.529   4.204   1.462
 5381SOL    HW217043   5.673   4.263   1.412
 5382SOL     OW17044   1.823   0.143   1.610
 5382SOL    HW117045   1.872   0.057   1.602
 5382SOL    HW217046   1.732   0.133   1.570
 5383SOL     OW17047   2.157   1.767   5.040
 5383SOL    HW117048   2.135   1.784   5.136
 5383SOL    HW217049   2.252   1.736   5.034
 5384SOL     OW17050   5.914   6.551   4.007
 5384SOL    HW117051   5.966   6.558   4.092
 5384SOL    HW217052   5.944   6.471   3.955
 5385SOL     OW17053   3.457   3.926   2.179
 5385SOL    HW117054   3.366   3.917   2.221
 5385SOL    HW217055   3.527   3.912   2.249
 5386SOL     OW17056   5.324   6.243   4.987
 5386SOL    HW117057   5.350   6.160   5.037
 5386SOL    HW217058   5.356   6.323   5.036
 5387SOL     OW17059   2.676   5.498   1.748
 5387SOL    HW117060   2.708   5.592   1.734
 5387SOL    HW217061   2.699   5.470   1.841
 5388SOL     OW17062   5.670   0.558   2.538
 5388SOL    HW117063   5.631   0.573   2.629
 5388SOL    HW217064   5.596   0.552   2.471
 5389SOL     OW17065   4.776   2.090   1.027
 5389SOL    HW117066   4.802   1.994   1.019
 5389SOL    HW217067   4.690   2.098   1.077
 5390SOL     OW17068   6.070   4.757   6.187
 5390SOL    HW117069   6.167   4.733   6.195
 5390SOL    HW217070   6.018   4.708   6.257
 5391SOL     OW17071   2.447   3.147   6.852
 5391SOL    HW117072   2.468   3.242   6.829
 5391SOL    HW217073   2.491   3.086   6.786
 5392SOL     OW17074   6.466   3.108   2.551
 5392SOL    HW117075   6.551   3.067   2.520
 5392SOL    HW217076   6.438   3.180   2.487
 5393SOL     OW17077   6.643   0.225   6.863
 5393SOL    HW117078   6.582   0.228   6.784
 5393SOL    HW217079   6.680   0.133   6.873
 5394SOL     OW17080   1.000   4.060   5.737
 5394SOL    HW117081   0.971   4.151   5.708
 5394SOL    HW217082   1.099   4.059   5.749
 5395SOL     OW17083   3.991   1.541   0.089
 5395SOL    HW117084   4.081   1.582   0.104
 5395SOL    HW217085   4.001   1.461   0.029
 5396SOL     OW17086   5.513   3.219   2.541
 5396SOL    HW117087   5.414   3.219   2.556
 5396SOL    HW217088   5.539   3.135   2.494
 5397SOL     OW17089   0.502   3.451   1.505
 5397SOL    HW117090   0.564   3.376   1.480
 5397SOL    HW217091   0.556   3.529   1.538
 5398SOL     OW17092   2.953   2.604   1.687
 5398SOL    HW117093   2.921   2.572   1.598
 5398SOL    HW217094   2.963   2.526   1.749
 5399SOL     OW17095   1.464   5.919   0.685
 5399SOL    HW117096   1.495   5.902   0.591
 5399SOL    HW217097   1.403   5.998   0.686
 5400SOL     OW17098   2.805   4.459   0.797
 5400SOL    HW117099   2.789   4.534   0.862
 5400SOL    HW217100   2.903   4.444   0.788
 5401SOL     OW17101   6.264   3.054   1.484
 5401SOL    HW117102   6.294   2.959   1.496
 5401SOL    HW217103   6.300   3.089   1.398
 5402SOL     OW17104   1.045   6.024   2.240
 5402SOL    HW117105   0.961   5.983   2.274
 5402SOL    HW217106   1.026   6.113   2.200
 5403SOL     OW17107   0.140   2.597   6.260
 5403SOL    HW117108   0.187   2.595   6.348
 5403SOL    HW217109   0.043   2.575   6.274
 5404SOL     OW17110   1.866   2.769   3.298
 5404SOL    HW117111   1.790   2.808   3.350
 5404SOL    HW217112   1.844   2.676   3.269
 5405SOL     OW17113   6.710   5.114   6.084
 5405SOL    HW117114   6.753   5.084   6.170
 5405SOL    HW217115   6.657   5.197   6.101
 5406SOL     OW17116   2.352   0.618   5.474
 5406SOL    HW117117   2.272   0.629   5.415
 5406SOL    HW217118   2.397   0.707   5.487
 5407SOL     OW17119   4.016   3.470   6.381
 5407SOL    HW117120   3.994   3.548   6.322
 5407SOL    HW217121   3.945   3.461   6.451
 5408SOL     OW17122   2.806   0.999   6.717
 5408SOL    HW117123   2.781   1.039   6.629
 5408SOL    HW217124   2.751   1.041   6.790
 5409SOL     OW17125   3.861   0.771   2.259
 5409SOL    HW117126   3.771   0.726   2.264
 5409SOL    HW217127   3.928   0.707   2.221
 5410SOL     OW17128   2.443   2.182   2.162
 5410SOL    HW117129   2.470   2.272   2.129
 5410SOL    HW217130   2.382   2.139   2.095
 5411SOL     OW17131   0.671   5.603   4.890
 5411SOL    HW117132   0.716   5.579   4.976
 5411SOL    HW217133   0.670   5.523   4.830
 5412SOL     OW17134   6.293   2.895   1.117
 5412SOL    HW117135   6.262   2.933   1.030
 5412SOL    HW217136   6.228   2.827   1.149
 5413SOL     OW17137   2.084   0.962   1.757
 5413SOL    HW117138   2.061   0.871   1.793
 5413SOL    HW217139   2.140   0.952   1.675
 5414SOL     OW17140   4.013   1.013   5.311
 5414SOL    HW117141   4.025   1.099   5.260
 5414SOL    HW217142   3.979   0.943   5.249
 5415SOL     OW17143   6.133   5.198   1.927
 5415SOL    HW117144   6.171   5.235   1.842
 5415SOL    HW217145   6.160   5.256   2.003
 5416SOL     OW17146   4.413   5.835   4.443
 5416SOL    HW117147   4.474   5.856   4.366
 5416SOL    HW217148   4.452   5.759   4.496
 5417SOL     OW17149   3.115   6.698   4.704
 5417SOL    HW117150   3.032   6.750   4.685
 5417SOL    HW217151   3.194   6.745   4.665
 5418SOL     OW17152   3.645   0.434   2.974
 5418SOL    HW117153   3.716   0.429   2.905
 5418SOL    HW217154   3.564   0.479   2.935
 5419SOL     OW17155   3.499   4.254   6.978
 5419SOL    HW117156   3.506   4.321   0.035
 5419SOL    HW217157   3.425   4.190   6.997
 5420SOL     OW17158   1.198   1.440   2.799
 5420SOL    HW117159   1.210   1.538   2.816
 5420SOL    HW217160   1.125   1.426   2.732
 5421SOL     OW17161   1.510   3.615   1.755
 5421SOL    HW117162   1.554   3.577   1.673
 5421SOL    HW217163   1.580   3.636   1.823
 5422SOL     OW17164   2.255   3.378   1.031
 5422SOL    HW117165   2.234   3.383   1.129
 5422SOL    HW217166   2.341   3.331   1.017
 5423SOL     OW17167   5.979   3.415   6.949
 5423SOL    HW117168   5.931   3.434   0.017
 5423SOL    HW217169   5.919   3.436   6.872
 5424SOL     OW17170   5.174   4.029   4.926
 5424SOL    HW117171   5.182   4.099   4.854
 5424SOL    HW217172   5.077   4.014   4.946
 5425SOL     OW17173   5.014   0.395   4.886
 5425SOL    HW117174   4.986   0.409   4.790
 5425SOL    HW217175   4.933   0.376   4.941
 5426SOL     OW17176   6.119   0.180   5.458
 5426SOL    HW117177   6.107   0.223   5.369
 5426SOL    HW217178   6.030   0.168   5.502
 5427SOL     OW17179   3.889   5.730   6.478
 5427SOL    HW117180   3.965   5.674   6.510
 5427SOL    HW217181   3.917   5.826   6.476
 5428SOL     OW17182   1.347   0.462   6.907
 5428SOL    HW117183   1.251   0.483   6.924
 5428SOL    HW217184   1.355   0.372   6.864
 5429SOL     OW17185   1.140   2.343   6.697
 5429SOL    HW117186   1.201   2.408   6.653
 5429SOL    HW217187   1.052   2.387   6.716
 5430SOL     OW17188   2.208   2.754   5.785
 5430SOL    HW117189   2.275   2.753   5.859
 5430SOL    HW217190   2.132   2.814   5.810
 5431SOL     OW17191   3.804   5.943   4.604
 5431SOL    HW117192   3.853   6.005   4.665
 5431SOL    HW217193   3.729   5.992   4.560
 5432SOL     OW17194   5.200   6.691   1.149
 5432SOL    HW117195   5.139   6.731   1.081
 5432SOL    HW217196   5.251   6.615   1.108
 5433SOL     OW17197   0.332   1.648   4.668
 5433SOL    HW117198   0.426   1.681   4.655
 5433SOL    HW217199   0.294   1.691   4.750
 5434SOL     OW17200   2.750   0.108   5.722
 5434SOL    HW117201   2.685   0.066   5.659
 5434SOL    HW217202   2.700   0.149   5.799
 5435SOL     OW17203   4.505   0.730   1.886
 5435SOL    HW117204   4.456   0.689   1.810
 5435SOL    HW217205   4.586   0.675   1.908
 5436SOL     OW17206   5.171   4.042   2.536
 5436SOL    HW117207   5.072   4.031   2.541
 5436SOL    HW217208   5.198   4.119   2.594
 5437SOL     OW17209   3.037   3.446   0.064
 5437SOL    HW117210   3.004   3.370   0.008
 5437SOL    HW217211   3.008   3.533   0.022
 5438SOL     OW17212   6.490   2.394   0.785
 5438SOL    HW117213   6.496   2.358   0.878
 5438SOL    HW217214   6.398   2.377   0.749
 5439SOL     OW17215   1.084   2.139   1.350
 5439SOL    HW117216   1.024   2.194   1.407
 5439SOL    HW217217   1.177   2.142   1.387
 5440SOL     OW17218   1.006   1.928   1.001
 5440SOL    HW117219   1.059   1.891   1.077
 5440SOL    HW217220   0.919   1.964   1.035
 5441SOL     OW17221   3.825   2.055   3.396
 5441SOL    HW117222   3.742   2.082   3.445
 5441SOL    HW217223   3.804   2.046   3.299
 5442SOL     OW17224   3.924   0.383   2.246
 5442SOL    HW117225   3.878   0.461   2.288
 5442SOL    HW217226   3.863   0.304   2.247
 5443SOL     OW17227   3.386   6.875   5.355
 5443SOL    HW117228   3.417   6.947   5.294
 5443SOL    HW217229   3.287   6.862   5.343
 5444SOL     OW17230   6.815   6.875   3.395
 5444SOL    HW117231   6.834   6.945   3.326
 5444SOL    HW217232   6.717   6.873   3.414
 5445SOL     OW17233   5.918   3.396   2.061
 5445SOL    HW117234   5.942   3.323   1.997
 5445SOL    HW217235   5.829   3.376   2.102
 5446SOL     OW17236   6.690   5.386   5.650
 5446SOL    HW117237   6.708   5.330   5.569
 5446SOL    HW217238   6.593   5.381   5.673
 5447SOL     OW17239   3.704   1.748   0.096
 5447SOL    HW117240   3.782   1.739   0.158
 5447SOL    HW217241   3.733   1.726   0.003
 5448SOL     OW17242   5.604   2.290   5.625
 5448SOL    HW117243   5.579   2.290   5.528
 5448SOL    HW217244   5.615   2.384   5.657
 5449SOL     OW17245   0.847   3.369   6.533
 5449SOL    HW117246   0.859   3.279   6.491
 5449SOL    HW217247   0.839   3.358   6.632
 5450SOL     OW17248   1.829   6.950   0.888
 5450SOL    HW117249   1.902   6.983   0.829
 5450SOL    HW217250   1.797   0.007   0.947
 5451SOL     OW17251   1.153   0.266   2.674
 5451SOL    HW117252   1.238   0.223   2.645
 5451SOL    HW217253   1.135   0.245   2.770
 5452SOL     OW17254   2.584   3.951   6.261
 5452SOL    HW117255   2.547   4.043   6.275
 5452SOL    HW217256   2.683   3.953   6.275
 5453SOL     OW17257   6.493   5.167   6.737
 5453SOL    HW117258   6.427   5.191   6.665
 5453SOL    HW217259   6.544   5.086   6.708
 5454SOL     OW17260   6.921   4.639   6.719
 5454SOL    HW117261   6.955   4.705   6.785
 5454SOL    HW217262   6.876   4.563   6.767
 5455SOL     OW17263   6.648   3.308   1.411
 5455SOL    HW117264   6.633   3.209   1.401
 5455SOL    HW217265   6.677   3.346   1.323
 5456SOL     OW17266   3.178   6.597   0.572
 5456SOL    HW117267   3.117   6.559   0.642
 5456SOL    HW217268   3.239   6.526   0.538
 5457SOL     OW17269   6.339   3.290   0.545
 5457SOL    HW117270   6.287   3.311   0.628
 5457SOL    HW217271   6.411   3.358   0.533
 5458SOL     OW17272   2.327   4.108   6.895
 5458SOL    HW117273   2.296   4.064   6.979
 5458SOL    HW217274   2.247   4.140   6.843
 5459SOL     OW17275   1.431   4.581   6.266
 5459SOL    HW117276   1.402   4.493   6.306
 5459SOL    HW217277   1.474   4.637   6.337
 5460SOL     OW17278   2.994   0.479   1.492
 5460SOL    HW117279   2.969   0.405   1.429
 5460SOL    HW217280   3.007   0.442   1.584
 5461SOL     OW17281   4.590   6.964   5.311
 5461SOL    HW117282   4.647   6.994   5.387
 5461SOL    HW217283   4.612   6.869   5.288
 5462SOL     OW17284   0.730   0.382   0.960
 5462SOL    HW117285   0.641   0.399   0.917
 5462SOL    HW217286   0.792   0.341   0.894
 5463SOL     OW17287   6.842   2.981   0.873
 5463SOL    HW117288   6.858   2.941   0.963
 5463SOL    HW217289   6.894   2.930   0.804
 5464SOL     OW17290   1.867   6.875   4.370
 5464SOL    HW117291   1.812   6.833   4.442
 5464SOL    HW217292   1.944   6.924   4.410
 5465SOL     OW17293   2.777   6.977   5.308
 5465SOL    HW117294   2.860   6.992   5.362
 5465SOL    HW217295   2.716   0.038   5.318
 5466SOL     OW17296   4.544   4.579   4.578
 5466SOL    HW117297   4.463   4.627   4.545
 5466SOL    HW217298   4.577   4.516   4.508
 5467SOL     OW17299   6.043   1.467   1.919
 5467SOL    HW117300   6.099   1.482   1.838
 5467SOL    HW217301   6.086   1.397   1.977
 5468SOL     OW17302   4.117   1.639   5.263
 5468SOL    HW117303   4.152   1.597   5.179
 5468SOL    HW217304   4.069   1.724   5.239
 5469SOL     OW17305   4.153   4.198   6.420
 5469SOL    HW117306   4.227   4.263   6.405
 5469SOL    HW217307   4.073   4.225   6.366
 5470SOL     OW17308   1.754   5.268   3.706
 5470SOL    HW117309   1.730   5.304   3.616
 5470SOL    HW217310   1.671   5.257   3.761
 5471SOL     OW17311   6.282   5.803   1.755
 5471SOL    HW117312   6.258   5.707   1.741
 5471SOL    HW217313   6.320   5.815   1.847
 5472SOL     OW17314   4.017   4.946   5.549
 5472SOL    HW117315   4.038   4.854   5.584
 5472SOL    HW217316   4.055   5.014   5.612
 5473SOL     OW17317   1.025   3.495   3.613
 5473SOL    HW117318   1.112   3.449   3.594
 5473SOL    HW217319   0.952   3.426   3.618
 5474SOL     OW17320   1.666   5.538   3.476
 5474SOL    HW117321   1.604   5.534   3.554
 5474SOL    HW217322   1.755   5.574   3.506
 5475SOL     OW17323   2.679   2.498   0.957
 5475SOL    HW117324   2.748   2.526   1.025
 5475SOL    HW217325   2.668   2.399   0.959
 5476SOL     OW17326   1.138   3.228   5.586
 5476SOL    HW117327   1.122   3.278   5.671
 5476SOL    HW217328   1.203   3.278   5.529
 5477SOL     OW17329   2.159   3.028   3.154
 5477SOL    HW117330   2.191   3.112   3.199
 5477SOL    HW217331   2.106   3.051   3.073
 5478SOL     OW17332   6.618   6.200   6.036
 5478SOL    HW117333   6.555   6.136   6.081
 5478SOL    HW217334   6.580   6.227   5.947
 5479SOL     OW17335   4.542   0.438   4.747
 5479SOL    HW117336   4.567   0.527   4.784
 5479SOL    HW217337   4.453   0.411   4.783
 5480SOL     OW17338   0.333   3.722   4.275
 5480SOL    HW117339   0.375   3.806   4.309
 5480SOL    HW217340   0.235   3.737   4.262
 5481SOL     OW17341   4.767   6.282   3.851
 5481SOL    HW117342   4.682   6.235   3.870
 5481SOL    HW217343   4.757   6.380   3.869
 5482SOL     OW17344   1.789   4.284   1.437
 5482SOL    HW117345   1.694   4.293   1.467
 5482SOL    HW217346   1.801   4.198   1.389
 5483SOL     OW17347   0.371   2.491   5.595
 5483SOL    HW117348   0.454   2.472   5.647
 5483SOL    HW217349   0.331   2.405   5.563
 5484SOL     OW17350   4.424   0.473   5.130
 5484SOL    HW117351   4.500   0.520   5.175
 5484SOL    HW217352   4.434   0.374   5.140
 5485SOL     OW17353   3.298   0.349   4.880
 5485SOL    HW117354   3.390   0.387   4.873
 5485SOL    HW217355   3.236   0.420   4.914
 5486SOL     OW17356   2.626   6.202   5.151
 5486SOL    HW117357   2.657   6.258   5.074
 5486SOL    HW217358   2.636   6.254   5.236
 5487SOL     OW17359   3.157   5.502   5.635
 5487SOL    HW117360   3.233   5.559   5.666
 5487SOL    HW217361   3.139   5.431   5.703
 5488SOL     OW17362   5.892   2.475   0.574
 5488SOL    HW117363   5.928   2.556   0.527
 5488SOL    HW217364   5.793   2.484   0.584
 5489SOL     OW17365   6.697   4.195   2.884
 5489SOL    HW117366   6.635   4.176   2.960
 5489SOL    HW217367   6.780   4.141   2.894
 5490SOL     OW17368   1.832   6.310   2.848
 5490SOL    HW117369   1.903   6.335   2.781
 5490SOL    HW217370   1.801   6.217   2.831
 5491SOL     OW17371   6.737   4.289   0.511
 5491SOL    HW117372   6.652   4.239   0.527
 5491SOL    HW217373   6.775   4.318   0.599
 5492SOL     OW17374   6.742   2.026   5.961
 5492SOL    HW117375   6.807   2.053   5.889
 5492SOL    HW217376   6.653   2.068   5.943
 5493SOL     OW17377   4.201   3.683   1.234
 5493SOL    HW117378   4.174   3.592   1.266
 5493SOL    HW217379   4.139   3.713   1.162
 5494SOL     OW17380   6.012   4.097   5.334
 5494SOL    HW117381   6.011   3.997   5.338
 5494SOL    HW217382   6.074   4.127   5.262
 5495SOL     OW17383   5.578   6.905   0.300
 5495SOL    HW117384   5.559   6.873   0.207
 5495SOL    HW217385   5.644   6.844   0.343
 5496SOL     OW17386   4.145   0.545   4.228
 5496SOL    HW117387   4.088   0.602   4.287
 5496SOL    HW217388   4.127   0.566   4.132
 5497SOL     OW17389   1.154   0.759   5.637
 5497SOL    HW117390   1.209   0.687   5.678
 5497SOL    HW217391   1.078   0.718   5.586
 5498SOL     OW17392   0.702   5.496   1.140
 5498SOL    HW117393   0.743   5.526   1.226
 5498SOL    HW217394   0.634   5.425   1.158
 5499SOL     OW17395   1.789   0.320   4.992
 5499SOL    HW117396   1.850   0.396   5.014
 5499SOL    HW217397   1.694   0.347   5.010
 5500SOL     OW17398   2.783   0.523   0.916
 5500SOL    HW117399   2.868   0.561   0.879
 5500SOL    HW217400   2.709   0.590   0.904
 5501SOL     OW17401   3.815   3.716   6.705
 5501SOL    HW117402   3.751   3.787   6.735
 5501SOL    HW217403   3.863   3.678   6.784
 5502SOL     OW17404   4.734   2.823   0.171
 5502SOL    HW117405   4.680   2.901   0.202
 5502SOL    HW217406   4.686   2.777   0.096
 5503SOL     OW17407   6.415   3.699   0.798
 5503SOL    HW117408   6.476   3.638   0.748
 5503SOL    HW217409   6.350   3.645   0.851
 5504SOL     OW17410   3.550   1.542   6.835
 5504SOL    HW117411   3.646   1.535   6.863
 5504SOL    HW217412   3.539   1.507   6.742
 5505SOL     OW17413   3.063   5.324   3.091
 5505SOL    HW117414   3.020   5.390   3.153
 5505SOL    HW217415   3.089   5.243   3.143
 5506SOL     OW17416   0.533   3.390   5.565
 5506SOL    HW117417   0.496   3.425   5.651
 5506SOL    HW217418   0.633   3.397   5.566
 5507SOL     OW17419   2.812   6.711   6.778
 5507SOL    HW117420   2.786   6.657   6.697
 5507SOL    HW217421   2.882   6.778   6.752
 5508SOL     OW17422   6.716   0.945   6.347
 5508SOL    HW117423   6.756   0.853   6.346
 5508SOL    HW217424   6.617   0.939   6.336
 5509SOL     OW17425   6.354   5.203   0.812
 5509SOL    HW117426   6.338   5.138   0.886
 5509SOL    HW217427   6.270   5.212   0.758
 5510SOL     OW17428   4.183   4.933   0.217
 5510SOL    HW117429   4.086   4.912   0.230
 5510SOL    HW217430   4.201   4.947   0.119
 5511SOL     OW17431   0.126   2.268   5.349
 5511SOL    HW117432   0.106   2.170   5.343
 5511SOL    HW217433   0.184   2.295   5.272
 5512SOL     OW17434   2.626   0.684   2.076
 5512SOL    HW117435   2.531   0.690   2.046
 5512SOL    HW217436   2.655   0.589   2.078
 5513SOL     OW17437   4.358   4.204   0.344
 5513SOL    HW117438   4.347   4.301   0.323
 5513SOL    HW217439   4.324   4.149   0.268
 5514SOL     OW17440   3.152   1.212   0.362
 5514SOL    HW117441   3.115   1.152   0.291
 5514SOL    HW217442   3.118   1.183   0.451
 5515SOL     OW17443   2.804   5.713   2.135
 5515SOL    HW117444   2.864   5.779   2.090
 5515SOL    HW217445   2.832   5.620   2.111
 5516SOL     OW17446   1.612   2.273   5.340
 5516SOL    HW117447   1.512   2.275   5.350
 5516SOL    HW217448   1.646   2.366   5.335
 5517SOL     OW17449   1.220   2.416   3.259
 5517SOL    HW117450   1.192   2.412   3.163
 5517SOL    HW217451   1.310   2.460   3.266
 5518SOL     OW17452   4.636   4.849   6.889
 5518SOL    HW117453   4.601   4.849   6.983
 5518SOL    HW217454   4.618   4.938   6.847
 5519SOL     OW17455   4.729   2.900   4.342
 5519SOL    HW117456   4.694   2.821   4.391
 5519SOL    HW217457   4.745   2.876   4.246
 5520SOL     OW17458   5.006   0.075   1.788
 5520SOL    HW117459   4.979   0.007   1.720
 5520SOL    HW217460   5.080   0.038   1.844
 5521SOL     OW17461   4.590   6.400   2.203
 5521SOL    HW117462   4.561   6.472   2.140
 5521SOL    HW217463   4.588   6.435   2.297
 5522SOL     OW17464   5.834   6.231   1.137
 5522SOL    HW117465   5.838   6.252   1.040
 5522SOL    HW217466   5.747   6.185   1.158
 5523SOL     OW17467   5.267   1.286   1.091
 5523SOL    HW117468   5.245   1.380   1.113
 5523SOL    HW217469   5.356   1.282   1.045
 5524SOL     OW17470   2.397   1.414   4.000
 5524SOL    HW117471   2.301   1.386   3.999
 5524SOL    HW217472   2.454   1.336   4.023
 5525SOL     OW17473   6.160   1.239   1.555
 5525SOL    HW117474   6.069   1.269   1.526
 5525SOL    HW217475   6.195   1.172   1.489
 5526SOL     OW17476   5.469   4.919   4.132
 5526SOL    HW117477   5.509   4.954   4.048
 5526SOL    HW217478   5.467   4.819   4.129
 5527SOL     OW17479   5.838   0.737   3.994
 5527SOL    HW117480   5.801   0.761   4.083
 5527SOL    HW217481   5.767   0.744   3.925
 5528SOL     OW17482   0.837   1.178   6.921
 5528SOL    HW117483   0.848   1.267   6.966
 5528SOL    HW217484   0.755   1.181   6.863
 5529SOL     OW17485   3.868   0.628   1.797
 5529SOL    HW117486   3.812   0.609   1.878
 5529SOL    HW217487   3.944   0.688   1.822
 5530SOL     OW17488   6.709   2.345   1.307
 5530SOL    HW117489   6.793   2.372   1.354
 5530SOL    HW217490   6.729   2.269   1.246
 5531SOL     OW17491   2.100   3.921   1.270
 5531SOL    HW117492   2.180   3.861   1.269
 5531SOL    HW217493   2.124   4.008   1.312
 5532SOL     OW17494   1.247   2.872   6.800
 5532SOL    HW117495   1.310   2.913   6.866
 5532SOL    HW217496   1.169   2.833   6.848
 5533SOL     OW17497   3.176   1.819   2.523
 5533SOL    HW117498   3.102   1.887   2.522
 5533SOL    HW217499   3.209   1.804   2.430
 5534SOL     OW17500   1.417   0.213   4.806
 5534SOL    HW117501   1.450   0.122   4.782
 5534SOL    HW217502   1.398   0.265   4.722
 5535SOL     OW17503   0.162   1.701   3.167
 5535SOL    HW117504   0.165   1.786   3.220
 5535SOL    HW217505   0.076   1.698   3.115
 5536SOL     OW17506   3.844   6.229   4.212
 5536SOL    HW117507   3.813   6.318   4.245
 5536SOL    HW217508   3.905   6.188   4.279
 5537SOL     OW17509   3.124   1.561   3.227
 5537SOL    HW117510   3.153   1.503   3.303
 5537SOL    HW217511   3.054   1.513   3.174
 5538SOL     OW17512   4.416   5.528   4.904
 5538SOL    HW117513   4.358   5.530   4.985
 5538SOL    HW217514   4.409   5.439   4.859
 5539SOL     OW17515   2.259   4.802   0.529
 5539SOL    HW117516   2.168   4.813   0.490
 5539SOL    HW217517   2.281   4.704   0.536
 5540SOL     OW17518   4.871   5.450   1.680
 5540SOL    HW117519   4.927   5.503   1.616
 5540SOL    HW217520   4.775   5.457   1.653
 5541SOL     OW17521   4.782   1.583   5.643
 5541SOL    HW117522   4.772   1.675   5.607
 5541SOL    HW217523   4.814   1.587   5.738
 5542SOL     OW17524   5.390   4.556   6.849
 5542SOL    HW117525   5.339   4.642   6.847
 5542SOL    HW217526   5.482   4.572   6.886
 5543SOL     OW17527   7.014   1.889   5.710
 5543SOL    HW117528   0.074   1.894   5.773
 5543SOL    HW217529   6.957   1.810   5.733
 5544SOL     OW17530   5.933   0.874   0.076
 5544SOL    HW117531   5.889   0.810   0.013
 5544SOL    HW217532   5.991   0.937   0.024
 5545SOL     OW17533   2.660   2.460   1.819
 5545SOL    HW117534   2.749   2.415   1.820
 5545SOL    HW217535   2.667   2.547   1.770
 5546SOL     OW17536   3.228   5.062   5.682
 5546SOL    HW117537   3.324   5.080   5.660
 5546SOL    HW217538   3.192   4.994   5.617
 5547SOL     OW17539   3.465   5.674   4.045
 5547SOL    HW117540   3.523   5.665   4.127
 5547SOL    HW217541   3.488   5.758   3.997
 5548SOL     OW17542   0.417   2.661   4.940
 5548SOL    HW117543   0.468   2.734   4.895
 5548SOL    HW217544   0.445   2.573   4.902
 5549SOL     OW17545   3.534   4.510   0.558
 5549SOL    HW117546   3.508   4.545   0.648
 5549SOL    HW217547   3.475   4.551   0.489
 5550SOL     OW17548   3.298   6.701   2.567
 5550SOL    HW117549   3.257   6.703   2.475
 5550SOL    HW217550   3.387   6.747   2.564
 5551SOL     OW17551   0.160   1.265   2.578
 5551SOL    HW117552   0.215   1.297   2.501
 5551SOL    HW217553   0.187   1.313   2.661
 5552SOL     OW17554   0.843   2.712   1.648
 5552SOL    HW117555   0.786   2.789   1.619
 5552SOL    HW217556   0.785   2.638   1.682
 5553SOL     OW17557   4.941   6.241   6.784
 5553SOL    HW117558   4.899   6.240   6.875
 5553SOL    HW217559   4.903   6.317   6.731
 5554SOL     OW17560   3.422   1.151   4.406
 5554SOL    HW117561   3.372   1.123   4.488
 5554SOL    HW217562   3.426   1.075   4.342
 5555SOL     OW17563   0.338   5.861   2.094
 5555SOL    HW117564   0.266   5.810   2.141
 5555SOL    HW217565   0.426   5.814   2.107
 5556SOL     OW17566   0.911   0.996   4.617
 5556SOL    HW117567   0.910   0.900   4.588
 5556SOL    HW217568   0.997   1.015   4.665
 5557SOL     OW17569   2.799   0.723   3.118
 5557SOL    HW117570   2.859   0.720   3.198
 5557SOL    HW217571   2.739   0.803   3.124
 5558SOL     OW17572   5.100   2.584   5.440
 5558SOL    HW117573   5.019   2.596   5.383
 5558SOL    HW217574   5.122   2.670   5.485
 5559SOL     OW17575   2.562   0.776   1.496
 5559SOL    HW117576   2.610   0.847   1.546
 5559SOL    HW217577   2.613   0.690   1.503
 5560SOL     OW17578   6.952   1.039   4.380
 5560SOL    HW117579   0.026   1.037   4.422
 5560SOL    HW217580   6.893   1.101   4.431
 5561SOL     OW17581   1.846   3.472   2.590
 5561SOL    HW117582   1.942   3.490   2.615
 5561SOL    HW217583   1.798   3.433   2.669
 5562SOL     OW17584   3.164   2.350   6.528
 5562SOL    HW117585   3.261   2.331   6.546
 5562SOL    HW217586   3.109   2.303   6.598
 5563SOL     OW17587   3.997   4.270   1.684
 5563SOL    HW117588   3.953   4.299   1.599
 5563SOL    HW217589   3.944   4.196   1.726
 5564SOL     OW17590   5.968   3.174   1.912
 5564SOL    HW117591   5.894   3.110   1.890
 5564SOL    HW217592   6.056   3.134   1.886
 5565SOL     OW17593   3.328   3.095   5.613
 5565SOL    HW117594   3.389   3.159   5.659
 5565SOL    HW217595   3.288   3.138   5.532
 5566SOL     OW17596   2.002   4.490   0.538
 5566SOL    HW117597   1.953   4.413   0.499
 5566SOL    HW217598   1.967   4.509   0.630
 5567SOL     OW17599   1.708   5.154   2.971
 5567SOL    HW117600   1.760   5.238   2.987
 5567SOL    HW217601   1.762   5.075   3.000
 5568SOL     OW17602   3.698   2.609   0.861
 5568SOL    HW117603   3.709   2.647   0.769
 5568SOL    HW217604   3.695   2.509   0.855
 5569SOL     OW17605   5.269   1.962   6.702
 5569SOL    HW117606   5.246   2.057   6.721
 5569SOL    HW217607   5.199   1.923   6.641
 5570SOL     OW17608   0.458   3.700   5.096
 5570SOL    HW117609   0.492   3.762   5.166
 5570SOL    HW217610   0.476   3.605   5.123
 5571SOL     OW17611   6.413   4.757   6.758
 5571SOL    HW117612   6.330   4.808   6.781
 5571SOL    HW217613   6.440   4.700   6.836
 5572SOL     OW17614   5.971   2.975   5.066
 5572SOL    HW117615   5.919   3.058   5.046
 5572SOL    HW217616   5.917   2.915   5.124
 5573SOL     OW17617   6.994   4.232   0.071
 5573SOL    HW117618   6.967   4.171   7.013
 5573SOL    HW217619   6.921   4.236   0.139
 5574SOL     OW17620   0.726   6.291   4.222
 5574SOL    HW117621   0.700   6.197   4.241
 5574SOL    HW217622   0.726   6.344   4.307
 5575SOL     OW17623   0.787   1.286   1.544
 5575SOL    HW117624   0.851   1.281   1.621
 5575SOL    HW217625   0.755   1.380   1.533
 5576SOL     OW17626   5.720   6.079   6.913
 5576SOL    HW117627   5.734   6.117   7.004
 5576SOL    HW217628   5.623   6.083   6.889
 5577SOL     OW17629   2.393   4.433   4.789
 5577SOL    HW117630   2.373   4.372   4.866
 5577SOL    HW217631   2.438   4.516   4.823
 5578SOL     OW17632   3.318   1.967   6.609
 5578SOL    HW117633   3.416   1.984   6.620
 5578SOL    HW217634   3.295   1.880   6.653
 5579SOL     OW17635   4.814   5.273   1.870
 5579SOL    HW117636   4.847   5.328   1.793
 5579SOL    HW217637   4.724   5.305   1.899
 5580SOL     OW17638   5.299   1.173   1.869
 5580SOL    HW117639   5.261   1.248   1.923
 5580SOL    HW217640   5.322   1.207   1.777
 5581SOL     OW17641   2.593   2.818   0.404
 5581SOL    HW117642   2.541   2.767   0.472
 5581SOL    HW217643   2.532   2.844   0.329
 5582SOL     OW17644   3.302   3.149   3.661
 5582SOL    HW117645   3.351   3.064   3.681
 5582SOL    HW217646   3.333   3.185   3.574
 5583SOL     OW17647   4.848   0.711   0.208
 5583SOL    HW117648   4.928   0.770   0.217
 5583SOL    HW217649   4.803   0.701   0.297
 5584SOL     OW17650   5.178   3.122   2.836
 5584SOL    HW117651   5.108   3.062   2.875
 5584SOL    HW217652   5.269   3.087   2.858
 5585SOL     OW17653   0.240   6.300   4.406
 5585SOL    HW117654   0.313   6.232   4.419
 5585SOL    HW217655   0.153   6.253   4.393
 5586SOL     OW17656   2.694   1.423   6.393
 5586SOL    HW117657   2.612   1.375   6.424
 5586SOL    HW217658   2.773   1.392   6.446
 5587SOL     OW17659   3.385   6.494   4.338
 5587SOL    HW117660   3.310   6.516   4.275
 5587SOL    HW217661   3.349   6.481   4.430
 5588SOL     OW17662   5.270   0.283   6.142
 5588SOL    HW117663   5.216   0.358   6.105
 5588SOL    HW217664   5.265   0.204   6.080
 5589SOL     OW17665   2.820   3.964   6.979
 5589SOL    HW117666   2.815   3.999   6.885
 5589SOL    HW217667   2.845   4.039   0.023
 5590SOL     OW17668   6.567   0.239   3.508
 5590SOL    HW117669   6.532   0.153   3.472
 5590SOL    HW217670   6.659   0.225   3.544
 5591SOL     OW17671   5.477   0.284   0.229
 5591SOL    HW117672   5.424   0.340   0.292
 5591SOL    HW217673   5.473   0.188   0.260
 5592SOL     OW17674   1.588   2.523   2.758
 5592SOL    HW117675   1.490   2.527   2.737
 5592SOL    HW217676   1.630   2.611   2.739
 5593SOL     OW17677   2.409   4.402   4.518
 5593SOL    HW117678   2.383   4.394   4.615
 5593SOL    HW217679   2.464   4.485   4.506
 5594SOL     OW17680   3.150   1.636   6.156
 5594SOL    HW117681   3.120   1.700   6.227
 5594SOL    HW217682   3.162   1.685   6.070
 5595SOL     OW17683   0.362   1.913   6.135
 5595SOL    HW117684   0.417   1.989   6.100
 5595SOL    HW217685   0.338   1.930   6.230
 5596SOL     OW17686   4.772   2.462   4.181
 5596SOL    HW117687   4.798   2.488   4.274
 5596SOL    HW217688   4.790   2.539   4.120
 5597SOL     OW17689   0.021   2.131   6.247
 5597SOL    HW117690   6.969   2.124   6.319
 5597SOL    HW217691   0.003   2.061   6.178
 5598SOL     OW17692   6.995   1.573   4.056
 5598SOL    HW117693   6.992   1.671   4.037
 5598SOL    HW217694   6.959   1.524   3.976
 5599SOL     OW17695   5.375   2.225   2.807
 5599SOL    HW117696   5.312   2.182   2.873
 5599SOL    HW217697   5.468   2.194   2.825
 5600SOL     OW17698   1.997   2.321   2.078
 5600SOL    HW117699   2.061   2.296   2.150
 5600SOL    HW217700   2.001   2.253   2.005
 5601SOL     OW17701   5.801   3.415   5.933
 5601SOL    HW117702   5.875   3.460   5.882
 5601SOL    HW217703   5.781   3.467   6.016
 5602SOL     OW17704   6.511   2.411   2.481
 5602SOL    HW117705   6.465   2.322   2.473
 5602SOL    HW217706   6.529   2.431   2.577
 5603SOL     OW17707   3.677   2.304   6.009
 5603SOL    HW117708   3.714   2.227   6.062
 5603SOL    HW217709   3.631   2.368   6.071
 5604SOL     OW17710   0.916   6.346   3.635
 5604SOL    HW117711   0.901   6.440   3.667
 5604SOL    HW217712   1.004   6.313   3.670
 5605SOL     OW17713   4.166   0.439   3.906
 5605SOL    HW117714   4.122   0.457   3.817
 5605SOL    HW217715   4.255   0.484   3.909
 5606SOL     OW17716   4.615   3.040   0.289
 5606SOL    HW117717   4.604   3.135   0.259
 5606SOL    HW217718   4.548   3.020   0.360
 5607SOL     OW17719   0.279   2.379   3.319
 5607SOL    HW117720   0.225   2.330   3.387
 5607SOL    HW217721   0.314   2.464   3.359
 5608SOL     OW17722   5.220   0.262   4.180
 5608SOL    HW117723   5.242   0.351   4.141
 5608SOL    HW217724   5.277   0.247   4.261
 5609SOL     OW17725   6.578   1.048   6.681
 5609SOL    HW117726   6.557   0.954   6.707
 5609SOL    HW217727   6.675   1.056   6.660
 5610SOL     OW17728   6.067   5.876   6.309
 5610SOL    HW117729   6.086   5.788   6.354
 5610SOL    HW217730   6.017   5.935   6.372
 5611SOL     OW17731   6.020   4.038   1.685
 5611SOL    HW117732   6.061   4.097   1.616
 5611SOL    HW217733   5.929   4.072   1.708
 5612SOL     OW17734   3.853   2.361   0.416
 5612SOL    HW117735   3.763   2.327   0.441
 5612SOL    HW217736   3.864   2.454   0.450
 5613SOL     OW17737   6.109   5.122   5.884
 5613SOL    HW117738   6.147   5.209   5.917
 5613SOL    HW217739   6.082   5.066   5.963
 5614SOL     OW17740   4.860   2.198   5.002
 5614SOL    HW117741   4.948   2.184   4.958
 5614SOL    HW217742   4.831   2.113   5.047
 5615SOL     OW17743   0.329   3.267   3.927
 5615SOL    HW117744   0.290   3.357   3.912
 5615SOL    HW217745   0.424   3.266   3.896
 5616SOL     OW17746   1.883   3.166   2.669
 5616SOL    HW117747   1.951   3.194   2.601
 5616SOL    HW217748   1.858   3.245   2.725
 5617SOL     OW17749   1.252   4.671   6.092
 5617SOL    HW117750   1.167   4.694   6.139
 5617SOL    HW217751   1.318   4.634   6.157
 5618SOL     OW17752   4.804   6.804   2.581
 5618SOL    HW117753   4.891   6.756   2.568
 5618SOL    HW217754   4.739   6.742   2.625
 5619SOL     OW17755   3.283   3.351   2.789
 5619SOL    HW117756   3.184   3.338   2.795
 5619SOL    HW217757   3.329   3.289   2.853
 5620SOL     OW17758   4.933   4.474   4.468
 5620SOL    HW117759   4.834   4.469   4.478
 5620SOL    HW217760   4.961   4.421   4.388
 5621SOL     OW17761   0.696   2.434   6.500
 5621SOL    HW117762   0.617   2.398   6.450
 5621SOL    HW217763   0.679   2.530   6.524
 5622SOL     OW17764   4.669   5.327   4.060
 5622SOL    HW117765   4.599   5.385   4.102
 5622SOL    HW217766   4.699   5.368   3.974
 5623SOL     OW17767   4.499   4.680   3.889
 5623SOL    HW117768   4.399   4.672   3.895
 5623SOL    HW217769   4.529   4.655   3.797
 5624SOL     OW17770   4.940   4.463   3.516
 5624SOL    HW117771   4.936   4.403   3.596
 5624SOL    HW217772   4.904   4.554   3.541
 5625SOL     OW17773   2.850   6.575   6.091
 5625SOL    HW117774   2.911   6.511   6.138
 5625SOL    HW217775   2.791   6.620   6.159
 5626SOL     OW17776   0.940   4.368   6.411
 5626SOL    HW117777   0.926   4.373   6.510
 5626SOL    HW217778   0.853   4.349   6.366
 5627SOL     OW17779   1.170   5.165   0.326
 5627SOL    HW117780   1.082   5.201   0.295
 5627SOL    HW217781   1.160   5.069   0.354
 5628SOL     OW17782   1.818   3.374   0.045
 5628SOL    HW117783   1.910   3.355   0.080
 5628SOL    HW217784   1.770   3.288   0.031
 5629SOL     OW17785   6.839   3.631   3.434
 5629SOL    HW117786   6.908   3.644   3.505
 5629SOL    HW217787   6.817   3.534   3.426
 5630SOL     OW17788   0.818   3.520   0.890
 5630SOL    HW117789   0.889   3.472   0.838
 5630SOL    HW217790   0.816   3.616   0.863
 5631SOL     OW17791   3.396   1.295   1.349
 5631SOL    HW117792   3.391   1.215   1.408
 5631SOL    HW217793   3.486   1.337   1.356
 5632SOL     OW17794   4.780   6.448   5.989
 5632SOL    HW117795   4.723   6.501   5.926
 5632SOL    HW217796   4.774   6.487   6.081
 5633SOL     OW17797   1.293   5.241   5.462
 5633SOL    HW117798   1.348   5.237   5.545
 5633SOL    HW217799   1.314   5.162   5.404
 5634SOL     OW17800   2.956   0.873   1.581
 5634SOL    HW117801   2.968   0.962   1.536
 5634SOL    HW217802   3.032   0.813   1.555
 5635SOL     OW17803   3.761   0.632   1.541
 5635SOL    HW117804   3.797   0.626   1.634
 5635SOL    HW217805   3.666   0.666   1.545
 5636SOL     OW17806   5.263   0.436   5.596
 5636SOL    HW117807   5.248   0.498   5.673
 5636SOL    HW217808   5.237   0.483   5.511
 5637SOL     OW17809   5.258   6.968   4.831
 5637SOL    HW117810   5.350   6.992   4.801
 5637SOL    HW217811   5.260   6.937   4.926
 5638SOL     OW17812   6.187   5.705   0.517
 5638SOL    HW117813   6.190   5.607   0.495
 5638SOL    HW217814   6.093   5.730   0.539
 5639SOL     OW17815   3.009   0.405   1.744
 5639SOL    HW117816   2.995   0.480   1.809
 5639SOL    HW217817   2.921   0.365   1.719
 5640SOL     OW17818   3.033   6.873   3.443
 5640SOL    HW117819   3.091   6.811   3.390
 5640SOL    HW217820   3.083   6.904   3.523
 5641SOL     OW17821   6.839   3.992   3.713
 5641SOL    HW117822   6.792   3.953   3.634
 5641SOL    HW217823   6.854   4.089   3.698
 5642SOL     OW17824   2.262   3.591   6.396
 5642SOL    HW117825   2.335   3.538   6.439
 5642SOL    HW217826   2.196   3.620   6.466
 5643SOL     OW17827   6.119   2.423   4.432
 5643SOL    HW117828   6.147   2.458   4.521
 5643SOL    HW217829   6.185   2.451   4.363
 5644SOL     OW17830   4.022   0.379   5.155
 5644SOL    HW117831   3.980   0.452   5.209
 5644SOL    HW217832   3.955   0.342   5.091
 5645SOL     OW17833   6.266   6.240   3.617
 5645SOL    HW117834   6.186   6.181   3.608
 5645SOL    HW217835   6.334   6.214   3.548
 5646SOL     OW17836   6.527   6.530   3.876
 5646SOL    HW117837   6.449   6.486   3.833
 5646SOL    HW217838   6.601   6.541   3.809
 5647SOL     OW17839   6.793   4.226   6.660
 5647SOL    HW117840   6.847   4.166   6.602
 5647SOL    HW217841   6.708   4.251   6.612
 5648SOL     OW17842   2.658   1.179   4.826
 5648SOL    HW117843   2.604   1.167   4.910
 5648SOL    HW217844   2.658   1.276   4.801
 5649SOL     OW17845   0.872   6.998   5.312
 5649SOL    HW117846   0.945   6.931   5.298
 5649SOL    HW217847   0.907   0.072   5.293
 5650SOL     OW17848   6.382   4.852   6.347
 5650SOL    HW117849   6.397   4.934   6.292
 5650SOL    HW217850   6.441   4.855   6.427
 5651SOL     OW17851   5.756   1.621   2.281
 5651SOL    HW117852   5.803   1.558   2.342
 5651SOL    HW217853   5.770   1.592   2.186
 5652SOL     OW17854   5.769   3.974   0.654
 5652SOL    HW117855   5.785   4.070   0.676
 5652SOL    HW217856   5.707   3.967   0.576
 5653SOL     OW17857   2.012   5.884   6.515
 5653SOL    HW117858   2.008   5.980   6.543
 5653SOL    HW217859   1.922   5.842   6.528
 5654SOL     OW17860   1.541   6.039   6.687
 5654SOL    HW117861   1.525   6.067   6.593
 5654SOL    HW217862   1.630   6.073   6.718
 5655SOL     OW17863   0.275   5.717   3.069
 5655SOL    HW117864   0.351   5.683   3.125
 5655SOL    HW217865   0.227   5.790   3.117
 5656SOL     OW17866   3.626   5.731   6.473
 5656SOL    HW117867   3.725   5.741   6.474
 5656SOL    HW217868   3.587   5.785   6.399
 5657SOL     OW17869   4.044   5.612   2.181
 5657SOL    HW117870   4.059   5.698   2.229
 5657SOL    HW217871   4.092   5.538   2.229
 5658SOL     OW17872   5.424   6.923   5.614
 5658SOL    HW117873   5.482   6.972   5.679
 5658SOL    HW217874   5.469   6.838   5.587
 5659SOL     OW17875   3.237   4.080   2.897
 5659SOL    HW117876   3.180   4.060   2.977
 5659SOL    HW217877   3.186   4.055   2.814
 5660SOL     OW17878   6.331   6.375   1.450
 5660SOL    HW117879   6.389   6.421   1.383
 5660SOL    HW217880   6.235   6.383   1.423
 5661SOL     OW17881   6.301   6.018   4.731
 5661SOL    HW117882   6.230   6.077   4.770
 5661SOL    HW217883   6.370   6.000   4.801
 5662SOL     OW17884   2.316   4.839   4.715
 5662SOL    HW117885   2.249   4.787   4.768
 5662SOL    HW217886   2.357   4.909   4.773
 5663SOL     OW17887   2.405   4.061   1.248
 5663SOL    HW117888   2.333   4.130   1.246
 5663SOL    HW217889   2.375   3.980   1.198
 5664SOL     OW17890   0.084   5.988   2.507
 5664SOL    HW117891   0.093   6.012   2.603
 5664SOL    HW217892   7.007   5.963   2.487
 5665SOL     OW17893   1.517   1.029   6.055
 5665SOL    HW117894   1.480   1.058   5.967
 5665SOL    HW217895   1.616   1.027   6.050
 5666SOL     OW17896   5.782   6.161   0.166
 5666SOL    HW117897   5.728   6.229   0.215
 5666SOL    HW217898   5.875   6.194   0.154
 5667SOL     OW17899   6.271   5.679   3.187
 5667SOL    HW117900   6.353   5.732   3.163
 5667SOL    HW217901   6.296   5.607   3.253
 5668SOL     OW17902   6.241   3.359   5.873
 5668SOL    HW117903   6.151   3.391   5.842
 5668SOL    HW217904   6.312   3.412   5.826
 5669SOL     OW17905   6.852   3.440   4.951
 5669SOL    HW117906   6.827   3.387   5.032
 5669SOL    HW217907   6.827   3.390   4.868
 5670SOL     OW17908   1.605   3.705   2.737
 5670SOL    HW117909   1.563   3.614   2.745
 5670SOL    HW217910   1.663   3.722   2.817
 5671SOL     OW17911   1.245   1.336   5.539
 5671SOL    HW117912   1.317   1.394   5.576
 5671SOL    HW217913   1.219   1.268   5.607
 5672SOL     OW17914   5.488   3.543   5.771
 5672SOL    HW117915   5.398   3.574   5.740
 5672SOL    HW217916   5.505   3.450   5.738
 5673SOL     OW17917   1.349   0.561   1.111
 5673SOL    HW117918   1.306   0.622   1.178
 5673SOL    HW217919   1.309   0.470   1.118
 5674SOL     OW17920   6.721   3.030   1.197
 5674SOL    HW117921   6.655   3.088   1.149
 5674SOL    HW217922   6.690   3.015   1.291
 5675SOL     OW17923   3.810   1.046   6.063
 5675SOL    HW117924   3.808   1.130   6.117
 5675SOL    HW217925   3.718   1.024   6.032
 5676SOL     OW17926   3.483   6.896   1.607
 5676SOL    HW117927   3.468   6.991   1.636
 5676SOL    HW217928   3.486   6.892   1.507
 5677SOL     OW17929   6.873   1.049   3.968
 5677SOL    HW117930   6.932   1.125   3.996
 5677SOL    HW217931   6.817   1.078   3.890
 5678SOL     OW17932   1.962   5.164   3.396
 5678SOL    HW117933   1.937   5.068   3.407
 5678SOL    HW217934   1.886   5.214   3.355
 5679SOL     OW17935   3.262   5.828   5.148
 5679SOL    HW117936   3.315   5.901   5.191
 5679SOL    HW217937   3.209   5.866   5.071
 5680SOL     OW17938   1.811   6.786   6.607
 5680SOL    HW117939   1.871   6.734   6.546
 5680SOL    HW217940   1.858   6.869   6.638
 5681SOL     OW17941   2.307   3.907   0.190
 5681SOL    HW117942   2.396   3.931   0.229
 5681SOL    HW217943   2.283   3.814   0.219
 5682SOL     OW17944   1.240   3.917   4.120
 5682SOL    HW117945   1.306   3.890   4.050
 5682SOL    HW217946   1.159   3.956   4.077
 5683SOL     OW17947   4.118   3.493   4.587
 5683SOL    HW117948   4.058   3.508   4.666
 5683SOL    HW217949   4.097   3.562   4.516
 5684SOL     OW17950   3.098   3.798   3.279
 5684SOL    HW117951   3.030   3.732   3.311
 5684SOL    HW217952   3.113   3.867   3.349
 5685SOL     OW17953   0.903   5.418   2.189
 5685SOL    HW117954   0.848   5.482   2.242
 5685SOL    HW217955   0.996   5.453   2.180
 5686SOL     OW17956   3.532   5.065   6.911
 5686SOL    HW117957   3.508   4.972   6.939
 5686SOL    HW217958   3.505   5.130   6.982
 5687SOL     OW17959   4.304   5.622   6.224
 5687SOL    HW117960   4.377   5.603   6.289
 5687SOL    HW217961   4.336   5.688   6.156
 5688SOL     OW17962   5.853   1.720   2.648
 5688SOL    HW117963   5.801   1.684   2.725
 5688SOL    HW217964   5.899   1.645   2.600
 5689SOL     OW17965   4.626   2.952   6.111
 5689SOL    HW117966   4.647   3.033   6.166
 5689SOL    HW217967   4.549   2.903   6.152
 5690SOL     OW17968   4.630   6.725   2.353
 5690SOL    HW117969   4.609   6.630   2.378
 5690SOL    HW217970   4.685   6.767   2.426
 5691SOL     OW17971   2.574   0.211   3.448
 5691SOL    HW117972   2.484   0.212   3.404
 5691SOL    HW217973   2.631   0.283   3.409
 5692SOL     OW17974   5.871   3.484   0.178
 5692SOL    HW117975   5.861   3.395   0.223
 5692SOL    HW217976   5.947   3.534   0.219
 5693SOL     OW17977   4.636   2.716   2.716
 5693SOL    HW117978   4.716   2.758   2.673
 5693SOL    HW217979   4.626   2.622   2.684
 5694SOL     OW17980   1.527   2.032   4.241
 5694SOL    HW117981   1.491   1.994   4.326
 5694SOL    HW217982   1.455   2.080   4.192
 5695SOL     OW17983   1.869   3.725   3.548
 5695SOL    HW117984   1.811   3.645   3.534
 5695SOL    HW217985   1.815   3.799   3.590
 5696SOL     OW17986   3.282   0.429   5.879
 5696SOL    HW117987   3.377   0.413   5.904
 5696SOL    HW217988   3.277   0.500   5.809
 5697SOL     OW17989   6.433   3.601   0.005
 5697SOL    HW117990   6.336   3.618   0.023
 5697SOL    HW217991   6.479   3.688   7.005
 5698SOL     OW17992   1.166   4.560   2.659
 5698SOL    HW117993   1.089   4.617   2.688
 5698SOL    HW217994   1.205   4.513   2.738
 5699SOL     OW17995   6.449   1.621   4.936
 5699SOL    HW117996   6.380   1.624   4.863
 5699SOL    HW217997   6.525   1.682   4.912
 5700SOL     OW17998   1.063   5.290   2.675
 5700SOL    HW117999   0.989   5.304   2.740
 5700SOL    HW218000   1.067   5.193   2.650
 5701SOL     OW18001   5.112   5.071   2.131
 5701SOL    HW118002   5.082   5.104   2.041
 5701SOL    HW218003   5.192   5.122   2.161
 5702SOL     OW18004   2.497   0.299   6.853
 5702SOL    HW118005   2.426   0.314   6.922
 5702SOL    HW218006   2.556   0.379   6.847
 5703SOL     OW18007   4.614   4.166   1.640
 5703SOL    HW118008   4.550   4.207   1.705
 5703SOL    HW218009   4.672   4.100   1.688
 5704SOL     OW18010   4.792   4.701   3.484
 5704SOL    HW118011   4.854   4.727   3.410
 5704SOL    HW218012   4.712   4.762   3.483
 5705SOL     OW18013   5.739   1.577   2.897
 5705SOL    HW118014   5.649   1.546   2.865
 5705SOL    HW218015   5.772   1.518   2.970
 5706SOL     OW18016   2.125   0.864   7.006
 5706SOL    HW118017   2.141   0.962   6.996
 5706SOL    HW218018   2.083   0.829   6.923
 5707SOL     OW18019   3.396   2.044   6.236
 5707SOL    HW118020   3.331   1.990   6.290
 5707SOL    HW218021   3.359   2.136   6.221
 5708SOL     OW18022   6.241   0.239   2.062
 5708SOL    HW118023   6.210   0.216   2.155
 5708SOL    HW218024   6.263   0.156   2.012
 5709SOL     OW18025   0.943   1.391   2.306
 5709SOL    HW118026   0.982   1.417   2.395
 5709SOL    HW218027   0.843   1.394   2.312
 5710SOL     OW18028   3.226   4.186   6.328
 5710SOL    HW118029   3.237   4.204   6.230
 5710SOL    HW218030   3.276   4.255   6.380
 5711SOL     OW18031   5.037   1.440   4.764
 5711SOL    HW118032   5.040   1.376   4.841
 5711SOL    HW218033   5.072   1.529   4.793
 5712SOL     OW18034   6.860   6.238   6.598
 5712SOL    HW118035   6.935   6.304   6.601
 5712SOL    HW218036   6.836   6.210   6.691
 5713SOL     OW18037   6.979   2.567   2.731
 5713SOL    HW118038   0.039   2.532   2.783
 5713SOL    HW218039   6.946   2.497   2.668
 5714SOL     OW18040   2.172   0.742   6.269
 5714SOL    HW118041   2.162   0.805   6.346
 5714SOL    HW218042   2.110   0.665   6.281
 5715SOL     OW18043   1.710   6.574   3.168
 5715SOL    HW118044   1.677   6.487   3.204
 5715SOL    HW218045   1.723   6.566   3.069
 5716SOL     OW18046   1.707   2.725   5.056
 5716SOL    HW118047   1.796   2.730   5.102
 5716SOL    HW218048   1.720   2.732   4.957
 5717SOL     OW18049   0.483   3.450   0.002
 5717SOL    HW118050   0.434   3.366   0.024
 5717SOL    HW218051   0.570   3.451   0.050
 5718SOL     OW18052   2.164   5.055   5.028
 5718SOL    HW118053   2.232   4.987   5.056
 5718SOL    HW218054   2.081   5.009   4.998
 5719SOL     OW18055   2.955   0.183   0.121
 5719SOL    HW118056   2.997   0.236   0.047
 5719SOL    HW218057   2.983   0.221   0.209
 5720SOL     OW18058   2.079   5.649   3.961
 5720SOL    HW118059   2.145   5.681   4.029
 5720SOL    HW218060   2.010   5.592   4.006
 5721SOL     OW18061   6.939   4.077   0.483
 5721SOL    HW118062   6.883   4.160   0.476
 5721SOL    HW218063   6.895   4.014   0.548
 5722SOL     OW18064   5.621   1.434   3.885
 5722SOL    HW118065   5.537   1.381   3.870
 5722SOL    HW218066   5.674   1.393   3.959
 5723SOL     OW18067   1.547   4.554   0.722
 5723SOL    HW118068   1.574   4.464   0.688
 5723SOL    HW218069   1.477   4.594   0.662
 5724SOL     OW18070   4.990   2.148   6.474
 5724SOL    HW118071   5.008   2.242   6.446
 5724SOL    HW218072   5.014   2.086   6.400
 5725SOL     OW18073   5.461   5.486   5.882
 5725SOL    HW118074   5.503   5.448   5.799
 5725SOL    HW218075   5.526   5.548   5.926
 5726SOL     OW18076   4.395   3.589   5.657
 5726SOL    HW118077   4.476   3.638   5.624
 5726SOL    HW218078   4.326   3.587   5.585
 5727SOL     OW18079   5.913   2.244   3.846
 5727SOL    HW118080   6.012   2.241   3.855
 5727SOL    HW218081   5.878   2.154   3.822
 5728SOL     OW18082   4.993   0.745   6.015
 5728SOL    HW118083   5.042   0.818   5.968
 5728SOL    HW218084   4.913   0.718   5.961
 5729SOL     OW18085   1.003   3.165   4.923
 5729SOL    HW118086   1.009   3.171   5.023
 5729SOL    HW218087   1.091   3.134   4.886
 5730SOL     OW18088   3.958   5.394   6.884
 5730SOL    HW118089   4.053   5.368   6.867
 5730SOL    HW218090   3.915   5.422   6.798
 5731SOL     OW18091   4.035   0.964   4.580
 5731SOL    HW118092   4.094   1.043   4.597
 5731SOL    HW218093   3.997   0.970   4.488
 5732SOL     OW18094   5.804   3.888   3.871
 5732SOL    HW118095   5.719   3.895   3.923
 5732SOL    HW218096   5.857   3.973   3.882
 5733SOL     OW18097   2.580   0.072   1.148
 5733SOL    HW118098   2.596   0.061   1.050
 5733SOL    HW218099   2.539   0.162   1.165
 5734SOL     OW18100   1.692   6.381   6.526
 5734SOL    HW118101   1.689   6.471   6.568
 5734SOL    HW218102   1.754   6.321   6.578
 5735SOL     OW18103   4.932   0.818   2.029
 5735SOL    HW118104   4.981   0.906   2.025
 5735SOL    HW218105   4.834   0.836   2.038
 5736SOL     OW18106   6.277   4.885   0.033
 5736SOL    HW118107   6.296   4.788   0.022
 5736SOL    HW218108   6.220   4.917   6.974
 5737SOL     OW18109   4.604   5.465   1.630
 5737SOL    HW118110   4.506   5.449   1.647
 5737SOL    HW218111   4.614   5.539   1.563
 5738SOL     OW18112   2.507   0.872   0.525
 5738SOL    HW118113   2.411   0.884   0.501
 5738SOL    HW218114   2.555   0.827   0.450
 5739SOL     OW18115   2.336   1.110   5.840
 5739SOL    HW118116   2.353   1.013   5.860
 5739SOL    HW218117   2.375   1.165   5.914
 5740SOL     OW18118   5.021   3.409   2.549
 5740SOL    HW118119   4.996   3.350   2.626
 5740SOL    HW218120   4.992   3.367   2.463
 5741SOL     OW18121   6.996   3.604   4.045
 5741SOL    HW118122   7.005   3.517   4.093
 5741SOL    HW218123   6.924   3.598   3.977
 5742SOL     OW18124   5.516   0.219   3.612
 5742SOL    HW118125   5.560   0.202   3.524
 5742SOL    HW218126   5.484   0.132   3.650
 5743SOL     OW18127   3.267   5.448   6.706
 5743SOL    HW118128   3.311   5.527   6.663
 5743SOL    HW218129   3.312   5.364   6.675
 5744SOL     OW18130   5.111   6.868   3.298
 5744SOL    HW118131   5.090   6.959   3.335
 5744SOL    HW218132   5.033   6.807   3.312
 5745SOL     OW18133   1.204   2.960   1.777
 5745SOL    HW118134   1.182   2.863   1.789
 5745SOL    HW218135   1.303   2.970   1.765
 5746SOL     OW18136   4.915   6.658   3.298
 5746SOL    HW118137   4.879   6.647   3.205
 5746SOL    HW218138   4.887   6.580   3.354
 5747SOL     OW18139   1.735   6.878   0.636
 5747SOL    HW118140   1.665   6.810   0.656
 5747SOL    HW218141   1.788   6.897   0.719
 5748SOL     OW18142   6.907   6.198   0.880
 5748SOL    HW118143   6.851   6.208   0.797
 5748SOL    HW218144   6.851   6.159   0.953
 5749SOL     OW18145   1.899   5.604   6.307
 5749SOL    HW118146   1.832   5.587   6.235
 5749SOL    HW218147   1.981   5.548   6.291
 5750SOL     OW18148   0.082   2.906   4.654
 5750SOL    HW118149   0.144   2.835   4.686
 5750SOL    HW218150   0.060   2.969   4.729
 5751SOL     OW18151   1.133   3.907   4.795
 5751SOL    HW118152   1.160   3.813   4.817
 5751SOL    HW218153   1.180   3.971   4.856
 5752SOL     OW18154   5.067   0.712   0.971
 5752SOL    HW118155   5.034   0.802   0.997
 5752SOL    HW218156   5.014   0.678   0.893
 5753SOL     OW18157   3.856   4.157   4.961
 5753SOL    HW118158   3.955   4.144   4.967
 5753SOL    HW218159   3.817   4.091   4.896
 5754SOL     OW18160   0.722   5.761   1.331
 5754SOL    HW118161   0.673   5.805   1.406
 5754SOL    HW218162   0.660   5.748   1.254
 5755SOL     OW18163   1.207   2.536   6.502
 5755SOL    HW118164   1.235   2.595   6.425
 5755SOL    HW218165   1.111   2.511   6.492
 5756SOL     OW18166   5.958   6.179   1.886
 5756SOL    HW118167   5.890   6.178   1.812
 5756SOL    HW218168   5.977   6.085   1.914
 5757SOL     OW18169   6.809   0.907   4.195
 5757SOL    HW118170   6.827   0.947   4.105
 5757SOL    HW218171   6.880   0.935   4.259
 5758SOL     OW18172   6.048   6.799   3.159
 5758SOL    HW118173   6.094   6.888   3.149
 5758SOL    HW218174   5.954   6.813   3.190
 5759SOL     OW18175   2.885   0.237   1.384
 5759SOL    HW118176   2.880   0.280   1.294
 5759SOL    HW218177   2.884   0.138   1.374
 5760SOL     OW18178   1.717   2.674   6.949
 5760SOL    HW118179   1.762   2.745   7.003
 5760SOL    HW218180   1.684   2.713   6.863
 5761SOL     OW18181   6.307   0.212   4.936
 5761SOL    HW118182   6.334   0.140   4.872
 5761SOL    HW218183   6.235   0.267   4.894
 5762SOL     OW18184   0.192   5.471   6.897
 5762SOL    HW118185   0.096   5.471   6.868
 5762SOL    HW218186   0.222   5.377   6.914
 5763SOL     OW18187   5.795   0.165   0.191
 5763SOL    HW118188   5.723   0.232   0.172
 5763SOL    HW218189   5.787   0.134   0.285
 5764SOL     OW18190   5.101   6.353   4.029
 5764SOL    HW118191   5.020   6.412   4.035
 5764SOL    HW218192   5.074   6.258   4.037
 5765SOL     OW18193   6.092   5.146   2.413
 5765SOL    HW118194   6.136   5.168   2.500
 5765SOL    HW218195   6.108   5.049   2.392
 5766SOL     OW18196   0.171   1.089   4.468
 5766SOL    HW118197   0.215   1.126   4.549
 5766SOL    HW218198   0.192   1.147   4.389
 5767SOL     OW18199   4.119   6.483   6.732
 5767SOL    HW118200   4.043   6.453   6.791
 5767SOL    HW218201   4.202   6.435   6.758
 5768SOL     OW18202   0.655   0.632   5.283
 5768SOL    HW118203   0.602   0.577   5.220
 5768SOL    HW218204   0.718   0.691   5.232
 5769SOL     OW18205   2.030   4.070   5.459
 5769SOL    HW118206   2.098   4.026   5.400
 5769SOL    HW218207   2.035   4.030   5.550
 5770SOL     OW18208   1.739   4.286   1.820
 5770SOL    HW118209   1.768   4.243   1.905
 5770SOL    HW218210   1.819   4.303   1.762
 5771SOL     OW18211   3.571   4.915   3.973
 5771SOL    HW118212   3.572   4.882   3.878
 5771SOL    HW218213   3.477   4.920   4.006
 5772SOL     OW18214   3.083   0.342   2.317
 5772SOL    HW118215   3.096   0.356   2.416
 5772SOL    HW218216   2.988   0.313   2.300
 5773SOL     OW18217   4.918   1.406   2.446
 5773SOL    HW118218   4.849   1.438   2.380
 5773SOL    HW218219   5.009   1.435   2.416
 5774SOL     OW18220   0.523   6.773   2.027
 5774SOL    HW118221   0.474   6.703   1.976
 5774SOL    HW218222   0.530   6.856   1.972
 5775SOL     OW18223   6.387   5.444   1.303
 5775SOL    HW118224   6.346   5.534   1.318
 5775SOL    HW218225   6.329   5.391   1.241
 5776SOL     OW18226   2.542   1.167   4.111
 5776SOL    HW118227   2.490   1.109   4.048
 5776SOL    HW218228   2.496   1.169   4.200
 5777SOL     OW18229   1.526   6.417   2.386
 5777SOL    HW118230   1.468   6.498   2.380
 5777SOL    HW218231   1.530   6.372   2.296
 5778SOL     OW18232   0.672   1.939   0.670
 5778SOL    HW118233   0.758   1.989   0.671
 5778SOL    HW218234   0.691   1.841   0.675
 5779SOL     OW18235   5.928   1.251   5.923
 5779SOL    HW118236   5.993   1.188   5.879
 5779SOL    HW218237   5.978   1.320   5.975
 5780SOL     OW18238   4.876   5.333   4.246
 5780SOL    HW118239   4.870   5.368   4.340
 5780SOL    HW218240   4.792   5.353   4.197
 5781SOL     OW18241   0.824   5.086   5.195
 5781SOL    HW118242   0.918   5.115   5.180
 5781SOL    HW218243   0.788   5.044   5.111
 5782SOL     OW18244   0.158   0.529   0.560
 5782SOL    HW118245   0.177   0.610   0.505
 5782SOL    HW218246   0.084   0.549   0.625
 5783SOL     OW18247   1.785   1.959   0.882
 5783SOL    HW118248   1.720   1.997   0.948
 5783SOL    HW218249   1.873   2.005   0.891
 5784SOL     OW18250   6.889   5.891   6.496
 5784SOL    HW118251   6.841   5.974   6.523
 5784SOL    HW218252   6.905   5.892   6.398
 5785SOL     OW18253   0.839   1.284   0.552
 5785SOL    HW118254   0.799   1.205   0.505
 5785SOL    HW218255   0.861   1.355   0.485
 5786SOL     OW18256   5.765   5.171   1.598
 5786SOL    HW118257   5.701   5.236   1.557
 5786SOL    HW218258   5.815   5.216   1.671
 5787SOL     OW18259   2.395   2.778   5.993
 5787SOL    HW118260   2.412   2.835   6.074
 5787SOL    HW218261   2.450   2.811   5.917
 5788SOL     OW18262   2.458   1.014   3.601
 5788SOL    HW118263   2.536   0.952   3.593
 5788SOL    HW218264   2.373   0.961   3.611
 5789SOL     OW18265   3.786   4.738   5.899
 5789SOL    HW118266   3.842   4.663   5.863
 5789SOL    HW218267   3.720   4.767   5.830
 5790SOL     OW18268   0.882   3.241   3.545
 5790SOL    HW118269   0.785   3.244   3.522
 5790SOL    HW218270   0.936   3.253   3.462
 5791SOL     OW18271   2.231   0.776   2.924
 5791SOL    HW118272   2.269   0.684   2.913
 5791SOL    HW218273   2.295   0.832   2.976
 5792SOL     OW18274   0.153   2.305   2.442
 5792SOL    HW118275   0.198   2.394   2.430
 5792SOL    HW218276   0.055   2.319   2.459
 5793SOL     OW18277   0.243   0.407   3.968
 5793SOL    HW118278   0.218   0.310   3.959
 5793SOL    HW218279   0.161   0.463   3.966
 5794SOL     OW18280   4.832   4.455   6.815
 5794SOL    HW118281   4.838   4.430   6.718
 5794SOL    HW218282   4.737   4.479   6.837
 5795SOL     OW18283   6.085   4.292   0.049
 5795SOL    HW118284   6.144   4.304   6.986
 5795SOL    HW218285   6.020   4.218   0.031
 5796SOL     OW18286   3.780   1.940   0.537
 5796SOL    HW118287   3.725   1.859   0.554
 5796SOL    HW218288   3.785   1.957   0.439
 5797SOL     OW18289   3.113   1.961   5.681
 5797SOL    HW118290   3.103   2.022   5.603
 5797SOL    HW218291   3.025   1.950   5.727
 5798SOL     OW18292   7.011   4.613   4.139
 5798SOL    HW118293   0.063   4.547   4.169
 5798SOL    HW218294   6.981   4.590   4.046
 5799SOL     OW18295   5.698   0.200   3.852
 5799SOL    HW118296   5.699   0.130   3.923
 5799SOL    HW218297   5.625   0.180   3.786
 5800SOL     OW18298   5.677   5.388   1.024
 5800SOL    HW118299   5.714   5.319   1.087
 5800SOL    HW218300   5.582   5.363   1.002
 5801SOL     OW18301   2.384   1.404   3.310
 5801SOL    HW118302   2.417   1.477   3.251
 5801SOL    HW218303   2.345   1.443   3.393
 5802SOL     OW18304   0.817   3.398   5.417
 5802SOL    HW118305   0.805   3.299   5.413
 5802SOL    HW218306   0.900   3.424   5.368
 5803SOL     OW18307   1.613   4.594   0.328
 5803SOL    HW118308   1.649   4.502   0.317
 5803SOL    HW218309   1.572   4.604   0.419
 5804SOL     OW18310   6.299   3.385   4.948
 5804SOL    HW118311   6.315   3.286   4.953
 5804SOL    HW218312   6.386   3.433   4.936
 5805SOL     OW18313   5.340   3.367   6.860
 5805SOL    HW118314   5.268   3.398   6.798
 5805SOL    HW218315   5.331   3.414   6.948
 5806SOL     OW18316   0.328   6.505   0.127
 5806SOL    HW118317   0.292   6.439   0.193
 5806SOL    HW218318   0.408   6.467   0.081
 5807SOL     OW18319   1.981   3.479   1.899
 5807SOL    HW118320   2.075   3.469   1.933
 5807SOL    HW218321   1.959   3.576   1.890
 5808SOL     OW18322   6.835   3.403   2.940
 5808SOL    HW118323   6.769   3.457   2.888
 5808SOL    HW218324   6.789   3.323   2.979
 5809SOL     OW18325   6.609   3.419   4.090
 5809SOL    HW118326   6.517   3.382   4.106
 5809SOL    HW218327   6.652   3.440   4.178
 5810SOL     OW18328   2.582   2.282   2.378
 5810SOL    HW118329   2.504   2.304   2.436
 5810SOL    HW218330   2.550   2.233   2.296
 5811SOL     OW18331   2.286   1.529   3.555
 5811SOL    HW118332   2.333   1.607   3.596
 5811SOL    HW218333   2.254   1.467   3.626
 5812SOL     OW18334   4.253   0.603   4.968
 5812SOL    HW118335   4.243   0.571   4.874
 5812SOL    HW218336   4.319   0.546   5.016
 5813SOL     OW18337   1.590   0.450   5.255
 5813SOL    HW118338   1.675   0.400   5.270
 5813SOL    HW218339   1.514   0.386   5.246
 5814SOL     OW18340   0.252   5.121   0.920
 5814SOL    HW118341   0.153   5.114   0.923
 5814SOL    HW218342   0.289   5.106   1.012
 5815SOL     OW18343   3.248   1.761   2.827
 5815SOL    HW118344   3.333   1.755   2.879
 5815SOL    HW218345   3.262   1.722   2.735
 5816SOL     OW18346   4.857   0.618   0.799
 5816SOL    HW118347   4.775   0.562   0.785
 5816SOL    HW218348   4.907   0.626   0.713
 5817SOL     OW18349   5.120   2.176   4.920
 5817SOL    HW118350   5.112   2.228   4.835
 5817SOL    HW218351   5.173   2.228   4.987
 5818SOL     OW18352   6.062   6.168   6.147
 5818SOL    HW118353   6.028   6.083   6.188
 5818SOL    HW218354   6.162   6.167   6.148
 5819SOL     OW18355   6.176   0.238   1.194
 5819SOL    HW118356   6.140   0.222   1.285
 5819SOL    HW218357   6.174   0.336   1.174
 5820SOL     OW18358   5.263   6.365   3.183
 5820SOL    HW118359   5.231   6.412   3.265
 5820SOL    HW218360   5.188   6.361   3.116
 5821SOL     OW18361   2.821   0.728   1.767
 5821SOL    HW118362   2.873   0.674   1.833
 5821SOL    HW218363   2.882   0.792   1.721
 5822SOL     OW18364   0.003   1.351   2.215
 5822SOL    HW118365   0.012   1.252   2.204
 5822SOL    HW218366   7.008   1.394   2.125
 5823SOL     OW18367   2.771   1.979   4.123
 5823SOL    HW118368   2.735   2.050   4.062
 5823SOL    HW218369   2.742   1.996   4.217
 5824SOL     OW18370   4.969   0.231   3.897
 5824SOL    HW118371   4.950   0.317   3.943
 5824SOL    HW218372   4.916   0.226   3.812
 5825SOL     OW18373   2.556   0.696   0.853
 5825SOL    HW118374   2.481   0.732   0.797
 5825SOL    HW218375   2.615   0.770   0.883
 5826SOL     OW18376   6.703   0.718   4.567
 5826SOL    HW118377   6.663   0.781   4.634
 5826SOL    HW218378   6.658   0.732   4.479
 5827SOL     OW18379   1.090   5.613   4.878
 5827SOL    HW118380   1.084   5.681   4.952
 5827SOL    HW218381   1.184   5.580   4.871
 5828SOL     OW18382   0.118   3.411   1.814
 5828SOL    HW118383   0.176   3.350   1.868
 5828SOL    HW218384   0.146   3.408   1.718
 5829SOL     OW18385   1.435   1.447   1.834
 5829SOL    HW118386   1.398   1.356   1.818
 5829SOL    HW218387   1.514   1.440   1.894
 5830SOL     OW18388   1.893   1.760   6.022
 5830SOL    HW118389   1.864   1.719   5.936
 5830SOL    HW218390   1.836   1.839   6.042
 5831SOL     OW18391   5.490   6.492   3.129
 5831SOL    HW118392   5.403   6.459   3.167
 5831SOL    HW218393   5.480   6.586   3.099
 5832SOL     OW18394   3.706   3.714   5.054
 5832SOL    HW118395   3.658   3.784   5.000
 5832SOL    HW218396   3.793   3.750   5.085
 5833SOL     OW18397   3.527   3.175   4.913
 5833SOL    HW118398   3.576   3.156   4.828
 5833SOL    HW218399   3.449   3.235   4.894
 5834SOL     OW18400   6.042   1.138   0.548
 5834SOL    HW118401   6.035   1.228   0.589
 5834SOL    HW218402   6.121   1.135   0.486
 5835SOL     OW18403   5.084   2.499   4.034
 5835SOL    HW118404   5.031   2.584   4.040
 5835SOL    HW218405   5.075   2.461   3.942
 5836SOL     OW18406   3.402   6.252   2.383
 5836SOL    HW118407   3.321   6.257   2.325
 5836SOL    HW218408   3.457   6.173   2.358
 5837SOL     OW18409   4.583   4.564   6.441
 5837SOL    HW118410   4.609   4.469   6.456
 5837SOL    HW218411   4.529   4.596   6.520
 5838SOL     OW18412   0.770   0.885   5.596
 5838SOL    HW118413   0.789   0.878   5.694
 5838SOL    HW218414   0.846   0.930   5.550
 5839SOL     OW18415   0.220   3.260   2.757
 5839SOL    HW118416   0.211   3.231   2.853
 5839SOL    HW218417   0.164   3.201   2.699
 5840SOL     OW18418   1.958   5.170   6.618
 5840SOL    HW118419   1.887   5.164   6.548
 5840SOL    HW218420   1.933   5.112   6.695
 5841SOL     OW18421   0.061   2.114   3.468
 5841SOL    HW118422   0.058   2.214   3.465
 5841SOL    HW218423   6.988   2.078   3.490
 5842SOL     OW18424   3.657   3.543   0.689
 5842SOL    HW118425   3.613   3.533   0.600
 5842SOL    HW218426   3.753   3.515   0.683
 5843SOL     OW18427   1.278   3.512   1.887
 5843SOL    HW118428   1.351   3.547   1.828
 5843SOL    HW218429   1.207   3.581   1.896
 5844SOL     OW18430   0.912   6.306   6.575
 5844SOL    HW118431   0.932   6.366   6.653
 5844SOL    HW218432   0.989   6.308   6.511
 5845SOL     OW18433   0.910   2.357   4.319
 5845SOL    HW118434   0.864   2.429   4.370
 5845SOL    HW218435   0.960   2.297   4.381
 5846SOL     OW18436   6.858   2.941   6.306
 5846SOL    HW118437   6.940   2.903   6.264
 5846SOL    HW218438   6.780   2.930   6.245
 5847SOL     OW18439   2.336   2.870   2.976
 5847SOL    HW118440   2.323   2.965   3.006
 5847SOL    HW218441   2.353   2.813   3.056
 5848SOL     OW18442   1.413   4.302   3.626
 5848SOL    HW118443   1.507   4.312   3.595
 5848SOL    HW218444   1.399   4.209   3.660
 5849SOL     OW18445   2.430   6.731   5.679
 5849SOL    HW118446   2.331   6.727   5.667
 5849SOL    HW218447   2.465   6.816   5.640
 5850SOL     OW18448   1.017   4.684   2.847
 5850SOL    HW118449   1.053   4.606   2.900
 5850SOL    HW218450   0.918   4.688   2.858
 5851SOL     OW18451   6.432   3.330   2.106
 5851SOL    HW118452   6.390   3.420   2.123
 5851SOL    HW218453   6.384   3.285   2.030
 5852SOL     OW18454   3.966   5.464   2.851
 5852SOL    HW118455   3.876   5.473   2.893
 5852SOL    HW218456   3.955   5.441   2.754
 5853SOL     OW18457   3.512   4.510   5.886
 5853SOL    HW118458   3.434   4.448   5.892
 5853SOL    HW218459   3.524   4.557   5.974
 5854SOL     OW18460   6.916   1.244   6.062
 5854SOL    HW118461   7.003   1.276   6.026
 5854SOL    HW218462   6.842   1.267   5.998
 5855SOL     OW18463   1.749   0.720   4.854
 5855SOL    HW118464   1.793   0.767   4.777
 5855SOL    HW218465   1.652   0.709   4.835
 5856SOL     OW18466   2.010   4.793   3.756
 5856SOL    HW118467   2.103   4.789   3.719
 5856SOL    HW218468   2.003   4.730   3.834
 5857SOL     OW18469   6.822   2.885   5.278
 5857SOL    HW118470   6.912   2.855   5.309
 5857SOL    HW218471   6.824   2.902   5.180
 5858SOL     OW18472   4.068   0.728   2.550
 5858SOL    HW118473   4.091   0.682   2.464
 5858SOL    HW218474   4.110   0.819   2.551
 5859SOL     OW18475   6.186   6.443   0.998
 5859SOL    HW118476   6.129   6.376   1.046
 5859SOL    HW218477   6.196   6.525   1.055
 5860SOL     OW18478   1.584   3.451   1.011
 5860SOL    HW118479   1.618   3.466   0.918
 5860SOL    HW218480   1.518   3.523   1.035
 5861SOL     OW18481   6.255   2.464   4.191
 5861SOL    HW118482   6.194   2.412   4.132
 5861SOL    HW218483   6.271   2.555   4.150
 5862SOL     OW18484   4.722   4.161   2.801
 5862SOL    HW118485   4.815   4.192   2.783
 5862SOL    HW218486   4.703   4.078   2.749
 5863SOL     OW18487   2.201   1.464   0.005
 5863SOL    HW118488   2.146   1.434   6.945
 5863SOL    HW218489   2.271   1.528   6.990
 5864SOL     OW18490   4.798   4.788   1.156
 5864SOL    HW118491   4.803   4.771   1.254
 5864SOL    HW218492   4.709   4.757   1.121
 5865SOL     OW18493   4.071   0.524   3.018
 5865SOL    HW118494   4.150   0.499   3.076
 5865SOL    HW218495   4.016   0.593   3.066
 5866SOL     OW18496   4.091   0.249   6.556
 5866SOL    HW118497   4.177   0.276   6.513
 5866SOL    HW218498   4.040   0.190   6.493
 5867SOL     OW18499   0.214   2.483   1.541
 5867SOL    HW118500   0.270   2.542   1.482
 5867SOL    HW218501   0.236   2.502   1.636
 5868SOL     OW18502   1.583   6.822   5.187
 5868SOL    HW118503   1.636   6.772   5.255
 5868SOL    HW218504   1.611   6.918   5.187
 5869SOL     OW18505   2.783   4.736   3.288
 5869SOL    HW118506   2.737   4.807   3.234
 5869SOL    HW218507   2.717   4.665   3.312
 5870SOL     OW18508   5.283   5.019   5.073
 5870SOL    HW118509   5.316   5.018   4.979
 5870SOL    HW218510   5.208   4.953   5.083
 5871SOL     OW18511   2.954   3.232   6.877
 5871SOL    HW118512   2.905   3.199   6.958
 5871SOL    HW218513   2.901   3.211   6.795
 5872SOL     OW18514   3.362   6.058   5.273
 5872SOL    HW118515   3.360   6.150   5.236
 5872SOL    HW218516   3.345   6.061   5.372
 5873SOL     OW18517   2.610   3.752   0.056
 5873SOL    HW118518   2.698   3.796   0.038
 5873SOL    HW218519   2.585   3.767   0.151
 5874SOL     OW18520   1.660   4.086   0.950
 5874SOL    HW118521   1.618   4.060   1.037
 5874SOL    HW218522   1.638   4.017   0.880
 5875SOL     OW18523   4.343   2.051   0.069
 5875SOL    HW118524   4.311   2.016   6.998
 5875SOL    HW218525   4.272   2.040   0.138
 5876SOL     OW18526   3.251   4.712   5.659
 5876SOL    HW118527   3.264   4.780   5.731
 5876SOL    HW218528   3.339   4.689   5.618
 5877SOL     OW18529   0.168   6.707   2.731
 5877SOL    HW118530   0.171   6.776   2.804
 5877SOL    HW218531   0.095   6.641   2.751
 5878SOL     OW18532   5.174   4.495   2.453
 5878SOL    HW118533   5.089   4.456   2.486
 5878SOL    HW218534   5.188   4.469   2.357
 5879SOL     OW18535   3.543   3.252   5.755
 5879SOL    HW118536   3.570   3.194   5.832
 5879SOL    HW218537   3.621   3.265   5.694
 5880SOL     OW18538   5.678   2.559   5.639
 5880SOL    HW118539   5.593   2.577   5.591
 5880SOL    HW218540   5.693   2.630   5.709
 5881SOL     OW18541   1.352   6.237   2.563
 5881SOL    HW118542   1.386   6.329   2.541
 5881SOL    HW218543   1.355   6.223   2.662
 5882SOL     OW18544   1.493   4.811   5.511
 5882SOL    HW118545   1.394   4.808   5.498
 5882SOL    HW218546   1.518   4.756   5.591
 5883SOL     OW18547   6.590   4.872   0.757
 5883SOL    HW118548   6.626   4.795   0.809
 5883SOL    HW218549   6.665   4.935   0.736
 5884SOL     OW18550   6.486   2.184   2.963
 5884SOL    HW118551   6.392   2.170   2.993
 5884SOL    HW218552   6.516   2.276   2.988
 5885SOL     OW18553   6.614   5.718   0.178
 5885SOL    HW118554   6.565   5.805   0.165
 5885SOL    HW218555   6.548   5.646   0.198
 5886SOL     OW18556   2.126   4.269   3.603
 5886SOL    HW118557   2.202   4.310   3.655
 5886SOL    HW218558   2.048   4.255   3.664
 5887SOL     OW18559   2.416   2.696   0.588
 5887SOL    HW118560   2.431   2.615   0.645
 5887SOL    HW218561   2.418   2.778   0.645
 5888SOL     OW18562   3.384   6.560   1.162
 5888SOL    HW118563   3.326   6.526   1.237
 5888SOL    HW218564   3.425   6.647   1.189
 5889SOL     OW18565   5.928   1.124   1.939
 5889SOL    HW118566   6.014   1.107   1.891
 5889SOL    HW218567   5.869   1.044   1.931
 5890SOL     OW18568   1.597   5.382   2.585
 5890SOL    HW118569   1.574   5.383   2.488
 5890SOL    HW218570   1.561   5.298   2.627
 5891SOL     OW18571   2.409   3.505   6.965
 5891SOL    HW118572   2.394   3.600   6.940
 5891SOL    HW218573   2.333   3.473   0.004
 5892SOL     OW18574   1.411   3.103   0.295
 5892SOL    HW118575   1.436   3.085   0.200
 5892SOL    HW218576   1.400   3.016   0.343
 5893SOL     OW18577   0.762   6.478   1.222
 5893SOL    HW118578   0.748   6.574   1.199
 5893SOL    HW218579   0.679   6.441   1.264
 5894SOL     OW18580   2.367   5.565   6.661
 5894SOL    HW118581   2.347   5.604   6.572
 5894SOL    HW218582   2.359   5.635   6.732
 5895SOL     OW18583   5.307   3.961   4.019
 5895SOL    HW118584   5.401   3.963   4.053
 5895SOL    HW218585   5.303   4.002   3.928
 5896SOL     OW18586   5.770   2.145   2.543
 5896SOL    HW118587   5.864   2.117   2.561
 5896SOL    HW218588   5.757   2.154   2.444
 5897SOL     OW18589   3.930   2.386   0.156
 5897SOL    HW118590   3.919   2.366   0.253
 5897SOL    HW218591   3.940   2.484   0.143
 5898SOL     OW18592   2.108   1.340   5.921
 5898SOL    HW118593   2.113   1.418   5.984
 5898SOL    HW218594   2.085   1.257   5.972
 5899SOL     OW18595   0.181   6.483   6.449
 5899SOL    HW118596   0.128   6.468   6.532
 5899SOL    HW218597   0.259   6.420   6.447
 5900SOL     OW18598   5.828   6.254   3.280
 5900SOL    HW118599   5.790   6.345   3.285
 5900SOL    HW218600   5.763   6.187   3.316
 5901SOL     OW18601   2.708   0.840   4.989
 5901SOL    HW118602   2.770   0.813   4.916
 5901SOL    HW218603   2.617   0.858   4.951
 5902SOL     OW18604   4.530   4.114   6.110
 5902SOL    HW118605   4.534   4.014   6.113
 5902SOL    HW218606   4.532   4.145   6.015
 5903SOL     OW18607   6.186   1.956   5.603
 5903SOL    HW118608   6.212   1.934   5.697
 5903SOL    HW218609   6.122   2.033   5.603
 5904SOL     OW18610   1.162   4.484   1.941
 5904SOL    HW118611   1.106   4.564   1.920
 5904SOL    HW218612   1.193   4.441   1.857
 5905SOL     OW18613   5.782   1.256   4.468
 5905SOL    HW118614   5.729   1.194   4.526
 5905SOL    HW218615   5.870   1.214   4.447
 5906SOL     OW18616   4.942   1.099   5.773
 5906SOL    HW118617   4.905   1.171   5.714
 5906SOL    HW218618   4.881   1.086   5.851
 5907SOL     OW18619   1.749   3.642   5.303
 5907SOL    HW118620   1.758   3.554   5.257
 5907SOL    HW218621   1.692   3.632   5.384
 5908SOL     OW18622   5.403   3.319   6.501
 5908SOL    HW118623   5.319   3.351   6.457
 5908SOL    HW218624   5.482   3.357   6.454
 5909SOL     OW18625   6.489   4.607   3.785
 5909SOL    HW118626   6.575   4.626   3.738
 5909SOL    HW218627   6.424   4.568   3.720
 5910SOL     OW18628   2.707   4.688   0.945
 5910SOL    HW118629   2.643   4.614   0.963
 5910SOL    HW218630   2.656   4.769   0.915
 5911SOL     OW18631   5.280   6.935   7.007
 5911SOL    HW118632   5.276   6.841   0.024
 5911SOL    HW218633   5.371   6.954   6.970
 5912SOL     OW18634   0.020   3.079   6.069
 5912SOL    HW118635   6.939   3.096   6.079
 5912SOL    HW218636   0.046   3.002   6.127
 5913SOL     OW18637   1.319   2.020   5.327
 5913SOL    HW118638   1.253   1.945   5.337
 5913SOL    HW218639   1.391   1.993   5.263
 5914SOL     OW18640   1.965   5.847   1.299
 5914SOL    HW118641   1.970   5.877   1.204
 5914SOL    HW218642   1.869   5.847   1.329
 5915SOL     OW18643   5.078   3.195   3.313
 5915SOL    HW118644   5.031   3.172   3.399
 5915SOL    HW218645   5.156   3.134   3.301
 5916SOL     OW18646   3.159   7.013   6.237
 5916SOL    HW118647   3.118   0.080   6.202
 5916SOL    HW218648   3.124   6.935   6.185
 5917SOL     OW18649   3.855   2.991   2.579
 5917SOL    HW118650   3.842   2.984   2.481
 5917SOL    HW218651   3.935   3.048   2.599
 5918SOL     OW18652   2.265   2.708   3.885
 5918SOL    HW118653   2.264   2.803   3.916
 5918SOL    HW218654   2.327   2.655   3.943
 5919SOL     OW18655   1.510   2.817   0.181
 5919SOL    HW118656   1.494   2.734   0.128
 5919SOL    HW218657   1.572   2.796   0.257
 5920SOL     OW18658   3.052   5.557   6.903
 5920SOL    HW118659   3.118   5.545   6.830
 5920SOL    HW218660   2.970   5.503   6.883
 5921SOL     OW18661   3.853   5.221   5.378
 5921SOL    HW118662   3.943   5.185   5.353
 5921SOL    HW218663   3.846   5.316   5.348
 5922SOL     OW18664   5.767   4.224   1.699
 5922SOL    HW118665   5.701   4.250   1.769
 5922SOL    HW218666   5.722   4.222   1.610
 5923SOL     OW18667   0.190   6.958   3.355
 5923SOL    HW118668   0.167   0.031   3.319
 5923SOL    HW218669   0.252   6.912   3.291
 5924SOL     OW18670   5.387   2.389   4.157
 5924SOL    HW118671   5.436   2.380   4.070
 5924SOL    HW218672   5.428   2.464   4.210
 5925SOL     OW18673   6.351   6.027   1.088
 5925SOL    HW118674   6.327   6.098   1.021
 5925SOL    HW218675   6.351   5.938   1.043
 5926SOL     OW18676   3.668   4.975   2.169
 5926SOL    HW118677   3.603   5.050   2.175
 5926SOL    HW218678   3.637   4.909   2.100
 5927SOL     OW18679   2.361   5.424   1.998
 5927SOL    HW118680   2.319   5.507   1.959
 5927SOL    HW218681   2.410   5.376   1.925
 5928SOL     OW18682   1.092   6.415   1.897
 5928SOL    HW118683   1.047   6.394   1.984
 5928SOL    HW218684   1.025   6.411   1.823
 5929SOL     OW18685   1.684   6.933   5.553
 5929SOL    HW118686   1.633   6.999   5.609
 5929SOL    HW218687   1.630   6.848   5.544
 5930SOL     OW18688   0.072   1.588   5.174
 5930SOL    HW118689   0.014   1.591   5.093
 5930SOL    HW218690   0.029   1.531   5.245
 5931SOL     OW18691   5.369   5.359   1.371
 5931SOL    HW118692   5.409   5.328   1.457
 5931SOL    HW218693   5.425   5.431   1.331
 5932SOL     OW18694   2.268   6.686   0.005
 5932SOL    HW118695   2.300   6.591   0.012
 5932SOL    HW218696   2.319   6.743   0.070
 5933SOL     OW18697   6.158   3.428   2.830
 5933SOL    HW118698   6.231   3.490   2.802
 5933SOL    HW218699   6.159   3.419   2.930
 5934SOL     OW18700   3.875   4.005   3.147
 5934SOL    HW118701   3.865   3.959   3.059
 5934SOL    HW218702   3.786   4.039   3.178
 5935SOL     OW18703   3.627   3.025   3.082
 5935SOL    HW118704   3.712   2.987   3.120
 5935SOL    HW218705   3.554   2.958   3.091
 5936SOL     OW18706   5.734   5.958   6.330
 5936SOL    HW118707   5.810   5.984   6.389
 5936SOL    HW218708   5.748   5.998   6.239
 5937SOL     OW18709   1.015   3.740   0.640
 5937SOL    HW118710   0.952   3.796   0.695
 5937SOL    HW218711   1.103   3.732   0.688
 5938SOL     OW18712   1.829   4.037   1.344
 5938SOL    HW118713   1.905   4.001   1.290
 5938SOL    HW218714   1.824   3.988   1.431
 5939SOL     OW18715   2.875   0.458   3.022
 5939SOL    HW118716   2.840   0.533   3.078
 5939SOL    HW218717   2.914   0.495   2.938
 5940SOL     OW18718   4.415   5.376   3.792
 5940SOL    HW118719   4.350   5.442   3.753
 5940SOL    HW218720   4.508   5.412   3.782
 5941SOL     OW18721   6.256   4.529   2.461
 5941SOL    HW118722   6.255   4.568   2.369
 5941SOL    HW218723   6.255   4.429   2.455
 5942SOL     OW18724   5.892   1.659   5.458
 5942SOL    HW118725   5.987   1.633   5.480
 5942SOL    HW218726   5.847   1.582   5.412
 5943SOL     OW18727   1.379   5.644   6.884
 5943SOL    HW118728   1.358   5.738   6.914
 5943SOL    HW218729   1.329   5.580   6.942
 5944SOL     OW18730   4.422   1.905   2.374
 5944SOL    HW118731   4.342   1.858   2.411
 5944SOL    HW218732   4.498   1.896   2.439
 5945SOL     OW18733   0.169   4.690   5.805
 5945SOL    HW118734   0.137   4.707   5.898
 5945SOL    HW218735   0.213   4.772   5.769
 5946SOL     OW18736   3.741   2.817   5.291
 5946SOL    HW118737   3.725   2.737   5.232
 5946SOL    HW218738   3.832   2.810   5.332
 5947SOL     OW18739   4.259   3.504   1.594
 5947SOL    HW118740   4.221   3.581   1.644
 5947SOL    HW218741   4.204   3.486   1.513
 5948SOL     OW18742   3.959   4.830   2.833
 5948SOL    HW118743   4.001   4.814   2.922
 5948SOL    HW218744   3.859   4.828   2.843
 5949SOL     OW18745   4.759   4.799   2.200
 5949SOL    HW118746   4.779   4.866   2.272
 5949SOL    HW218747   4.703   4.726   2.237
 5950SOL     OW18748   6.324   2.473   3.715
 5950SOL    HW118749   6.313   2.483   3.616
 5950SOL    HW218750   6.415   2.437   3.736
 5951SOL     OW18751   2.162   6.020   3.735
 5951SOL    HW118752   2.119   6.071   3.810
 5951SOL    HW218753   2.172   6.079   3.656
 5952SOL     OW18754   6.785   6.803   4.714
 5952SOL    HW118755   6.873   6.768   4.683
 5952SOL    HW218756   6.796   6.857   4.797
 5953SOL     OW18757   0.231   2.983   6.438
 5953SOL    HW118758   0.276   2.929   6.508
 5953SOL    HW218759   0.277   3.071   6.428
 5954SOL     OW18760   1.003   4.894   6.891
 5954SOL    HW118761   0.917   4.845   6.877
 5954SOL    HW218762   0.984   4.985   6.928
 5955SOL     OW18763   5.267   5.760   2.602
 5955SOL    HW118764   5.367   5.760   2.598
 5955SOL    HW218765   5.231   5.702   2.529
 5956SOL     OW18766   6.345   2.463   0.134
 5956SOL    HW118767   6.359   2.559   0.159
 5956SOL    HW218768   6.426   2.429   0.086
 5957SOL     OW18769   5.084   6.729   5.934
 5957SOL    HW118770   5.033   6.804   5.892
 5957SOL    HW218771   5.161   6.765   5.987
 5958SOL     OW18772   0.622   5.634   2.363
 5958SOL    HW118773   0.701   5.604   2.417
 5958SOL    HW218774   0.547   5.568   2.373
 5959SOL     OW18775   2.004   1.498   6.329
 5959SOL    HW118776   2.045   1.509   6.239
 5959SOL    HW218777   2.063   1.441   6.386
 5960SOL     OW18778   3.672   0.575   4.675
 5960SOL    HW118779   3.697   0.482   4.702
 5960SOL    HW218780   3.748   0.636   4.693
 5961SOL     OW18781   2.902   0.722   5.880
 5961SOL    HW118782   2.949   0.759   5.960
 5961SOL    HW218783   2.962   0.654   5.836
 5962SOL     OW18784   5.739   5.327   2.518
 5962SOL    HW118785   5.656   5.275   2.496
 5962SOL    HW218786   5.808   5.311   2.447
 5963SOL     OW18787   4.027   3.868   2.281
 5963SOL    HW118788   4.041   3.783   2.332
 5963SOL    HW218789   3.994   3.939   2.343
 5964SOL     OW18790   1.231   4.143   5.854
 5964SOL    HW118791   1.314   4.159   5.801
 5964SOL    HW218792   1.205   4.226   5.903
 5965SOL     OW18793   2.311   1.643   4.556
 5965SOL    HW118794   2.398   1.692   4.569
 5965SOL    HW218795   2.329   1.545   4.550
 5966SOL     OW18796   1.393   6.670   3.996
 5966SOL    HW118797   1.389   6.750   4.056
 5966SOL    HW218798   1.350   6.592   4.042
 5967SOL     OW18799   4.858   0.097   2.163
 5967SOL    HW118800   4.957   0.085   2.168
 5967SOL    HW218801   4.835   0.193   2.178
 5968SOL     OW18802   0.465   2.070   4.276
 5968SOL    HW118803   0.552   2.085   4.323
 5968SOL    HW218804   0.415   2.157   4.270
 5969SOL     OW18805   5.717   2.823   2.607
 5969SOL    HW118806   5.752   2.751   2.547
 5969SOL    HW218807   5.775   2.904   2.597
 5970SOL     OW18808   1.786   2.492   3.463
 5970SOL    HW118809   1.862   2.496   3.398
 5970SOL    HW218810   1.703   2.460   3.416
 5971SOL     OW18811   2.415   6.844   2.528
 5971SOL    HW118812   2.338   6.829   2.466
 5971SOL    HW218813   2.498   6.805   2.488
 5972SOL     OW18814   4.422   6.230   1.344
 5972SOL    HW118815   4.353   6.212   1.274
 5972SOL    HW218816   4.499   6.278   1.302
 5973SOL     OW18817   0.987   4.682   3.587
 5973SOL    HW118818   1.015   4.654   3.679
 5973SOL    HW218819   1.008   4.610   3.522
 5974SOL     OW18820   0.839   4.007   6.012
 5974SOL    HW118821   0.849   3.999   5.913
 5974SOL    HW218822   0.783   3.932   6.047
 5975SOL     OW18823   1.998   2.550   6.849
 5975SOL    HW118824   1.981   2.579   6.943
 5975SOL    HW218825   2.096   2.534   6.837
 5976SOL     OW18826   3.252   4.051   5.290
 5976SOL    HW118827   3.213   3.966   5.327
 5976SOL    HW218828   3.247   4.049   5.190
 5977SOL     OW18829   0.985   3.278   3.276
 5977SOL    HW118830   1.084   3.269   3.281
 5977SOL    HW218831   0.948   3.203   3.221
 5978SOL     OW18832   5.491   5.374   2.881
 5978SOL    HW118833   5.427   5.401   2.953
 5978SOL    HW218834   5.538   5.455   2.845
 5979SOL     OW18835   0.139   0.775   3.126
 5979SOL    HW118836   0.143   0.749   3.223
 5979SOL    HW218837   0.086   0.859   3.117
 5980SOL     OW18838   6.571   3.733   6.428
 5980SOL    HW118839   6.560   3.694   6.337
 5980SOL    HW218840   6.484   3.775   6.457
 5981SOL     OW18841   3.913   1.152   1.541
 5981SOL    HW118842   3.920   1.228   1.476
 5981SOL    HW218843   3.981   1.083   1.517
 5982SOL     OW18844   5.962   2.349   6.661
 5982SOL    HW118845   5.959   2.449   6.659
 5982SOL    HW218846   5.952   2.317   6.755
 5983SOL     OW18847   1.187   1.008   4.730
 5983SOL    HW118848   1.246   0.986   4.808
 5983SOL    HW218849   1.234   1.073   4.670
 5984SOL     OW18850   0.129   0.135   5.484
 5984SOL    HW118851   0.119   0.042   5.517
 5984SOL    HW218852   0.054   0.191   5.518
 5985SOL     OW18853   4.660   2.660   4.493
 5985SOL    HW118854   4.758   2.641   4.500
 5985SOL    HW218855   4.608   2.591   4.544
 5986SOL     OW18856   3.345   2.850   2.323
 5986SOL    HW118857   3.404   2.772   2.306
 5986SOL    HW218858   3.297   2.875   2.239
 5987SOL     OW18859   4.215   6.776   5.322
 5987SOL    HW118860   4.281   6.768   5.247
 5987SOL    HW218861   4.221   6.868   5.361
 5988SOL     OW18862   3.958   0.944   4.132
 5988SOL    HW118863   3.928   0.914   4.222
 5988SOL    HW218864   3.924   1.037   4.115
 5989SOL     OW18865   2.728   1.057   6.466
 5989SOL    HW118866   2.811   1.083   6.417
 5989SOL    HW218867   2.710   0.960   6.450
 5990SOL     OW18868   3.052   4.785   1.950
 5990SOL    HW118869   3.019   4.831   1.867
 5990SOL    HW218870   3.039   4.686   1.940
 5991SOL     OW18871   2.937   5.170   3.780
 5991SOL    HW118872   2.982   5.226   3.850
 5991SOL    HW218873   3.001   5.155   3.705
 5992SOL     OW18874   4.690   1.050   4.068
 5992SOL    HW118875   4.783   1.081   4.085
 5992SOL    HW218876   4.676   1.035   3.971
 5993SOL     OW18877   3.591   5.361   4.565
 5993SOL    HW118878   3.659   5.310   4.512
 5993SOL    HW218879   3.629   5.450   4.591
 5994SOL     OW18880   6.989   2.495   1.905
 5994SOL    HW118881   0.036   2.435   1.953
 5994SOL    HW218882   6.942   2.444   1.833
 5995SOL     OW18883   0.135   4.537   1.263
 5995SOL    HW118884   0.115   4.626   1.304
 5995SOL    HW218885   0.146   4.547   1.164
 5996SOL     OW18886   0.955   5.132   6.342
 5996SOL    HW118887   0.877   5.109   6.401
 5996SOL    HW218888   0.921   5.166   6.254
 5997SOL     OW18889   0.480   0.547   1.922
 5997SOL    HW118890   0.420   0.496   1.860
 5997SOL    HW218891   0.533   0.483   1.978
 5998SOL     OW18892   4.250   1.976   3.255
 5998SOL    HW118893   4.172   1.945   3.200
 5998SOL    HW218894   4.326   1.913   3.244
 5999SOL     OW18895   1.683   1.424   2.576
 5999SOL    HW118896   1.708   1.376   2.660
 5999SOL    HW218897   1.633   1.508   2.599
 6000SOL     OW18898   4.273   6.303   2.941
 6000SOL    HW118899   4.369   6.296   2.915
 6000SOL    HW218900   4.217   6.256   2.872
 6001SOL     OW18901   6.317   2.225   6.746
 6001SOL    HW118902   6.356   2.274   6.668
 6001SOL    HW218903   6.388   2.168   6.788
 6002SOL     OW18904   1.652   0.522   1.953
 6002SOL    HW118905   1.712   0.527   2.033
 6002SOL    HW218906   1.704   0.486   1.876
 6003SOL     OW18907   4.682   4.283   3.948
 6003SOL    HW118908   4.638   4.252   3.863
 6003SOL    HW218909   4.616   4.335   4.002
 6004SOL     OW18910   6.959   3.956   2.331
 6004SOL    HW118911   6.985   4.015   2.407
 6004SOL    HW218912   0.002   3.974   2.252
 6005SOL     OW18913   2.853   6.070   2.515
 6005SOL    HW118914   2.780   6.001   2.510
 6005SOL    HW218915   2.938   6.031   2.480
 6006SOL     OW18916   2.421   6.143   6.938
 6006SOL    HW118917   2.379   6.053   6.936
 6006SOL    HW218918   2.386   6.195   7.016
 6007SOL     OW18919   5.279   2.483   3.642
 6007SOL    HW118920   5.210   2.456   3.709
 6007SOL    HW218921   5.234   2.518   3.560
 6008SOL     OW18922   3.999   4.421   0.005
 6008SOL    HW118923   3.988   4.520   0.008
 6008SOL    HW218924   3.955   4.380   0.085
 6009SOL     OW18925   3.098   1.798   4.499
 6009SOL    HW118926   3.109   1.705   4.536
 6009SOL    HW218927   3.034   1.849   4.557
 6010SOL     OW18928   1.794   2.540   3.192
 6010SOL    HW118929   1.869   2.511   3.133
 6010SOL    HW218930   1.717   2.478   3.181
 6011SOL     OW18931   6.651   3.476   2.738
 6011SOL    HW118932   6.682   3.564   2.702
 6011SOL    HW218933   6.604   3.425   2.665
 6012SOL     OW18934   6.760   3.287   0.897
 6012SOL    HW118935   6.743   3.343   0.816
 6012SOL    HW218936   6.778   3.193   0.870
 6013SOL     OW18937   5.889   1.411   2.434
 6013SOL    HW118938   5.974   1.439   2.389
 6013SOL    HW218939   5.902   1.410   2.533
 6014SOL     OW18940   5.499   0.154   1.216
 6014SOL    HW118941   5.528   0.249   1.229
 6014SOL    HW218942   5.512   0.127   1.121
 6015SOL     OW18943   5.088   1.817   4.559
 6015SOL    HW118944   5.070   1.833   4.656
 6015SOL    HW218945   5.095   1.905   4.512
 6016SOL     OW18946   2.106   6.977   5.270
 6016SOL    HW118947   2.014   6.986   5.309
 6016SOL    HW218948   2.144   6.888   5.296
 6017SOL     OW18949   6.557   4.425   2.672
 6017SOL    HW118950   6.551   4.325   2.660
 6017SOL    HW218951   6.465   4.461   2.688
 6018SOL     OW18952   2.601   4.922   0.801
 6018SOL    HW118953   2.597   5.016   0.834
 6018SOL    HW218954   2.550   4.915   0.715
 6019SOL     OW18955   4.550   6.779   4.256
 6019SOL    HW118956   4.615   6.785   4.332
 6019SOL    HW218957   4.525   6.871   4.226
 6020SOL     OW18958   3.533   0.495   2.698
 6020SOL    HW118959   3.631   0.509   2.682
 6020SOL    HW218960   3.484   0.580   2.679
 6021SOL     OW18961   4.160   0.506   2.679
 6021SOL    HW118962   4.099   0.474   2.752
 6021SOL    HW218963   4.117   0.582   2.631
 6022SOL     OW18964   4.285   1.655   5.485
 6022SOL    HW118965   4.254   1.656   5.390
 6022SOL    HW218966   4.362   1.592   5.494
 6023SOL     OW18967   6.458   1.817   2.562
 6023SOL    HW118968   6.466   1.895   2.500
 6023SOL    HW218969   6.494   1.735   2.518
 6024SOL     OW18970   0.802   4.540   2.397
 6024SOL    HW118971   0.824   4.638   2.400
 6024SOL    HW218972   0.872   4.491   2.345
 6025SOL     OW18973   4.293   1.733   1.838
 6025SOL    HW118974   4.206   1.774   1.810
 6025SOL    HW218975   4.333   1.787   1.912
 6026SOL     OW18976   0.767   4.730   5.240
 6026SOL    HW118977   0.729   4.774   5.321
 6026SOL    HW218978   0.839   4.788   5.201
 6027SOL     OW18979   3.075   3.561   0.672
 6027SOL    HW118980   3.142   3.625   0.709
 6027SOL    HW218981   3.078   3.476   0.724
 6028SOL     OW18982   1.636   3.907   0.043
 6028SOL    HW118983   1.618   4.002   0.019
 6028SOL    HW218984   1.628   3.850   6.978
 6029SOL     OW18985   1.236   4.861   1.318
 6029SOL    HW118986   1.206   4.833   1.409
 6029SOL    HW218987   1.243   4.781   1.259
 6030SOL     OW18988   2.131   0.320   0.783
 6030SOL    HW118989   2.205   0.376   0.821
 6030SOL    HW218990   2.116   0.241   0.842
 6031SOL     OW18991   5.462   6.998   5.181
 6031SOL    HW118992   5.376   6.948   5.178
 6031SOL    HW218993   5.449   0.073   5.144
 6032SOL     OW18994   0.486   3.314   2.723
 6032SOL    HW118995   0.389   3.296   2.735
 6032SOL    HW218996   0.530   3.322   2.812
 6033SOL     OW18997   1.054   0.221   4.503
 6033SOL    HW118998   1.131   0.277   4.475
 6033SOL    HW218999   1.087   0.136   4.544
 6034SOL     OW19000   2.148   3.943   4.777
 6034SOL    HW119001   2.208   3.953   4.856
 6034SOL    HW219002   2.152   3.848   4.744
 6035SOL     OW19003   6.077   0.549   4.069
 6035SOL    HW119004   6.147   0.556   3.998
 6035SOL    HW219005   5.993   0.592   4.036
 6036SOL     OW19006   0.557   0.912   4.355
 6036SOL    HW119007   0.541   0.991   4.415
 6036SOL    HW219008   0.584   0.833   4.411
 6037SOL     OW19009   6.638   4.804   4.827
 6037SOL    HW119010   6.660   4.899   4.807
 6037SOL    HW219011   6.620   4.794   4.925
 6038SOL     OW19012   5.047   4.000   6.500
 6038SOL    HW119013   4.965   4.041   6.541
 6038SOL    HW219014   5.020   3.925   6.440
 6039SOL     OW19015   3.264   3.680   3.491
 6039SOL    HW119016   3.328   3.725   3.554
 6039SOL    HW219017   3.190   3.743   3.469
 6040SOL     OW19018   0.710   1.890   0.027
 6040SOL    HW119019   0.704   1.944   0.110
 6040SOL    HW219020   0.631   1.909   6.986
 6041SOL     OW19021   0.531   2.541   0.358
 6041SOL    HW119022   0.601   2.612   0.354
 6041SOL    HW219023   0.453   2.574   0.411
 6042SOL     OW19024   5.480   5.263   4.152
 6042SOL    HW119025   5.537   5.187   4.184
 6042SOL    HW219026   5.408   5.228   4.093
 6043SOL     OW19027   0.443   5.001   3.887
 6043SOL    HW119028   0.472   5.064   3.959
 6043SOL    HW219029   0.514   4.998   3.816
 6044SOL     OW19030   0.998   0.550   1.392
 6044SOL    HW119031   0.950   0.592   1.316
 6044SOL    HW219032   1.082   0.507   1.359
 6045SOL     OW19033   0.284   3.869   1.037
 6045SOL    HW119034   0.265   3.780   0.996
 6045SOL    HW219035   0.228   3.880   1.120
 6046SOL     OW19036   2.872   2.895   0.229
 6046SOL    HW119037   2.961   2.923   0.265
 6046SOL    HW219038   2.825   2.975   0.193
 6047SOL     OW19039   7.012   6.644   5.157
 6047SOL    HW119040   6.939   6.579   5.176
 6047SOL    HW219041   0.083   6.604   5.186
 6048SOL     OW19042   4.862   6.445   4.792
 6048SOL    HW119043   4.907   6.459   4.703
 6048SOL    HW219044   4.766   6.472   4.786
 6049SOL     OW19045   6.184   5.252   1.659
 6049SOL    HW119046   6.272   5.234   1.615
 6049SOL    HW219047   6.113   5.196   1.616
 6050SOL     OW19048   4.895   4.104   5.427
 6050SOL    HW119049   4.952   4.140   5.354
 6050SOL    HW219050   4.849   4.179   5.474
 6051SOL     OW19051   1.652   2.324   3.115
 6051SOL    HW119052   1.585   2.310   3.041
 6051SOL    HW219053   1.727   2.259   3.105
 6052SOL     OW19054   6.677   0.905   0.193
 6052SOL    HW119055   6.692   0.884   0.289
 6052SOL    HW219056   6.739   0.978   0.165
 6053SOL     OW19057   2.203   0.236   6.312
 6053SOL    HW119058   2.278   0.258   6.374
 6053SOL    HW219059   2.172   0.320   6.266
 6054SOL     OW19060   2.493   4.844   0.275
 6054SOL    HW119061   2.473   4.754   0.313
 6054SOL    HW219062   2.563   4.889   0.330
 6055SOL     OW19063   5.249   0.538   4.114
 6055SOL    HW119064   5.334   0.551   4.064
 6055SOL    HW219065   5.172   0.564   4.056
 6056SOL     OW19066   4.858   2.823   6.055
 6056SOL    HW119067   4.875   2.772   6.139
 6056SOL    HW219068   4.772   2.873   6.063
 6057SOL     OW19069   3.480   0.772   6.089
 6057SOL    HW119070   3.422   0.800   6.013
 6057SOL    HW219071   3.572   0.752   6.055
 6058SOL     OW19072   5.662   1.917   4.167
 6058SOL    HW119073   5.640   1.844   4.232
 6058SOL    HW219074   5.709   1.878   4.088
 6059SOL     OW19075   0.194   5.356   6.227
 6059SOL    HW119076   0.171   5.356   6.129
 6059SOL    HW219077   0.165   5.443   6.267
 6060SOL     OW19078   3.529   6.457   6.006
 6060SOL    HW119079   3.568   6.394   5.939
 6060SOL    HW219080   3.560   6.550   5.987
 6061SOL     OW19081   2.355   2.025   6.381
 6061SOL    HW119082   2.294   1.947   6.390
 6061SOL    HW219083   2.390   2.051   6.471
 6062SOL     OW19084   2.296   0.756   4.548
 6062SOL    HW119085   2.269   0.793   4.459
 6062SOL    HW219086   2.374   0.809   4.583
 6063SOL     OW19087   4.105   0.194   0.020
 6063SOL    HW119088   4.193   0.232   0.049
 6063SOL    HW219089   4.087   0.219   6.942
 6064SOL     OW19090   0.948   5.910   3.654
 6064SOL    HW119091   0.882   5.861   3.598
 6064SOL    HW219092   1.026   5.850   3.674
 6065SOL     OW19093   6.456   0.515   0.858
 6065SOL    HW119094   6.401   0.468   0.789
 6065SOL    HW219095   6.534   0.457   0.884
 6066SOL     OW19096   4.412   2.385   6.971
 6066SOL    HW119097   4.476   2.318   6.934
 6066SOL    HW219098   4.354   2.341   0.022
 6067SOL     OW19099   6.024   2.582   6.883
 6067SOL    HW119100   6.054   2.598   6.789
 6067SOL    HW219101   6.044   2.487   6.908
 6068SOL     OW19102   4.958   2.430   5.023
 6068SOL    HW119103   4.900   2.351   5.040
 6068SOL    HW219104   4.939   2.467   4.932
 6069SOL     OW19105   6.133   3.770   4.266
 6069SOL    HW119106   6.038   3.745   4.281
 6069SOL    HW219107   6.138   3.855   4.212
 6070SOL     OW19108   3.578   2.050   6.592
 6070SOL    HW119109   3.615   2.106   6.667
 6070SOL    HW219110   3.632   1.966   6.584
 6071SOL     OW19111   4.785   6.283   5.202
 6071SOL    HW119112   4.830   6.202   5.164
 6071SOL    HW219113   4.830   6.365   5.168
 6072SOL     OW19114   0.012   2.011   0.791
 6072SOL    HW119115   6.980   2.097   0.773
 6072SOL    HW219116   0.046   2.011   0.884
 6073SOL     OW19117   6.890   2.485   1.467
 6073SOL    HW119118   6.916   2.428   1.545
 6073SOL    HW219119   6.916   2.580   1.485
 6074SOL     OW19120   0.528   0.438   4.838
 6074SOL    HW119121   0.432   0.465   4.846
 6074SOL    HW219122   0.585   0.519   4.831
 6075SOL     OW19123   5.232   4.343   0.014
 6075SOL    HW119124   5.254   4.335   6.933
 6075SOL    HW219125   5.208   4.437   0.035
 6076SOL     OW19126   2.374   6.497   3.459
 6076SOL    HW119127   2.442   6.569   3.474
 6076SOL    HW219128   2.285   6.538   3.440
 6077SOL     OW19129   5.809   5.799   2.299
 6077SOL    HW119130   5.854   5.887   2.281
 6077SOL    HW219131   5.710   5.810   2.290
 6078SOL     OW19132   2.629   4.899   3.141
 6078SOL    HW119133   2.570   4.832   3.096
 6078SOL    HW219134   2.581   4.986   3.150
 6079SOL     OW19135   2.112   1.113   0.383
 6079SOL    HW119136   2.107   1.179   0.308
 6079SOL    HW219137   2.043   1.134   0.452
 6080SOL     OW19138   5.625   2.100   2.794
 6080SOL    HW119139   5.639   2.024   2.730
 6080SOL    HW219140   5.635   2.187   2.745
 6081SOL     OW19141   0.417   4.426   3.448
 6081SOL    HW119142   0.417   4.328   3.429
 6081SOL    HW219143   0.323   4.457   3.464
 6082SOL     OW19144   3.927   1.758   4.593
 6082SOL    HW119145   3.982   1.715   4.522
 6082SOL    HW219146   3.830   1.753   4.568
 6083SOL     OW19147   1.865   6.706   0.282
 6083SOL    HW119148   1.776   6.674   0.315
 6083SOL    HW219149   1.900   6.776   0.344
 6084SOL     OW19150   0.891   5.173   6.055
 6084SOL    HW119151   0.833   5.184   5.974
 6084SOL    HW219152   0.892   5.258   6.107
 6085SOL     OW19153   4.678   4.276   1.391
 6085SOL    HW119154   4.669   4.237   1.482
 6085SOL    HW219155   4.682   4.202   1.323
 6086SOL     OW19156   2.817   1.574   3.415
 6086SOL    HW119157   2.891   1.511   3.394
 6086SOL    HW219158   2.748   1.570   3.343
 6087SOL     OW19159   4.935   6.697   0.052
 6087SOL    HW119160   4.941   6.763   0.127
 6087SOL    HW219161   4.879   6.735   6.995
 6088SOL     OW19162   6.789   6.994   4.957
 6088SOL    HW119163   6.713   7.008   4.894
 6088SOL    HW219164   6.853   0.053   4.950
 6089SOL     OW19165   0.232   3.019   0.106
 6089SOL    HW119166   0.257   2.926   0.135
 6089SOL    HW219167   0.168   3.058   0.172
 6090SOL     OW19168   0.200   5.675   4.157
 6090SOL    HW119169   0.297   5.666   4.177
 6090SOL    HW219170   0.171   5.770   4.168
 6091SOL     OW19171   5.864   2.351   1.874
 6091SOL    HW119172   5.930   2.329   1.802
 6091SOL    HW219173   5.829   2.443   1.860
 6092SOL     OW19174   1.629   2.530   1.189
 6092SOL    HW119175   1.689   2.568   1.118
 6092SOL    HW219176   1.548   2.491   1.146
 6093SOL     OW19177   1.268   3.044   1.160
 6093SOL    HW119178   1.273   3.143   1.150
 6093SOL    HW219179   1.236   3.022   1.253
 6094SOL     OW19180   1.199   0.721   0.919
 6094SOL    HW119181   1.266   0.676   0.978
 6094SOL    HW219182   1.220   0.819   0.914
 6095SOL     OW19183   6.952   3.957   5.623
 6095SOL    HW119184   6.983   3.975   5.530
 6095SOL    HW219185   6.855   3.934   5.623
 6096SOL     OW19186   3.876   1.767   2.722
 6096SOL    HW119187   3.890   1.699   2.650
 6096SOL    HW219188   3.866   1.721   2.810
 6097SOL     OW19189   2.954   1.938   1.799
 6097SOL    HW119190   3.012   2.008   1.756
 6097SOL    HW219191   2.885   1.982   1.855
 6098SOL     OW19192   1.745   1.580   5.820
 6098SOL    HW119193   1.651   1.613   5.818
 6098SOL    HW219194   1.756   1.514   5.894
 6099SOL     OW19195   6.105   5.158   5.090
 6099SOL    HW119196   6.192   5.119   5.059
 6099SOL    HW219197   6.030   5.101   5.059
 6100SOL     OW19198   6.321   3.054   0.418
 6100SOL    HW119199   6.234   3.025   0.456
 6100SOL    HW219200   6.345   3.144   0.454
 6101SOL     OW19201   5.950   1.699   4.304
 6101SOL    HW119202   6.002   1.673   4.222
 6101SOL    HW219203   5.866   1.646   4.308
 6102SOL     OW19204   3.384   0.554   5.294
 6102SOL    HW119205   3.456   0.506   5.344
 6102SOL    HW219206   3.425   0.600   5.215
 6103SOL     OW19207   6.028   0.547   5.609
 6103SOL    HW119208   6.087   0.616   5.567
 6103SOL    HW219209   6.079   0.499   5.681
 6104SOL     OW19210   1.489   3.006   0.570
 6104SOL    HW119211   1.545   3.035   0.648
 6104SOL    HW219212   1.549   2.973   0.496
 6105SOL     OW19213   3.395   5.311   4.304
 6105SOL    HW119214   3.444   5.391   4.339
 6105SOL    HW219215   3.462   5.243   4.272
 6106SOL     OW19216   3.404   5.626   4.784
 6106SOL    HW119217   3.362   5.549   4.737
 6106SOL    HW219218   3.387   5.618   4.883
 6107SOL     OW19219   2.292   4.837   5.123
 6107SOL    HW119220   2.261   4.742   5.119
 6107SOL    HW219221   2.323   4.858   5.216
 6108SOL     OW19222   6.843   1.944   4.345
 6108SOL    HW119223   6.865   1.924   4.250
 6108SOL    HW219224   6.852   1.861   4.400
 6109SOL     OW19225   6.487   4.421   1.750
 6109SOL    HW119226   6.422   4.495   1.731
 6109SOL    HW219227   6.579   4.450   1.723
 6110SOL     OW19228   3.185   2.113   4.130
 6110SOL    HW119229   3.256   2.063   4.179
 6110SOL    HW219230   3.185   2.084   4.034
 6111SOL     OW19231   0.754   4.945   3.103
 6111SOL    HW119232   0.763   4.846   3.106
 6111SOL    HW219233   0.657   4.970   3.097
 6112SOL     OW19234   0.827   1.733   2.415
 6112SOL    HW119235   0.737   1.763   2.383
 6112SOL    HW219236   0.896   1.755   2.346
 6113SOL     OW19237   1.671   5.534   5.245
 6113SOL    HW119238   1.652   5.442   5.210
 6113SOL    HW219239   1.611   5.553   5.322
 6114SOL     OW19240   5.505   5.465   0.636
 6114SOL    HW119241   5.564   5.410   0.578
 6114SOL    HW219242   5.459   5.407   0.703
 6115SOL     OW19243   6.167   4.801   2.584
 6115SOL    HW119244   6.258   4.834   2.561
 6115SOL    HW219245   6.101   4.836   2.517
 6116SOL     OW19246   3.694   1.333   1.338
 6116SOL    HW119247   3.756   1.410   1.348
 6116SOL    HW219248   3.717   1.281   1.256
 6117SOL     OW19249   5.509   6.838   4.218
 6117SOL    HW119250   5.414   6.868   4.215
 6117SOL    HW219251   5.528   6.780   4.138
 6118SOL     OW19252   5.694   0.055   3.028
 6118SOL    HW119253   5.731   7.007   3.095
 6118SOL    HW219254   5.734   0.145   3.043
 6119SOL     OW19255   6.318   5.087   3.844
 6119SOL    HW119256   6.380   5.009   3.836
 6119SOL    HW219257   6.246   5.065   3.910
 6120SOL     OW19258   3.177   1.033   2.967
 6120SOL    HW119259   3.088   1.042   2.923
 6120SOL    HW219260   3.172   1.071   3.060
 6121SOL     OW19261   6.812   2.216   4.420
 6121SOL    HW119262   6.807   2.208   4.519
 6121SOL    HW219263   6.793   2.127   4.378
 6122SOL     OW19264   4.666   5.590   3.520
 6122SOL    HW119265   4.568   5.603   3.535
 6122SOL    HW219266   4.697   5.652   3.449
 6123SOL     OW19267   6.406   1.313   2.420
 6123SOL    HW119268   6.394   1.267   2.333
 6123SOL    HW219269   6.344   1.273   2.488
 6124SOL     OW19270   3.108   0.213   5.874
 6124SOL    HW119271   3.023   0.261   5.855
 6124SOL    HW219272   3.183   0.279   5.880
 6125SOL     OW19273   1.671   5.460   1.840
 6125SOL    HW119274   1.574   5.453   1.816
 6125SOL    HW219275   1.727   5.429   1.764
 6126SOL     OW19276   5.232   5.582   2.380
 6126SOL    HW119277   5.252   5.484   2.392
 6126SOL    HW219278   5.133   5.595   2.376
 6127SOL     OW19279   1.897   4.424   1.637
 6127SOL    HW119280   1.863   4.374   1.558
 6127SOL    HW219281   1.977   4.478   1.611
 6128SOL     OW19282   4.904   2.439   1.192
 6128SOL    HW119283   4.944   2.348   1.179
 6128SOL    HW219284   4.807   2.430   1.212
 6129SOL     OW19285   5.893   4.145   3.943
 6129SOL    HW119286   5.964   4.206   3.907
 6129SOL    HW219287   5.876   4.167   4.039
 6130SOL     OW19288   5.527   4.188   2.686
 6130SOL    HW119289   5.578   4.269   2.658
 6130SOL    HW219290   5.431   4.211   2.699
 6131SOL     OW19291   6.801   1.014   4.965
 6131SOL    HW119292   6.874   0.959   5.006
 6131SOL    HW219293   6.825   1.036   4.870
 6132SOL     OW19294   6.574   2.580   0.340
 6132SOL    HW119295   6.601   2.636   0.262
 6132SOL    HW219296   6.493   2.619   0.383
 6133SOL     OW19297   1.684   4.057   0.467
 6133SOL    HW119298   1.726   4.010   0.389
 6133SOL    HW219299   1.600   4.102   0.437
 6134SOL     OW19300   4.819   2.955   6.859
 6134SOL    HW119301   4.895   2.995   6.910
 6134SOL    HW219302   4.733   2.979   6.904
 6135SOL     OW19303   5.418   0.087   1.591
 6135SOL    HW119304   5.431   0.145   1.511
 6135SOL    HW219305   5.320   0.079   1.611
 6136SOL     OW19306   7.004   1.528   1.759
 6136SOL    HW119307   6.934   1.528   1.687
 6136SOL    HW219308   0.063   1.469   1.731
 6137SOL     OW19309   2.633   6.887   5.901
 6137SOL    HW119310   2.660   6.798   5.863
 6137SOL    HW219311   2.594   6.943   5.828
 6138SOL     OW19312   4.755   0.168   2.934
 6138SOL    HW119313   4.693   0.224   2.988
 6138SOL    HW219314   4.820   0.227   2.885
 6139SOL     OW19315   1.803   4.756   4.424
 6139SOL    HW119316   1.803   4.705   4.510
 6139SOL    HW219317   1.879   4.724   4.366
 6140SOL     OW19318   2.129   6.608   0.856
 6140SOL    HW119319   2.206   6.573   0.909
 6140SOL    HW219320   2.161   6.682   0.796
 6141SOL     OW19321   6.217   6.652   5.751
 6141SOL    HW119322   6.245   6.717   5.821
 6141SOL    HW219323   6.151   6.695   5.690
 6142SOL     OW19324   0.856   4.698   3.148
 6142SOL    HW119325   0.908   4.684   3.232
 6142SOL    HW219326   0.823   4.609   3.115
 6143SOL     OW19327   6.586   4.525   6.657
 6143SOL    HW119328   6.505   4.583   6.652
 6143SOL    HW219329   6.668   4.583   6.659
 6144SOL     OW19330   6.916   5.383   3.757
 6144SOL    HW119331   6.817   5.396   3.752
 6144SOL    HW219332   6.955   5.448   3.823
 6145SOL     OW19333   5.146   5.752   3.438
 6145SOL    HW119334   5.154   5.820   3.365
 6145SOL    HW219335   5.097   5.791   3.515
 6146SOL     OW19336   5.302   0.978   3.185
 6146SOL    HW119337   5.301   1.034   3.268
 6146SOL    HW219338   5.359   0.897   3.200
 6147SOL     OW19339   1.764   3.726   2.935
 6147SOL    HW119340   1.752   3.644   2.992
 6147SOL    HW219341   1.772   3.806   2.994
 6148SOL     OW19342   6.327   6.136   3.879
 6148SOL    HW119343   6.324   6.208   3.948
 6148SOL    HW219344   6.328   6.177   3.788
 6149SOL     OW19345   1.790   6.662   3.838
 6149SOL    HW119346   1.770   6.757   3.864
 6149SOL    HW219347   1.707   6.607   3.847
 6150SOL     OW19348   4.355   5.455   6.018
 6150SOL    HW119349   4.422   5.405   6.073
 6150SOL    HW219350   4.282   5.489   6.078
 6151SOL     OW19351   4.338   1.509   5.818
 6151SOL    HW119352   4.268   1.578   5.838
 6151SOL    HW219353   4.297   1.434   5.766
 6152SOL     OW19354   0.179   4.567   6.389
 6152SOL    HW119355   0.162   4.509   6.310
 6152SOL    HW219356   0.219   4.513   6.463
 6153SOL     OW19357   5.020   3.712   0.379
 6153SOL    HW119358   4.951   3.660   0.329
 6153SOL    HW219359   5.099   3.654   0.397
 6154SOL     OW19360   5.210   2.817   2.717
 6154SOL    HW119361   5.190   2.884   2.788
 6154SOL    HW219362   5.307   2.792   2.721
 6155SOL     OW19363   1.474   3.756   4.317
 6155SOL    HW119364   1.407   3.718   4.381
 6155SOL    HW219365   1.443   3.845   4.285
 6156SOL     OW19366   6.783   0.401   3.845
 6156SOL    HW119367   6.815   0.335   3.778
 6156SOL    HW219368   6.804   0.494   3.814
 6157SOL     OW19369   1.760   1.862   3.189
 6157SOL    HW119370   1.684   1.872   3.253
 6157SOL    HW219371   1.823   1.793   3.224
 6158SOL     OW19372   4.608   0.985   0.442
 6158SOL    HW119373   4.599   1.084   0.436
 6158SOL    HW219374   4.577   0.953   0.532
 6159SOL     OW19375   5.041   3.095   7.007
 6159SOL    HW119376   5.031   3.025   0.060
 6159SOL    HW219377   5.136   3.099   6.976
 6160SOL     OW19378   6.563   5.030   2.017
 6160SOL    HW119379   6.661   5.042   2.030
 6160SOL    HW219380   6.520   5.119   2.004
 6161SOL     OW19381   5.507   0.472   6.445
 6161SOL    HW119382   5.458   0.553   6.413
 6161SOL    HW219383   5.469   0.391   6.401
 6162SOL     OW19384   5.917   5.410   4.123
 6162SOL    HW119385   5.838   5.444   4.174
 6162SOL    HW219386   5.944   5.321   4.159
 6163SOL     OW19387   0.088   3.985   1.810
 6163SOL    HW119388   0.144   3.930   1.873
 6163SOL    HW219389   7.009   3.966   1.827
 6164SOL     OW19390   4.434   2.991   0.480
 6164SOL    HW119391   4.402   3.053   0.551
 6164SOL    HW219392   4.479   2.912   0.523
 6165SOL     OW19393   4.370   6.324   0.641
 6165SOL    HW119394   4.359   6.307   0.739
 6165SOL    HW219395   4.406   6.416   0.627
 6166SOL     OW19396   3.339   1.701   6.618
 6166SOL    HW119397   3.399   1.681   6.695
 6166SOL    HW219398   3.393   1.712   6.535
 6167SOL     OW19399   6.644   4.783   3.345
 6167SOL    HW119400   6.733   4.765   3.304
 6167SOL    HW219401   6.589   4.700   3.345
 6168SOL     OW19402   0.971   2.446   1.787
 6168SOL    HW119403   1.007   2.480   1.874
 6168SOL    HW219404   0.871   2.444   1.791
 6169SOL     OW19405   1.993   4.256   1.958
 6169SOL    HW119406   2.079   4.211   1.981
 6169SOL    HW219407   1.978   4.333   2.020
 6170SOL     OW19408   0.083   2.369   3.561
 6170SOL    HW119409   0.048   2.303   3.627
 6170SOL    HW219410   0.110   2.453   3.609
 6171SOL     OW19411   6.667   0.623   6.110
 6171SOL    HW119412   6.642   0.713   6.075
 6171SOL    HW219413   6.767   0.613   6.108
 6172SOL     OW19414   0.976   4.451   3.796
 6172SOL    HW119415   0.888   4.434   3.840
 6172SOL    HW219416   1.039   4.376   3.818
 6173SOL     OW19417   5.638   5.832   3.424
 6173SOL    HW119418   5.714   5.812   3.362
 6173SOL    HW219419   5.555   5.847   3.371
 6174SOL     OW19420   6.270   3.058   2.186
 6174SOL    HW119421   6.340   3.087   2.251
 6174SOL    HW219422   6.274   3.117   2.105
 6175SOL     OW19423   3.248   2.269   6.180
 6175SOL    HW119424   3.186   2.230   6.111
 6175SOL    HW219425   3.247   2.369   6.172
 6176SOL     OW19426   4.082   4.491   6.163
 6176SOL    HW119427   3.988   4.464   6.141
 6176SOL    HW219428   4.101   4.472   6.259
 6177SOL     OW19429   5.743   0.004   1.214
 6177SOL    HW119430   5.654   0.040   1.242
 6177SOL    HW219431   5.761   0.032   1.120
 6178SOL     OW19432   4.028   4.845   1.614
 6178SOL    HW119433   3.951   4.892   1.656
 6178SOL    HW219434   4.044   4.758   1.660
 6179SOL     OW19435   5.957   4.954   4.934
 6179SOL    HW119436   5.983   4.874   4.988
 6179SOL    HW219437   6.017   4.962   4.855
 6180SOL     OW19438   2.904   4.475   6.569
 6180SOL    HW119439   2.992   4.454   6.611
 6180SOL    HW219440   2.847   4.393   6.571
 6181SOL     OW19441   6.238   6.186   6.923
 6181SOL    HW119442   6.335   6.167   6.912
 6181SOL    HW219443   6.226   6.280   6.955
 6182SOL     OW19444   3.494   2.620   0.544
 6182SOL    HW119445   3.405   2.591   0.577
 6182SOL    HW219446   3.528   2.554   0.477
 6183SOL     OW19447   0.098   6.839   0.605
 6183SOL    HW119448   0.095   6.741   0.585
 6183SOL    HW219449   0.117   6.889   0.520
 6184SOL     OW19450   2.589   6.543   5.598
 6184SOL    HW119451   2.522   6.605   5.639
 6184SOL    HW219452   2.647   6.594   5.534
 6185SOL     OW19453   3.628   3.169   4.662
 6185SOL    HW119454   3.570   3.128   4.591
 6185SOL    HW219455   3.722   3.138   4.649
 6186SOL     OW19456   0.309   1.608   1.931
 6186SOL    HW119457   0.354   1.656   2.005
 6186SOL    HW219458   0.354   1.520   1.916
 6187SOL     OW19459   3.586   1.065   5.886
 6187SOL    HW119460   3.499   1.115   5.886
 6187SOL    HW219461   3.586   0.998   5.811
 6188SOL     OW19462   1.298   1.261   4.940
 6188SOL    HW119463   1.347   1.290   5.023
 6188SOL    HW219464   1.314   1.163   4.925
 6189SOL     OW19465   6.596   5.757   1.136
 6189SOL    HW119466   6.636   5.752   1.227
 6189SOL    HW219467   6.636   5.685   1.078
 6190SOL     OW19468   0.529   3.369   4.781
 6190SOL    HW119469   0.480   3.300   4.835
 6190SOL    HW219470   0.627   3.346   4.779
 6191SOL     OW19471   3.355   3.644   0.258
 6191SOL    HW119472   3.272   3.611   0.302
 6191SOL    HW219473   3.374   3.590   0.176
 6192SOL     OW19474   3.109   1.616   0.588
 6192SOL    HW119475   3.099   1.697   0.530
 6192SOL    HW219476   3.022   1.569   0.596
 6193SOL     OW19477   4.182   5.846   6.850
 6193SOL    HW119478   4.093   5.819   6.889
 6193SOL    HW219479   4.173   5.857   6.751
 6194SOL     OW19480   5.517   6.985   6.896
 6194SOL    HW119481   5.489   6.991   6.800
 6194SOL    HW219482   5.604   0.016   6.909
 6195SOL     OW19483   5.988   6.050   6.486
 6195SOL    HW119484   6.075   6.086   6.517
 6195SOL    HW219485   5.914   6.090   6.540
 6196SOL     OW19486   5.662   3.623   2.665
 6196SOL    HW119487   5.721   3.555   2.708
 6196SOL    HW219488   5.578   3.580   2.634
 6197SOL     OW19489   1.040   5.699   0.961
 6197SOL    HW119490   0.940   5.698   0.972
 6197SOL    HW219491   1.064   5.760   0.885
 6198SOL     OW19492   5.882   1.432   6.597
 6198SOL    HW119493   5.818   1.362   6.629
 6198SOL    HW219494   5.935   1.397   6.521
 6199SOL     OW19495   1.989   0.076   6.032
 6199SOL    HW119496   2.041   0.037   5.955
 6199SOL    HW219497   1.937   0.156   6.000
 6200SOL     OW19498   1.262   0.451   1.737
 6200SOL    HW119499   1.280   0.496   1.825
 6200SOL    HW219500   1.189   0.499   1.689
 6201SOL     OW19501   0.446   5.055   2.888
 6201SOL    HW119502   0.449   4.970   2.836
 6201SOL    HW219503   0.467   5.036   2.984
 6202SOL     OW19504   5.517   1.426   2.816
 6202SOL    HW119505   5.573   1.409   2.735
 6202SOL    HW219506   5.531   1.353   2.883
 6203SOL     OW19507   6.342   0.600   1.868
 6203SOL    HW119508   6.419   0.536   1.859
 6203SOL    HW219509   6.347   0.647   1.956
 6204SOL     OW19510   1.369   6.469   4.990
 6204SOL    HW119511   1.284   6.518   5.007
 6204SOL    HW219512   1.350   6.371   4.981
 6205SOL     OW19513   5.302   4.286   3.723
 6205SOL    HW119514   5.393   4.326   3.725
 6205SOL    HW219515   5.234   4.356   3.747
 6206SOL     OW19516   5.669   1.766   3.722
 6206SOL    HW119517   5.681   1.857   3.761
 6206SOL    HW219518   5.759   1.728   3.697
 6207SOL     OW19519   1.107   5.727   4.365
 6207SOL    HW119520   1.073   5.659   4.299
 6207SOL    HW219521   1.060   5.714   4.453
 6208SOL     OW19522   4.155   4.304   5.637
 6208SOL    HW119523   4.059   4.290   5.613
 6208SOL    HW219524   4.165   4.300   5.736
 6209SOL     OW19525   3.255   2.472   1.726
 6209SOL    HW119526   3.339   2.417   1.725
 6209SOL    HW219527   3.192   2.433   1.793
 6210SOL     OW19528   5.088   2.064   4.400
 6210SOL    HW119529   5.037   2.127   4.342
 6210SOL    HW219530   5.183   2.094   4.406
 6211SOL     OW19531   5.694   4.326   5.028
 6211SOL    HW119532   5.686   4.233   5.063
 6211SOL    HW219533   5.614   4.347   4.971
 6212SOL     OW19534   4.946   5.086   5.343
 6212SOL    HW119535   4.871   5.070   5.280
 6212SOL    HW219536   5.015   5.014   5.332
 6213SOL     OW19537   4.126   5.879   0.283
 6213SOL    HW119538   4.088   5.824   0.358
 6213SOL    HW219539   4.186   5.823   0.227
 6214SOL     OW19540   6.016   6.669   6.742
 6214SOL    HW119541   5.986   6.733   6.672
 6214SOL    HW219542   6.079   6.602   6.702
 6215SOL     OW19543   5.685   2.542   5.217
 6215SOL    HW119544   5.695   2.491   5.131
 6215SOL    HW219545   5.632   2.487   5.282
 6216SOL     OW19546   4.494   1.772   4.309
 6216SOL    HW119547   4.432   1.753   4.385
 6216SOL    HW219548   4.454   1.738   4.224
 6217SOL     OW19549   0.071   4.609   3.065
 6217SOL    HW119550   0.112   4.550   3.135
 6217SOL    HW219551   0.137   4.679   3.037
 6218SOL     OW19552   4.620   5.883   0.042
 6218SOL    HW119553   4.554   5.904   6.987
 6218SOL    HW219554   4.672   5.801   0.016
 6219SOL     OW19555   2.120   1.184   6.452
 6219SOL    HW119556   2.148   1.271   6.492
 6219SOL    HW219557   2.194   1.150   6.394
 6220SOL     OW19558   3.508   6.556   0.439
 6220SOL    HW119559   3.462   6.506   0.513
 6220SOL    HW219560   3.461   6.539   0.353
 6221SOL     OW19561   5.496   6.140   6.783
 6221SOL    HW119562   5.514   6.185   6.696
 6221SOL    HW219563   5.406   6.168   6.817
 6222SOL     OW19564   6.679   1.539   2.067
 6222SOL    HW119565   6.704   1.538   2.164
 6222SOL    HW219566   6.752   1.583   2.014
 6223SOL     OW19567   0.063   5.060   4.110
 6223SOL    HW119568   0.075   5.134   4.044
 6223SOL    HW219569   0.087   5.092   4.202
 6224SOL     OW19570   3.620   0.273   0.151
 6224SOL    HW119571   3.717   0.294   0.151
 6224SOL    HW219572   3.598   0.213   0.074
 6225SOL     OW19573   4.576   5.712   6.556
 6225SOL    HW119574   4.566   5.796   6.503
 6225SOL    HW219575   4.573   5.633   6.494
 6226SOL     OW19576   1.317   0.780   4.414
 6226SOL    HW119577   1.293   0.865   4.366
 6226SOL    HW219578   1.234   0.743   4.458
 6227SOL     OW19579   3.039   5.127   5.354
 6227SOL    HW119580   3.062   5.048   5.411
 6227SOL    HW219581   2.997   5.096   5.269
 6228SOL     OW19582   0.623   3.300   3.484
 6228SOL    HW119583   0.544   3.238   3.492
 6228SOL    HW219584   0.590   3.394   3.472
 6229SOL     OW19585   0.342   3.078   4.111
 6229SOL    HW119586   0.434   3.072   4.148
 6229SOL    HW219587   0.337   3.155   4.047
 6230SOL     OW19588   6.940   0.937   1.612
 6230SOL    HW119589   7.007   1.012   1.609
 6230SOL    HW219590   6.909   0.924   1.706
 6231SOL     OW19591   2.487   5.180   6.387
 6231SOL    HW119592   2.530   5.135   6.465
 6231SOL    HW219593   2.419   5.246   6.419
 6232SOL     OW19594   4.119   0.270   6.226
 6232SOL    HW119595   4.147   0.194   6.167
 6232SOL    HW219596   4.197   0.302   6.279
 6233SOL     OW19597   6.758   3.383   1.187
 6233SOL    HW119598   6.778   3.344   1.097
 6233SOL    HW219599   6.841   3.423   1.225
 6234SOL     OW19600   4.886   5.070   4.613
 6234SOL    HW119601   4.913   5.166   4.603
 6234SOL    HW219602   4.944   5.027   4.682
 6235SOL     OW19603   0.561   0.344   2.480
 6235SOL    HW119604   0.570   0.250   2.447
 6235SOL    HW219605   0.524   0.402   2.407
 6236SOL     OW19606   6.722   5.381   1.742
 6236SOL    HW119607   6.640   5.327   1.722
 6236SOL    HW219608   6.699   5.478   1.740
 6237SOL     OW19609   3.446   1.297   2.326
 6237SOL    HW119610   3.475   1.244   2.407
 6237SOL    HW219611   3.394   1.376   2.355
 6238SOL     OW19612   2.302   0.369   4.012
 6238SOL    HW119613   2.389   0.357   3.963
 6238SOL    HW219614   2.295   0.464   4.042
 6239SOL     OW19615   4.801   1.064   4.630
 6239SOL    HW119616   4.847   1.153   4.626
 6239SOL    HW219617   4.857   0.997   4.582
 6240SOL     OW19618   3.842   2.972   3.998
 6240SOL    HW119619   3.840   2.882   3.955
 6240SOL    HW219620   3.752   2.993   4.035
 6241SOL     OW19621   3.365   0.140   3.656
 6241SOL    HW119622   3.301   0.148   3.579
 6241SOL    HW219623   3.429   0.217   3.655
 6242SOL     OW19624   2.777   1.878   3.380
 6242SOL    HW119625   2.795   1.789   3.423
 6242SOL    HW219626   2.790   1.871   3.281
 6243SOL     OW19627   4.448   1.711   6.329
 6243SOL    HW119628   4.526   1.753   6.283
 6243SOL    HW219629   4.473   1.621   6.364
 6244SOL     OW19630   4.602   2.746   1.825
 6244SOL    HW119631   4.635   2.698   1.906
 6244SOL    HW219632   4.583   2.842   1.848
 6245SOL     OW19633   0.394   5.137   2.005
 6245SOL    HW119634   0.348   5.098   1.926
 6245SOL    HW219635   0.463   5.072   2.038
 6246SOL     OW19636   6.838   7.013   4.275
 6246SOL    HW119637   6.773   0.044   4.216
 6246SOL    HW219638   6.861   6.925   4.234
 6247SOL     OW19639   6.116   5.956   3.920
 6247SOL    HW119640   6.193   6.015   3.897
 6247SOL    HW219641   6.119   5.874   3.864
 6248SOL     OW19642   3.744   3.034   5.125
 6248SOL    HW119643   3.737   3.111   5.189
 6248SOL    HW219644   3.781   2.954   5.173
 6249SOL     OW19645   6.085   3.355   2.301
 6249SOL    HW119646   6.043   3.366   2.211
 6249SOL    HW219647   6.072   3.438   2.355
 6250SOL     OW19648   5.775   0.077   6.543
 6250SOL    HW119649   5.752   0.172   6.565
 6250SOL    HW219650   5.851   0.075   6.478
 6251SOL     OW19651   2.340   0.253   4.353
 6251SOL    HW119652   2.301   0.184   4.292
 6251SOL    HW219653   2.438   0.262   4.335
 6252SOL     OW19654   3.121   5.382   6.471
 6252SOL    HW119655   3.155   5.413   6.560
 6252SOL    HW219656   3.192   5.394   6.402
 6253SOL     OW19657   3.803   5.565   3.562
 6253SOL    HW119658   3.738   5.546   3.636
 6253SOL    HW219659   3.790   5.659   3.530
 6254SOL     OW19660   0.476   0.203   1.512
 6254SOL    HW119661   0.404   0.142   1.544
 6254SOL    HW219662   0.560   0.151   1.495
 6255SOL     OW19663   1.262   1.763   0.744
 6255SOL    HW119664   1.334   1.809   0.798
 6255SOL    HW219665   1.280   1.665   0.742
 6256SOL     OW19666   5.680   5.946   2.496
 6256SOL    HW119667   5.750   5.945   2.567
 6256SOL    HW219668   5.637   6.037   2.493
 6257SOL     OW19669   3.043   4.585   0.944
 6257SOL    HW119670   3.120   4.589   0.880
 6257SOL    HW219671   3.074   4.609   1.036
 6258SOL     OW19672   4.331   5.425   5.239
 6258SOL    HW119673   4.295   5.373   5.161
 6258SOL    HW219674   4.428   5.441   5.226
 6259SOL     OW19675   4.322   1.253   5.019
 6259SOL    HW119676   4.361   1.254   5.111
 6259SOL    HW219677   4.315   1.158   4.987
 6260SOL     OW19678   1.691   1.627   0.131
 6260SOL    HW119679   1.766   1.651   0.070
 6260SOL    HW219680   1.613   1.687   0.114
 6261SOL     OW19681   3.416   0.249   0.553
 6261SOL    HW119682   3.426   0.151   0.570
 6261SOL    HW219683   3.499   0.283   0.507
 6262SOL     OW19684   5.975   1.123   2.552
 6262SOL    HW119685   5.974   1.149   2.456
 6262SOL    HW219686   5.882   1.103   2.583
 6263SOL     OW19687   6.303   5.850   5.921
 6263SOL    HW119688   6.378   5.857   5.856
 6263SOL    HW219689   6.258   5.939   5.931
 6264SOL     OW19690   2.623   6.325   6.668
 6264SOL    HW119691   2.534   6.296   6.633
 6264SOL    HW219692   2.615   6.350   6.764
 6265SOL     OW19693   4.701   6.670   6.662
 6265SOL    HW119694   4.607   6.685   6.632
 6265SOL    HW219695   4.717   6.572   6.675
 6266SOL     OW19696   3.167   5.057   2.891
 6266SOL    HW119697   3.084   5.111   2.880
 6266SOL    HW219698   3.240   5.095   2.834
 6267SOL     OW19699   1.645   6.515   4.832
 6267SOL    HW119700   1.724   6.533   4.890
 6267SOL    HW219701   1.566   6.491   4.889
 6268SOL     OW19702   3.032   1.862   0.421
 6268SOL    HW119703   3.085   1.917   0.486
 6268SOL    HW219704   3.088   1.841   0.341
 6269SOL     OW19705   6.965   5.393   6.806
 6269SOL    HW119706   6.948   5.379   6.708
 6269SOL    HW219707   6.895   5.345   6.859
 6270SOL     OW19708   2.107   6.088   0.965
 6270SOL    HW119709   2.033   6.030   0.999
 6270SOL    HW219710   2.130   6.156   1.033
 6271SOL     OW19711   6.692   3.013   5.507
 6271SOL    HW119712   6.722   3.103   5.476
 6271SOL    HW219713   6.705   2.946   5.434
 6272SOL     OW19714   0.105   0.529   6.993
 6272SOL    HW119715   0.028   0.490   0.026
 6272SOL    HW219716   0.177   0.555   0.042
 6273SOL     OW19717   0.972   6.688   2.170
 6273SOL    HW119718   1.066   6.655   2.174
 6273SOL    HW219719   0.970   6.783   2.202
 6274SOL     OW19720   2.885   5.462   3.654
 6274SOL    HW119721   2.804   5.408   3.631
 6274SOL    HW219722   2.862   5.529   3.725
 6275SOL     OW19723   3.118   5.913   6.404
 6275SOL    HW119724   3.131   5.909   6.503
 6275SOL    HW219725   3.122   5.820   6.367
 6276SOL     OW19726   1.252   5.718   2.406
 6276SOL    HW119727   1.327   5.756   2.461
 6276SOL    HW219728   1.227   5.784   2.335
 6277SOL     OW19729   5.322   2.844   1.358
 6277SOL    HW119730   5.291   2.840   1.453
 6277SOL    HW219731   5.258   2.794   1.299
 6278SOL     OW19732   4.080   2.205   0.410
 6278SOL    HW119733   4.141   2.228   0.486
 6278SOL    HW219734   3.997   2.261   0.415
 6279SOL     OW19735   3.490   6.814   1.273
 6279SOL    HW119736   3.534   6.888   1.224
 6279SOL    HW219737   3.559   6.753   1.312
 6280SOL     OW19738   5.321   2.558   6.158
 6280SOL    HW119739   5.364   2.496   6.093
 6280SOL    HW219740   5.373   2.558   6.243
 6281SOL     OW19741   5.233   4.178   6.338
 6281SOL    HW119742   5.169   4.146   6.408
 6281SOL    HW219743   5.300   4.239   6.380
 6282SOL     OW19744   0.517   3.588   6.075
 6282SOL    HW119745   0.421   3.606   6.097
 6282SOL    HW219746   0.523   3.548   5.984
 6283SOL     OW19747   1.863   6.426   4.326
 6283SOL    HW119748   1.942   6.370   4.351
 6283SOL    HW219749   1.871   6.453   4.231
 6284SOL     OW19750   1.253   3.394   5.157
 6284SOL    HW119751   1.293   3.387   5.066
 6284SOL    HW219752   1.191   3.317   5.173
 6285SOL     OW19753   1.286   3.197   3.025
 6285SOL    HW119754   1.284   3.291   2.994
 6285SOL    HW219755   1.273   3.135   2.947
 6286SOL     OW19756   0.818   2.328   6.714
 6286SOL    HW119757   0.796   2.406   6.772
 6286SOL    HW219758   0.786   2.345   6.621
 6287SOL     OW19759   4.891   4.733   5.397
 6287SOL    HW119760   4.799   4.763   5.422
 6287SOL    HW219761   4.896   4.721   5.298
 6288SOL     OW19762   2.594   3.712   6.009
 6288SOL    HW119763   2.674   3.771   6.013
 6288SOL    HW219764   2.513   3.763   6.038
 6289SOL     OW19765   2.129   4.338   5.524
 6289SOL    HW119766   2.170   4.429   5.521
 6289SOL    HW219767   2.063   4.328   5.450
 6290SOL     OW19768   5.920   6.845   4.154
 6290SOL    HW119769   5.981   6.865   4.078
 6290SOL    HW219770   5.907   6.746   4.161
 6291SOL     OW19771   3.660   3.652   2.166
 6291SOL    HW119772   3.647   3.728   2.230
 6291SOL    HW219773   3.750   3.612   2.180
 6292SOL     OW19774   1.456   4.353   3.909
 6292SOL    HW119775   1.430   4.354   3.813
 6292SOL    HW219776   1.443   4.260   3.945
 6293SOL     OW19777   2.997   1.806   6.314
 6293SOL    HW119778   2.910   1.789   6.360
 6293SOL    HW219779   3.051   1.872   6.366
 6294SOL     OW19780   2.055   1.170   2.377
 6294SOL    HW119781   2.152   1.191   2.389
 6294SOL    HW219782   2.046   1.086   2.324
 6295SOL     OW19783   4.344   3.146   6.104
 6295SOL    HW119784   4.334   3.053   6.137
 6295SOL    HW219785   4.275   3.205   6.146
 6296SOL     OW19786   1.069   2.809   0.014
 6296SOL    HW119787   0.995   2.845   0.071
 6296SOL    HW219788   1.054   2.712   7.013
 6297SOL     OW19789   6.324   1.276   3.668
 6297SOL    HW119790   6.253   1.331   3.712
 6297SOL    HW219791   6.362   1.326   3.591
 6298SOL     OW19792   0.655   6.541   0.844
 6298SOL    HW119793   0.612   6.613   0.899
 6298SOL    HW219794   0.610   6.454   0.862
 6299SOL     OW19795   3.993   1.688   4.054
 6299SOL    HW119796   3.950   1.646   3.974
 6299SOL    HW219797   4.030   1.617   4.113
 6300SOL     OW19798   2.614   1.675   6.619
 6300SOL    HW119799   2.663   1.608   6.675
 6300SOL    HW219800   2.563   1.737   6.678
 6301SOL     OW19801   4.160   6.098   6.998
 6301SOL    HW119802   4.102   6.082   0.061
 6301SOL    HW219803   4.187   6.010   6.958
 6302SOL     OW19804   2.175   2.793   6.686
 6302SOL    HW119805   2.093   2.796   6.630
 6302SOL    HW219806   2.158   2.842   6.772
 6303SOL     OW19807   0.451   5.710   4.579
 6303SOL    HW119808   0.532   5.681   4.527
 6303SOL    HW219809   0.407   5.629   4.619
 6304SOL     OW19810   3.265   0.675   4.662
 6304SOL    HW119811   3.333   0.608   4.632
 6304SOL    HW219812   3.175   0.648   4.627
 6305SOL     OW19813   1.105   5.558   5.745
 6305SOL    HW119814   1.104   5.643   5.796
 6305SOL    HW219815   1.108   5.578   5.647
 6306SOL     OW19816   0.422   4.613   5.053
 6306SOL    HW119817   0.501   4.666   5.022
 6306SOL    HW219818   0.420   4.525   5.005
 6307SOL     OW19819   3.479   2.854   1.961
 6307SOL    HW119820   3.381   2.837   1.973
 6307SOL    HW219821   3.509   2.922   2.027
 6308SOL     OW19822   0.298   2.036   0.082
 6308SOL    HW119823   0.381   2.018   0.028
 6308SOL    HW219824   0.257   2.122   0.051
 6309SOL     OW19825   2.443   6.326   4.728
 6309SOL    HW119826   2.449   6.400   4.794
 6309SOL    HW219827   2.472   6.240   4.772
 6310SOL     OW19828   1.317   0.104   3.197
 6310SOL    HW119829   1.326   0.202   3.181
 6310SOL    HW219830   1.404   0.067   3.231
 6311SOL     OW19831   6.317   1.189   6.571
 6311SOL    HW119832   6.277   1.209   6.660
 6311SOL    HW219833   6.405   1.142   6.584
 6312SOL     OW19834   3.224   5.686   0.072
 6312SOL    HW119835   3.176   5.649   7.009
 6312SOL    HW219836   3.176   5.660   0.155
 6313SOL     OW19837   6.417   4.525   4.217
 6313SOL    HW119838   6.349   4.547   4.146
 6313SOL    HW219839   6.505   4.565   4.191
 6314SOL     OW19840   1.732   6.578   2.448
 6314SOL    HW119841   1.822   6.535   2.448
 6314SOL    HW219842   1.661   6.508   2.436
 6315SOL     OW19843   1.980   1.541   3.626
 6315SOL    HW119844   2.024   1.459   3.663
 6315SOL    HW219845   1.932   1.589   3.700
 6316SOL     OW19846   4.248   0.980   4.947
 6316SOL    HW119847   4.246   0.939   4.856
 6316SOL    HW219848   4.230   0.910   5.016
 6317SOL     OW19849   5.535   4.690   2.612
 6317SOL    HW119850   5.579   4.643   2.535
 6317SOL    HW219851   5.604   4.715   2.680
 6318SOL     OW19852   6.475   0.034   0.247
 6318SOL    HW119853   6.560   0.085   0.252
 6318SOL    HW219854   6.471   7.001   0.160
 6319SOL     OW19855   5.204   1.875   4.214
 6319SOL    HW119856   5.219   1.935   4.135
 6319SOL    HW219857   5.115   1.896   4.255
 6320SOL     OW19858   6.161   1.691   5.540
 6320SOL    HW119859   6.230   1.639   5.490
 6320SOL    HW219860   6.206   1.764   5.592
 6321SOL     OW19861   0.168   2.286   0.044
 6321SOL    HW119862   0.221   2.359   0.000
 6321SOL    HW219863   0.072   2.297   0.022
 6322SOL     OW19864   1.239   1.367   3.063
 6322SOL    HW119865   1.326   1.406   3.091
 6322SOL    HW219866   1.220   1.392   2.968
 6323SOL     OW19867   1.935   4.850   0.774
 6323SOL    HW119868   1.841   4.833   0.746
 6323SOL    HW219869   1.972   4.767   0.817
 6324SOL     OW19870   4.913   3.650   1.295
 6324SOL    HW119871   4.921   3.551   1.308
 6324SOL    HW219872   4.828   3.670   1.248
 6325SOL     OW19873   1.311   2.955   4.052
 6325SOL    HW119874   1.272   3.002   3.973
 6325SOL    HW219875   1.362   3.021   4.108
 6326SOL     OW19876   5.309   5.360   5.552
 6326SOL    HW119877   5.402   5.361   5.588
 6326SOL    HW219878   5.269   5.269   5.564
 6327SOL     OW19879   0.465   1.148   3.568
 6327SOL    HW119880   0.379   1.198   3.578
 6327SOL    HW219881   0.542   1.208   3.593
 6328SOL     OW19882   4.749   3.754   5.330
 6328SOL    HW119883   4.709   3.672   5.288
 6328SOL    HW219884   4.842   3.733   5.360
 6329SOL     OW19885   0.768   2.066   5.943
 6329SOL    HW119886   0.688   2.101   5.992
 6329SOL    HW219887   0.835   2.031   6.009
 6330SOL     OW19888   4.770   1.392   3.994
 6330SOL    HW119889   4.810   1.480   3.966
 6330SOL    HW219890   4.825   1.351   4.066
 6331SOL     OW19891   1.063   3.296   4.108
 6331SOL    HW119892   1.099   3.289   4.015
 6331SOL    HW219893   1.025   3.387   4.123
 6332SOL     OW19894   3.131   1.538   6.602
 6332SOL    HW119895   3.189   1.619   6.614
 6332SOL    HW219896   3.140   1.505   6.508
 6333SOL     OW19897   5.775   1.294   1.187
 6333SOL    HW119898   5.831   1.355   1.243
 6333SOL    HW219899   5.765   1.205   1.233
 6334SOL     OW19900   1.450   0.956   1.406
 6334SOL    HW119901   1.467   1.034   1.346
 6334SOL    HW219902   1.368   0.974   1.461
 6335SOL     OW19903   6.505   3.279   6.295
 6335SOL    HW119904   6.445   3.238   6.226
 6335SOL    HW219905   6.588   3.223   6.304
 6336SOL     OW19906   0.551   3.680   5.532
 6336SOL    HW119907   0.550   3.742   5.611
 6336SOL    HW219908   0.639   3.688   5.484
 6337SOL     OW19909   5.223   6.905   5.095
 6337SOL    HW119910   5.225   6.828   5.159
 6337SOL    HW219911   5.148   6.967   5.119
 6338SOL     OW19912   0.898   0.690   3.202
 6338SOL    HW119913   0.826   0.700   3.270
 6338SOL    HW219914   0.949   0.775   3.194
 6339SOL     OW19915   0.424   4.294   3.830
 6339SOL    HW119916   0.400   4.221   3.766
 6339SOL    HW219917   0.467   4.369   3.780
 6340SOL     OW19918   2.644   4.285   0.690
 6340SOL    HW119919   2.663   4.221   0.763
 6340SOL    HW219920   2.689   4.372   0.709
 6341SOL     OW19921   0.295   5.838   1.797
 6341SOL    HW119922   0.277   5.807   1.890
 6341SOL    HW219923   0.342   5.926   1.801
 6342SOL     OW19924   1.574   1.169   1.738
 6342SOL    HW119925   1.605   1.083   1.697
 6342SOL    HW219926   1.631   1.191   1.817
 6343SOL     OW19927   1.160   5.690   0.499
 6343SOL    HW119928   1.250   5.671   0.459
 6343SOL    HW219929   1.110   5.753   0.439
 6344SOL     OW19930   1.215   1.066   3.990
 6344SOL    HW119931   1.169   1.010   3.921
 6344SOL    HW219932   1.191   1.162   3.976
 6345SOL     OW19933   6.011   2.603   2.778
 6345SOL    HW119934   6.002   2.698   2.809
 6345SOL    HW219935   5.939   2.582   2.712
 6346SOL     OW19936   0.309   4.094   5.013
 6346SOL    HW119937   0.248   4.050   5.079
 6346SOL    HW219938   0.273   4.079   4.921
 6347SOL     OW19939   2.262   2.319   3.514
 6347SOL    HW119940   2.244   2.401   3.568
 6347SOL    HW219941   2.332   2.264   3.559
 6348SOL     OW19942   0.908   2.551   6.087
 6348SOL    HW119943   0.856   2.465   6.088
 6348SOL    HW219944   0.997   2.536   6.044
 6349SOL     OW19945   6.264   1.209   0.825
 6349SOL    HW119946   6.238   1.160   0.908
 6349SOL    HW219947   6.297   1.300   0.850
 6350SOL     OW19948   1.141   6.086   1.420
 6350SOL    HW119949   1.108   5.992   1.427
 6350SOL    HW219950   1.197   6.108   1.499
 6351SOL     OW19951   5.854   4.241   1.375
 6351SOL    HW119952   5.858   4.189   1.290
 6351SOL    HW219953   5.946   4.246   1.415
 6352SOL     OW19954   3.814   0.866   4.735
 6352SOL    HW119955   3.738   0.928   4.757
 6352SOL    HW219956   3.868   0.905   4.661
 6353SOL     OW19957   3.768   6.280   5.494
 6353SOL    HW119958   3.855   6.298   5.538
 6353SOL    HW219959   3.779   6.206   5.428
 6354SOL     OW19960   4.980   5.370   2.224
 6354SOL    HW119961   5.062   5.365   2.167
 6354SOL    HW219962   4.976   5.290   2.284
 6355SOL     OW19963   3.581   5.479   0.427
 6355SOL    HW119964   3.534   5.432   0.351
 6355SOL    HW219965   3.637   5.413   0.477
 6356SOL     OW19966   0.313   6.001   6.052
 6356SOL    HW119967   0.293   6.084   6.000
 6356SOL    HW219968   0.239   5.935   6.038
 6357SOL     OW19969   5.345   0.768   2.499
 6357SOL    HW119970   5.385   0.855   2.471
 6357SOL    HW219971   5.249   0.766   2.473
 6358SOL     OW19972   1.102   2.151   4.845
 6358SOL    HW119973   1.115   2.225   4.780
 6358SOL    HW219974   1.125   2.183   4.937
 6359SOL     OW19975   5.247   6.117   1.521
 6359SOL    HW119976   5.282   6.050   1.456
 6359SOL    HW219977   5.168   6.163   1.481
 6360SOL     OW19978   1.268   1.950   1.197
 6360SOL    HW119979   1.261   1.851   1.186
 6360SOL    HW219980   1.249   1.975   1.291
 6361SOL     OW19981   0.545   1.415   0.792
 6361SOL    HW119982   0.512   1.384   0.881
 6361SOL    HW219983   0.619   1.481   0.805
 6362SOL     OW19984   1.646   5.519   0.629
 6362SOL    HW119985   1.679   5.538   0.721
 6362SOL    HW219986   1.658   5.422   0.609
 6363SOL     OW19987   1.934   3.849   2.039
 6363SOL    HW119988   1.997   3.789   2.088
 6363SOL    HW219989   1.863   3.882   2.101
 6364SOL     OW19990   2.711   2.398   4.702
 6364SOL    HW119991   2.703   2.346   4.787
 6364SOL    HW219992   2.643   2.471   4.702
 6365SOL     OW19993   5.761   6.809   3.216
 6365SOL    HW119994   5.754   6.710   3.227
 6365SOL    HW219995   5.696   6.854   3.276
 6366SOL     OW19996   6.013   0.944   5.140
 6366SOL    HW119997   6.092   0.947   5.201
 6366SOL    HW219998   5.935   0.903   5.188
 6367SOL     OW19999   1.020   2.220   3.064
 6367SOL    HW120000   0.942   2.282   3.054
 6367SOL    HW220001   1.041   2.209   3.161
 6368SOL     OW20002   4.854   3.852   4.739
 6368SOL    HW120003   4.869   3.914   4.816
 6368SOL    HW220004   4.852   3.758   4.772
 6369SOL     OW20005   4.561   5.152   0.387
 6369SOL    HW120006   4.486   5.087   0.377
 6369SOL    HW220007   4.632   5.132   0.320
 6370SOL     OW20008   5.854   3.956   4.329
 6370SOL    HW120009   5.797   4.000   4.398
 6370SOL    HW220010   5.835   3.858   4.328
 6371SOL     OW20011   5.533   4.773   1.255
 6371SOL    HW120012   5.588   4.747   1.175
 6371SOL    HW220013   5.437   4.750   1.238
 6372SOL     OW20014   6.404   1.749   1.605
 6372SOL    HW120015   6.413   1.651   1.589
 6372SOL    HW220016   6.493   1.787   1.629
 6373SOL     OW20017   4.868   3.293   2.327
 6373SOL    HW120018   4.857   3.217   2.263
 6373SOL    HW220019   4.779   3.330   2.352
 6374SOL     OW20020   4.567   3.660   6.526
 6374SOL    HW120021   4.527   3.607   6.452
 6374SOL    HW220022   4.530   3.630   6.614
 6375SOL     OW20023   4.620   1.197   1.876
 6375SOL    HW120024   4.628   1.285   1.924
 6375SOL    HW220025   4.658   1.206   1.783
 6376SOL     OW20026   2.752   0.044   0.656
 6376SOL    HW120027   2.723   0.117   0.594
 6376SOL    HW220028   2.849   0.056   0.680
 6377SOL     OW20029   0.490   0.598   0.130
 6377SOL    HW120030   0.578   0.645   0.126
 6377SOL    HW220031   0.419   0.657   0.092
 6378SOL     OW20032   5.882   4.410   2.245
 6378SOL    HW120033   5.882   4.509   2.261
 6378SOL    HW220034   5.871   4.363   2.332
 6379SOL     OW20035   1.773   5.092   6.428
 6379SOL    HW120036   1.733   5.011   6.469
 6379SOL    HW220037   1.794   5.074   6.331
 6380SOL     OW20038   0.840   3.886   5.234
 6380SOL    HW120039   0.882   3.882   5.143
 6380SOL    HW220040   0.863   3.803   5.285
 6381SOL     OW20041   4.110   3.588   0.402
 6381SOL    HW120042   4.178   3.517   0.419
 6381SOL    HW220043   4.039   3.553   0.341
 6382SOL     OW20044   1.472   1.723   0.459
 6382SOL    HW120045   1.475   1.823   0.447
 6382SOL    HW220046   1.553   1.693   0.508
 6383SOL     OW20047   2.414   2.510   2.187
 6383SOL    HW120048   2.425   2.500   2.286
 6383SOL    HW220049   2.500   2.485   2.141
 6384SOL     OW20050   6.432   2.549   2.225
 6384SOL    HW120051   6.456   2.491   2.304
 6384SOL    HW220052   6.333   2.558   2.219
 6385SOL     OW20053   6.900   4.070   6.890
 6385SOL    HW120054   6.891   4.123   6.806
 6385SOL    HW220055   6.867   3.977   6.874
 6386SOL     OW20056   2.832   2.800   0.907
 6386SOL    HW120057   2.746   2.832   0.867
 6386SOL    HW220058   2.873   2.732   0.846
 6387SOL     OW20059   7.008   6.652   6.918
 6387SOL    HW120060   0.090   6.663   6.928
 6387SOL    HW220061   6.962   6.684   7.001
 6388SOL     OW20062   5.416   5.302   2.260
 6388SOL    HW120063   5.510   5.315   2.293
 6388SOL    HW220064   5.356   5.285   2.337
 6389SOL     OW20065   6.818   6.596   0.873
 6389SOL    HW120066   6.800   6.618   0.777
 6389SOL    HW220067   6.913   6.621   0.895
 6390SOL     OW20068   5.647   0.985   0.124
 6390SOL    HW120069   5.680   0.933   0.202
 6390SOL    HW220070   5.650   1.083   0.145
 6391SOL     OW20071   1.045   1.848   4.986
 6391SOL    HW120072   1.141   1.870   4.966
 6391SOL    HW220073   1.019   1.891   5.072
 6392SOL     OW20074   4.288   6.879   4.016
 6392SOL    HW120075   4.339   6.928   3.945
 6392SOL    HW220076   4.212   6.830   3.974
 6393SOL     OW20077   1.451   4.958   0.055
 6393SOL    HW120078   1.455   4.888   7.001
 6393SOL    HW220079   1.429   4.916   0.143
 6394SOL     OW20080   1.760   5.078   1.647
 6394SOL    HW120081   1.810   5.097   1.732
 6394SOL    HW220082   1.699   5.000   1.661
 6395SOL     OW20083   2.035   3.920   3.850
 6395SOL    HW120084   2.001   3.871   3.930
 6395SOL    HW220085   2.051   3.855   3.775
 6396SOL     OW20086   1.776   3.031   5.250
 6396SOL    HW120087   1.824   3.119   5.249
 6396SOL    HW220088   1.829   2.965   5.304
 6397SOL     OW20089   5.896   4.013   4.967
 6397SOL    HW120090   5.898   3.913   4.974
 6397SOL    HW220091   5.973   4.052   5.017
 6398SOL     OW20092   2.722   0.051   2.665
 6398SOL    HW120093   2.778   6.985   2.660
 6398SOL    HW220094   2.646   0.044   2.601
 6399SOL     OW20095   3.455   6.815   0.209
 6399SOL    HW120096   3.366   6.838   0.247
 6399SOL    HW220097   3.468   6.716   0.212
 6400SOL     OW20098   0.705   6.380   2.959
 6400SOL    HW120099   0.666   6.290   2.940
 6400SOL    HW220100   0.645   6.451   2.922
 6401SOL     OW20101   4.179   5.263   2.938
 6401SOL    HW120102   4.131   5.201   2.999
 6401SOL    HW220103   4.117   5.336   2.909
 6402SOL     OW20104   2.972   4.531   5.902
 6402SOL    HW120105   3.016   4.561   5.817
 6402SOL    HW220106   2.874   4.524   5.889
 6403SOL     OW20107   5.555   5.237   5.632
 6403SOL    HW120108   5.550   5.142   5.599
 6403SOL    HW220109   5.633   5.282   5.588
 6404SOL     OW20110   4.645   6.372   1.315
 6404SOL    HW120111   4.742   6.388   1.295
 6404SOL    HW220112   4.626   6.392   1.411
 6405SOL     OW20113   4.849   1.137   2.801
 6405SOL    HW120114   4.852   1.044   2.765
 6405SOL    HW220115   4.790   1.193   2.744
 6406SOL     OW20116   0.484   3.624   3.141
 6406SOL    HW120117   0.546   3.558   3.183
 6406SOL    HW220118   0.421   3.577   3.080
 6407SOL     OW20119   0.438   6.504   2.581
 6407SOL    HW120120   0.369   6.467   2.519
 6407SOL    HW220121   0.431   6.604   2.583
 6408SOL     OW20122   7.006   1.049   2.238
 6408SOL    HW120123   6.994   0.950   2.243
 6408SOL    HW220124   6.981   1.080   2.146
 6409SOL     OW20125   5.105   4.436   3.827
 6409SOL    HW120126   5.021   4.382   3.828
 6409SOL    HW220127   5.082   4.532   3.842
 6410SOL     OW20128   2.141   1.139   6.980
 6410SOL    HW120129   2.135   1.203   0.039
 6410SOL    HW220130   2.232   1.143   6.939
 6411SOL     OW20131   0.564   2.864   2.416
 6411SOL    HW120132   0.506   2.901   2.343
 6411SOL    HW220133   0.540   2.908   2.502
 6412SOL     OW20134   3.815   1.123   6.962
 6412SOL    HW120135   3.830   1.027   6.941
 6412SOL    HW220136   3.887   1.155   0.007
 6413SOL     OW20137   4.747   6.044   3.535
 6413SOL    HW120138   4.683   6.091   3.596
 6413SOL    HW220139   4.710   6.045   3.442
 6414SOL     OW20140   2.500   0.485   0.659
 6414SOL    HW120141   2.448   0.402   0.678
 6414SOL    HW220142   2.531   0.526   0.744
 6415SOL     OW20143   0.899   2.146   4.009
 6415SOL    HW120144   0.939   2.226   4.054
 6415SOL    HW220145   0.800   2.147   4.021
 6416SOL     OW20146   2.734   4.839   0.098
 6416SOL    HW120147   2.809   4.782   0.131
 6416SOL    HW220148   2.651   4.818   0.150
 6417SOL     OW20149   4.206   2.584   6.937
 6417SOL    HW120150   4.221   2.638   6.854
 6417SOL    HW220151   4.259   2.500   6.932
 6418SOL     OW20152   4.990   4.422   0.461
 6418SOL    HW120153   4.972   4.335   0.507
 6418SOL    HW220154   4.981   4.410   0.362
 6419SOL     OW20155   1.234   6.679   6.339
 6419SOL    HW120156   1.320   6.718   6.306
 6419SOL    HW220157   1.171   6.753   6.361
 6420SOL     OW20158   2.666   4.607   4.177
 6420SOL    HW120159   2.624   4.684   4.129
 6420SOL    HW220160   2.637   4.521   4.134
 6421SOL     OW20161   4.216   0.566   2.292
 6421SOL    HW120162   4.148   0.607   2.231
 6421SOL    HW220163   4.217   0.467   2.278
 6422SOL     OW20164   6.679   2.444   4.720
 6422SOL    HW120165   6.655   2.460   4.624
 6422SOL    HW220166   6.740   2.516   4.752
 6423SOL     OW20167   1.142   4.938   4.595
 6423SOL    HW120168   1.221   4.974   4.544
 6423SOL    HW220169   1.167   4.852   4.638
 6424SOL     OW20170   6.940   4.349   6.107
 6424SOL    HW120171   0.012   4.392   6.094
 6424SOL    HW220172   6.872   4.419   6.127
 6425SOL     OW20173   6.663   6.292   4.325
 6425SOL    HW120174   6.657   6.335   4.416
 6425SOL    HW220175   6.757   6.296   4.292
 6426SOL     OW20176   4.627   5.087   4.747
 6426SOL    HW120177   4.711   5.101   4.694
 6426SOL    HW220178   4.593   4.994   4.732
 6427SOL     OW20179   3.805   2.896   3.251
 6427SOL    HW120180   3.824   2.920   3.347
 6427SOL    HW220181   3.859   2.816   3.225
 6428SOL     OW20182   5.788   2.694   0.213
 6428SOL    HW120183   5.735   2.714   0.131
 6428SOL    HW220184   5.749   2.614   0.259
 6429SOL     OW20185   2.263   1.178   5.364
 6429SOL    HW120186   2.251   1.080   5.350
 6429SOL    HW220187   2.209   1.228   5.297
 6430SOL     OW20188   6.160   0.781   5.469
 6430SOL    HW120189   6.181   0.835   5.387
 6430SOL    HW220190   6.245   0.763   5.519
 6431SOL     OW20191   3.373   4.937   2.279
 6431SOL    HW120192   3.297   4.872   2.286
 6431SOL    HW220193   3.359   4.997   2.200
 6432SOL     OW20194   5.097   3.241   6.070
 6432SOL    HW120195   5.080   3.154   6.115
 6432SOL    HW220196   5.195   3.251   6.054
 6433SOL     OW20197   3.355   4.676   5.243
 6433SOL    HW120198   3.397   4.595   5.283
 6433SOL    HW220199   3.425   4.748   5.233
 6434SOL     OW20200   5.340   5.558   6.219
 6434SOL    HW120201   5.421   5.545   6.162
 6434SOL    HW220202   5.323   5.656   6.231
 6435SOL     OW20203   4.334   1.336   1.265
 6435SOL    HW120204   4.350   1.435   1.260
 6435SOL    HW220205   4.296   1.314   1.355
 6436SOL     OW20206   6.763   3.342   3.462
 6436SOL    HW120207   6.755   3.273   3.390
 6436SOL    HW220208   6.692   3.325   3.531
 6437SOL     OW20209   1.405   2.374   5.725
 6437SOL    HW120210   1.474   2.305   5.704
 6437SOL    HW220211   1.451   2.461   5.744
 6438SOL     OW20212   0.542   5.027   0.136
 6438SOL    HW120213   0.522   5.095   0.065
 6438SOL    HW220214   0.515   4.936   0.104
 6439SOL     OW20215   5.250   6.370   2.646
 6439SOL    HW120216   5.258   6.276   2.615
 6439SOL    HW220217   5.339   6.415   2.641
 6440SOL     OW20218   2.949   1.425   6.153
 6440SOL    HW120219   2.956   1.406   6.251
 6440SOL    HW220220   2.996   1.510   6.131
 6441SOL     OW20221   6.710   2.056   2.326
 6441SOL    HW120222   6.769   2.003   2.387
 6441SOL    HW220223   6.730   2.032   2.231
 6442SOL     OW20224   2.288   1.929   4.770
 6442SOL    HW120225   2.298   2.000   4.839
 6442SOL    HW220226   2.192   1.917   4.747
 6443SOL     OW20227   4.086   2.865   6.519
 6443SOL    HW120228   4.117   2.809   6.441
 6443SOL    HW220229   4.014   2.816   6.568
 6444SOL     OW20230   7.005   4.377   4.894
 6444SOL    HW120231   0.077   4.359   4.852
 6444SOL    HW220232   6.968   4.462   4.857
 6445SOL     OW20233   2.881   3.439   3.613
 6445SOL    HW120234   2.851   3.442   3.708
 6445SOL    HW220235   2.975   3.406   3.609
 6446SOL     OW20236   1.179   1.743   6.589
 6446SOL    HW120237   1.166   1.782   6.680
 6446SOL    HW220238   1.261   1.782   6.546
 6447SOL     OW20239   5.552   3.555   2.250
 6447SOL    HW120240   5.636   3.606   2.271
 6447SOL    HW220241   5.511   3.592   2.166
 6448SOL     OW20242   4.097   4.570   1.028
 6448SOL    HW120243   4.063   4.543   0.937
 6448SOL    HW220244   4.092   4.669   1.037
 6449SOL     OW20245   3.555   5.010   0.442
 6449SOL    HW120246   3.559   4.963   0.354
 6449SOL    HW220247   3.621   5.085   0.443
 6450SOL     OW20248   6.301   4.476   6.567
 6450SOL    HW120249   6.232   4.546   6.549
 6450SOL    HW220250   6.381   4.491   6.508
 6451SOL     OW20251   4.105   2.672   1.587
 6451SOL    HW120252   4.118   2.771   1.581
 6451SOL    HW220253   4.012   2.652   1.616
 6452SOL     OW20254   3.751   1.908   4.757
 6452SOL    HW120255   3.829   1.846   4.756
 6452SOL    HW220256   3.761   1.976   4.684
 6453SOL     OW20257   2.281   0.508   2.806
 6453SOL    HW120258   2.210   0.442   2.829
 6453SOL    HW220259   2.365   0.460   2.781
 6454SOL     OW20260   5.158   2.640   3.444
 6454SOL    HW120261   5.092   2.716   3.448
 6454SOL    HW220262   5.186   2.626   3.350
 6455SOL     OW20263   6.844   2.928   4.335
 6455SOL    HW120264   6.925   2.977   4.368
 6455SOL    HW220265   6.806   2.976   4.256
 6456SOL     OW20266   6.063   1.755   2.083
 6456SOL    HW120267   6.093   1.666   2.116
 6456SOL    HW220268   6.143   1.811   2.060
 6457SOL     OW20269   3.285   6.781   2.824
 6457SOL    HW120270   3.313   6.738   2.738
 6457SOL    HW220271   3.253   6.874   2.805
 6458SOL     OW20272   0.088   6.848   4.321
 6458SOL    HW120273   0.185   6.827   4.332
 6458SOL    HW220274   0.052   6.800   4.241
 6459SOL     OW20275   0.697   3.435   3.220
 6459SOL    HW120276   0.794   3.460   3.229
 6459SOL    HW220277   0.678   3.354   3.275
 6460SOL     OW20278   0.832   5.399   6.919
 6460SOL    HW120279   0.762   5.419   6.850
 6460SOL    HW220280   0.809   5.446   7.004
 6461SOL     OW20281   1.277   6.421   0.856
 6461SOL    HW120282   1.326   6.454   0.938
 6461SOL    HW220283   1.311   6.470   0.776
 6462SOL     OW20284   1.810   3.700   4.827
 6462SOL    HW120285   1.823   3.767   4.754
 6462SOL    HW220286   1.824   3.608   4.790
 6463SOL     OW20287   4.569   3.291   1.076
 6463SOL    HW120288   4.558   3.193   1.094
 6463SOL    HW220289   4.544   3.343   1.157
 6464SOL     OW20290   1.011   3.992   3.986
 6464SOL    HW120291   0.939   4.056   4.015
 6464SOL    HW220292   0.969   3.911   3.946
 6465SOL     OW20293   3.212   0.820   4.015
 6465SOL    HW120294   3.210   0.721   4.001
 6465SOL    HW220295   3.157   0.865   3.944
 6466SOL     OW20296   6.957   4.795   6.961
 6466SOL    HW120297   6.964   4.884   6.916
 6466SOL    HW220298   7.010   4.796   0.029
 6467SOL     OW20299   1.833   2.361   6.501
 6467SOL    HW120300   1.768   2.387   6.430
 6467SOL    HW220301   1.925   2.359   6.462
 6468SOL     OW20302   1.866   0.441   1.183
 6468SOL    HW120303   1.789   0.471   1.239
 6468SOL    HW220304   1.949   0.438   1.239
 6469SOL     OW20305   1.875   1.212   1.688
 6469SOL    HW120306   1.827   1.239   1.771
 6469SOL    HW220307   1.935   1.134   1.707
 6470SOL     OW20308   6.559   2.136   6.869
 6470SOL    HW120309   6.635   2.107   6.810
 6470SOL    HW220310   6.572   2.099   6.961
 6471SOL     OW20311   0.722   6.217   5.807
 6471SOL    HW120312   0.811   6.224   5.764
 6471SOL    HW220313   0.722   6.142   5.873
 6472SOL     OW20314   0.020   6.110   2.997
 6472SOL    HW120315   0.014   6.196   3.048
 6472SOL    HW220316   0.031   6.034   3.061
 6473SOL     OW20317   2.224   1.179   3.255
 6473SOL    HW120318   2.292   1.252   3.245
 6473SOL    HW220319   2.141   1.216   3.298
 6474SOL     OW20320   3.621   6.092   4.440
 6474SOL    HW120321   3.665   6.182   4.447
 6474SOL    HW220322   3.588   6.079   4.347
 6475SOL     OW20323   5.985   5.649   2.426
 6475SOL    HW120324   5.958   5.615   2.516
 6475SOL    HW220325   5.922   5.721   2.397
 6476SOL     OW20326   3.888   2.748   6.648
 6476SOL    HW120327   3.902   2.655   6.680
 6476SOL    HW220328   3.795   2.758   6.611
 6477SOL     OW20329   0.240   6.501   1.558
 6477SOL    HW120330   0.178   6.579   1.571
 6477SOL    HW220331   0.325   6.533   1.517
 6478SOL     OW20332   2.713   5.868   1.142
 6478SOL    HW120333   2.645   5.941   1.149
 6478SOL    HW220334   2.704   5.807   1.220
 6479SOL     OW20335   4.470   5.709   3.220
 6479SOL    HW120336   4.416   5.767   3.159
 6479SOL    HW220337   4.425   5.701   3.309
 6480SOL     OW20338   4.021   1.421   6.117
 6480SOL    HW120339   4.110   1.462   6.134
 6480SOL    HW220340   4.019   1.381   6.025
 6481SOL     OW20341   3.798   2.914   2.102
 6481SOL    HW120342   3.774   2.818   2.117
 6481SOL    HW220343   3.882   2.918   2.046
 6482SOL     OW20344   5.130   3.932   6.145
 6482SOL    HW120345   5.118   3.922   6.046
 6482SOL    HW220346   5.153   4.027   6.166
 6483SOL     OW20347   2.359   5.952   4.882
 6483SOL    HW120348   2.449   5.996   4.877
 6483SOL    HW220349   2.336   5.936   4.978
 6484SOL     OW20350   3.469   1.341   3.187
 6484SOL    HW120351   3.440   1.334   3.092
 6484SOL    HW220352   3.556   1.391   3.191
 6485SOL     OW20353   2.597   6.100   4.864
 6485SOL    HW120354   2.659   6.061   4.797
 6485SOL    HW220355   2.649   6.133   4.943
 6486SOL     OW20356   0.388   4.825   2.676
 6486SOL    HW120357   0.416   4.729   2.672
 6486SOL    HW220358   0.436   4.876   2.604
 6487SOL     OW20359   6.482   4.871   3.865
 6487SOL    HW120360   6.461   4.882   3.962
 6487SOL    HW220361   6.492   4.774   3.844
 6488SOL     OW20362   3.576   5.149   4.162
 6488SOL    HW120363   3.566   5.061   4.209
 6488SOL    HW220364   3.626   5.137   4.077
 6489SOL     OW20365   5.303   3.031   5.253
 6489SOL    HW120366   5.317   3.086   5.171
 6489SOL    HW220367   5.208   3.037   5.281
 6490SOL     OW20368   2.075   2.291   0.644
 6490SOL    HW120369   2.024   2.282   0.559
 6490SOL    HW220370   2.136   2.212   0.655
 6491SOL     OW20371   1.655   6.802   1.984
 6491SOL    HW120372   1.685   6.773   2.075
 6491SOL    HW220373   1.585   6.738   1.951
 6492SOL     OW20374   4.082   3.360   3.967
 6492SOL    HW120375   4.078   3.432   3.898
 6492SOL    HW220376   4.086   3.401   4.058
 6493SOL     OW20377   1.180   4.356   4.135
 6493SOL    HW120378   1.254   4.416   4.107
 6493SOL    HW220379   1.138   4.391   4.219
 6494SOL     OW20380   6.675   1.048   2.173
 6494SOL    HW120381   6.734   1.091   2.104
 6494SOL    HW220382   6.690   0.949   2.172
 6495SOL     OW20383   6.548   6.887   2.969
 6495SOL    HW120384   6.552   6.974   3.018
 6495SOL    HW220385   6.523   6.814   3.033
 6496SOL     OW20386   3.266   2.106   1.924
 6496SOL    HW120387   3.195   2.093   1.994
 6496SOL    HW220388   3.352   2.133   1.968
 6497SOL     OW20389   6.999   1.047   0.357
 6497SOL    HW120390   6.926   1.084   0.414
 6497SOL    HW220391   0.011   0.958   0.393
 6498SOL     OW20392   2.221   4.139   4.144
 6498SOL    HW120393   2.268   4.212   4.194
 6498SOL    HW220394   2.144   4.106   4.198
 6499SOL     OW20395   4.756   2.762   3.706
 6499SOL    HW120396   4.676   2.713   3.740
 6499SOL    HW220397   4.758   2.758   3.606
 6500SOL     OW20398   1.551   3.619   3.188
 6500SOL    HW120399   1.496   3.680   3.132
 6500SOL    HW220400   1.524   3.629   3.284
 6501SOL     OW20401   5.890   1.810   2.972
 6501SOL    HW120402   5.814   1.746   2.958
 6501SOL    HW220403   5.857   1.904   2.962
 6502SOL     OW20404   0.271   4.024   1.492
 6502SOL    HW120405   0.234   3.938   1.457
 6502SOL    HW220406   0.198   4.077   1.535
 6503SOL     OW20407   0.170   3.331   5.829
 6503SOL    HW120408   0.155   3.248   5.776
 6503SOL    HW220409   0.157   3.411   5.770
 6504SOL     OW20410   3.655   6.801   6.232
 6504SOL    HW120411   3.717   6.754   6.295
 6504SOL    HW220412   3.633   6.891   6.267
 6505SOL     OW20413   0.194   6.148   0.480
 6505SOL    HW120414   0.228   6.095   0.558
 6505SOL    HW220415   0.264   6.213   0.451
 6506SOL     OW20416   0.749   4.123   2.348
 6506SOL    HW120417   0.811   4.083   2.280
 6506SOL    HW220418   0.795   4.128   2.436
 6507SOL     OW20419   4.462   5.417   0.363
 6507SOL    HW120420   4.501   5.325   0.373
 6507SOL    HW220421   4.530   5.485   0.392
 6508SOL     OW20422   0.402   0.097   3.516
 6508SOL    HW120423   0.355   0.019   3.476
 6508SOL    HW220424   0.425   0.163   3.445
 6509SOL     OW20425   2.417   1.618   6.978
 6509SOL    HW120426   2.417   1.681   6.901
 6509SOL    HW220427   2.463   1.661   0.039
 6510SOL     OW20428   3.153   5.996   4.953
 6510SOL    HW120429   3.116   6.063   4.888
 6510SOL    HW220430   3.239   5.959   4.918
 6511SOL     OW20431   2.989   2.578   0.796
 6511SOL    HW120432   2.979   2.482   0.824
 6511SOL    HW220433   3.029   2.582   0.705
 6512SOL     OW20434   4.907   1.498   0.387
 6512SOL    HW120435   4.948   1.409   0.367
 6512SOL    HW220436   4.916   1.558   0.308
 6513SOL     OW20437   2.519   4.586   2.603
 6513SOL    HW120438   2.489   4.522   2.533
 6513SOL    HW220439   2.606   4.627   2.577
 6514SOL     OW20440   5.036   6.351   5.465
 6514SOL    HW120441   5.029   6.448   5.487
 6514SOL    HW220442   4.945   6.309   5.472
 6515SOL     OW20443   1.045   4.875   3.041
 6515SOL    HW120444   0.994   4.850   3.123
 6515SOL    HW220445   1.011   4.822   2.963
 6516SOL     OW20446   6.678   3.001   2.452
 6516SOL    HW120447   6.658   2.923   2.512
 6516SOL    HW220448   6.651   2.978   2.358
 6517SOL     OW20449   6.793   3.316   0.472
 6517SOL    HW120450   6.716   3.378   0.490
 6517SOL    HW220451   6.837   3.342   0.387
 6518SOL     OW20452   0.901   1.122   2.283
 6518SOL    HW120453   0.898   1.214   2.321
 6518SOL    HW220454   0.821   1.070   2.313
 6519SOL     OW20455   1.137   0.567   3.254
 6519SOL    HW120456   1.189   0.612   3.327
 6519SOL    HW220457   1.044   0.606   3.250
 6520SOL     OW20458   0.413   5.779   0.582
 6520SOL    HW120459   0.326   5.769   0.534
 6520SOL    HW220460   0.456   5.690   0.592
 6521SOL     OW20461   2.002   4.622   3.993
 6521SOL    HW120462   1.911   4.597   3.959
 6521SOL    HW220463   2.060   4.541   3.994
 6522SOL     OW20464   2.540   2.553   5.283
 6522SOL    HW120465   2.623   2.602   5.310
 6522SOL    HW220466   2.477   2.549   5.360
 6523SOL     OW20467   6.013   6.455   0.520
 6523SOL    HW120468   5.945   6.383   0.537
 6523SOL    HW220469   6.057   6.480   0.606
 6524SOL     OW20470   2.894   2.915   1.221
 6524SOL    HW120471   2.816   2.910   1.158
 6524SOL    HW220472   2.925   2.822   1.243
 6525SOL     OW20473   1.185   4.999   3.543
 6525SOL    HW120474   1.232   5.087   3.541
 6525SOL    HW220475   1.251   4.926   3.522
 6526SOL     OW20476   0.680   6.112   0.506
 6526SOL    HW120477   0.671   6.176   0.581
 6526SOL    HW220478   0.683   6.018   0.541
 6527SOL     OW20479   6.045   1.676   0.471
 6527SOL    HW120480   6.099   1.757   0.496
 6527SOL    HW220481   6.067   1.650   0.377
 6528SOL     OW20482   4.180   6.357   0.110
 6528SOL    HW120483   4.216   6.281   0.164
 6528SOL    HW220484   4.253   6.395   0.053
 6529SOL     OW20485   5.212   6.709   2.120
 6529SOL    HW120486   5.204   6.696   2.021
 6529SOL    HW220487   5.259   6.795   2.139
 6530SOL     OW20488   0.688   2.584   3.250
 6530SOL    HW120489   0.628   2.610   3.174
 6530SOL    HW220490   0.646   2.613   3.337
 6531SOL     OW20491   3.785   3.804   4.645
 6531SOL    HW120492   3.730   3.769   4.569
 6531SOL    HW220493   3.800   3.902   4.634
 6532SOL     OW20494   1.420   6.399   0.428
 6532SOL    HW120495   1.365   6.326   0.388
 6532SOL    HW220496   1.509   6.363   0.456
 6533SOL     OW20497   4.893   4.479   1.920
 6533SOL    HW120498   4.929   4.487   1.827
 6533SOL    HW220499   4.936   4.401   1.966
 6534SOL     OW20500   6.886   4.414   3.049
 6534SOL    HW120501   6.817   4.459   2.993
 6534SOL    HW220502   6.976   4.447   3.024
 6535SOL     OW20503   5.000   3.716   5.422
 6535SOL    HW120504   5.003   3.618   5.442
 6535SOL    HW220505   5.015   3.768   5.505
 6536SOL     OW20506   0.705   4.440   5.497
 6536SOL    HW120507   0.690   4.387   5.413
 6536SOL    HW220508   0.618   4.458   5.541
 6537SOL     OW20509   6.305   5.336   3.758
 6537SOL    HW120510   6.325   5.241   3.783
 6537SOL    HW220511   6.263   5.383   3.836
 6538SOL     OW20512   1.078   2.577   4.637
 6538SOL    HW120513   1.018   2.552   4.712
 6538SOL    HW220514   1.025   2.589   4.553
 6539SOL     OW20515   4.756   6.619   6.233
 6539SOL    HW120516   4.696   6.549   6.271
 6539SOL    HW220517   4.783   6.682   6.306
 6540SOL     OW20518   0.036   2.793   5.375
 6540SOL    HW120519   0.127   2.754   5.360
 6540SOL    HW220520   0.037   2.849   5.458
 6541SOL     OW20521   5.020   1.893   5.662
 6541SOL    HW120522   5.024   1.924   5.567
 6541SOL    HW220523   5.087   1.820   5.677
 6542SOL     OW20524   1.384   3.758   3.022
 6542SOL    HW120525   1.398   3.696   2.945
 6542SOL    HW220526   1.406   3.851   2.993
 6543SOL     OW20527   4.197   1.537   5.031
 6543SOL    HW120528   4.152   1.571   4.948
 6543SOL    HW220529   4.218   1.440   5.019
 6544SOL     OW20530   0.406   6.929   0.930
 6544SOL    HW120531   0.417   7.016   0.979
 6544SOL    HW220532   0.311   6.920   0.900
 6545SOL     OW20533   4.662   6.665   1.270
 6545SOL    HW120534   4.602   6.737   1.234
 6545SOL    HW220535   4.607   6.589   1.303
 6546SOL     OW20536   5.545   4.505   6.239
 6546SOL    HW120537   5.502   4.442   6.303
 6546SOL    HW220538   5.623   4.461   6.196
 6547SOL     OW20539   0.946   6.170   5.365
 6547SOL    HW120540   0.855   6.167   5.407
 6547SOL    HW220541   0.992   6.083   5.379
 6548SOL     OW20542   0.140   1.281   5.940
 6548SOL    HW120543   0.081   1.239   5.871
 6548SOL    HW220544   0.179   1.210   5.999
 6549SOL     OW20545   4.080   1.475   3.108
 6549SOL    HW120546   4.097   1.522   3.194
 6549SOL    HW220547   4.136   1.392   3.103
 6550SOL     OW20548   6.016   6.314   3.085
 6550SOL    HW120549   5.957   6.318   3.166
 6550SOL    HW220550   5.990   6.387   3.022
 6551SOL     OW20551   2.796   4.104   0.888
 6551SOL    HW120552   2.724   4.042   0.921
 6551SOL    HW220553   2.834   4.155   0.965
 6552SOL     OW20554   2.028   5.170   7.014
 6552SOL    HW120555   2.020   5.182   0.096
 6552SOL    HW220556   1.965   5.099   6.984
 6553SOL     OW20557   0.679   1.631   3.449
 6553SOL    HW120558   0.696   1.549   3.394
 6553SOL    HW220559   0.758   1.692   3.444
 6554SOL     OW20560   1.303   2.480   4.315
 6554SOL    HW120561   1.380   2.445   4.368
 6554SOL    HW220562   1.296   2.579   4.327
 6555SOL     OW20563   0.143   3.992   3.772
 6555SOL    HW120564   0.080   3.953   3.839
 6555SOL    HW220565   0.123   3.955   3.681
 6556SOL     OW20566   4.769   3.009   2.815
 6556SOL    HW120567   4.799   2.978   2.906
 6556SOL    HW220568   4.710   2.940   2.774
 6557SOL     OW20569   2.094   0.567   2.424
 6557SOL    HW120570   2.033   0.489   2.411
 6557SOL    HW220571   2.104   0.616   2.337
 6558SOL     OW20572   5.216   6.638   0.069
 6558SOL    HW120573   5.229   6.548   0.027
 6558SOL    HW220574   5.119   6.660   0.071
 6559SOL     OW20575   6.496   2.984   5.853
 6559SOL    HW120576   6.569   2.921   5.877
 6559SOL    HW220577   6.410   2.952   5.891
 6560SOL     OW20578   6.935   5.075   0.303
 6560SOL    HW120579   6.946   4.983   0.265
 6560SOL    HW220580   0.005   5.103   0.345
 6561SOL     OW20581   3.031   4.340   0.341
 6561SOL    HW120582   3.037   4.279   0.419
 6561SOL    HW220583   3.119   4.384   0.326
 6562SOL     OW20584   5.327   2.795   1.627
 6562SOL    HW120585   5.299   2.839   1.713
 6562SOL    HW220586   5.348   2.699   1.644
 6563SOL     OW20587   6.174   5.246   5.350
 6563SOL    HW120588   6.194   5.344   5.348
 6563SOL    HW220589   6.145   5.215   5.259
 6564SOL     OW20590   5.910   3.019   2.562
 6564SOL    HW120591   5.941   3.043   2.470
 6564SOL    HW220592   5.960   3.074   2.629
 6565SOL     OW20593   5.245   6.729   3.106
 6565SOL    HW120594   5.221   6.749   3.011
 6565SOL    HW220595   5.178   6.769   3.167
 6566SOL     OW20596   5.177   5.482   3.766
 6566SOL    HW120597   5.268   5.512   3.735
 6566SOL    HW220598   5.115   5.479   3.688
 6567SOL     OW20599   3.746   0.544   2.055
 6567SOL    HW120600   3.676   0.473   2.061
 6567SOL    HW220601   3.824   0.519   2.113
 6568SOL     OW20602   4.243   1.460   0.925
 6568SOL    HW120603   4.275   1.533   0.864
 6568SOL    HW220604   4.317   1.394   0.940
 6569SOL     OW20605   0.965   4.728   4.362
 6569SOL    HW120606   0.943   4.741   4.266
 6569SOL    HW220607   0.952   4.814   4.412
 6570SOL     OW20608   4.342   6.747   2.227
 6570SOL    HW120609   4.422   6.746   2.286
 6570SOL    HW220610   4.281   6.821   2.255
 6571SOL     OW20611   2.824   6.204   3.516
 6571SOL    HW120612   2.843   6.136   3.588
 6571SOL    HW220613   2.793   6.157   3.434
 6572SOL     OW20614   1.713   5.862   3.853
 6572SOL    HW120615   1.631   5.860   3.911
 6572SOL    HW220616   1.743   5.769   3.833
 6573SOL     OW20617   0.750   2.186   3.221
 6573SOL    HW120618   0.777   2.281   3.206
 6573SOL    HW220619   0.656   2.173   3.190
 6574SOL     OW20620   1.361   4.564   2.421
 6574SOL    HW120621   1.327   4.621   2.346
 6574SOL    HW220622   1.304   4.580   2.502
 6575SOL     OW20623   0.224   1.378   3.614
 6575SOL    HW120624   0.246   1.439   3.691
 6575SOL    HW220625   0.243   1.424   3.528
 6576SOL     OW20626   4.426   6.710   1.566
 6576SOL    HW120627   4.369   6.672   1.494
 6576SOL    HW220628   4.450   6.805   1.543
 6577SOL     OW20629   3.578   1.334   4.115
 6577SOL    HW120630   3.645   1.265   4.142
 6577SOL    HW220631   3.497   1.290   4.077
 6578SOL     OW20632   0.980   4.573   0.391
 6578SOL    HW120633   0.987   4.567   0.491
 6578SOL    HW220634   0.941   4.488   0.355
 6579SOL     OW20635   0.937   0.748   3.861
 6579SOL    HW120636   0.843   0.718   3.843
 6579SOL    HW220637   0.998   0.668   3.856
 6580SOL     OW20638   2.360   1.884   0.487
 6580SOL    HW120639   2.277   1.842   0.523
 6580SOL    HW220640   2.406   1.821   0.424
 6581SOL     OW20641   0.516   2.325   0.901
 6581SOL    HW120642   0.521   2.340   0.802
 6581SOL    HW220643   0.443   2.261   0.922
 6582SOL     OW20644   5.639   1.216   3.028
 6582SOL    HW120645   5.540   1.206   3.020
 6582SOL    HW220646   5.679   1.131   3.062
 6583SOL     OW20647   3.248   4.464   0.096
 6583SOL    HW120648   3.341   4.500   0.101
 6583SOL    HW220649   3.248   4.369   0.127
 6584SOL     OW20650   4.506   2.082   6.535
 6584SOL    HW120651   4.540   2.173   6.560
 6584SOL    HW220652   4.406   2.081   6.543
 6585SOL     OW20653   5.734   0.136   2.188
 6585SOL    HW120654   5.791   0.108   2.265
 6585SOL    HW220655   5.734   0.236   2.181
 6586SOL     OW20656   6.922   1.264   6.390
 6586SOL    HW120657   6.875   1.343   6.351
 6586SOL    HW220658   0.000   1.289   6.410
 6587SOL     OW20659   2.493   4.962   4.900
 6587SOL    HW120660   2.468   4.885   4.959
 6587SOL    HW220661   2.581   4.943   4.856
 6588SOL     OW20662   0.349   2.325   0.561
 6588SOL    HW120663   0.320   2.274   0.480
 6588SOL    HW220664   0.424   2.277   0.605
 6589SOL     OW20665   6.881   6.587   2.286
 6589SOL    HW120666   6.869   6.611   2.382
 6589SOL    HW220667   6.829   6.504   2.266
 6590SOL     OW20668   0.864   6.367   4.471
 6590SOL    HW120669   0.915   6.302   4.415
 6590SOL    HW220670   0.827   6.321   4.551
 6591SOL     OW20671   6.146   3.870   3.744
 6591SOL    HW120672   6.053   3.843   3.719
 6591SOL    HW220673   6.197   3.894   3.662
 6592SOL     OW20674   6.291   6.501   3.711
 6592SOL    HW120675   6.198   6.529   3.734
 6592SOL    HW220676   6.292   6.404   3.686
 6593SOL     OW20677   1.752   1.245   1.931
 6593SOL    HW120678   1.815   1.301   1.984
 6593SOL    HW220679   1.712   1.175   1.989
 6594SOL     OW20680   5.065   6.947   6.797
 6594SOL    HW120681   5.131   6.954   6.872
 6594SOL    HW220682   4.978   6.913   6.831
 6595SOL     OW20683   0.913   1.942   5.199
 6595SOL    HW120684   0.837   1.889   5.236
 6595SOL    HW220685   0.940   2.013   5.264
 6596SOL     OW20686   5.104   0.796   2.387
 6596SOL    HW120687   5.058   0.883   2.373
 6596SOL    HW220688   5.036   0.723   2.394
 6597SOL     OW20689   0.506   4.772   1.203
 6597SOL    HW120690   0.526   4.676   1.223
 6597SOL    HW220691   0.407   4.787   1.205
 6598SOL     OW20692   1.912   4.902   3.399
 6598SOL    HW120693   1.857   4.832   3.444
 6598SOL    HW220694   1.941   4.870   3.309
 6599SOL     OW20695   0.633   5.582   5.981
 6599SOL    HW120696   0.575   5.657   6.012
 6599SOL    HW220697   0.642   5.586   5.882
 6600SOL     OW20698   4.462   0.069   5.600
 6600SOL    HW120699   4.494   0.145   5.543
 6600SOL    HW220700   4.475   0.092   5.696
 6601SOL     OW20701   1.545   2.148   1.744
 6601SOL    HW120702   1.543   2.245   1.723
 6601SOL    HW220703   1.638   2.121   1.768
 6602SOL     OW20704   0.095   5.541   1.719
 6602SOL    HW120705   0.052   5.457   1.751
 6602SOL    HW220706   0.194   5.536   1.736
 6603SOL     OW20707   0.061   4.104   2.696
 6603SOL    HW120708   6.987   4.098   2.656
 6603SOL    HW220709   0.130   4.089   2.625
 6604SOL     OW20710   1.828   5.666   3.230
 6604SOL    HW120711   1.790   5.596   3.170
 6604SOL    HW220712   1.837   5.628   3.323
 6605SOL     OW20713   6.993   5.889   1.127
 6605SOL    HW120714   6.961   5.935   1.044
 6605SOL    HW220715   6.991   5.953   1.204
 6606SOL     OW20716   1.734   3.368   2.802
 6606SOL    HW120717   1.778   3.388   2.890
 6606SOL    HW220718   1.642   3.406   2.801
 6607SOL     OW20719   6.192   3.223   3.837
 6607SOL    HW120720   6.157   3.130   3.842
 6607SOL    HW220721   6.289   3.221   3.811
 6608SOL     OW20722   1.645   6.639   5.983
 6608SOL    HW120723   1.678   6.602   6.070
 6608SOL    HW220724   1.575   6.578   5.945
 6609SOL     OW20725   4.077   1.639   6.476
 6609SOL    HW120726   4.022   1.697   6.537
 6609SOL    HW220727   4.040   1.646   6.383
 6610SOL     OW20728   2.898   5.225   1.174
 6610SOL    HW120729   2.968   5.166   1.133
 6610SOL    HW220730   2.917   5.236   1.272
 6611SOL     OW20731   2.793   1.830   4.879
 6611SOL    HW120732   2.856   1.867   4.811
 6611SOL    HW220733   2.699   1.836   4.845
 6612SOL     OW20734   0.222   0.374   6.748
 6612SOL    HW120735   0.133   0.418   6.754
 6612SOL    HW220736   0.270   0.382   6.835
 6613SOL     OW20737   4.502   6.862   0.315
 6613SOL    HW120738   4.435   6.874   0.389
 6613SOL    HW220739   4.585   6.913   0.336
 6614SOL     OW20740   4.060   5.284   0.571
 6614SOL    HW120741   4.083   5.315   0.479
 6614SOL    HW220742   4.045   5.185   0.569
 6615SOL     OW20743   3.726   5.762   6.058
 6615SOL    HW120744   3.795   5.700   6.021
 6615SOL    HW220745   3.767   5.820   6.128
 6616SOL     OW20746   4.037   1.197   0.117
 6616SOL    HW120747   4.059   1.266   0.048
 6616SOL    HW220748   3.998   1.241   0.197
 6617SOL     OW20749   3.527   0.670   4.042
 6617SOL    HW120750   3.455   0.703   3.981
 6617SOL    HW220751   3.606   0.731   4.036
 6618SOL     OW20752   5.949   2.528   4.115
 6618SOL    HW120753   5.926   2.433   4.095
 6618SOL    HW220754   5.891   2.589   4.061
 6619SOL     OW20755   4.908   5.395   3.885
 6619SOL    HW120756   4.977   5.420   3.817
 6619SOL    HW220757   4.927   5.304   3.921
 6620SOL     OW20758   1.389   2.773   3.207
 6620SOL    HW120759   1.401   2.677   3.235
 6620SOL    HW220760   1.326   2.776   3.129
 6621SOL     OW20761   3.262   3.812   4.149
 6621SOL    HW120762   3.305   3.753   4.218
 6621SOL    HW220763   3.300   3.791   4.060
 6622SOL     OW20764   0.402   5.790   1.199
 6622SOL    HW120765   0.427   5.748   1.112
 6622SOL    HW220766   0.324   5.742   1.238
 6623SOL     OW20767   3.179   4.129   4.440
 6623SOL    HW120768   3.272   4.098   4.458
 6623SOL    HW220769   3.136   4.158   4.525
 6624SOL     OW20770   2.403   2.206   2.743
 6624SOL    HW120771   2.368   2.164   2.659
 6624SOL    HW220772   2.502   2.222   2.734
 6625SOL     OW20773   6.448   3.976   5.507
 6625SOL    HW120774   6.426   4.065   5.467
 6625SOL    HW220775   6.411   3.970   5.599
 6626SOL     OW20776   2.866   6.068   5.628
 6626SOL    HW120777   2.805   5.991   5.608
 6626SOL    HW220778   2.843   6.145   5.569
 6627SOL     OW20779   2.056   6.136   3.960
 6627SOL    HW120780   2.009   6.055   3.993
 6627SOL    HW220781   2.112   6.175   4.033
 6628SOL     OW20782   3.530   6.306   3.680
 6628SOL    HW120783   3.589   6.309   3.761
 6628SOL    HW220784   3.434   6.308   3.708
 6629SOL     OW20785   5.064   5.691   5.835
 6629SOL    HW120786   5.037   5.784   5.810
 6629SOL    HW220787   5.134   5.658   5.772
 6630SOL     OW20788   1.328   1.064   0.214
 6630SOL    HW120789   1.301   0.970   0.237
 6630SOL    HW220790   1.406   1.090   0.270
 6631SOL     OW20791   1.786   3.442   5.693
 6631SOL    HW120792   1.801   3.377   5.618
 6631SOL    HW220793   1.842   3.523   5.678
 6632SOL     OW20794   1.112   0.220   0.105
 6632SOL    HW120795   1.150   0.154   0.040
 6632SOL    HW220796   1.012   0.220   0.098
 6633SOL     OW20797   3.966   5.186   6.129
 6633SOL    HW120798   3.887   5.150   6.080
 6633SOL    HW220799   3.975   5.284   6.109
 6634SOL     OW20800   3.522   2.113   3.979
 6634SOL    HW120801   3.426   2.112   3.949
 6634SOL    HW220802   3.573   2.179   3.923
 6635SOL     OW20803   4.608   5.205   4.974
 6635SOL    HW120804   4.636   5.172   4.884
 6635SOL    HW220805   4.532   5.150   5.008
 6636SOL     OW20806   4.499   0.773   0.311
 6636SOL    HW120807   4.400   0.781   0.308
 6636SOL    HW220808   4.539   0.858   0.346
 6637SOL     OW20809   0.250   2.180   0.357
 6637SOL    HW120810   0.268   2.100   0.414
 6637SOL    HW220811   0.244   2.151   0.261
 6638SOL     OW20812   3.238   4.095   3.899
 6638SOL    HW120813   3.151   4.052   3.876
 6638SOL    HW220814   3.244   4.105   3.998
 6639SOL     OW20815   5.263   2.696   0.853
 6639SOL    HW120816   5.328   2.685   0.928
 6639SOL    HW220817   5.174   2.722   0.890
 6640SOL     OW20818   1.690   4.216   5.020
 6640SOL    HW120819   1.778   4.211   5.069
 6640SOL    HW220820   1.637   4.134   5.038
 6641SOL     OW20821   6.124   2.284   0.964
 6641SOL    HW120822   6.151   2.260   0.870
 6641SOL    HW220823   6.149   2.379   0.983
 6642SOL     OW20824   1.574   5.806   0.073
 6642SOL    HW120825   1.479   5.832   0.090
 6642SOL    HW220826   1.635   5.873   0.115
 6643SOL     OW20827   3.077   6.004   5.797
 6643SOL    HW120828   3.013   6.069   5.756
 6643SOL    HW220829   3.102   6.034   5.889
 6644SOL     OW20830   1.796   6.312   4.018
 6644SOL    HW120831   1.838   6.393   4.060
 6644SOL    HW220832   1.859   6.274   3.950
 6645SOL     OW20833   5.557   3.144   6.216
 6645SOL    HW120834   5.497   3.068   6.241
 6645SOL    HW220835   5.636   3.109   6.166
 6646SOL     OW20836   3.764   6.926   5.742
 6646SOL    HW120837   3.857   6.948   5.772
 6646SOL    HW220838   3.750   6.958   5.649
 6647SOL     OW20839   4.448   4.899   1.126
 6647SOL    HW120840   4.351   4.875   1.127
 6647SOL    HW220841   4.499   4.832   1.072
 6648SOL     OW20842   2.991   6.212   5.230
 6648SOL    HW120843   3.077   6.263   5.240
 6648SOL    HW220844   3.010   6.125   5.182
 6649SOL     OW20845   4.954   2.674   6.270
 6649SOL    HW120846   4.886   2.611   6.307
 6649SOL    HW220847   5.035   2.622   6.241
 6650SOL     OW20848   1.507   1.499   5.578
 6650SOL    HW120849   1.488   1.594   5.552
 6650SOL    HW220850   1.466   1.480   5.667
 6651SOL     OW20851   6.838   1.699   5.817
 6651SOL    HW120852   6.819   1.661   5.907
 6651SOL    HW220853   6.752   1.708   5.765
 6652SOL     OW20854   6.717   4.790   0.172
 6652SOL    HW120855   6.800   4.823   0.127
 6652SOL    HW220856   6.741   4.718   0.238
 6653SOL     OW20857   5.834   4.609   0.307
 6653SOL    HW120858   5.908   4.672   0.283
 6653SOL    HW220859   5.766   4.657   0.362
 6654SOL     OW20860   6.232   3.554   3.465
 6654SOL    HW120861   6.176   3.482   3.505
 6654SOL    HW220862   6.300   3.584   3.531
 6655SOL     OW20863   0.024   6.014   1.861
 6655SOL    HW120864   0.062   6.049   1.947
 6655SOL    HW220865   0.032   6.085   1.791
 6656SOL     OW20866   3.981   1.305   3.581
 6656SOL    HW120867   3.901   1.271   3.631
 6656SOL    HW220868   4.042   1.354   3.643
 6657SOL     OW20869   5.331   1.967   3.995
 6657SOL    HW120870   5.406   2.010   3.945
 6657SOL    HW220871   5.290   1.896   3.938
 6658SOL     OW20872   6.598   5.986   5.366
 6658SOL    HW120873   6.614   5.979   5.268
 6658SOL    HW220874   6.639   5.907   5.412
 6659SOL     OW20875   0.826   5.043   1.577
 6659SOL    HW120876   0.786   5.127   1.541
 6659SOL    HW220877   0.784   4.964   1.532
 6660SOL     OW20878   6.865   0.103   4.532
 6660SOL    HW120879   6.922   0.185   4.525
 6660SOL    HW220880   6.846   0.068   4.441
 6661SOL     OW20881   4.076   5.714   3.957
 6661SOL    HW120882   4.033   5.798   3.990
 6661SOL    HW220883   4.029   5.634   3.995
 6662SOL     OW20884   3.905   6.777   2.526
 6662SOL    HW120885   3.973   6.846   2.550
 6662SOL    HW220886   3.893   6.713   2.602
 6663SOL     OW20887   0.836   4.516   5.859
 6663SOL    HW120888   0.856   4.457   5.937
 6663SOL    HW220889   0.896   4.492   5.783
 6664SOL     OW20890   2.566   0.416   1.516
 6664SOL    HW120891   2.642   0.478   1.537
 6664SOL    HW220892   2.527   0.381   1.601
 6665SOL     OW20893   2.616   1.096   6.871
 6665SOL    HW120894   2.628   1.163   6.944
 6665SOL    HW220895   2.521   1.098   6.839
 6666SOL     OW20896   3.854   6.083   4.998
 6666SOL    HW120897   3.938   6.053   4.952
 6666SOL    HW220898   3.785   6.011   4.993
 6667SOL     OW20899   1.392   5.431   6.693
 6667SOL    HW120900   1.332   5.438   6.613
 6667SOL    HW220901   1.387   5.515   6.746
 6668SOL     OW20902   0.228   4.221   0.454
 6668SOL    HW120903   0.203   4.317   0.469
 6668SOL    HW220904   0.153   4.162   0.486
 6669SOL     OW20905   1.567   1.924   2.573
 6669SOL    HW120906   1.505   1.998   2.546
 6669SOL    HW220907   1.623   1.953   2.650
 6670SOL     OW20908   3.763   2.972   0.306
 6670SOL    HW120909   3.848   2.920   0.315
 6670SOL    HW220910   3.770   3.034   0.228
 6671SOL     OW20911   4.562   4.847   0.146
 6671SOL    HW120912   4.478   4.890   0.179
 6671SOL    HW220913   4.640   4.880   0.200
 6672SOL     OW20914   0.944   2.280   1.533
 6672SOL    HW120915   1.001   2.337   1.591
 6672SOL    HW220916   0.849   2.310   1.539
 6673SOL     OW20917   6.309   2.691   4.048
 6673SOL    HW120918   6.334   2.767   4.108
 6673SOL    HW220919   6.262   2.726   3.967
 6674SOL     OW20920   0.473   1.523   0.526
 6674SOL    HW120921   0.548   1.588   0.513
 6674SOL    HW220922   0.472   1.491   0.620
 6675SOL     OW20923   4.823   0.537   6.714
 6675SOL    HW120924   4.739   0.589   6.701
 6675SOL    HW220925   4.847   0.534   6.811
 6676SOL     OW20926   0.752   4.119   4.090
 6676SOL    HW120927   0.735   4.030   4.133
 6676SOL    HW220928   0.666   4.168   4.080
 6677SOL     OW20929   0.881   1.672   6.155
 6677SOL    HW120930   0.959   1.631   6.202
 6677SOL    HW220931   0.844   1.606   6.089
 6678SOL     OW20932   2.583   4.213   6.274
 6678SOL    HW120933   2.622   4.284   6.215
 6678SOL    HW220934   2.489   4.237   6.298
 6679SOL     OW20935   1.483   0.597   3.466
 6679SOL    HW120936   1.397   0.648   3.473
 6679SOL    HW220937   1.556   0.649   3.510
 6680SOL     OW20938   6.549   6.135   1.260
 6680SOL    HW120939   6.544   6.070   1.336
 6680SOL    HW220940   6.500   6.097   1.181
 6681SOL     OW20941   3.419   5.974   1.580
 6681SOL    HW120942   3.445   6.062   1.542
 6681SOL    HW220943   3.386   5.986   1.674
 6682SOL     OW20944   3.172   5.750   5.850
 6682SOL    HW120945   3.118   5.828   5.818
 6682SOL    HW220946   3.266   5.758   5.815
 6683SOL     OW20947   0.044   4.730   6.064
 6683SOL    HW120948   0.089   4.809   6.107
 6683SOL    HW220949   6.962   4.744   6.066
 6684SOL     OW20950   2.891   6.209   0.025
 6684SOL    HW120951   2.901   6.296   0.072
 6684SOL    HW220952   2.912   6.134   0.088
 6685SOL     OW20953   5.353   3.227   0.255
 6685SOL    HW120954   5.392   3.296   0.316
 6685SOL    HW220955   5.423   3.194   0.193
 6686SOL     OW20956   5.232   5.291   4.949
 6686SOL    HW120957   5.296   5.238   5.004
 6686SOL    HW220958   5.256   5.388   4.954
 6687SOL     OW20959   6.853   1.579   1.525
 6687SOL    HW120960   6.800   1.499   1.496
 6687SOL    HW220961   6.796   1.661   1.516
 6688SOL     OW20962   4.462   5.013   0.697
 6688SOL    HW120963   4.541   5.074   0.691
 6688SOL    HW220964   4.453   4.978   0.790
 6689SOL     OW20965   2.622   4.399   5.816
 6689SOL    HW120966   2.683   4.377   5.740
 6689SOL    HW220967   2.674   4.398   5.902
 6690SOL     OW20968   0.638   0.531   6.289
 6690SOL    HW120969   0.652   0.437   6.319
 6690SOL    HW220970   0.550   0.564   6.323
 6691SOL     OW20971   3.005   2.019   2.397
 6691SOL    HW120972   2.977   2.115   2.407
 6691SOL    HW220973   3.017   1.998   2.300
 6692SOL     OW20974   4.366   5.340   2.617
 6692SOL    HW120975   4.339   5.415   2.678
 6692SOL    HW220976   4.307   5.261   2.633
 6693SOL     OW20977   3.179   1.719   5.150
 6693SOL    HW120978   3.243   1.734   5.074
 6693SOL    HW220979   3.228   1.728   5.237
 6694SOL     OW20980   3.837   4.310   1.459
 6694SOL    HW120981   3.753   4.275   1.499
 6694SOL    HW220982   3.855   4.262   1.373
 6695SOL     OW20983   2.733   2.097   0.639
 6695SOL    HW120984   2.650   2.052   0.670
 6695SOL    HW220985   2.813   2.051   0.680
 6696SOL     OW20986   4.027   3.131   4.141
 6696SOL    HW120987   4.032   3.218   4.093
 6696SOL    HW220988   3.949   3.079   4.107
 6697SOL     OW20989   4.570   2.040   1.978
 6697SOL    HW120990   4.512   1.972   2.022
 6697SOL    HW220991   4.512   2.104   1.927
 6698SOL     OW20992   3.607   4.185   1.549
 6698SOL    HW120993   3.589   4.102   1.602
 6698SOL    HW220994   3.582   4.266   1.604
 6699SOL     OW20995   1.167   3.777   5.473
 6699SOL    HW120996   1.086   3.783   5.531
 6699SOL    HW220997   1.249   3.791   5.529
 6700SOL     OW20998   5.834   0.367   0.701
 6700SOL    HW120999   5.859   0.272   0.722
 6700SOL    HW221000   5.751   0.368   0.646
 6701SOL     OW21001   6.255   0.237   1.681
 6701SOL    HW121002   6.350   0.226   1.711
 6701SOL    HW221003   6.202   0.280   1.754
 6702SOL     OW21004   3.749   3.342   0.951
 6702SOL    HW121005   3.732   3.381   1.041
 6702SOL    HW221006   3.845   3.352   0.927
 6703SOL     OW21007   6.802   1.209   0.466
 6703SOL    HW121008   6.815   1.297   0.419
 6703SOL    HW221009   6.705   1.185   0.465
 6704SOL     OW21010   3.422   6.945   5.901
 6704SOL    HW121011   3.413   6.856   5.945
 6704SOL    HW221012   3.439   6.933   5.803
 6705SOL     OW21013   0.254   4.252   2.350
 6705SOL    HW121014   0.243   4.351   2.344
 6705SOL    HW221015   0.332   4.224   2.294
 6706SOL     OW21016   0.124   6.755   1.572
 6706SOL    HW121017   0.044   6.755   1.632
 6706SOL    HW221018   0.095   6.766   1.477
 6707SOL     OW21019   4.848   1.074   2.385
 6707SOL    HW121020   4.940   1.088   2.349
 6707SOL    HW221021   4.802   1.162   2.397
 6708SOL     OW21022   0.893   3.625   0.233
 6708SOL    HW121023   0.859   3.597   0.322
 6708SOL    HW221024   0.989   3.597   0.224
 6709SOL     OW21025   2.305   4.228   2.312
 6709SOL    HW121026   2.263   4.140   2.287
 6709SOL    HW221027   2.346   4.270   2.231
 6710SOL     OW21028   4.656   1.230   0.880
 6710SOL    HW121029   4.711   1.250   0.961
 6710SOL    HW221030   4.630   1.316   0.836
 6711SOL     OW21031   3.087   6.152   6.047
 6711SOL    HW121032   3.070   6.250   6.055
 6711SOL    HW221033   3.131   6.119   6.131
 6712SOL     OW21034   5.444   4.735   1.582
 6712SOL    HW121035   5.446   4.759   1.485
 6712SOL    HW221036   5.465   4.638   1.593
 6713SOL     OW21037   1.968   5.282   4.453
 6713SOL    HW121038   1.957   5.186   4.426
 6713SOL    HW221039   1.878   5.321   4.473
 6714SOL     OW21040   5.693   1.299   1.835
 6714SOL    HW121041   5.787   1.264   1.835
 6714SOL    HW221042   5.629   1.222   1.827
 6715SOL     OW21043   1.714   0.475   6.676
 6715SOL    HW121044   1.778   0.422   6.730
 6715SOL    HW221045   1.658   0.414   6.619
 6716SOL     OW21046   6.839   5.939   2.388
 6716SOL    HW121047   6.854   5.964   2.292
 6716SOL    HW221048   6.853   5.841   2.400
 6717SOL     OW21049   5.700   1.634   5.747
 6717SOL    HW121050   5.604   1.662   5.752
 6717SOL    HW221051   5.756   1.714   5.724
 6718SOL     OW21052   4.317   1.665   0.773
 6718SOL    HW121053   4.358   1.661   0.682
 6718SOL    HW221054   4.280   1.757   0.789
 6719SOL     OW21055   1.805   1.345   6.941
 6719SOL    HW121056   1.848   1.261   6.908
 6719SOL    HW221057   1.865   1.390   7.007
 6720SOL     OW21058   1.396   0.754   5.987
 6720SOL    HW121059   1.437   0.845   5.997
 6720SOL    HW221060   1.466   0.689   5.959
 6721SOL     OW21061   5.974   0.033   1.032
 6721SOL    HW121062   5.998   0.126   1.060
 6721SOL    HW221063   6.030   6.985   1.084
 6722SOL     OW21064   5.453   3.792   0.114
 6722SOL    HW121065   5.361   3.831   0.124
 6722SOL    HW221066   5.521   3.863   0.131
 6723SOL     OW21067   1.341   2.741   5.905
 6723SOL    HW121068   1.324   2.780   5.814
 6723SOL    HW221069   1.278   2.782   5.971
 6724SOL     OW21070   2.143   3.566   4.049
 6724SOL    HW121071   2.137   3.666   4.051
 6724SOL    HW221072   2.147   3.534   3.954
 6725SOL     OW21073   5.044   2.326   3.367
 6725SOL    HW121074   5.135   2.311   3.328
 6725SOL    HW221075   5.033   2.423   3.389
 6726SOL     OW21076   0.440   0.462   5.669
 6726SOL    HW121077   0.399   0.500   5.585
 6726SOL    HW221078   0.539   0.476   5.667
 6727SOL     OW21079   1.496   4.837   5.859
 6727SOL    HW121080   1.552   4.768   5.813
 6727SOL    HW221081   1.493   4.817   5.957
 6728SOL     OW21082   3.661   1.235   2.948
 6728SOL    HW121083   3.641   1.216   3.044
 6728SOL    HW221084   3.582   1.213   2.892
 6729SOL     OW21085   4.410   1.160   2.293
 6729SOL    HW121086   4.316   1.134   2.269
 6729SOL    HW221087   4.408   1.213   2.378
 6730SOL     OW21088   0.260   1.617   0.646
 6730SOL    HW121089   0.319   1.573   0.578
 6730SOL    HW221090   0.253   1.714   0.626
 6731SOL     OW21091   3.593   0.261   6.490
 6731SOL    HW121092   3.666   0.329   6.491
 6731SOL    HW221093   3.512   0.299   6.446
 6732SOL     OW21094   6.886   4.927   5.696
 6732SOL    HW121095   6.931   4.969   5.775
 6732SOL    HW221096   6.947   4.928   5.618
 6733SOL     OW21097   4.752   4.664   6.001
 6733SOL    HW121098   4.665   4.614   6.000
 6733SOL    HW221099   4.805   4.640   5.920
 6734SOL     OW21100   6.046   1.920   4.015
 6734SOL    HW121101   6.083   1.946   4.105
 6734SOL    HW221102   5.956   1.961   4.003
 6735SOL     OW21103   6.494   2.456   3.042
 6735SOL    HW121104   6.410   2.510   3.035
 6735SOL    HW221105   6.569   2.515   3.071
 6736SOL     OW21106   3.602   3.778   0.886
 6736SOL    HW121107   3.533   3.788   0.957
 6736SOL    HW221108   3.616   3.681   0.866
 6737SOL     OW21109   7.014   3.726   0.004
 6737SOL    HW121110   0.069   3.791   0.028
 6737SOL    HW221111   6.935   3.776   6.986
 6738SOL     OW21112   1.158   6.225   3.704
 6738SOL    HW121113   1.148   6.205   3.607
 6738SOL    HW221114   1.211   6.152   3.748
 6739SOL     OW21115   6.932   0.217   5.133
 6739SOL    HW121116   6.965   0.134   5.177
 6739SOL    HW221117   6.941   0.208   5.034
 6740SOL     OW21118   0.503   6.572   2.977
 6740SOL    HW121119   0.553   6.588   3.062
 6740SOL    HW221120   0.486   6.659   2.932
 6741SOL     OW21121   3.930   1.810   6.714
 6741SOL    HW121122   3.909   1.845   6.805
 6741SOL    HW221123   3.865   1.847   6.648
 6742SOL     OW21124   5.636   4.218   3.825
 6742SOL    HW121125   5.726   4.246   3.859
 6742SOL    HW221126   5.599   4.289   3.766
 6743SOL     OW21127   3.987   3.891   0.838
 6743SOL    HW121128   3.888   3.895   0.824
 6743SOL    HW221129   4.029   3.971   0.796
 6744SOL     OW21130   6.034   6.855   5.964
 6744SOL    HW121131   6.027   6.770   6.016
 6744SOL    HW221132   6.103   6.846   5.892
 6745SOL     OW21133   0.201   4.746   5.136
 6745SOL    HW121134   0.120   4.686   5.133
 6745SOL    HW221135   0.280   4.696   5.101
 6746SOL     OW21136   0.725   1.977   2.512
 6746SOL    HW121137   0.824   1.962   2.518
 6746SOL    HW221138   0.677   1.901   2.554
 6747SOL     OW21139   1.705   6.477   5.528
 6747SOL    HW121140   1.647   6.558   5.526
 6747SOL    HW221141   1.676   6.413   5.457
 6748SOL     OW21142   2.101   1.275   4.688
 6748SOL    HW121143   2.084   1.177   4.678
 6748SOL    HW221144   2.162   1.291   4.765
 6749SOL     OW21145   4.171   4.911   2.273
 6749SOL    HW121146   4.119   4.996   2.274
 6749SOL    HW221147   4.117   4.839   2.229
 6750SOL     OW21148   3.709   1.411   5.220
 6750SOL    HW121149   3.732   1.406   5.123
 6750SOL    HW221150   3.637   1.345   5.241
 6751SOL     OW21151   4.601   0.085   4.247
 6751SOL    HW121152   4.515   0.115   4.288
 6751SOL    HW221153   4.668   0.158   4.252
 6752SOL     OW21154   1.939   4.732   2.198
 6752SOL    HW121155   1.999   4.735   2.119
 6752SOL    HW221156   1.845   4.719   2.168
 6753SOL     OW21157   3.971   3.234   5.973
 6753SOL    HW121158   3.996   3.151   6.022
 6753SOL    HW221159   3.959   3.214   5.876
 6754SOL     OW21160   5.935   1.929   0.714
 6754SOL    HW121161   5.835   1.924   0.706
 6754SOL    HW221162   5.963   1.894   0.804
 6755SOL     OW21163   2.857   5.901   6.272
 6755SOL    HW121164   2.803   5.915   6.355
 6755SOL    HW221165   2.949   5.873   6.296
 6756SOL     OW21166   3.081   2.151   5.978
 6756SOL    HW121167   3.171   2.108   5.967
 6756SOL    HW221168   3.022   2.123   5.903
 6757SOL     OW21169   4.428   0.239   0.903
 6757SOL    HW121170   4.392   0.312   0.845
 6757SOL    HW221171   4.401   0.150   0.865
 6758SOL     OW21172   5.017   1.905   3.225
 6758SOL    HW121173   4.963   1.986   3.246
 6758SOL    HW221174   4.963   1.823   3.248
 6759SOL     OW21175   0.468   2.052   2.763
 6759SOL    HW121176   0.428   2.077   2.675
 6759SOL    HW221177   0.441   1.958   2.786
 6760SOL     OW21178   5.546   2.607   4.282
 6760SOL    HW121179   5.536   2.690   4.336
 6760SOL    HW221180   5.628   2.558   4.311
 6761SOL     OW21181   3.773   1.446   4.956
 6761SOL    HW121182   3.868   1.460   4.928
 6761SOL    HW221183   3.713   1.504   4.901
 6762SOL     OW21184   6.606   5.655   4.173
 6762SOL    HW121185   6.523   5.636   4.121
 6762SOL    HW221186   6.589   5.727   4.239
 6763SOL     OW21187   5.560   5.680   4.729
 6763SOL    HW121188   5.513   5.726   4.804
 6763SOL    HW221189   5.555   5.581   4.742
 6764SOL     OW21190   1.298   5.039   0.647
 6764SOL    HW121191   1.267   5.133   0.648
 6764SOL    HW221192   1.302   5.003   0.740
 6765SOL     OW21193   0.188   4.810   2.861
 6765SOL    HW121194   0.115   4.775   2.802
 6765SOL    HW221195   0.277   4.789   2.820
 6766SOL     OW21196   5.776   0.711   1.494
 6766SOL    HW121197   5.844   0.770   1.539
 6766SOL    HW221198   5.796   0.706   1.396
 6767SOL     OW21199   3.189   0.415   0.812
 6767SOL    HW121200   3.283   0.449   0.818
 6767SOL    HW221201   3.127   0.491   0.793
 6768SOL     OW21202   1.679   0.898   0.425
 6768SOL    HW121203   1.655   0.851   0.339
 6768SOL    HW221204   1.670   0.834   0.501
 6769SOL     OW21205   4.100   2.973   1.627
 6769SOL    HW121206   4.195   3.002   1.623
 6769SOL    HW221207   4.040   3.052   1.615
 6770SOL     OW21208   0.238   0.661   1.800
 6770SOL    HW121209   0.267   0.565   1.792
 6770SOL    HW221210   0.296   0.709   1.865
 6771SOL     OW21211   4.228   1.947   3.525
 6771SOL    HW121212   4.234   1.968   3.427
 6771SOL    HW221213   4.131   1.938   3.550
 6772SOL     OW21214   3.398   1.767   3.325
 6772SOL    HW121215   3.392   1.708   3.244
 6772SOL    HW221216   3.366   1.859   3.302
 6773SOL     OW21217   0.552   4.271   1.776
 6773SOL    HW121218   0.476   4.239   1.833
 6773SOL    HW221219   0.619   4.198   1.764
 6774SOL     OW21220   0.330   1.575   6.189
 6774SOL    HW121221   0.369   1.504   6.130
 6774SOL    HW221222   0.381   1.660   6.178
 6775SOL     OW21223   2.474   4.653   0.036
 6775SOL    HW121224   2.411   4.600   6.996
 6775SOL    HW221225   2.534   4.590   0.086
 6776SOL     OW21226   5.514   5.644   6.996
 6776SOL    HW121227   5.483   5.611   6.907
 6776SOL    HW221228   5.596   5.594   0.007
 6777SOL     OW21229   4.978   4.770   6.649
 6777SOL    HW121230   4.894   4.774   6.595
 6777SOL    HW221231   5.045   4.713   6.602
 6778SOL     OW21232   0.565   6.134   2.915
 6778SOL    HW121233   0.495   6.067   2.940
 6778SOL    HW221234   0.594   6.118   2.820
 6779SOL     OW21235   0.678   4.279   0.213
 6779SOL    HW121236   0.625   4.288   0.297
 6779SOL    HW221237   0.776   4.279   0.234
 6780SOL     OW21238   0.364   2.937   2.231
 6780SOL    HW121239   0.326   2.854   2.190
 6780SOL    HW221240   0.384   3.003   2.158
 6781SOL     OW21241   5.977   5.016   6.156
 6781SOL    HW121242   5.930   5.028   6.243
 6781SOL    HW221243   6.017   4.925   6.151
 6782SOL     OW21244   5.870   1.406   3.065
 6782SOL    HW121245   5.786   1.352   3.062
 6782SOL    HW221246   5.947   1.351   3.033
 6783SOL     OW21247   0.739   6.480   6.419
 6783SOL    HW121248   0.683   6.403   6.391
 6783SOL    HW221249   0.828   6.446   6.450
 6784SOL     OW21250   3.144   2.921   0.274
 6784SOL    HW121251   3.129   2.852   0.204
 6784SOL    HW221252   3.204   2.884   0.345
 6785SOL     OW21253   6.053   6.596   2.519
 6785SOL    HW121254   6.018   6.619   2.428
 6785SOL    HW221255   6.102   6.509   2.514
 6786SOL     OW21256   2.194   2.962   6.107
 6786SOL    HW121257   2.261   3.026   6.070
 6786SOL    HW221258   2.151   3.001   6.188
 6787SOL     OW21259   1.019   3.656   2.087
 6787SOL    HW121260   0.956   3.647   2.164
 6787SOL    HW221261   1.094   3.718   2.112
 6788SOL     OW21262   2.649   3.840   0.983
 6788SOL    HW121263   2.675   3.814   1.077
 6788SOL    HW221264   2.680   3.770   0.920
 6789SOL     OW21265   0.338   6.300   2.773
 6789SOL    HW121266   0.378   6.377   2.724
 6789SOL    HW221267   0.349   6.314   2.872
 6790SOL     OW21268   1.693   3.139   6.976
 6790SOL    HW121269   1.766   3.075   6.953
 6790SOL    HW221270   1.650   3.172   6.891
 6791SOL     OW21271   4.286   3.543   6.116
 6791SOL    HW121272   4.247   3.454   6.140
 6791SOL    HW221273   4.377   3.530   6.078
 6792SOL     OW21274   0.079   5.771   0.741
 6792SOL    HW121275   0.074   5.702   0.813
 6792SOL    HW221276   0.002   5.834   0.751
 6793SOL     OW21277   6.698   1.829   1.172
 6793SOL    HW121278   6.733   1.740   1.142
 6793SOL    HW221279   6.603   1.839   1.143
 6794SOL     OW21280   4.788   0.875   5.190
 6794SOL    HW121281   4.696   0.914   5.187
 6794SOL    HW221282   4.855   0.949   5.179
 6795SOL     OW21283   3.153   5.764   6.671
 6795SOL    HW121284   3.243   5.769   6.714
 6795SOL    HW221285   3.110   5.854   6.675
 6796SOL     OW21286   4.443   1.781   2.807
 6796SOL    HW121287   4.497   1.724   2.869
 6796SOL    HW221288   4.346   1.769   2.826
 6797SOL     OW21289   6.599   3.669   2.518
 6797SOL    HW121290   6.521   3.698   2.463
 6797SOL    HW221291   6.626   3.576   2.492
 6798SOL     OW21292   6.368   6.169   2.776
 6798SOL    HW121293   6.427   6.137   2.701
 6798SOL    HW221294   6.282   6.117   2.774
 6799SOL     OW21295   5.037   6.414   0.981
 6799SOL    HW121296   4.993   6.488   1.032
 6799SOL    HW221297   5.070   6.449   0.894
 6800SOL     OW21298   2.786   4.970   6.887
 6800SOL    HW121299   2.727   5.050   6.885
 6800SOL    HW221300   2.763   4.913   6.966
 6801SOL     OW21301   1.804   1.793   2.447
 6801SOL    HW121302   1.724   1.836   2.489
 6801SOL    HW221303   1.851   1.736   2.514
 6802SOL     OW21304   2.193   6.038   2.464
 6802SOL    HW121305   2.214   6.060   2.559
 6802SOL    HW221306   2.242   5.954   2.437
 6803SOL     OW21307   5.336   2.607   0.207
 6803SOL    HW121308   5.356   2.545   0.131
 6803SOL    HW221309   5.255   2.661   0.186
 6804SOL     OW21310   1.550   6.556   3.812
 6804SOL    HW121311   1.477   6.604   3.861
 6804SOL    HW221312   1.533   6.563   3.713
 6805SOL     OW21313   5.620   0.496   4.468
 6805SOL    HW121314   5.661   0.449   4.390
 6805SOL    HW221315   5.679   0.571   4.497
 6806SOL     OW21316   4.442   0.700   5.812
 6806SOL    HW121317   4.427   0.791   5.774
 6806SOL    HW221318   4.443   0.632   5.739
 6807SOL     OW21319   3.005   3.086   0.536
 6807SOL    HW121320   3.084   3.027   0.521
 6807SOL    HW221321   3.024   3.177   0.500
 6808SOL     OW21322   1.355   3.030   5.019
 6808SOL    HW121323   1.304   3.040   4.934
 6808SOL    HW221324   1.385   2.935   5.029
 6809SOL     OW21325   2.024   3.417   6.311
 6809SOL    HW121326   1.946   3.450   6.364
 6809SOL    HW221327   2.106   3.468   6.336
 6810SOL     OW21328   6.086   1.536   2.316
 6810SOL    HW121329   6.151   1.465   2.288
 6810SOL    HW221330   6.134   1.623   2.326
 6811SOL     OW21331   5.410   5.608   1.678
 6811SOL    HW121332   5.502   5.574   1.699
 6811SOL    HW221333   5.364   5.634   1.763
 6812SOL     OW21334   3.159   3.571   2.965
 6812SOL    HW121335   3.215   3.493   2.937
 6812SOL    HW221336   3.211   3.629   3.028
 6813SOL     OW21337   4.440   3.888   0.939
 6813SOL    HW121338   4.517   3.839   0.898
 6813SOL    HW221339   4.451   3.890   1.038
 6814SOL     OW21340   2.405   3.427   0.370
 6814SOL    HW121341   2.364   3.347   0.415
 6814SOL    HW221342   2.502   3.408   0.352
 6815SOL     OW21343   2.168   0.334   1.948
 6815SOL    HW121344   2.113   0.409   1.911
 6815SOL    HW221345   2.135   0.247   1.912
 6816SOL     OW21346   6.517   4.630   1.191
 6816SOL    HW121347   6.504   4.535   1.218
 6816SOL    HW221348   6.448   4.654   1.123
 6817SOL     OW21349   0.139   1.533   5.851
 6817SOL    HW121350   0.067   1.517   5.783
 6817SOL    HW221351   0.164   1.446   5.893
 6818SOL     OW21352   3.238   6.392   2.788
 6818SOL    HW121353   3.319   6.379   2.730
 6818SOL    HW221354   3.177   6.313   2.778
 6819SOL     OW21355   3.223   1.626   3.968
 6819SOL    HW121356   3.201   1.607   3.873
 6819SOL    HW221357   3.319   1.603   3.985
 6820SOL     OW21358   0.753   4.346   3.533
 6820SOL    HW121359   0.694   4.423   3.559
 6820SOL    HW221360   0.735   4.320   3.438
 6821SOL     OW21361   2.507   1.873   4.500
 6821SOL    HW121362   2.452   1.955   4.514
 6821SOL    HW221363   2.512   1.852   4.402
 6822SOL     OW21364   5.303   1.990   5.823
 6822SOL    HW121365   5.211   2.000   5.786
 6822SOL    HW221366   5.358   2.070   5.799
 6823SOL     OW21367   2.934   3.366   2.638
 6823SOL    HW121368   2.975   3.410   2.559
 6823SOL    HW221369   2.886   3.435   2.693
 6824SOL     OW21370   1.596   4.060   6.506
 6824SOL    HW121371   1.680   4.008   6.516
 6824SOL    HW221372   1.615   4.145   6.457
 6825SOL     OW21373   4.599   0.342   3.076
 6825SOL    HW121374   4.603   0.351   3.176
 6825SOL    HW221375   4.506   0.361   3.045
 6826SOL     OW21376   1.330   3.035   2.697
 6826SOL    HW121377   1.411   3.086   2.669
 6826SOL    HW221378   1.327   2.948   2.646
 6827SOL     OW21379   5.783   5.881   5.015
 6827SOL    HW121380   5.764   5.907   4.921
 6827SOL    HW221381   5.880   5.857   5.024
 6828SOL     OW21382   1.522   2.564   1.434
 6828SOL    HW121383   1.435   2.520   1.410
 6828SOL    HW221384   1.582   2.565   1.354
 6829SOL     OW21385   4.644   5.703   4.000
 6829SOL    HW121386   4.674   5.712   4.095
 6829SOL    HW221387   4.546   5.683   3.997
 6830SOL     OW21388   5.593   2.147   3.676
 6830SOL    HW121389   5.621   2.243   3.682
 6830SOL    HW221390   5.505   2.141   3.630
 6831SOL     OW21391   0.207   1.059   6.092
 6831SOL    HW121392   0.286   1.083   6.149
 6831SOL    HW221393   0.230   0.979   6.036
 6832SOL     OW21394   3.047   5.303   2.171
 6832SOL    HW121395   3.107   5.288   2.092
 6832SOL    HW221396   2.957   5.265   2.153
 6833SOL     OW21397   4.177   5.014   6.970
 6833SOL    HW121398   4.091   5.064   6.968
 6833SOL    HW221399   4.198   4.979   6.879
 6834SOL     OW21400   3.769   5.315   2.404
 6834SOL    HW121401   3.682   5.267   2.392
 6834SOL    HW221402   3.761   5.409   2.371
 6835SOL     OW21403   3.823   6.833   4.867
 6835SOL    HW121404   3.923   6.821   4.870
 6835SOL    HW221405   3.791   6.823   4.773
 6836SOL     OW21406   3.649   6.242   6.836
 6836SOL    HW121407   3.638   6.160   6.779
 6836SOL    HW221408   3.562   6.289   6.844
 6837SOL     OW21409   1.404   3.067   2.072
 6837SOL    HW121410   1.488   3.019   2.097
 6837SOL    HW221411   1.424   3.162   2.050
 6838SOL     OW21412   2.222   1.422   6.525
 6838SOL    HW121413   2.227   1.418   6.625
 6838SOL    HW221414   2.296   1.479   6.491
 6839SOL     OW21415   4.461   1.141   1.087
 6839SOL    HW121416   4.436   1.211   1.155
 6839SOL    HW221417   4.540   1.172   1.035
 6840SOL     OW21418   0.956   1.926   6.511
 6840SOL    HW121419   0.895   1.847   6.511
 6840SOL    HW221420   1.049   1.896   6.489
 6841SOL     OW21421   6.899   3.864   6.261
 6841SOL    HW121422   6.871   3.817   6.176
 6841SOL    HW221423   6.833   3.844   6.333
 6842SOL     OW21424   2.057   4.289   2.717
 6842SOL    HW121425   2.081   4.253   2.807
 6842SOL    HW221426   2.114   4.246   2.647
 6843SOL     OW21427   4.429   6.562   6.882
 6843SOL    HW121428   4.475   6.556   6.971
 6843SOL    HW221429   4.448   6.480   6.829
 6844SOL     OW21430   5.199   0.731   5.661
 6844SOL    HW121431   5.190   0.810   5.723
 6844SOL    HW221432   5.294   0.698   5.663
 6845SOL     OW21433   5.350   2.075   2.243
 6845SOL    HW121434   5.350   1.988   2.193
 6845SOL    HW221435   5.385   2.060   2.335
 6846SOL     OW21436   2.527   3.823   0.335
 6846SOL    HW121437   2.485   3.800   0.422
 6846SOL    HW221438   2.594   3.896   0.348
 6847SOL     OW21439   6.472   3.596   3.586
 6847SOL    HW121440   6.476   3.695   3.599
 6847SOL    HW221441   6.536   3.551   3.648
 6848SOL     OW21442   5.917   4.508   3.634
 6848SOL    HW121443   5.845   4.448   3.600
 6848SOL    HW221444   5.944   4.572   3.562
 6849SOL     OW21445   3.082   4.182   6.872
 6849SOL    HW121446   3.154   4.121   6.907
 6849SOL    HW221447   3.020   4.206   6.946
 6850SOL     OW21448   4.204   1.867   3.975
 6850SOL    HW121449   4.160   1.934   3.914
 6850SOL    HW221450   4.139   1.793   3.994
 6851SOL     OW21451   2.257   2.986   4.019
 6851SOL    HW121452   2.251   3.078   3.980
 6851SOL    HW221453   2.184   2.974   4.087
 6852SOL     OW21454   2.469   4.580   0.312
 6852SOL    HW121455   2.435   4.528   0.234
 6852SOL    HW221456   2.441   4.534   0.397
 6853SOL     OW21457   4.785   3.364   6.670
 6853SOL    HW121458   4.865   3.324   6.626
 6853SOL    HW221459   4.787   3.463   6.660
 6854SOL     OW21460   6.068   5.860   6.039
 6854SOL    HW121461   6.149   5.816   6.000
 6854SOL    HW221462   6.068   5.849   6.138
 6855SOL     OW21463   4.197   5.129   3.518
 6855SOL    HW121464   4.219   5.205   3.578
 6855SOL    HW221465   4.254   5.133   3.436
 6856SOL     OW21466   0.464   1.469   6.431
 6856SOL    HW121467   0.412   1.504   6.353
 6856SOL    HW221468   0.561   1.471   6.409
 6857SOL     OW21469   0.859   3.831   4.954
 6857SOL    HW121470   0.774   3.779   4.946
 6857SOL    HW221471   0.841   3.928   4.939
 6858SOL     OW21472   2.257   3.708   1.726
 6858SOL    HW121473   2.270   3.619   1.770
 6858SOL    HW221474   2.213   3.695   1.637
 6859SOL     OW21475   1.104   1.520   2.522
 6859SOL    HW121476   1.113   1.614   2.490
 6859SOL    HW221477   1.181   1.466   2.488
 6860SOL     OW21478   0.780   6.307   2.346
 6860SOL    HW121479   0.688   6.347   2.341
 6860SOL    HW221480   0.791   6.240   2.273
 6861SOL     OW21481   5.594   2.984   5.246
 6861SOL    HW121482   5.648   2.929   5.309
 6861SOL    HW221483   5.520   3.029   5.296
 6862SOL     OW21484   0.837   4.529   5.100
 6862SOL    HW121485   0.816   4.448   5.154
 6862SOL    HW221486   0.791   4.609   5.140
 6863SOL     OW21487   5.901   0.870   5.597
 6863SOL    HW121488   5.999   0.884   5.580
 6863SOL    HW221489   5.879   0.773   5.584
 6864SOL     OW21490   1.179   3.460   5.969
 6864SOL    HW121491   1.186   3.485   6.066
 6864SOL    HW221492   1.267   3.476   5.924
 6865SOL     OW21493   2.242   0.153   3.663
 6865SOL    HW121494   2.199   0.093   3.595
 6865SOL    HW221495   2.341   0.144   3.657
 6866SOL     OW21496   1.081   4.590   0.655
 6866SOL    HW121497   1.040   4.501   0.676
 6866SOL    HW221498   1.105   4.637   0.740
 6867SOL     OW21499   2.106   4.247   6.790
 6867SOL    HW121500   2.036   4.245   6.861
 6867SOL    HW221501   2.066   4.279   6.704
 6868SOL     OW21502   2.493   5.126   4.054
 6868SOL    HW121503   2.407   5.171   4.029
 6868SOL    HW221504   2.562   5.148   3.986
 6869SOL     OW21505   3.104   0.826   6.068
 6869SOL    HW121506   3.158   0.846   6.150
 6869SOL    HW221507   3.158   0.850   5.987
 6870SOL     OW21508   6.103   2.643   0.870
 6870SOL    HW121509   6.165   2.597   0.933
 6870SOL    HW221510   6.146   2.648   0.779
 6871SOL     OW21511   0.458   4.056   2.325
 6871SOL    HW121512   0.545   4.080   2.368
 6871SOL    HW221513   0.455   4.093   2.232
 6872SOL     OW21514   1.617   3.873   0.764
 6872SOL    HW121515   1.585   3.901   0.674
 6872SOL    HW221516   1.695   3.810   0.754
 6873SOL     OW21517   0.525   4.668   3.906
 6873SOL    HW121518   0.444   4.718   3.936
 6873SOL    HW221519   0.601   4.732   3.894
 6874SOL     OW21520   5.434   6.205   3.551
 6874SOL    HW121521   5.379   6.278   3.511
 6874SOL    HW221522   5.374   6.130   3.580
 6875SOL     OW21523   2.420   1.441   0.215
 6875SOL    HW121524   2.349   1.477   0.154
 6875SOL    HW221525   2.472   1.517   0.254
 6876SOL     OW21526   5.086   4.860   3.670
 6876SOL    HW121527   5.158   4.871   3.739
 6876SOL    HW221528   4.997   4.868   3.713
 6877SOL     OW21529   1.275   3.435   2.439
 6877SOL    HW121530   1.199   3.469   2.383
 6877SOL    HW221531   1.356   3.423   2.381
 6878SOL     OW21532   2.020   0.601   4.632
 6878SOL    HW121533   2.046   0.690   4.668
 6878SOL    HW221534   2.064   0.529   4.685
 6879SOL     OW21535   2.181   1.140   0.972
 6879SOL    HW121536   2.256   1.095   0.924
 6879SOL    HW221537   2.131   1.073   1.026
 6880SOL     OW21538   1.665   5.485   6.645
 6880SOL    HW121539   1.576   5.448   6.670
 6880SOL    HW221540   1.700   5.436   6.565
 6881SOL     OW21541   0.981   2.793   0.892
 6881SOL    HW121542   0.890   2.805   0.853
 6881SOL    HW221543   0.974   2.770   0.989
 6882SOL     OW21544   2.652   6.756   6.341
 6882SOL    HW121545   2.597   6.792   6.417
 6882SOL    HW221546   2.749   6.771   6.360
 6883SOL     OW21547   4.775   0.681   0.479
 6883SOL    HW121548   4.724   0.766   0.468
 6883SOL    HW221549   4.858   0.699   0.532
 6884SOL     OW21550   2.166   4.057   3.147
 6884SOL    HW121551   2.153   3.988   3.218
 6884SOL    HW221552   2.166   4.013   3.057
 6885SOL     OW21553   6.033   5.492   4.798
 6885SOL    HW121554   6.092   5.572   4.809
 6885SOL    HW221555   5.944   5.522   4.762
 6886SOL     OW21556   4.883   2.050   0.102
 6886SOL    HW121557   4.970   2.008   0.078
 6886SOL    HW221558   4.883   2.145   0.073
 6887SOL     OW21559   5.713   5.732   5.642
 6887SOL    HW121560   5.683   5.669   5.570
 6887SOL    HW221561   5.808   5.713   5.665
 6888SOL     OW21562   6.483   5.107   6.345
 6888SOL    HW121563   6.575   5.103   6.383
 6888SOL    HW221564   6.419   5.144   6.413
 6889SOL     OW21565   0.470   2.098   6.716
 6889SOL    HW121566   0.408   2.071   6.642
 6889SOL    HW221567   0.563   2.103   6.681
 6890SOL     OW21568   4.756   4.439   3.036
 6890SOL    HW121569   4.705   4.357   3.061
 6890SOL    HW221570   4.809   4.471   3.114
 6891SOL     OW21571   1.779   1.350   0.941
 6891SOL    HW121572   1.870   1.382   0.916
 6891SOL    HW221573   1.711   1.394   0.882
 6892SOL     OW21574   2.600   0.581   4.435
 6892SOL    HW121575   2.545   0.608   4.515
 6892SOL    HW221576   2.649   0.661   4.400
 6893SOL     OW21577   5.641   3.270   1.021
 6893SOL    HW121578   5.635   3.347   1.084
 6893SOL    HW221579   5.568   3.276   0.953
 6894SOL     OW21580   5.876   5.475   0.452
 6894SOL    HW121581   5.850   5.516   0.365
 6894SOL    HW221582   5.976   5.475   0.461
 6895SOL     OW21583   0.368   6.557   1.860
 6895SOL    HW121584   0.393   6.556   1.763
 6895SOL    HW221585   0.407   6.477   1.905
 6896SOL     OW21586   4.676   1.514   4.553
 6896SOL    HW121587   4.606   1.477   4.491
 6896SOL    HW221588   4.752   1.550   4.499
 6897SOL     OW21589   4.850   3.293   5.024
 6897SOL    HW121590   4.910   3.259   4.951
 6897SOL    HW221591   4.830   3.389   5.009
 6898SOL     OW21592   1.981   6.958   1.554
 6898SOL    HW121593   2.062   6.917   1.597
 6898SOL    HW221594   1.969   6.921   1.462
 6899SOL     OW21595   6.471   5.743   2.262
 6899SOL    HW121596   6.540   5.768   2.194
 6899SOL    HW221597   6.401   5.815   2.265
 6900SOL     OW21598   6.382   3.760   5.334
 6900SOL    HW121599   6.395   3.830   5.403
 6900SOL    HW221600   6.404   3.797   5.243
 6901SOL     OW21601   5.229   4.723   0.072
 6901SOL    HW121602   5.235   4.741   6.991
 6901SOL    HW221603   5.136   4.739   0.104
 6902SOL     OW21604   0.739   5.951   5.945
 6902SOL    HW121605   0.779   5.874   5.994
 6902SOL    HW221606   0.763   5.947   5.849
 6903SOL     OW21607   1.540   5.838   4.680
 6903SOL    HW121608   1.543   5.913   4.746
 6903SOL    HW221609   1.446   5.812   4.662
 6904SOL     OW21610   6.964   6.715   5.465
 6904SOL    HW121611   6.904   6.704   5.545
 6904SOL    HW221612   6.941   6.799   5.417
 6905SOL     OW21613   4.768   6.166   5.967
 6905SOL    HW121614   4.764   6.266   5.969
 6905SOL    HW221615   4.714   6.131   5.891
 6906SOL     OW21616   3.294   1.275   3.650
 6906SOL    HW121617   3.348   1.357   3.670
 6906SOL    HW221618   3.222   1.265   3.718
 6907SOL     OW21619   5.852   2.820   0.464
 6907SOL    HW121620   5.770   2.849   0.513
 6907SOL    HW221621   5.826   2.770   0.382
 6908SOL     OW21622   2.893   4.915   0.751
 6908SOL    HW121623   2.820   4.900   0.818
 6908SOL    HW221624   2.888   5.008   0.716
 6909SOL     OW21625   6.370   5.686   1.999
 6909SOL    HW121626   6.407   5.696   2.092
 6909SOL    HW221627   6.276   5.655   2.004
 6910SOL     OW21628   1.347   2.755   2.621
 6910SOL    HW121629   1.311   2.662   2.633
 6910SOL    HW221630   1.407   2.777   2.698
 6911SOL     OW21631   1.954   6.773   5.390
 6911SOL    HW121632   1.936   6.791   5.487
 6911SOL    HW221633   1.889   6.705   5.356
 6912SOL     OW21634   2.661   3.786   6.650
 6912SOL    HW121635   2.578   3.778   6.595
 6912SOL    HW221636   2.683   3.883   6.663
 6913SOL     OW21637   5.051   6.081   5.970
 6913SOL    HW121638   4.961   6.102   6.008
 6913SOL    HW221639   5.041   6.045   5.877
 6914SOL     OW21640   6.145   2.914   2.801
 6914SOL    HW121641   6.051   2.937   2.827
 6914SOL    HW221642   6.161   2.942   2.706
 6915SOL     OW21643   6.438   3.337   3.394
 6915SOL    HW121644   6.467   3.416   3.449
 6915SOL    HW221645   6.518   3.291   3.357
 6916SOL     OW21646   4.969   6.035   6.619
 6916SOL    HW121647   4.953   6.104   6.690
 6916SOL    HW221648   4.944   5.945   6.654
 6917SOL     OW21649   4.822   6.322   1.666
 6917SOL    HW121650   4.756   6.382   1.620
 6917SOL    HW221651   4.840   6.356   1.758
 6918SOL     OW21652   1.957   3.172   0.988
 6918SOL    HW121653   1.990   3.238   1.055
 6918SOL    HW221654   1.956   3.081   1.030
 6919SOL     OW21655   5.706   5.677   3.624
 6919SOL    HW121656   5.688   5.753   3.562
 6919SOL    HW221657   5.764   5.707   3.700
 6920SOL     OW21658   6.211   1.147   6.008
 6920SOL    HW121659   6.161   1.129   5.923
 6920SOL    HW221660   6.224   1.062   6.058
 6921SOL     OW21661   4.130   0.306   4.340
 6921SOL    HW121662   4.158   0.398   4.313
 6921SOL    HW221663   4.187   0.239   4.292
 6922SOL     OW21664   1.700   4.161   5.812
 6922SOL    HW121665   1.671   4.215   5.891
 6922SOL    HW221666   1.798   4.174   5.796
 6923SOL     OW21667   5.747   6.943   2.617
 6923SOL    HW121668   5.654   6.928   2.585
 6923SOL    HW221669   5.745   6.986   2.707
 6924SOL     OW21670   3.120   5.906   1.503
 6924SOL    HW121671   3.042   5.896   1.441
 6924SOL    HW221672   3.150   5.815   1.533
 6925SOL     OW21673   5.551   6.484   5.617
 6925SOL    HW121674   5.530   6.391   5.647
 6925SOL    HW221675   5.546   6.490   5.517
 6926SOL     OW21676   3.225   2.621   0.598
 6926SOL    HW121677   3.219   2.721   0.599
 6926SOL    HW221678   3.149   2.584   0.546
 6927SOL     OW21679   5.021   0.740   0.597
 6927SOL    HW121680   5.096   0.681   0.626
 6927SOL    HW221681   5.039   0.834   0.625
 6928SOL     OW21682   4.664   5.211   0.628
 6928SOL    HW121683   4.757   5.183   0.651
 6928SOL    HW221684   4.642   5.181   0.535
 6929SOL     OW21685   5.864   5.284   1.810
 6929SOL    HW121686   5.956   5.271   1.847
 6929SOL    HW221687   5.797   5.277   1.884
 6930SOL     OW21688   0.751   0.099   1.254
 6930SOL    HW121689   0.792   0.187   1.277
 6930SOL    HW221690   0.823   0.035   1.227
 6931SOL     OW21691   2.568   3.603   1.113
 6931SOL    HW121692   2.637   3.649   1.168
 6931SOL    HW221693   2.604   3.517   1.079
 6932SOL     OW21694   4.240   6.198   6.747
 6932SOL    HW121695   4.196   6.177   6.835
 6932SOL    HW221696   4.174   6.244   6.688
 6933SOL     OW21697   3.359   6.119   6.307
 6933SOL    HW121698   3.290   6.185   6.338
 6933SOL    HW221699   3.333   6.027   6.337
 6934SOL     OW21700   5.310   4.327   6.765
 6934SOL    HW121701   5.371   4.264   6.813
 6934SOL    HW221702   5.341   4.421   6.780
 6935SOL     OW21703   4.356   6.284   2.252
 6935SOL    HW121704   4.291   6.357   2.233
 6935SOL    HW221705   4.447   6.310   2.220
 6936SOL     OW21706   0.070   1.996   5.329
 6936SOL    HW121707   0.081   1.934   5.406
 6936SOL    HW221708   0.132   1.968   5.255
 6937SOL     OW21709   5.677   5.427   0.035
 6937SOL    HW121710   5.768   5.389   0.021
 6937SOL    HW221711   5.614   5.353   0.060
 6938SOL     OW21712   2.194   0.776   4.995
 6938SOL    HW121713   2.204   0.678   5.011
 6938SOL    HW221714   2.141   0.791   4.911
 6939SOL     OW21715   5.804   3.406   3.257
 6939SOL    HW121716   5.723   3.357   3.224
 6939SOL    HW221717   5.820   3.383   3.353
 6940SOL     OW21718   2.999   5.986   0.635
 6940SOL    HW121719   2.982   6.083   0.620
 6940SOL    HW221720   2.922   5.933   0.598
 6941SOL     OW21721   3.778   3.675   3.126
 6941SOL    HW121722   3.690   3.663   3.171
 6941SOL    HW221723   3.769   3.740   3.051
 6942SOL     OW21724   6.319   5.962   2.168
 6942SOL    HW121725   6.277   6.040   2.214
 6942SOL    HW221726   6.347   5.988   2.076
 6943SOL     OW21727   4.216   4.419   6.620
 6943SOL    HW121728   4.175   4.385   6.705
 6943SOL    HW221729   4.151   4.412   6.545
 6944SOL     OW21730   1.319   4.244   5.360
 6944SOL    HW121731   1.403   4.200   5.326
 6944SOL    HW221732   1.259   4.264   5.282
 6945SOL     OW21733   5.090   1.868   1.078
 6945SOL    HW121734   4.997   1.832   1.065
 6945SOL    HW221735   5.123   1.840   1.168
 6946SOL     OW21736   4.824   5.407   3.199
 6946SOL    HW121737   4.853   5.490   3.248
 6946SOL    HW221738   4.731   5.421   3.165
 6947SOL     OW21739   5.790   4.518   5.358
 6947SOL    HW121740   5.716   4.474   5.409
 6947SOL    HW221741   5.789   4.616   5.377
 6948SOL     OW21742   0.441   4.517   6.877
 6948SOL    HW121743   0.530   4.517   6.922
 6948SOL    HW221744   0.370   4.491   6.943
 6949SOL     OW21745   2.258   2.050   4.090
 6949SOL    HW121746   2.316   2.086   4.163
 6949SOL    HW221747   2.162   2.053   4.119
 6950SOL     OW21748   0.370   0.656   4.601
 6950SOL    HW121749   0.373   0.599   4.682
 6950SOL    HW221750   0.460   0.696   4.585
 6951SOL     OW21751   0.659   4.137   6.924
 6951SOL    HW121752   0.573   4.148   6.973
 6951SOL    HW221753   0.728   4.198   6.964
 6952SOL     OW21754   4.892   5.721   3.884
 6952SOL    HW121755   4.797   5.714   3.916
 6952SOL    HW221756   4.951   5.744   3.961
 6953SOL     OW21757   6.352   2.123   1.059
 6953SOL    HW121758   6.279   2.187   1.034
 6953SOL    HW221759   6.441   2.165   1.037
 6954SOL     OW21760   6.546   4.976   0.031
 6954SOL    HW121761   6.452   4.950   0.055
 6954SOL    HW221762   6.610   4.915   0.077
 6955SOL     OW21763   4.561   6.342   3.262
 6955SOL    HW121764   4.656   6.314   3.277
 6955SOL    HW221765   4.558   6.439   3.239
 6956SOL     OW21766   5.872   5.262   2.293
 6956SOL    HW121767   5.863   5.282   2.195
 6956SOL    HW221768   5.963   5.225   2.312
 6957SOL     OW21769   6.228   5.605   5.809
 6957SOL    HW121770   6.238   5.704   5.798
 6957SOL    HW221771   6.306   5.558   5.767
 6958SOL     OW21772   3.095   3.962   3.489
 6958SOL    HW121773   3.167   4.015   3.533
 6958SOL    HW221774   3.040   3.915   3.559
 6959SOL     OW21775   1.516   4.382   2.790
 6959SOL    HW121776   1.569   4.302   2.818
 6959SOL    HW221777   1.529   4.397   2.692
 6960SOL     OW21778   3.509   4.302   0.889
 6960SOL    HW121779   3.584   4.267   0.944
 6960SOL    HW221780   3.469   4.227   0.836
 6961SOL     OW21781   4.446   2.444   4.962
 6961SOL    HW121782   4.468   2.520   4.902
 6961SOL    HW221783   4.352   2.452   4.994
 6962SOL     OW21784   2.422   0.019   6.535
 6962SOL    HW121785   2.375   6.992   6.458
 6962SOL    HW221786   2.388   0.113   6.545
 6963SOL     OW21787   6.339   5.882   0.682
 6963SOL    HW121788   6.295   5.807   0.633
 6963SOL    HW221789   6.366   5.852   0.774
 6964SOL     OW21790   1.640   1.343   5.395
 6964SOL    HW121791   1.602   1.418   5.450
 6964SOL    HW221792   1.700   1.381   5.325
 6965SOL     OW21793   0.656   1.628   0.012
 6965SOL    HW121794   0.663   1.728   0.011
 6965SOL    HW221795   0.655   1.596   0.107
 6966SOL     OW21796   1.868   6.687   0.933
 6966SOL    HW121797   1.872   6.786   0.951
 6966SOL    HW221798   1.959   6.654   0.908
 6967SOL     OW21799   4.470   1.447   6.459
 6967SOL    HW121800   4.558   1.465   6.503
 6967SOL    HW221801   4.396   1.455   6.527
 6968SOL     OW21802   3.713   6.505   3.289
 6968SOL    HW121803   3.741   6.456   3.207
 6968SOL    HW221804   3.614   6.520   3.286
 6969SOL     OW21805   2.188   1.535   2.567
 6969SOL    HW121806   2.206   1.451   2.619
 6969SOL    HW221807   2.176   1.513   2.470
 6970SOL     OW21808   3.854   5.469   5.306
 6970SOL    HW121809   3.846   5.452   5.208
 6970SOL    HW221810   3.877   5.565   5.321
 6971SOL     OW21811   6.591   3.958   0.359
 6971SOL    HW121812   6.635   3.878   0.400
 6971SOL    HW221813   6.559   4.019   0.432
 6972SOL     OW21814   5.421   4.063   1.442
 6972SOL    HW121815   5.326   4.045   1.470
 6972SOL    HW221816   5.421   4.109   1.353
 6973SOL     OW21817   1.979   2.355   2.696
 6973SOL    HW121818   1.977   2.310   2.785
 6973SOL    HW221819   2.021   2.294   2.629
 6974SOL     OW21820   3.851   3.397   3.041
 6974SOL    HW121821   3.831   3.482   3.088
 6974SOL    HW221822   3.779   3.376   2.975
 6975SOL     OW21823   2.878   5.368   4.432
 6975SOL    HW121824   2.868   5.451   4.488
 6975SOL    HW221825   2.789   5.324   4.423
 6976SOL     OW21826   4.658   4.307   6.492
 6976SOL    HW121827   4.697   4.223   6.530
 6976SOL    HW221828   4.623   4.288   6.400
 6977SOL     OW21829   4.565   5.342   1.972
 6977SOL    HW121830   4.507   5.413   2.012
 6977SOL    HW221831   4.513   5.290   1.904
 6978SOL     OW21832   0.090   3.824   1.574
 6978SOL    HW121833   0.065   3.858   1.665
 6978SOL    HW221834   0.028   3.749   1.549
 6979SOL     OW21835   1.696   3.052   2.075
 6979SOL    HW121836   1.787   3.010   2.074
 6979SOL    HW221837   1.695   3.131   2.015
 6980SOL     OW21838   1.763   5.709   1.956
 6980SOL    HW121839   1.855   5.720   1.918
 6980SOL    HW221840   1.726   5.620   1.930
 6981SOL     OW21841   4.325   2.704   6.707
 6981SOL    HW121842   4.424   2.691   6.703
 6981SOL    HW221843   4.303   2.795   6.671
 6982SOL     OW21844   1.851   0.634   2.642
 6982SOL    HW121845   1.757   0.628   2.610
 6982SOL    HW221846   1.909   0.673   2.570
 6983SOL     OW21847   5.671   0.783   4.205
 6983SOL    HW121848   5.643   0.689   4.188
 6983SOL    HW221849   5.664   0.804   4.302
 6984SOL     OW21850   1.134   2.805   3.085
 6984SOL    HW121851   1.049   2.842   3.122
 6984SOL    HW221852   1.139   2.827   2.987
 6985SOL     OW21853   5.836   3.510   6.740
 6985SOL    HW121854   5.792   3.600   6.742
 6985SOL    HW221855   5.869   3.491   6.648
 6986SOL     OW21856   4.669   4.491   5.382
 6986SOL    HW121857   4.661   4.588   5.404
 6986SOL    HW221858   4.701   4.441   5.462
 6987SOL     OW21859   0.418   0.981   6.718
 6987SOL    HW121860   0.450   0.888   6.737
 6987SOL    HW221861   0.460   1.045   6.782
 6988SOL     OW21862   2.940   1.937   6.679
 6988SOL    HW121863   3.020   1.993   6.699
 6988SOL    HW221864   2.944   1.852   6.732
 6989SOL     OW21865   0.743   4.931   2.696
 6989SOL    HW121866   0.654   4.953   2.656
 6989SOL    HW221867   0.736   4.847   2.749
 6990SOL     OW21868   3.966   3.511   0.659
 6990SOL    HW121869   3.973   3.428   0.715
 6990SOL    HW221870   4.026   3.503   0.580
 6991SOL     OW21871   6.557   3.210   2.824
 6991SOL    HW121872   6.534   3.307   2.824
 6991SOL    HW221873   6.513   3.165   2.746
 6992SOL     OW21874   1.268   6.093   0.063
 6992SOL    HW121875   1.260   6.024   0.135
 6992SOL    HW221876   1.355   6.081   0.015
 6993SOL     OW21877   4.629   1.547   1.248
 6993SOL    HW121878   4.540   1.558   1.294
 6993SOL    HW221879   4.697   1.604   1.294
 6994SOL     OW21880   2.662   0.807   3.659
 6994SOL    HW121881   2.747   0.816   3.607
 6994SOL    HW221882   2.616   0.722   3.632
 6995SOL     OW21883   0.165   4.286   0.953
 6995SOL    HW121884   0.163   4.213   1.022
 6995SOL    HW221885   0.193   4.248   0.865
 6996SOL     OW21886   1.318   1.433   6.670
 6996SOL    HW121887   1.373   1.409   6.590
 6996SOL    HW221888   1.223   1.407   6.654
 6997SOL     OW21889   5.801   5.333   5.936
 6997SOL    HW121890   5.855   5.339   5.852
 6997SOL    HW221891   5.718   5.280   5.919
 6998SOL     OW21892   6.842   1.429   0.291
 6998SOL    HW121893   6.858   1.422   0.193
 6998SOL    HW221894   6.859   1.523   0.321
 6999SOL     OW21895   0.385   2.853   6.849
 6999SOL    HW121896   0.288   2.867   6.828
 6999SOL    HW221897   0.393   2.794   6.929
 7000SOL     OW21898   6.902   5.389   3.458
 7000SOL    HW121899   6.903   5.378   3.557
 7000SOL    HW221900   6.995   5.407   3.425
 7001SOL     OW21901   0.046   2.288   4.002
 7001SOL    HW121902   6.963   2.291   4.002
 7001SOL    HW221903   0.082   2.372   4.043
 7002SOL     OW21904   0.855   5.502   2.477
 7002SOL    HW121905   0.953   5.509   2.496
 7002SOL    HW221906   0.828   5.405   2.479
 7003SOL     OW21907   6.714   3.780   0.524
 7003SOL    HW121908   6.686   3.839   0.599
 7003SOL    HW221909   6.797   3.730   0.549
 7004SOL     OW21910   1.768   6.269   0.797
 7004SOL    HW121911   1.744   6.310   0.885
 7004SOL    HW221912   1.865   6.286   0.778
 7005SOL     OW21913   1.148   5.843   0.756
 7005SOL    HW121914   1.131   5.938   0.727
 7005SOL    HW221915   1.156   5.785   0.675
 7006SOL     OW21916   1.077   0.103   3.863
 7006SOL    HW121917   0.983   0.123   3.834
 7006SOL    HW221918   1.076   0.031   3.933
 7007SOL     OW21919   2.553   0.558   5.897
 7007SOL    HW121920   2.633   0.551   5.957
 7007SOL    HW221921   2.481   0.498   5.932
 7008SOL     OW21922   5.362   3.608   2.815
 7008SOL    HW121923   5.292   3.680   2.808
 7008SOL    HW221924   5.317   3.520   2.829
 7009SOL     OW21925   4.420   5.634   2.468
 7009SOL    HW121926   4.514   5.668   2.475
 7009SOL    HW221927   4.411   5.576   2.387
 7010SOL     OW21928   5.100   3.814   1.708
 7010SOL    HW121929   5.012   3.848   1.740
 7010SOL    HW221930   5.135   3.747   1.773
 7011SOL     OW21931   3.438   6.555   6.733
 7011SOL    HW121932   3.392   6.644   6.733
 7011SOL    HW221933   3.487   6.543   6.646
 7012SOL     OW21934   6.772   2.914   0.329
 7012SOL    HW121935   6.703   2.986   0.339
 7012SOL    HW221936   6.776   2.860   0.413
 7013SOL     OW21937   3.218   2.461   0.259
 7013SOL    HW121938   3.167   2.477   0.343
 7013SOL    HW221939   3.155   2.447   0.183
 7014SOL     OW21940   5.674   3.274   0.490
 7014SOL    HW121941   5.751   3.267   0.427
 7014SOL    HW221942   5.638   3.183   0.510
 7015SOL     OW21943   5.629   6.452   1.319
 7015SOL    HW121944   5.614   6.465   1.221
 7015SOL    HW221945   5.547   6.414   1.360
 7016SOL     OW21946   3.393   5.016   1.050
 7016SOL    HW121947   3.347   4.927   1.057
 7016SOL    HW221948   3.492   5.002   1.045
 7017SOL     OW21949   6.126   4.931   5.296
 7017SOL    HW121950   6.152   5.019   5.258
 7017SOL    HW221951   6.060   4.886   5.236
 7018SOL     OW21952   5.261   3.716   4.427
 7018SOL    HW121953   5.361   3.720   4.426
 7018SOL    HW221954   5.229   3.731   4.521
 7019SOL     OW21955   4.231   5.836   2.454
 7019SOL    HW121956   4.302   5.769   2.477
 7019SOL    HW221957   4.251   5.922   2.502
 7020SOL     OW21958   0.542   2.570   6.205
 7020SOL    HW121959   0.630   2.615   6.224
 7020SOL    HW221960   0.484   2.632   6.152
 7021SOL     OW21961   0.785   2.037   4.646
 7021SOL    HW121962   0.762   2.087   4.729
 7021SOL    HW221963   0.842   1.958   4.670
 7022SOL     OW21964   3.339   2.294   0.884
 7022SOL    HW121965   3.312   2.218   0.943
 7022SOL    HW221966   3.419   2.339   0.924
 7023SOL     OW21967   0.296   1.851   0.263
 7023SOL    HW121968   0.356   1.868   0.341
 7023SOL    HW221969   0.308   1.922   0.194
 7024SOL     OW21970   4.171   3.670   4.880
 7024SOL    HW121971   4.222   3.632   4.803
 7024SOL    HW221972   4.077   3.638   4.876
 7025SOL     OW21973   3.130   0.377   1.062
 7025SOL    HW121974   3.033   0.383   1.085
 7025SOL    HW221975   3.142   0.385   0.963
 7026SOL     OW21976   3.724   2.904   1.175
 7026SOL    HW121977   3.754   2.845   1.249
 7026SOL    HW221978   3.744   2.999   1.198
 7027SOL     OW21979   2.430   5.014   2.716
 7027SOL    HW121980   2.525   5.028   2.689
 7027SOL    HW221981   2.383   5.102   2.721
 7028SOL     OW21982   2.951   0.070   3.770
 7028SOL    HW121983   3.001   0.122   3.840
 7028SOL    HW221984   2.905   0.133   3.708
 7029SOL     OW21985   3.412   3.812   3.922
 7029SOL    HW121986   3.509   3.837   3.917
 7029SOL    HW221987   3.357   3.889   3.890
 7030SOL     OW21988   6.594   0.966   4.619
 7030SOL    HW121989   6.529   1.002   4.552
 7030SOL    HW221990   6.686   0.993   4.593
 7031SOL     OW21991   4.417   6.610   0.648
 7031SOL    HW121992   4.406   6.616   0.549
 7031SOL    HW221993   4.451   6.697   0.683
 7032SOL     OW21994   4.545   5.617   4.538
 7032SOL    HW121995   4.594   5.630   4.624
 7032SOL    HW221996   4.526   5.520   4.524
 7033SOL     OW21997   1.674   1.755   4.704
 7033SOL    HW121998   1.713   1.683   4.647
 7033SOL    HW221999   1.714   1.751   4.796
 7034SOL     OW22000   6.544   0.547   3.368
 7034SOL    HW122001   6.484   0.603   3.425
 7034SOL    HW222002   6.571   0.465   3.418
 7035SOL     OW22003   1.839   0.129   0.353
 7035SOL    HW122004   1.886   0.217   0.355
 7035SOL    HW222005   1.801   0.113   0.262
 7036SOL     OW22006   6.381   1.501   2.779
 7036SOL    HW122007   6.385   1.576   2.844
 7036SOL    HW222008   6.473   1.481   2.745
 7037SOL     OW22009   1.333   0.504   5.679
 7037SOL    HW122010   1.421   0.488   5.723
 7037SOL    HW222011   1.267   0.436   5.709
 7038SOL     OW22012   1.106   4.114   0.115
 7038SOL    HW122013   1.155   4.200   0.128
 7038SOL    HW222014   1.156   4.040   0.161
 7039SOL     OW22015   0.212   6.420   2.400
 7039SOL    HW122016   0.181   6.502   2.352
 7039SOL    HW222017   0.150   6.344   2.380
 7040SOL     OW22018   5.197   3.394   5.086
 7040SOL    HW122019   5.165   3.477   5.041
 7040SOL    HW222020   5.124   3.355   5.142
 7041SOL     OW22021   1.735   6.725   4.166
 7041SOL    HW122022   1.789   6.665   4.108
 7041SOL    HW222023   1.794   6.771   4.233
 7042SOL     OW22024   5.405   6.047   5.447
 7042SOL    HW122025   5.503   6.048   5.468
 7042SOL    HW222026   5.370   5.954   5.459
 7043SOL     OW22027   2.278   4.951   1.248
 7043SOL    HW122028   2.310   4.867   1.204
 7043SOL    HW222029   2.353   5.017   1.253
 7044SOL     OW22030   5.667   6.950   5.003
 7044SOL    HW122031   5.664   0.016   4.947
 7044SOL    HW222032   5.576   6.932   5.041
 7045SOL     OW22033   6.264   6.207   2.452
 7045SOL    HW122034   6.350   6.167   2.484
 7045SOL    HW222035   6.188   6.167   2.504
 7046SOL     OW22036   2.312   1.369   4.468
 7046SOL    HW122037   2.231   1.327   4.510
 7046SOL    HW222038   2.353   1.306   4.403
 7047SOL     OW22039   1.315   6.556   0.610
 7047SOL    HW122040   1.370   6.529   0.532
 7047SOL    HW222041   1.261   6.637   0.587
 7048SOL     OW22042   6.999   6.209   4.375
 7048SOL    HW122043   6.936   6.136   4.401
 7048SOL    HW222044   6.965   6.254   4.292
 7049SOL     OW22045   3.604   1.210   3.690
 7049SOL    HW122046   3.615   1.237   3.594
 7049SOL    HW222047   3.556   1.283   3.740
 7050SOL     OW22048   4.145   4.005   1.266
 7050SOL    HW122049   4.061   3.963   1.231
 7050SOL    HW222050   4.174   3.959   1.349
 7051SOL     OW22051   0.869   1.204   2.006
 7051SOL    HW122052   0.797   1.137   1.984
 7051SOL    HW222053   0.903   1.186   2.098
 7052SOL     OW22054   4.413   0.709   3.044
 7052SOL    HW122055   4.500   0.737   3.003
 7052SOL    HW222056   4.395   0.613   3.021
 7053SOL     OW22057   2.028   3.421   3.368
 7053SOL    HW122058   2.061   3.327   3.371
 7053SOL    HW222059   1.950   3.431   3.431
 7054SOL     OW22060   6.191   0.969   0.360
 7054SOL    HW122061   6.202   0.947   0.456
 7054SOL    HW222062   6.220   1.064   0.344
 7055SOL     OW22063   2.541   1.126   0.170
 7055SOL    HW122064   2.487   1.164   0.246
 7055SOL    HW222065   2.535   1.026   0.172
 7056SOL     OW22066   0.222   5.407   1.200
 7056SOL    HW122067   0.198   5.493   1.244
 7056SOL    HW222068   0.172   5.398   1.114
 7057SOL     OW22069   2.590   5.502   4.523
 7057SOL    HW122070   2.623   5.528   4.432
 7057SOL    HW222071   2.491   5.484   4.519
 7058SOL     OW22072   5.690   2.730   5.858
 7058SOL    HW122073   5.717   2.712   5.952
 7058SOL    HW222074   5.723   2.820   5.830
 7059SOL     OW22075   2.095   0.338   5.197
 7059SOL    HW122076   2.145   0.317   5.281
 7059SOL    HW222077   2.149   0.400   5.140
 7060SOL     OW22078   3.222   1.496   1.267
 7060SOL    HW122079   3.205   1.470   1.172
 7060SOL    HW222080   3.272   1.423   1.313
 7061SOL     OW22081   0.953   1.538   1.695
 7061SOL    HW122082   0.889   1.473   1.735
 7061SOL    HW222083   1.032   1.549   1.755
 7062SOL     OW22084   3.357   0.407   4.126
 7062SOL    HW122085   3.449   0.441   4.147
 7062SOL    HW222086   3.363   0.318   4.081
 7063SOL     OW22087   0.389   0.825   1.192
 7063SOL    HW122088   0.389   0.800   1.095
 7063SOL    HW222089   0.306   0.876   1.213
 7064SOL     OW22090   3.910   1.502   5.371
 7064SOL    HW122091   3.976   1.552   5.314
 7064SOL    HW222092   3.842   1.458   5.313
 7065SOL     OW22093   4.035   5.670   5.605
 7065SOL    HW122094   4.106   5.737   5.583
 7065SOL    HW222095   3.971   5.663   5.528
 7066SOL     OW22096   3.627   0.341   0.420
 7066SOL    HW122097   3.722   0.371   0.406
 7066SOL    HW222098   3.594   0.297   0.336
 7067SOL     OW22099   1.723   3.180   6.350
 7067SOL    HW122100   1.782   3.231   6.413
 7067SOL    HW222101   1.636   3.158   6.396
 7068SOL     OW22102   5.323   4.041   4.397
 7068SOL    HW122103   5.289   4.034   4.491
 7068SOL    HW222104   5.249   4.021   4.333
 7069SOL     OW22105   5.372   0.721   6.292
 7069SOL    HW122106   5.276   0.696   6.281
 7069SOL    HW222107   5.389   0.810   6.249
 7070SOL     OW22108   0.095   0.440   5.454
 7070SOL    HW122109   0.062   0.436   5.359
 7070SOL    HW222110   0.025   0.402   5.515
 7071SOL     OW22111   4.785   5.345   6.696
 7071SOL    HW122112   4.698   5.353   6.646
 7071SOL    HW222113   4.830   5.260   6.670
 7072SOL     OW22114   0.921   3.666   6.048
 7072SOL    HW122115   0.930   3.758   6.088
 7072SOL    HW222116   0.921   3.598   6.121
 7073SOL     OW22117   4.402   1.418   3.862
 7073SOL    HW122118   4.482   1.374   3.822
 7073SOL    HW222119   4.323   1.357   3.854
 7074SOL     OW22120   5.301   4.468   3.349
 7074SOL    HW122121   5.264   4.375   3.339
 7074SOL    HW222122   5.270   4.507   3.436
 7075SOL     OW22123   2.811   5.042   2.993
 7075SOL    HW122124   2.732   4.980   2.997
 7075SOL    HW222125   2.801   5.104   2.916
 7076SOL     OW22126   5.797   2.658   1.393
 7076SOL    HW122127   5.757   2.585   1.338
 7076SOL    HW222128   5.740   2.740   1.386
 7077SOL     OW22129   3.863   5.284   2.017
 7077SOL    HW122130   3.776   5.255   1.976
 7077SOL    HW222131   3.936   5.275   1.949
 7078SOL     OW22132   6.274   0.568   0.034
 7078SOL    HW122133   6.250   0.633   0.105
 7078SOL    HW222134   6.373   0.565   0.023
 7079SOL     OW22135   1.429   6.269   4.577
 7079SOL    HW122136   1.489   6.301   4.504
 7079SOL    HW222137   1.438   6.331   4.656
 7080SOL     OW22138   4.149   1.946   5.791
 7080SOL    HW122139   4.156   2.046   5.790
 7080SOL    HW222140   4.061   1.919   5.831
 7081SOL     OW22141   2.052   0.247   0.181
 7081SOL    HW122142   2.128   0.227   0.242
 7081SOL    HW222143   2.024   0.163   0.134
 7082SOL     OW22144   0.510   4.111   3.097
 7082SOL    HW122145   0.574   4.035   3.096
 7082SOL    HW222146   0.417   4.077   3.095
 7083SOL     OW22147   5.335   2.423   2.621
 7083SOL    HW122148   5.346   2.343   2.681
 7083SOL    HW222149   5.240   2.431   2.593
 7084SOL     OW22150   1.238   5.482   0.022
 7084SOL    HW122151   1.171   5.547   0.056
 7084SOL    HW222152   1.206   5.389   0.037
 7085SOL     OW22153   0.719   3.948   2.037
 7085SOL    HW122154   0.784   3.974   2.108
 7085SOL    HW222155   0.736   3.853   2.010
 7086SOL     OW22156   5.363   1.301   3.855
 7086SOL    HW122157   5.318   1.321   3.942
 7086SOL    HW222158   5.314   1.228   3.809
 7087SOL     OW22159   4.872   3.310   2.961
 7087SOL    HW122160   4.878   3.258   2.876
 7087SOL    HW222161   4.874   3.408   2.939
 7088SOL     OW22162   5.704   2.170   5.247
 7088SOL    HW122163   5.665   2.078   5.253
 7088SOL    HW222164   5.785   2.176   5.305
 7089SOL     OW22165   2.762   5.427   1.485
 7089SOL    HW122166   2.729   5.454   1.575
 7089SOL    HW222167   2.796   5.333   1.489
 7090SOL     OW22168   4.368   2.845   1.266
 7090SOL    HW122169   4.351   2.763   1.213
 7090SOL    HW222170   4.383   2.820   1.362
 7091SOL     OW22171   0.409   6.319   0.436
 7091SOL    HW122172   0.470   6.330   0.357
 7091SOL    HW222173   0.404   6.404   0.487
 7092SOL     OW22174   4.479   0.456   6.163
 7092SOL    HW122175   4.487   0.384   6.232
 7092SOL    HW222176   4.556   0.519   6.172
 7093SOL     OW22177   3.473   3.333   0.785
 7093SOL    HW122178   3.545   3.402   0.790
 7093SOL    HW222179   3.489   3.262   0.853
 7094SOL     OW22180   3.375   0.345   6.335
 7094SOL    HW122181   3.413   0.435   6.316
 7094SOL    HW222182   3.369   0.292   6.251
 7095SOL     OW22183   2.295   4.854   4.448
 7095SOL    HW122184   2.356   4.915   4.398
 7095SOL    HW222185   2.311   4.865   4.546
 7096SOL     OW22186   6.610   0.460   1.273
 7096SOL    HW122187   6.551   0.486   1.349
 7096SOL    HW222188   6.576   0.375   1.232
 7097SOL     OW22189   4.975   1.703   2.188
 7097SOL    HW122190   5.049   1.638   2.200
 7097SOL    HW222191   5.012   1.792   2.161
 7098SOL     OW22192   1.023   0.127   3.524
 7098SOL    HW122193   1.106   0.179   3.542
 7098SOL    HW222194   0.945   0.189   3.520
 7099SOL     OW22195   3.055   2.197   4.346
 7099SOL    HW122196   3.105   2.174   4.263
 7099SOL    HW222197   3.080   2.134   4.420
 7100SOL     OW22198   6.757   4.079   1.791
 7100SOL    HW122199   6.657   4.092   1.792
 7100SOL    HW222200   6.778   3.984   1.812
 7101SOL     OW22201   2.307   5.903   5.154
 7101SOL    HW122202   2.288   5.998   5.179
 7101SOL    HW222203   2.223   5.850   5.158
 7102SOL     OW22204   5.880   1.167   2.213
 7102SOL    HW122205   5.901   1.165   2.115
 7102SOL    HW222206   5.891   1.261   2.247
 7103SOL     OW22207   4.939   3.653   3.144
 7103SOL    HW122208   5.038   3.637   3.135
 7103SOL    HW222209   4.896   3.571   3.183
 7104SOL     OW22210   4.930   2.921   4.148
 7104SOL    HW122211   4.977   2.896   4.232
 7104SOL    HW222212   4.976   2.999   4.105
 7105SOL     OW22213   3.459   3.832   3.605
 7105SOL    HW122214   3.498   3.862   3.518
 7105SOL    HW222215   3.522   3.770   3.651
 7106SOL     OW22216   3.333   1.912   1.725
 7106SOL    HW122217   3.249   1.858   1.727
 7106SOL    HW222218   3.336   1.974   1.803
 7107SOL     OW22219   3.984   0.476   6.335
 7107SOL    HW122220   4.025   0.406   6.277
 7107SOL    HW222221   4.049   0.551   6.349
 7108SOL     OW22222   4.677   0.629   2.110
 7108SOL    HW122223   4.773   0.609   2.126
 7108SOL    HW222224   4.624   0.602   2.191
 7109SOL     OW22225   2.469   5.319   0.160
 7109SOL    HW122226   2.387   5.289   0.112
 7109SOL    HW222227   2.541   5.250   0.149
 7110SOL     OW22228   3.570   0.037   4.508
 7110SOL    HW122229   3.649   0.076   4.460
 7110SOL    HW222230   3.488   0.089   4.484
 7111SOL     OW22231   7.014   0.867   5.053
 7111SOL    HW122232   6.956   0.796   5.093
 7111SOL    HW222233   0.058   0.826   4.984
 7112SOL     OW22234   0.745   4.959   4.961
 7112SOL    HW122235   0.810   4.963   4.885
 7112SOL    HW222236   0.692   4.874   4.954
 7113SOL     OW22237   3.508   6.224   5.038
 7113SOL    HW122238   3.559   6.138   5.042
 7113SOL    HW222239   3.527   6.278   5.120
 7114SOL     OW22240   5.906   4.200   0.987
 7114SOL    HW122241   5.985   4.255   1.012
 7114SOL    HW222242   5.885   4.136   1.062
 7115SOL     OW22243   6.159   3.784   6.329
 7115SOL    HW122244   6.168   3.850   6.254
 7115SOL    HW222245   6.216   3.814   6.406
 7116SOL     OW22246   6.382   3.818   4.609
 7116SOL    HW122247   6.375   3.859   4.518
 7116SOL    HW222248   6.294   3.827   4.656
 7117SOL     OW22249   5.450   0.024   3.395
 7117SOL    HW122250   5.480   6.946   3.392
 7117SOL    HW222251   5.421   0.053   3.304
 7118SOL     OW22252   3.811   4.427   6.127
 7118SOL    HW122253   3.741   4.498   6.122
 7118SOL    HW222254   3.772   4.340   6.097
 7119SOL     OW22255   3.568   6.767   4.974
 7119SOL    HW122256   3.631   6.802   4.905
 7119SOL    HW222257   3.605   6.786   5.065
 7120SOL     OW22258   4.510   0.845   0.671
 7120SOL    HW122259   4.436   0.877   0.730
 7120SOL    HW222260   4.590   0.823   0.726
 7121SOL     OW22261   1.157   6.077   1.918
 7121SOL    HW122262   1.151   5.983   1.950
 7121SOL    HW222263   1.103   6.136   1.978
 7122SOL     OW22264   3.584   1.974   0.172
 7122SOL    HW122265   3.605   2.051   0.112
 7122SOL    HW222266   3.625   1.890   0.135
 7123SOL     OW22267   5.567   5.192   5.896
 7123SOL    HW122268   5.557   5.211   5.798
 7123SOL    HW222269   5.481   5.157   5.933
 7124SOL     OW22270   1.370   2.150   1.036
 7124SOL    HW122271   1.319   2.167   0.952
 7124SOL    HW222272   1.313   2.095   1.098
 7125SOL     OW22273   0.506   6.367   2.271
 7125SOL    HW122274   0.494   6.268   2.261
 7125SOL    HW222275   0.438   6.403   2.335
 7126SOL     OW22276   3.512   5.391   0.811
 7126SOL    HW122277   3.456   5.318   0.773
 7126SOL    HW222278   3.505   5.472   0.752
 7127SOL     OW22279   2.373   6.352   6.102
 7127SOL    HW122280   2.403   6.440   6.140
 7127SOL    HW222281   2.447   6.285   6.110
 7128SOL     OW22282   3.761   4.144   7.000
 7128SOL    HW122283   3.828   4.195   6.946
 7128SOL    HW222284   3.672   4.190   6.997
 7129SOL     OW22285   0.634   0.137   0.549
 7129SOL    HW122286   0.561   0.165   0.487
 7129SOL    HW222287   0.600   0.067   0.611
 7130SOL     OW22288   3.343   6.707   3.951
 7130SOL    HW122289   3.314   6.619   3.988
 7130SOL    HW222290   3.263   6.758   3.919
 7131SOL     OW22291   2.168   1.358   2.069
 7131SOL    HW122292   2.076   1.347   2.107
 7131SOL    HW222293   2.176   1.303   1.986
 7132SOL     OW22294   5.249   4.443   0.744
 7132SOL    HW122295   5.271   4.369   0.680
 7132SOL    HW222296   5.308   4.437   0.824
 7133SOL     OW22297   4.857   5.732   3.068
 7133SOL    HW122298   4.944   5.746   3.022
 7133SOL    HW222299   4.784   5.725   3.000
 7134SOL     OW22300   4.864   5.449   0.166
 7134SOL    HW122301   4.964   5.452   0.161
 7134SOL    HW222302   4.836   5.412   0.254
 7135SOL     OW22303   1.328   3.296   1.195
 7135SOL    HW122304   1.311   3.394   1.183
 7135SOL    HW222305   1.369   3.281   1.285
 7136SOL     OW22306   1.295   2.203   1.854
 7136SOL    HW122307   1.371   2.162   1.802
 7136SOL    HW222308   1.308   2.302   1.860
 7137SOL     OW22309   2.524   1.433   1.222
 7137SOL    HW122310   2.601   1.409   1.281
 7137SOL    HW222311   2.442   1.384   1.252
 7138SOL     OW22312   0.773   2.429   0.552
 7138SOL    HW122313   0.683   2.463   0.578
 7138SOL    HW222314   0.818   2.496   0.493
 7139SOL     OW22315   5.833   6.205   0.867
 7139SOL    HW122316   5.864   6.238   0.777
 7139SOL    HW222317   5.839   6.105   0.869
 7140SOL     OW22318   6.395   4.327   0.422
 7140SOL    HW122319   6.302   4.329   0.385
 7140SOL    HW222320   6.450   4.398   0.378
 7141SOL     OW22321   2.885   0.456   1.171
 7141SOL    HW122322   2.935   0.529   1.217
 7141SOL    HW222323   2.828   0.495   1.098
 7142SOL     OW22324   3.934   0.093   5.189
 7142SOL    HW122325   3.963   7.015   5.198
 7142SOL    HW222326   3.923   0.115   5.092
 7143SOL     OW22327   2.784   3.552   6.848
 7143SOL    HW122328   2.719   3.625   6.867
 7143SOL    HW222329   2.835   3.572   6.764
 7144SOL     OW22330   6.668   1.239   6.224
 7144SOL    HW122331   6.658   1.303   6.300
 7144SOL    HW222332   6.589   1.246   6.164
 7145SOL     OW22333   5.399   1.700   6.237
 7145SOL    HW122334   5.494   1.724   6.220
 7145SOL    HW222335   5.368   1.742   6.322
 7146SOL     OW22336   1.113   1.960   5.869
 7146SOL    HW122337   1.176   2.037   5.872
 7146SOL    HW222338   1.044   1.970   5.940
 7147SOL     OW22339   6.395   6.357   1.722
 7147SOL    HW122340   6.370   6.339   1.627
 7147SOL    HW222341   6.315   6.342   1.781
 7148SOL     OW22342   6.141   6.714   1.104
 7148SOL    HW122343   6.189   6.801   1.117
 7148SOL    HW222344   6.046   6.725   1.132
 7149SOL     OW22345   5.822   4.661   5.757
 7149SOL    HW122346   5.892   4.641   5.689
 7149SOL    HW222347   5.859   4.647   5.848
 7150SOL     OW22348   3.228   2.852   6.816
 7150SOL    HW122349   3.241   2.942   6.858
 7150SOL    HW222350   3.138   2.817   6.841
 7151SOL     OW22351   4.700   1.322   0.125
 7151SOL    HW122352   4.747   1.411   0.134
 7151SOL    HW222353   4.749   1.253   0.178
 7152SOL     OW22354   5.947   1.002   6.717
 7152SOL    HW122355   5.850   0.989   6.693
 7152SOL    HW222356   6.003   0.993   6.635
 7153SOL     OW22357   3.517   5.425   6.935
 7153SOL    HW122358   3.448   5.369   6.889
 7153SOL    HW222359   3.535   5.506   6.880
 7154SOL     OW22360   3.865   1.729   1.943
 7154SOL    HW122361   3.872   1.631   1.926
 7154SOL    HW222362   3.769   1.756   1.946
 7155SOL     OW22363   1.294   1.200   2.070
 7155SOL    HW122364   1.364   1.218   2.140
 7155SOL    HW222365   1.233   1.278   2.063
 7156SOL     OW22366   6.363   2.901   5.240
 7156SOL    HW122367   6.399   2.820   5.193
 7156SOL    HW222368   6.372   2.889   5.339
 7157SOL     OW22369   0.384   3.921   5.963
 7157SOL    HW122370   0.459   3.877   5.914
 7157SOL    HW222371   0.351   3.860   6.035
 7158SOL     OW22372   4.616   6.899   3.960
 7158SOL    HW122373   4.709   6.862   3.959
 7158SOL    HW222374   4.554   6.831   3.998
 7159SOL     OW22375   0.160   6.446   3.644
 7159SOL    HW122376   0.085   6.425   3.707
 7159SOL    HW222377   0.224   6.369   3.644
 7160SOL     OW22378   6.201   0.189   3.745
 7160SOL    HW122379   6.146   0.211   3.825
 7160SOL    HW222380   6.141   0.180   3.665
 7161SOL     OW22381   3.854   3.609   2.765
 7161SOL    HW122382   3.894   3.517   2.761
 7161SOL    HW222383   3.781   3.616   2.697
 7162SOL     OW22384   0.176   5.981   1.572
 7162SOL    HW122385   0.180   6.081   1.579
 7162SOL    HW222386   0.207   5.941   1.659
 7163SOL     OW22387   6.923   1.143   0.795
 7163SOL    HW122388   6.843   1.092   0.764
 7163SOL    HW222389   6.991   1.145   0.722
 7164SOL     OW22390   1.698   0.832   6.631
 7164SOL    HW122391   1.644   0.830   6.715
 7164SOL    HW222392   1.706   0.926   6.598
 7165SOL     OW22393   6.110   2.666   0.478
 7165SOL    HW122394   6.201   2.628   0.466
 7165SOL    HW222395   6.109   2.761   0.445
 7166SOL     OW22396   0.382   6.234   5.869
 7166SOL    HW122397   0.446   6.185   5.810
 7166SOL    HW222398   0.341   6.309   5.818
 7167SOL     OW22399   6.557   2.445   4.981
 7167SOL    HW122400   6.497   2.368   4.999
 7167SOL    HW222401   6.607   2.429   4.895
 7168SOL     OW22402   2.196   0.951   2.017
 7168SOL    HW122403   2.288   0.912   2.006
 7168SOL    HW222404   2.162   0.981   1.928
 7169SOL     OW22405   1.988   4.199   5.749
 7169SOL    HW122406   2.005   4.104   5.774
 7169SOL    HW222407   2.052   4.226   5.677
 7170SOL     OW22408   3.559   1.488   1.061
 7170SOL    HW122409   3.493   1.562   1.049
 7170SOL    HW222410   3.547   1.448   1.152
 7171SOL     OW22411   0.081   3.862   0.661
 7171SOL    HW122412   0.084   3.945   0.605
 7171SOL    HW222413   0.169   3.850   0.707
 7172SOL     OW22414   0.866   2.252   3.763
 7172SOL    HW122415   0.886   2.220   3.856
 7172SOL    HW222416   0.904   2.187   3.697
 7173SOL     OW22417   4.939   5.355   6.126
 7173SOL    HW122418   4.857   5.343   6.070
 7173SOL    HW222419   4.982   5.442   6.104
 7174SOL     OW22420   6.598   4.317   1.985
 7174SOL    HW122421   6.534   4.299   2.059
 7174SOL    HW222422   6.565   4.394   1.930
 7175SOL     OW22423   6.699   3.893   5.631
 7175SOL    HW122424   6.638   3.927   5.559
 7175SOL    HW222425   6.645   3.868   5.711
 7176SOL     OW22426   6.976   0.510   6.144
 7176SOL    HW122427   6.944   0.464   6.061
 7176SOL    HW222428   7.014   0.443   6.207
 7177SOL     OW22429   1.309   5.684   3.603
 7177SOL    HW122430   1.406   5.677   3.628
 7177SOL    HW222431   1.276   5.594   3.573
 7178SOL     OW22432   2.077   6.343   4.848
 7178SOL    HW122433   2.122   6.276   4.789
 7178SOL    HW222434   1.983   6.315   4.864
 7179SOL     OW22435   3.697   4.947   6.064
 7179SOL    HW122436   3.720   4.865   6.012
 7179SOL    HW222437   3.695   5.026   6.003
 7180SOL     OW22438   1.887   3.196   1.791
 7180SOL    HW122439   1.833   3.249   1.857
 7180SOL    HW222440   1.983   3.198   1.817
 7181SOL     OW22441   2.000   1.681   6.694
 7181SOL    HW122442   2.078   1.740   6.715
 7181SOL    HW222443   1.915   1.728   6.720
 7182SOL     OW22444   1.809   1.321   4.117
 7182SOL    HW122445   1.865   1.239   4.101
 7182SOL    HW222446   1.789   1.329   4.214
 7183SOL     OW22447   1.471   6.624   1.904
 7183SOL    HW122448   1.468   6.548   1.969
 7183SOL    HW222449   1.378   6.646   1.873
 7184SOL     OW22450   6.269   0.982   3.633
 7184SOL    HW122451   6.273   1.076   3.666
 7184SOL    HW222452   6.302   0.979   3.538
 7185SOL     OW22453   4.285   0.537   4.695
 7185SOL    HW122454   4.196   0.522   4.653
 7185SOL    HW222455   4.337   0.602   4.640
 7186SOL     OW22456   6.323   0.839   6.929
 7186SOL    HW122457   6.261   0.781   6.875
 7186SOL    HW222458   6.279   0.927   6.946
 7187SOL     OW22459   3.268   3.400   4.303
 7187SOL    HW122460   3.235   3.475   4.360
 7187SOL    HW222461   3.200   3.325   4.303
 7188SOL     OW22462   4.491   4.377   6.890
 7188SOL    HW122463   4.479   4.334   6.801
 7188SOL    HW222464   4.533   4.467   6.878
 7189SOL     OW22465   6.319   2.686   5.581
 7189SOL    HW122466   6.297   2.598   5.538
 7189SOL    HW222467   6.236   2.725   5.622
 7190SOL     OW22468   6.533   5.161   0.281
 7190SOL    HW122469   6.532   5.073   0.235
 7190SOL    HW222470   6.617   5.171   0.334
 7191SOL     OW22471   6.765   5.014   3.023
 7191SOL    HW122472   6.731   5.097   3.067
 7191SOL    HW222473   6.724   5.005   2.933
 7192SOL     OW22474   2.208   4.039   5.937
 7192SOL    HW122475   2.177   4.080   6.023
 7192SOL    HW222476   2.263   4.106   5.887
 7193SOL     OW22477   3.445   2.106   3.263
 7193SOL    HW122478   3.531   2.057   3.251
 7193SOL    HW222479   3.455   2.174   3.336
 7194SOL     OW22480   2.733   2.931   6.008
 7194SOL    HW122481   2.806   2.910   5.943
 7194SOL    HW222482   2.746   2.877   6.091
 7195SOL     OW22483   0.680   4.689   4.902
 7195SOL    HW122484   0.658   4.676   4.805
 7195SOL    HW222485   0.760   4.634   4.925
 7196SOL     OW22486   3.589   4.198   1.989
 7196SOL    HW122487   3.567   4.267   2.058
 7196SOL    HW222488   3.618   4.114   2.034
 7197SOL     OW22489   3.189   4.611   6.365
 7197SOL    HW122490   3.201   4.603   6.266
 7197SOL    HW222491   3.092   4.605   6.387
 7198SOL     OW22492   0.666   1.037   1.983
 7198SOL    HW122493   0.678   0.956   1.925
 7198SOL    HW222494   0.569   1.044   2.009
 7199SOL     OW22495   6.176   1.659   2.622
 7199SOL    HW122496   6.220   1.597   2.687
 7199SOL    HW222497   6.241   1.683   2.550
 7200SOL     OW22498   1.162   2.223   0.465
 7200SOL    HW122499   1.214   2.283   0.526
 7200SOL    HW222500   1.164   2.129   0.500
 7201SOL     OW22501   6.201   5.126   4.254
 7201SOL    HW122502   6.259   5.104   4.332
 7201SOL    HW222503   6.223   5.218   4.222
 7202SOL     OW22504   4.751   6.859   6.051
 7202SOL    HW122505   4.824   6.911   6.095
 7202SOL    HW222506   4.735   6.774   6.102
 7203SOL     OW22507   0.229   1.775   1.121
 7203SOL    HW122508   0.169   1.701   1.152
 7203SOL    HW222509   0.279   1.746   1.040
 7204SOL     OW22510   6.609   0.361   2.370
 7204SOL    HW122511   6.635   0.269   2.400
 7204SOL    HW222512   6.544   0.400   2.435
 7205SOL     OW22513   2.995   1.744   3.737
 7205SOL    HW122514   2.978   1.772   3.832
 7205SOL    HW222515   2.912   1.705   3.698
 7206SOL     OW22516   2.211   3.350   0.030
 7206SOL    HW122517   2.204   3.252   0.012
 7206SOL    HW222518   2.161   3.373   0.114
 7207SOL     OW22519   1.782   0.935   3.635
 7207SOL    HW122520   1.741   0.859   3.684
 7207SOL    HW222521   1.815   0.904   3.546
 7208SOL     OW22522   2.937   0.736   4.098
 7208SOL    HW122523   2.858   0.742   4.036
 7208SOL    HW222524   3.020   0.756   4.047
 7209SOL     OW22525   3.605   1.302   2.075
 7209SOL    HW122526   3.540   1.286   2.149
 7209SOL    HW222527   3.563   1.277   1.988
 7210SOL     OW22528   2.885   1.326   3.211
 7210SOL    HW122529   2.976   1.297   3.239
 7210SOL    HW222530   2.818   1.301   3.281
 7211SOL     OW22531   4.760   6.303   5.478
 7211SOL    HW122532   4.741   6.288   5.381
 7211SOL    HW222533   4.766   6.401   5.496
 7212SOL     OW22534   0.161   4.467   6.095
 7212SOL    HW122535   0.257   4.453   6.070
 7212SOL    HW222536   0.134   4.561   6.071
 7213SOL     OW22537   3.914   1.923   7.006
 7213SOL    HW122538   4.003   1.878   7.002
 7213SOL    HW222539   3.906   1.972   0.076
 7214SOL     OW22540   6.266   0.564   6.297
 7214SOL    HW122541   6.190   0.532   6.240
 7214SOL    HW222542   6.283   0.499   6.371
 7215SOL     OW22543   5.974   2.105   3.027
 7215SOL    HW122544   5.940   2.199   3.030
 7215SOL    HW222545   5.986   2.078   2.931
 7216SOL     OW22546   3.922   6.656   3.449
 7216SOL    HW122547   3.951   6.745   3.414
 7216SOL    HW222548   3.860   6.613   3.384
 7217SOL     OW22549   1.081   3.097   2.774
 7217SOL    HW122550   1.074   3.195   2.796
 7217SOL    HW222551   1.175   3.076   2.749
 7218SOL     OW22552   6.508   2.992   4.502
 7218SOL    HW122553   6.525   3.089   4.517
 7218SOL    HW222554   6.410   2.978   4.486
 7219SOL     OW22555   3.403   6.453   2.564
 7219SOL    HW122556   3.382   6.383   2.496
 7219SOL    HW222557   3.360   6.539   2.538
 7220SOL     OW22558   6.278   4.594   3.971
 7220SOL    HW122559   6.349   4.593   3.901
 7220SOL    HW222560   6.215   4.670   3.954
 7221SOL     OW22561   3.814   5.581   3.933
 7221SOL    HW122562   3.745   5.548   3.868
 7221SOL    HW222563   3.794   5.675   3.958
 7222SOL     OW22564   6.393   5.683   4.884
 7222SOL    HW122565   6.446   5.598   4.879
 7222SOL    HW222566   6.433   5.751   4.823
 7223SOL     OW22567   0.128   4.047   2.146
 7223SOL    HW122568   0.190   4.092   2.210
 7223SOL    HW222569   0.064   4.114   2.109
 7224SOL     OW22570   4.113   1.844   2.432
 7224SOL    HW122571   4.057   1.927   2.441
 7224SOL    HW222572   4.057   1.770   2.397
 7225SOL     OW22573   1.407   5.668   0.788
 7225SOL    HW122574   1.479   5.653   0.856
 7225SOL    HW222575   1.424   5.754   0.740
 7226SOL     OW22576   6.355   6.575   0.564
 7226SOL    HW122577   6.405   6.601   0.481
 7226SOL    HW222578   6.376   6.640   0.637
 7227SOL     OW22579   2.169   0.936   2.593
 7227SOL    HW122580   2.082   0.923   2.546
 7227SOL    HW222581   2.215   0.848   2.602
 7228SOL     OW22582   0.165   3.208   2.142
 7228SOL    HW122583   0.208   3.201   2.232
 7228SOL    HW222584   0.075   3.165   2.145
 7229SOL     OW22585   6.315   1.177   5.092
 7229SOL    HW122586   6.410   1.197   5.118
 7229SOL    HW222587   6.297   1.214   5.001
 7230SOL     OW22588   2.271   5.287   4.510
 7230SOL    HW122589   2.178   5.254   4.520
 7230SOL    HW222590   2.327   5.254   4.586
 7231SOL     OW22591   4.064   2.150   6.006
 7231SOL    HW122592   4.152   2.147   6.053
 7231SOL    HW222593   4.024   2.059   6.001
 7232SOL     OW22594   5.093   6.470   3.785
 7232SOL    HW122595   5.103   6.392   3.847
 7232SOL    HW222596   4.997   6.482   3.760
 7233SOL     OW22597   0.153   1.229   4.765
 7233SOL    HW122598   0.096   1.301   4.804
 7233SOL    HW222599   0.249   1.244   4.790
 7234SOL     OW22600   5.116   4.184   3.487
 7234SOL    HW122601   5.152   4.254   3.549
 7234SOL    HW222602   5.104   4.224   3.396
 7235SOL     OW22603   6.917   5.415   1.543
 7235SOL    HW122604   6.950   5.509   1.542
 7235SOL    HW222605   6.834   5.409   1.599
 7236SOL     OW22606   0.959   3.654   2.529
 7236SOL    HW122607   0.929   3.559   2.529
 7236SOL    HW222608   1.025   3.669   2.603
 7237SOL     OW22609   5.901   0.862   0.559
 7237SOL    HW122610   6.001   0.864   0.552
 7237SOL    HW222611   5.868   0.952   0.589
 7238SOL     OW22612   4.104   3.370   6.830
 7238SOL    HW122613   4.037   3.354   6.903
 7238SOL    HW222614   4.144   3.283   6.801
 7239SOL     OW22615   6.772   2.670   1.937
 7239SOL    HW122616   6.715   2.595   1.970
 7239SOL    HW222617   6.841   2.635   1.874
 7240SOL     OW22618   6.617   2.053   0.107
 7240SOL    HW122619   6.664   2.001   0.178
 7240SOL    HW222620   6.525   2.016   0.093
 7241SOL     OW22621   2.432   1.279   1.642
 7241SOL    HW122622   2.492   1.251   1.717
 7241SOL    HW222623   2.447   1.376   1.622
 7242SOL     OW22624   6.676   4.764   4.405
 7242SOL    HW122625   6.763   4.810   4.390
 7242SOL    HW222626   6.601   4.826   4.382
 7243SOL     OW22627   5.953   4.529   6.323
 7243SOL    HW122628   5.890   4.455   6.298
 7243SOL    HW222629   6.043   4.491   6.343
 7244SOL     OW22630   0.449   6.215   6.721
 7244SOL    HW122631   0.538   6.259   6.729
 7244SOL    HW222632   0.458   6.118   6.746
 7245SOL     OW22633   0.861   2.914   0.488
 7245SOL    HW122634   0.929   2.935   0.418
 7245SOL    HW222635   0.891   2.950   0.576
 7246SOL     OW22636   4.060   6.773   3.859
 7246SOL    HW122637   3.969   6.738   3.884
 7246SOL    HW222638   4.115   6.698   3.823
 7247SOL     OW22639   3.001   4.141   5.311
 7247SOL    HW122640   3.099   4.136   5.333
 7247SOL    HW222641   2.983   4.093   5.226
 7248SOL     OW22642   3.150   1.068   4.985
 7248SOL    HW122643   3.134   1.138   4.915
 7248SOL    HW222644   3.106   1.095   5.070
 7249SOL     OW22645   3.896   5.045   2.464
 7249SOL    HW122646   3.866   4.957   2.427
 7249SOL    HW222647   3.852   5.119   2.414
 7250SOL     OW22648   5.360   5.093   5.324
 7250SOL    HW122649   5.398   5.015   5.375
 7250SOL    HW222650   5.329   5.061   5.234
 7251SOL     OW22651   0.062   5.997   5.654
 7251SOL    HW122652   0.159   6.010   5.636
 7251SOL    HW222653   0.009   6.068   5.607
 7252SOL     OW22654   3.497   4.114   2.589
 7252SOL    HW122655   3.482   4.022   2.552
 7252SOL    HW222656   3.475   4.182   2.520
 7253SOL     OW22657   2.153   6.113   4.732
 7253SOL    HW122658   2.192   6.098   4.641
 7253SOL    HW222659   2.201   6.056   4.799
 7254SOL     OW22660   5.326   3.484   3.843
 7254SOL    HW122661   5.263   3.476   3.920
 7254SOL    HW222662   5.375   3.571   3.850
 7255SOL     OW22663   4.958   2.794   6.519
 7255SOL    HW122664   4.968   2.783   6.420
 7255SOL    HW222665   4.862   2.799   6.543
 7256SOL     OW22666   3.537   0.357   5.430
 7256SOL    HW122667   3.487   0.287   5.482
 7256SOL    HW222668   3.624   0.318   5.398
 7257SOL     OW22669   0.669   1.731   4.366
 7257SOL    HW122670   0.669   1.805   4.298
 7257SOL    HW222671   0.688   1.644   4.320
 7258SOL     OW22672   6.227   2.268   2.654
 7258SOL    HW122673   6.203   2.363   2.632
 7258SOL    HW222674   6.215   2.253   2.753
 7259SOL     OW22675   1.564   3.749   2.463
 7259SOL    HW122676   1.581   3.722   2.558
 7259SOL    HW222677   1.515   3.836   2.461
 7260SOL     OW22678   5.917   3.375   1.449
 7260SOL    HW122679   5.935   3.278   1.436
 7260SOL    HW222680   5.920   3.397   1.547
 7261SOL     OW22681   6.657   4.595   6.939
 7261SOL    HW122682   6.726   4.524   6.931
 7261SOL    HW222683   6.694   4.673   6.989
 7262SOL     OW22684   6.282   1.372   5.532
 7262SOL    HW122685   6.280   1.290   5.589
 7262SOL    HW222686   6.377   1.404   5.524
 7263SOL     OW22687   0.543   5.238   6.998
 7263SOL    HW122688   0.527   5.206   6.905
 7263SOL    HW222689   0.594   5.324   6.995
 7264SOL     OW22690   6.316   1.805   0.269
 7264SOL    HW122691   6.339   1.795   0.366
 7264SOL    HW222692   6.260   1.727   0.240
 7265SOL     OW22693   4.355   5.754   5.573
 7265SOL    HW122694   4.397   5.725   5.487
 7265SOL    HW222695   4.405   5.713   5.649
 7266SOL     OW22696   0.286   0.767   3.844
 7266SOL    HW122697   0.251   0.830   3.913
 7266SOL    HW222698   0.379   0.740   3.867
 7267SOL     OW22699   6.297   4.742   4.640
 7267SOL    HW122700   6.289   4.688   4.556
 7267SOL    HW222701   6.348   4.690   4.709
 7268SOL     OW22702   6.302   6.323   4.123
 7268SOL    HW122703   6.305   6.419   4.149
 7268SOL    HW222704   6.353   6.269   4.190
 7269SOL     OW22705   2.468   4.501   5.250
 7269SOL    HW122706   2.552   4.544   5.282
 7269SOL    HW222707   2.479   4.402   5.247
 7270SOL     OW22708   0.777   1.182   4.416
 7270SOL    HW122709   0.814   1.120   4.486
 7270SOL    HW222710   0.749   1.268   4.459
 7271SOL     OW22711   1.039   4.392   3.489
 7271SOL    HW122712   0.984   4.396   3.572
 7271SOL    HW222713   1.072   4.299   3.474
 7272SOL     OW22714   6.307   4.777   2.911
 7272SOL    HW122715   6.275   4.870   2.898
 7272SOL    HW222716   6.388   4.777   2.969
 7273SOL     OW22717   0.409   2.464   5.309
 7273SOL    HW122718   0.416   2.489   5.406
 7273SOL    HW222719   0.365   2.538   5.259
 7274SOL     OW22720   0.525   4.712   0.255
 7274SOL    HW122721   0.609   4.760   0.276
 7274SOL    HW222722   0.525   4.623   0.302
 7275SOL     OW22723   0.015   0.263   3.044
 7275SOL    HW122724   0.022   0.258   2.944
 7275SOL    HW222725   0.049   0.352   3.075
 7276SOL     OW22726   5.535   6.645   4.409
 7276SOL    HW122727   5.548   6.724   4.348
 7276SOL    HW222728   5.584   6.660   4.494
 7277SOL     OW22729   4.709   0.190   6.089
 7277SOL    HW122730   4.754   0.277   6.070
 7277SOL    HW222731   4.778   0.121   6.112
 7278SOL     OW22732   3.001   3.912   3.013
 7278SOL    HW122733   3.045   3.900   3.102
 7278SOL    HW222734   2.975   3.823   2.976
 7279SOL     OW22735   3.246   6.573   5.791
 7279SOL    HW122736   3.176   6.554   5.722
 7279SOL    HW222737   3.330   6.601   5.746
 7280SOL     OW22738   4.814   1.613   5.931
 7280SOL    HW122739   4.726   1.646   5.962
 7280SOL    HW222740   4.881   1.687   5.933
 7281SOL     OW22741   4.839   0.938   6.661
 7281SOL    HW122742   4.839   0.925   6.760
 7281SOL    HW222743   4.779   1.014   6.637
 7282SOL     OW22744   6.153   5.666   2.184
 7282SOL    HW122745   6.212   5.746   2.172
 7282SOL    HW222746   6.093   5.680   2.262
 7283SOL     OW22747   1.721   0.479   3.819
 7283SOL    HW122748   1.677   0.424   3.890
 7283SOL    HW222749   1.766   0.419   3.753
 7284SOL     OW22750   0.083   4.068   4.695
 7284SOL    HW122751   0.116   4.011   4.620
 7284SOL    HW222752   0.048   4.010   4.768
 7285SOL     OW22753   4.946   5.848   1.656
 7285SOL    HW122754   4.890   5.906   1.715
 7285SOL    HW222755   4.889   5.775   1.618
 7286SOL     OW22756   2.226   3.334   1.417
 7286SOL    HW122757   2.228   3.340   1.516
 7286SOL    HW222758   2.224   3.238   1.389
 7287SOL     OW22759   6.059   1.596   6.290
 7287SOL    HW122760   6.118   1.617   6.369
 7287SOL    HW222761   6.017   1.507   6.303
 7288SOL     OW22762   3.762   6.536   0.041
 7288SOL    HW122763   3.769   6.529   0.141
 7288SOL    HW222764   3.822   6.468   7.016
 7289SOL     OW22765   4.437   2.018   2.988
 7289SOL    HW122766   4.532   2.019   2.958
 7289SOL    HW222767   4.382   1.965   2.924
 7290SOL     OW22768   2.768   5.300   4.720
 7290SOL    HW122769   2.819   5.220   4.753
 7290SOL    HW222770   2.832   5.374   4.701
 7291SOL     OW22771   2.503   5.882   1.726
 7291SOL    HW122772   2.597   5.860   1.699
 7291SOL    HW222773   2.477   5.827   1.805
 7292SOL     OW22774   2.761   6.664   4.120
 7292SOL    HW122775   2.746   6.703   4.029
 7292SOL    HW222776   2.708   6.714   4.188
 7293SOL     OW22777   1.131   2.185   5.113
 7293SOL    HW122778   1.185   2.136   5.182
 7293SOL    HW222779   1.042   2.208   5.151
 7294SOL     OW22780   3.369   5.148   0.753
 7294SOL    HW122781   3.406   5.108   0.837
 7294SOL    HW222782   3.345   5.075   0.690
 7295SOL     OW22783   5.992   0.916   1.193
 7295SOL    HW122784   6.072   0.961   1.154
 7295SOL    HW222785   5.965   0.840   1.133
 7296SOL     OW22786   3.736   4.993   1.312
 7296SOL    HW122787   3.654   4.985   1.368
 7296SOL    HW222788   3.804   4.926   1.342
 7297SOL     OW22789   4.935   6.858   1.662
 7297SOL    HW122790   4.947   6.785   1.729
 7297SOL    HW222791   4.892   6.821   1.579
 7298SOL     OW22792   5.825   3.695   4.337
 7298SOL    HW122793   5.808   3.611   4.388
 7298SOL    HW222794   5.816   3.676   4.239
 7299SOL     OW22795   6.551   4.311   6.847
 7299SOL    HW122796   6.556   4.391   6.788
 7299SOL    HW222797   6.636   4.259   6.842
 7300SOL     OW22798   4.616   5.146   1.152
 7300SOL    HW122799   4.553   5.080   1.112
 7300SOL    HW222800   4.709   5.109   1.149
 7301SOL     OW22801   6.868   0.337   5.971
 7301SOL    HW122802   6.774   0.371   5.973
 7301SOL    HW222803   6.868   0.240   5.947
 7302SOL     OW22804   5.631   0.942   6.656
 7302SOL    HW122805   5.632   0.874   6.730
 7302SOL    HW222806   5.570   0.910   6.583
 7303SOL     OW22807   3.449   0.931   0.252
 7303SOL    HW122808   3.444   1.028   0.276
 7303SOL    HW222809   3.402   0.877   0.321
 7304SOL     OW22810   3.469   3.737   5.814
 7304SOL    HW122811   3.433   3.656   5.859
 7304SOL    HW222812   3.506   3.712   5.724
 7305SOL     OW22813   5.053   1.332   0.750
 7305SOL    HW122814   5.075   1.316   0.654
 7305SOL    HW222815   5.095   1.418   0.780
 7306SOL     OW22816   4.816   4.969   1.868
 7306SOL    HW122817   4.803   5.038   1.939
 7306SOL    HW222818   4.848   4.884   1.909
 7307SOL     OW22819   3.975   6.575   2.367
 7307SOL    HW122820   3.964   6.654   2.428
 7307SOL    HW222821   3.921   6.590   2.284
 7308SOL     OW22822   6.697   3.024   4.717
 7308SOL    HW122823   6.744   2.938   4.737
 7308SOL    HW222824   6.646   3.014   4.631
 7309SOL     OW22825   4.590   6.434   1.567
 7309SOL    HW122826   4.530   6.513   1.558
 7309SOL    HW222827   4.568   6.384   1.650
 7310SOL     OW22828   3.121   5.078   1.568
 7310SOL    HW122829   3.206   5.071   1.620
 7310SOL    HW222830   3.095   4.987   1.536
 7311SOL     OW22831   2.771   2.057   1.977
 7311SOL    HW122832   2.831   2.131   2.007
 7311SOL    HW222833   2.682   2.095   1.951
 7312SOL     OW22834   6.745   1.337   5.867
 7312SOL    HW122835   6.653   1.307   5.841
 7312SOL    HW222836   6.741   1.433   5.897
 7313SOL     OW22837   4.231   2.593   6.457
 7313SOL    HW122838   4.258   2.625   6.547
 7313SOL    HW222839   4.312   2.564   6.406
 7314SOL     OW22840   6.994   3.501   4.372
 7314SOL    HW122841   6.952   3.493   4.462
 7314SOL    HW222842   0.036   3.422   4.355
 7315SOL     OW22843   6.684   0.196   4.024
 7315SOL    HW122844   6.628   0.217   4.105
 7315SOL    HW222845   6.672   0.268   3.956
 7316SOL     OW22846   3.339   3.555   5.547
 7316SOL    HW122847   3.292   3.638   5.576
 7316SOL    HW222848   3.434   3.577   5.526
 7317SOL     OW22849   3.427   1.009   3.760
 7317SOL    HW122850   3.348   1.043   3.811
 7317SOL    HW222851   3.469   1.084   3.709
 7318SOL     OW22852   1.788   2.269   1.225
 7318SOL    HW122853   1.760   2.361   1.252
 7318SOL    HW222854   1.886   2.257   1.242
 7319SOL     OW22855   5.867   4.525   6.646
 7319SOL    HW122856   5.858   4.426   6.638
 7319SOL    HW222857   5.928   4.559   6.574
 7320SOL     OW22858   0.265   3.139   2.397
 7320SOL    HW122859   0.205   3.121   2.475
 7320SOL    HW222860   0.283   3.054   2.348
 7321SOL     OW22861   2.738   1.235   4.342
 7321SOL    HW122862   2.706   1.227   4.248
 7321SOL    HW222863   2.744   1.332   4.367
 7322SOL     OW22864   0.337   4.269   2.796
 7322SOL    HW122865   0.416   4.243   2.740
 7322SOL    HW222866   0.306   4.189   2.848
 7323SOL     OW22867   1.917   3.026   3.601
 7323SOL    HW122868   1.884   3.019   3.695
 7323SOL    HW222869   1.915   2.935   3.558
 7324SOL     OW22870   5.595   0.223   2.824
 7324SOL    HW122871   5.686   0.206   2.786
 7324SOL    HW222872   5.583   0.170   2.908
 7325SOL     OW22873   3.328   6.197   6.582
 7325SOL    HW122874   3.328   6.205   6.682
 7325SOL    HW222875   3.234   6.183   6.550
 7326SOL     OW22876   2.990   6.803   5.666
 7326SOL    HW122877   3.065   6.859   5.702
 7326SOL    HW222878   2.923   6.786   5.738
 7327SOL     OW22879   1.473   3.037   5.664
 7327SOL    HW122880   1.418   3.121   5.666
 7327SOL    HW222881   1.552   3.047   5.725
 7328SOL     OW22882   2.584   0.060   6.954
 7328SOL    HW122883   2.546   7.002   6.900
 7328SOL    HW222884   2.554   0.148   6.917
 7329SOL     OW22885   4.043   3.148   1.083
 7329SOL    HW122886   4.124   3.097   1.110
 7329SOL    HW222887   3.988   3.168   1.164
 7330SOL     OW22888   3.672   1.464   0.216
 7330SOL    HW122889   3.653   1.372   0.182
 7330SOL    HW222890   3.624   1.532   0.160
 7331SOL     OW22891   5.375   0.278   1.805
 7331SOL    HW122892   5.364   0.366   1.758
 7331SOL    HW222893   5.410   0.210   1.740
 7332SOL     OW22894   3.755   5.384   0.956
 7332SOL    HW122895   3.677   5.402   0.897
 7332SOL    HW222896   3.724   5.337   1.039
 7333SOL     OW22897   1.351   4.845   2.503
 7333SOL    HW122898   1.313   4.812   2.590
 7333SOL    HW222899   1.451   4.851   2.511
 7334SOL     OW22900   3.780   6.373   4.507
 7334SOL    HW122901   3.868   6.411   4.536
 7334SOL    HW222902   3.764   6.397   4.411
 7335SOL     OW22903   1.923   2.609   2.606
 7335SOL    HW122904   1.970   2.527   2.637
 7335SOL    HW222905   1.851   2.584   2.542
 7336SOL     OW22906   2.147   6.217   3.531
 7336SOL    HW122907   2.148   6.193   3.433
 7336SOL    HW222908   2.162   6.315   3.541
 7337SOL     OW22909   6.967   3.032   2.180
 7337SOL    HW122910   6.999   2.978   2.258
 7337SOL    HW222911   6.883   3.081   2.205
 7338SOL     OW22912   6.717   2.718   0.523
 7338SOL    HW122913   6.679   2.669   0.444
 7338SOL    HW222914   6.656   2.707   0.601
 7339SOL     OW22915   6.706   5.709   4.775
 7339SOL    HW122916   6.658   5.674   4.695
 7339SOL    HW222917   6.723   5.807   4.764
 7340SOL     OW22918   2.338   6.995   6.821
 7340SOL    HW122919   2.257   6.954   6.780
 7340SOL    HW222920   2.406   7.013   6.750
 7341SOL     OW22921   5.946   2.644   6.566
 7341SOL    HW122922   5.896   2.720   6.608
 7341SOL    HW222923   6.037   2.675   6.540
 7342SOL     OW22924   0.373   6.765   2.584
 7342SOL    HW122925   0.392   6.863   2.585
 7342SOL    HW222926   0.306   6.743   2.655
 7343SOL     OW22927   5.200   3.907   0.152
 7343SOL    HW122928   5.169   3.975   0.086
 7343SOL    HW222929   5.125   3.883   0.213
 7344SOL     OW22930   1.701   6.267   6.288
 7344SOL    HW122931   1.664   6.298   6.376
 7344SOL    HW222932   1.628   6.228   6.232
 7345SOL     OW22933   3.646   5.373   6.059
 7345SOL    HW122934   3.564   5.350   6.007
 7345SOL    HW222935   3.619   5.419   6.144
 7346SOL     OW22936   5.156   4.546   3.090
 7346SOL    HW122937   5.168   4.466   3.149
 7346SOL    HW222938   5.243   4.594   3.081
 7347SOL     OW22939   5.681   2.275   6.665
 7347SOL    HW122940   5.698   2.282   6.763
 7347SOL    HW222941   5.762   2.308   6.615
 7348SOL     OW22942   0.245   4.704   1.958
 7348SOL    HW122943   0.207   4.760   1.884
 7348SOL    HW222944   0.174   4.684   2.024
 7349SOL     OW22945   3.784   1.890   1.316
 7349SOL    HW122946   3.846   1.906   1.393
 7349SOL    HW222947   3.700   1.942   1.331
 7350SOL     OW22948   3.586   0.230   5.049
 7350SOL    HW122949   3.582   0.328   5.029
 7350SOL    HW222950   3.632   0.183   4.974
 7351SOL     OW22951   3.297   4.901   4.011
 7351SOL    HW122952   3.225   4.933   3.950
 7351SOL    HW222953   3.266   4.820   4.059
 7352SOL     OW22954   6.855   2.473   3.709
 7352SOL    HW122955   6.907   2.430   3.783
 7352SOL    HW222956   6.914   2.537   3.659
 7353SOL     OW22957   6.427   0.459   6.491
 7353SOL    HW122958   6.404   0.388   6.557
 7353SOL    HW222959   6.477   0.533   6.536
 7354SOL     OW22960   0.994   1.736   3.043
 7354SOL    HW122961   0.906   1.762   3.004
 7354SOL    HW222962   1.037   1.816   3.084
 7355SOL     OW22963   1.364   2.043   6.893
 7355SOL    HW122964   1.302   2.115   6.923
 7355SOL    HW222965   1.425   2.017   6.969
 7356SOL     OW22966   4.669   4.312   6.216
 7356SOL    HW122967   4.640   4.375   6.144
 7356SOL    HW222968   4.663   4.218   6.182
 7357SOL     OW22969   5.527   5.834   2.218
 7357SOL    HW122970   5.449   5.854   2.277
 7357SOL    HW222971   5.522   5.739   2.188
 7358SOL     OW22972   5.417   0.729   3.606
 7358SOL    HW122973   5.440   0.755   3.700
 7358SOL    HW222974   5.323   0.696   3.603
 7359SOL     OW22975   4.778   0.023   0.662
 7359SOL    HW122976   4.762   0.101   0.723
 7359SOL    HW222977   4.770   6.955   0.715
 7360SOL     OW22978   2.880   3.782   5.415
 7360SOL    HW122979   2.884   3.706   5.350
 7360SOL    HW222980   2.960   3.841   5.403
 7361SOL     OW22981   5.172   0.361   3.564
 7361SOL    HW122982   5.209   0.271   3.542
 7361SOL    HW222983   5.092   0.379   3.508
 7362SOL     OW22984   3.711   5.253   6.452
 7362SOL    HW122985   3.719   5.181   6.383
 7362SOL    HW222986   3.666   5.215   6.533
 7363SOL     OW22987   3.899   0.203   1.059
 7363SOL    HW122988   3.968   0.221   0.989
 7363SOL    HW222989   3.929   0.243   1.146
 7364SOL     OW22990   5.516   6.822   1.530
 7364SOL    HW122991   5.482   6.774   1.449
 7364SOL    HW222992   5.466   6.908   1.542
 7365SOL     OW22993   5.926   4.887   1.980
 7365SOL    HW122994   5.939   4.862   1.884
 7365SOL    HW222995   5.832   4.869   2.007
 7366SOL     OW22996   2.034   1.130   4.200
 7366SOL    HW122997   1.953   1.156   4.253
 7366SOL    HW222998   2.009   1.055   4.137
 7367SOL     OW22999   4.431   0.241   6.849
 7367SOL    HW123000   4.342   0.273   6.817
 7367SOL    HW223001   4.441   0.260   6.947
 7368SOL     OW23002   4.150   3.508   3.313
 7368SOL    HW123003   4.184   3.580   3.253
 7368SOL    HW223004   4.149   3.421   3.263
 7369SOL     OW23005   5.447   2.431   0.962
 7369SOL    HW123006   5.539   2.463   0.939
 7369SOL    HW223007   5.436   2.336   0.932
 7370SOL     OW23008   1.958   1.914   4.136
 7370SOL    HW123009   1.978   1.977   4.211
 7370SOL    HW223010   2.027   1.841   4.134
 7371SOL     OW23011   3.834   0.774   3.832
 7371SOL    HW123012   3.760   0.820   3.882
 7371SOL    HW223013   3.901   0.842   3.802
 7372SOL     OW23014   5.243   0.607   5.380
 7372SOL    HW123015   5.343   0.605   5.384
 7372SOL    HW223016   5.211   0.700   5.402
 7373SOL     OW23017   5.581   3.056   4.358
 7373SOL    HW123018   5.592   3.117   4.437
 7373SOL    HW223019   5.548   2.967   4.389
 7374SOL     OW23020   6.354   1.772   5.795
 7374SOL    HW123021   6.383   1.677   5.808
 7374SOL    HW223022   6.426   1.822   5.747
 7375SOL     OW23023   1.835   3.544   2.165
 7375SOL    HW123024   1.801   3.469   2.222
 7375SOL    HW223025   1.821   3.631   2.211
 7376SOL     OW23026   0.197   3.527   6.914
 7376SOL    HW123027   0.152   3.613   6.941
 7376SOL    HW223028   0.292   3.528   6.945
 7377SOL     OW23029   3.180   5.990   0.811
 7377SOL    HW123030   3.120   5.965   0.735
 7377SOL    HW223031   3.132   6.055   0.871
 7378SOL     OW23032   1.110   5.736   3.781
 7378SOL    HW123033   1.179   5.726   3.710
 7378SOL    HW223034   1.147   5.790   3.857
 7379SOL     OW23035   3.842   1.134   1.102
 7379SOL    HW123036   3.841   1.036   1.120
 7379SOL    HW223037   3.919   1.176   1.150
 7380SOL     OW23038   5.166   3.682   2.310
 7380SOL    HW123039   5.216   3.671   2.396
 7380SOL    HW223040   5.142   3.778   2.297
 7381SOL     OW23041   3.483   1.157   0.726
 7381SOL    HW123042   3.531   1.183   0.809
 7381SOL    HW223043   3.414   1.088   0.747
 7382SOL     OW23044   6.623   1.425   6.454
 7382SOL    HW123045   6.565   1.394   6.529
 7382SOL    HW223046   6.593   1.516   6.424
 7383SOL     OW23047   2.246   6.736   0.424
 7383SOL    HW123048   2.237   6.659   0.360
 7383SOL    HW223049   2.173   6.802   0.407
 7384SOL     OW23050   6.978   0.375   0.977
 7384SOL    HW123051   0.021   0.298   0.957
 7384SOL    HW223052   6.988   0.401   1.073
 7385SOL     OW23053   5.670   4.252   2.918
 7385SOL    HW123054   5.666   4.342   2.876
 7385SOL    HW223055   5.642   4.182   2.852
 7386SOL     OW23056   5.951   3.438   0.729
 7386SOL    HW123057   5.962   3.536   0.748
 7386SOL    HW223058   5.890   3.427   0.650
 7387SOL     OW23059   6.970   5.745   5.638
 7387SOL    HW123060   7.002   5.837   5.657
 7387SOL    HW223061   0.021   5.678   5.669
 7388SOL     OW23062   2.167   5.447   2.431
 7388SOL    HW123063   2.255   5.399   2.436
 7388SOL    HW223064   2.104   5.406   2.497
 7389SOL     OW23065   5.909   3.240   0.354
 7389SOL    HW123066   6.001   3.276   0.370
 7389SOL    HW223067   5.915   3.152   0.307
 7390SOL     OW23068   2.259   2.430   2.871
 7390SOL    HW123069   2.296   2.348   2.828
 7390SOL    HW223070   2.323   2.506   2.857
 7391SOL     OW23071   3.851   3.018   3.494
 7391SOL    HW123072   3.927   3.080   3.511
 7391SOL    HW223073   3.787   3.061   3.430
 7392SOL     OW23074   3.056   6.238   6.830
 7392SOL    HW123075   3.040   6.334   6.808
 7392SOL    HW223076   3.025   6.219   6.923
 7393SOL     OW23077   5.278   4.995   4.376
 7393SOL    HW123078   5.206   5.039   4.323
 7393SOL    HW223079   5.327   4.929   4.318
 7394SOL     OW23080   2.697   1.548   5.919
 7394SOL    HW123081   2.694   1.628   5.978
 7394SOL    HW223082   2.643   1.474   5.959
 7395SOL     OW23083   2.911   5.368   0.945
 7395SOL    HW123084   2.978   5.442   0.956
 7395SOL    HW223085   2.915   5.307   1.024
 7396SOL     OW23086   2.463   5.034   1.864
 7396SOL    HW123087   2.561   5.011   1.866
 7396SOL    HW223088   2.451   5.128   1.833
 7397SOL     OW23089   5.816   4.482   4.107
 7397SOL    HW123090   5.887   4.525   4.163
 7397SOL    HW223091   5.801   4.388   4.138
 7398SOL     OW23092   2.418   4.475   2.391
 7398SOL    HW123093   2.399   4.544   2.321
 7398SOL    HW223094   2.360   4.395   2.377
 7399SOL     OW23095   5.230   2.355   5.099
 7399SOL    HW123096   5.139   2.379   5.065
 7399SOL    HW223097   5.246   2.401   5.186
 7400SOL     OW23098   5.219   3.187   5.516
 7400SOL    HW123099   5.136   3.142   5.549
 7400SOL    HW223100   5.254   3.139   5.435
 7401SOL     OW23101   1.629   2.758   3.863
 7401SOL    HW123102   1.584   2.767   3.951
 7401SOL    HW223103   1.614   2.666   3.827
 7402SOL     OW23104   3.412   6.092   4.643
 7402SOL    HW123105   3.482   6.095   4.570
 7402SOL    HW223106   3.418   6.176   4.697
 7403SOL     OW23107   1.728   3.842   4.204
 7403SOL    HW123108   1.712   3.760   4.258
 7403SOL    HW223109   1.671   3.917   4.238
 7404SOL     OW23110   3.157   3.513   1.194
 7404SOL    HW123111   3.205   3.595   1.225
 7404SOL    HW223112   3.157   3.444   1.267
 7405SOL     OW23113   3.668   6.458   4.280
 7405SOL    HW123114   3.576   6.480   4.314
 7405SOL    HW223115   3.707   6.540   4.238
 7406SOL     OW23116   1.012   1.253   5.216
 7406SOL    HW123117   1.107   1.267   5.187
 7406SOL    HW223118   0.954   1.246   5.135
 7407SOL     OW23119   1.012   5.907   5.404
 7407SOL    HW123120   0.941   5.897   5.474
 7407SOL    HW223121   0.970   5.896   5.314
 7408SOL     OW23122   3.584   4.857   5.296
 7408SOL    HW123123   3.657   4.849   5.364
 7408SOL    HW223124   3.599   4.940   5.241
 7409SOL     OW23125   6.146   3.181   1.042
 7409SOL    HW123126   6.054   3.219   1.032
 7409SOL    HW223127   6.194   3.229   1.115
 7410SOL     OW23128   0.051   0.738   1.429
 7410SOL    HW123129   0.022   0.803   1.499
 7410SOL    HW223130   0.105   0.787   1.360
 7411SOL     OW23131   1.666   1.689   4.980
 7411SOL    HW123132   1.745   1.687   5.042
 7411SOL    HW223133   1.583   1.666   5.030
 7412SOL     OW23134   4.206   6.724   6.850
 7412SOL    HW123135   4.301   6.695   6.844
 7412SOL    HW223136   4.148   6.660   6.800
 7413SOL     OW23137   4.310   0.073   3.501
 7413SOL    HW123138   4.212   0.093   3.497
 7413SOL    HW223139   4.325   7.005   3.551
 7414SOL     OW23140   3.364   1.565   4.251
 7414SOL    HW123141   3.303   1.636   4.214
 7414SOL    HW223142   3.310   1.483   4.272
 7415SOL     OW23143   3.536   6.458   6.261
 7415SOL    HW123144   3.545   6.473   6.163
 7415SOL    HW223145   3.594   6.381   6.288
 7416SOL     OW23146   1.131   0.934   1.995
 7416SOL    HW123147   1.057   0.900   2.053
 7416SOL    HW223148   1.169   1.018   2.034
 7417SOL     OW23149   0.553   0.906   3.521
 7417SOL    HW123150   0.473   0.855   3.555
 7417SOL    HW223151   0.533   1.004   3.526
 7418SOL     OW23152   1.586   3.717   5.898
 7418SOL    HW123153   1.528   3.782   5.947
 7418SOL    HW223154   1.644   3.765   5.833
 7419SOL     OW23155   6.760   3.920   3.954
 7419SOL    HW123156   6.797   3.950   3.866
 7419SOL    HW223157   6.660   3.920   3.950
 7420SOL     OW23158   6.498   0.167   1.782
 7420SOL    HW123159   6.445   0.083   1.796
 7420SOL    HW223160   6.588   0.144   1.747
 7421SOL     OW23161   5.414   4.166   1.187
 7421SOL    HW123162   5.326   4.125   1.164
 7421SOL    HW223163   5.430   4.245   1.128
 7422SOL     OW23164   5.459   1.877   2.903
 7422SOL    HW123165   5.518   1.958   2.908
 7422SOL    HW223166   5.364   1.904   2.915
 7423SOL     OW23167   5.219   1.683   5.679
 7423SOL    HW123168   5.226   1.601   5.737
 7423SOL    HW223169   5.288   1.679   5.608
 7424SOL     OW23170   0.883   2.505   3.648
 7424SOL    HW123171   0.877   2.411   3.683
 7424SOL    HW223172   0.956   2.510   3.580
 7425SOL     OW23173   5.793   0.609   0.843
 7425SOL    HW123174   5.750   0.643   0.759
 7425SOL    HW223175   5.831   0.518   0.826
 7426SOL     OW23176   4.097   3.472   5.603
 7426SOL    HW123177   4.105   3.489   5.702
 7426SOL    HW223178   4.185   3.440   5.568
 7427SOL     OW23179   2.833   1.122   3.712
 7427SOL    HW123180   2.815   1.216   3.683
 7427SOL    HW223181   2.790   1.106   3.801
 7428SOL     OW23182   4.446   6.136   4.935
 7428SOL    HW123183   4.460   6.095   4.845
 7428SOL    HW223184   4.436   6.064   5.004
 7429SOL     OW23185   1.652   6.728   2.646
 7429SOL    HW123186   1.657   6.819   2.605
 7429SOL    HW223187   1.677   6.659   2.577
 7430SOL     OW23188   6.644   5.379   2.607
 7430SOL    HW123189   6.623   5.404   2.513
 7430SOL    HW223190   6.639   5.461   2.665
 7431SOL     OW23191   1.637   1.536   3.673
 7431SOL    HW123192   1.613   1.580   3.586
 7431SOL    HW223193   1.726   1.570   3.703
 7432SOL     OW23194   2.510   0.641   3.232
 7432SOL    HW123195   2.526   0.729   3.187
 7432SOL    HW223196   2.412   0.621   3.235
 7433SOL     OW23197   2.854   0.013   6.481
 7433SOL    HW123198   2.951   0.032   6.472
 7433SOL    HW223199   2.828   0.010   6.577
 7434SOL     OW23200   4.253   6.518   4.993
 7434SOL    HW123201   4.239   6.483   5.085
 7434SOL    HW223202   4.294   6.609   4.998
 7435SOL     OW23203   4.965   4.624   2.905
 7435SOL    HW123204   4.882   4.589   2.948
 7435SOL    HW223205   5.045   4.604   2.962
 7436SOL     OW23206   5.400   2.785   5.883
 7436SOL    HW123207   5.488   2.738   5.886
 7436SOL    HW223208   5.401   2.853   5.810
 7437SOL     OW23209   3.260   6.814   0.721
 7437SOL    HW123210   3.237   6.789   0.815
 7437SOL    HW223211   3.221   6.746   0.658
 7438SOL     OW23212   1.934   0.568   6.935
 7438SOL    HW123213   1.980   0.562   0.007
 7438SOL    HW223214   1.952   0.485   6.883
 7439SOL     OW23215   1.445   4.373   6.698
 7439SOL    HW123216   1.443   4.473   6.709
 7439SOL    HW223217   1.403   4.349   6.610
 7440SOL     OW23218   5.585   3.820   4.006
 7440SOL    HW123219   5.561   3.869   4.090
 7440SOL    HW223220   5.605   3.724   4.029
 7441SOL     OW23221   5.644   5.843   1.180
 7441SOL    HW123222   5.718   5.875   1.121
 7441SOL    HW223223   5.573   5.913   1.186
 7442SOL     OW23224   5.686   0.488   5.901
 7442SOL    HW123225   5.628   0.473   5.821
 7442SOL    HW223226   5.631   0.522   5.976
 7443SOL     OW23227   0.405   1.151   2.092
 7443SOL    HW123228   0.453   1.230   2.132
 7443SOL    HW223229   0.358   1.101   2.165
 7444SOL     OW23230   1.534   6.636   6.630
 7444SOL    HW123231   1.621   6.685   6.620
 7444SOL    HW223232   1.461   6.688   6.586
 7445SOL     OW23233   3.996   6.219   1.648
 7445SOL    HW123234   4.035   6.273   1.574
 7445SOL    HW223235   4.069   6.188   1.709
 7446SOL     OW23236   5.560   3.945   0.436
 7446SOL    HW123237   5.584   3.935   0.339
 7446SOL    HW223238   5.478   4.001   0.444
 7447SOL     OW23239   0.359   4.597   0.788
 7447SOL    HW123240   0.439   4.536   0.785
 7447SOL    HW223241   0.389   4.690   0.807
 7448SOL     OW23242   4.600   5.090   6.768
 7448SOL    HW123243   4.691   5.098   6.725
 7448SOL    HW223244   4.534   5.058   6.700
 7449SOL     OW23245   0.383   4.701   6.244
 7449SOL    HW123246   0.440   4.745   6.313
 7449SOL    HW223247   0.319   4.639   6.289
 7450SOL     OW23248   5.516   2.343   5.382
 7450SOL    HW123249   5.521   2.264   5.320
 7450SOL    HW223250   5.420   2.363   5.401
 7451SOL     OW23251   4.929   4.539   3.228
 7451SOL    HW123252   4.949   4.517   3.324
 7451SOL    HW223253   5.014   4.545   3.176
 7452SOL     OW23254   6.132   5.255   5.610
 7452SOL    HW123255   6.139   5.249   5.510
 7452SOL    HW223256   6.188   5.183   5.651
 7453SOL     OW23257   3.591   5.944   5.901
 7453SOL    HW123258   3.558   6.007   5.970
 7453SOL    HW223259   3.662   5.885   5.940
 7454SOL     OW23260   4.533   2.026   0.783
 7454SOL    HW123261   4.541   2.116   0.828
 7454SOL    HW223262   4.439   2.013   0.752
 7455SOL     OW23263   7.016   2.236   3.033
 7455SOL    HW123264   0.049   2.320   3.052
 7455SOL    HW223265   6.938   2.256   2.973
 7456SOL     OW23266   2.637   2.288   6.187
 7456SOL    HW123267   2.541   2.267   6.168
 7456SOL    HW223268   2.692   2.205   6.174
 7457SOL     OW23269   2.589   0.673   2.949
 7457SOL    HW123270   2.676   0.699   2.990
 7457SOL    HW223271   2.574   0.575   2.961
 7458SOL     OW23272   1.614   4.848   5.205
 7458SOL    HW123273   1.560   4.766   5.191
 7458SOL    HW223274   1.709   4.823   5.226
 7459SOL     OW23275   5.923   0.578   2.840
 7459SOL    HW123276   5.977   0.619   2.766
 7459SOL    HW223277   5.828   0.566   2.810
 7460SOL     OW23278   2.037   6.344   0.819
 7460SOL    HW123279   2.087   6.288   0.886
 7460SOL    HW223280   2.066   6.439   0.828
 7461SOL     OW23281   1.574   4.587   6.046
 7461SOL    HW123282   1.564   4.505   5.989
 7461SOL    HW223283   1.512   4.581   6.124
 7462SOL     OW23284   1.438   4.801   0.264
 7462SOL    HW123285   1.343   4.768   0.258
 7462SOL    HW223286   1.499   4.723   0.278
 7463SOL     OW23287   4.016   5.307   1.314
 7463SOL    HW123288   4.081   5.378   1.344
 7463SOL    HW223289   4.014   5.304   1.214
 7464SOL     OW23290   6.294   6.233   5.454
 7464SOL    HW123291   6.348   6.282   5.384
 7464SOL    HW223292   6.219   6.185   5.410
 7465SOL     OW23293   1.651   5.129   0.063
 7465SOL    HW123294   1.569   5.072   0.064
 7465SOL    HW223295   1.658   5.178   0.150
 7466SOL     OW23296   0.568   0.174   5.292
 7466SOL    HW123297   0.601   0.219   5.375
 7466SOL    HW223298   0.622   0.205   5.213
 7467SOL     OW23299   0.303   2.743   5.567
 7467SOL    HW123300   0.327   2.815   5.631
 7467SOL    HW223301   0.336   2.655   5.602
 7468SOL     OW23302   6.190   3.720   5.647
 7468SOL    HW123303   6.191   3.680   5.555
 7468SOL    HW223304   6.127   3.798   5.649
 7469SOL     OW23305   6.612   2.284   1.009
 7469SOL    HW123306   6.679   2.350   0.976
 7469SOL    HW223307   6.659   2.209   1.056
 7470SOL     OW23308   5.397   2.783   3.478
 7470SOL    HW123309   5.321   2.721   3.458
 7470SOL    HW223310   5.482   2.731   3.486
 7471SOL     OW23311   4.367   6.164   5.980
 7471SOL    HW123312   4.417   6.148   6.065
 7471SOL    HW223313   4.328   6.078   5.947
 7472SOL     OW23314   6.014   6.800   5.614
 7472SOL    HW123315   5.941   6.815   5.679
 7472SOL    HW223316   6.016   6.875   5.548
 7473SOL     OW23317   3.776   5.854   3.942
 7473SOL    HW123318   3.829   5.894   3.867
 7473SOL    HW223319   3.680   5.882   3.934
 7474SOL     OW23320   5.613   2.031   6.340
 7474SOL    HW123321   5.619   2.001   6.435
 7474SOL    HW223322   5.639   1.956   6.279
 7475SOL     OW23323   4.989   2.267   0.809
 7475SOL    HW123324   5.054   2.341   0.795
 7475SOL    HW223325   4.980   2.247   0.907
 7476SOL     OW23326   2.227   0.110   2.962
 7476SOL    HW123327   2.239   0.035   2.897
 7476SOL    HW223328   2.154   0.171   2.931
 7477SOL     OW23329   0.767   4.093   4.867
 7477SOL    HW123330   0.829   4.067   4.792
 7477SOL    HW223331   0.733   4.185   4.852
 7478SOL     OW23332   0.720   1.008   6.019
 7478SOL    HW123333   0.682   1.091   5.979
 7478SOL    HW223334   0.660   0.976   6.092
 7479SOL     OW23335   5.546   3.154   0.077
 7479SOL    HW123336   5.583   3.071   0.034
 7479SOL    HW223337   5.608   3.231   0.059
 7480SOL     OW23338   3.572   4.897   2.456
 7480SOL    HW123339   3.626   4.823   2.415
 7480SOL    HW223340   3.486   4.908   2.406
 7481SOL     OW23341   0.294   3.441   6.674
 7481SOL    HW123342   0.251   3.477   6.757
 7481SOL    HW223343   0.393   3.433   6.688
 7482SOL     OW23344   4.834   2.476   3.032
 7482SOL    HW123345   4.771   2.413   3.079
 7482SOL    HW223346   4.782   2.552   2.994
 7483SOL     OW23347   4.978   2.029   5.365
 7483SOL    HW123348   5.046   2.039   5.293
 7483SOL    HW223349   4.889   2.063   5.333
 7484SOL     OW23350   3.118   6.834   3.928
 7484SOL    HW123351   3.066   6.748   3.928
 7484SOL    HW223352   3.081   6.896   3.859
 7485SOL     OW23353   3.497   6.638   5.337
 7485SOL    HW123354   3.460   6.725   5.369
 7485SOL    HW223355   3.564   6.604   5.403
 7486SOL     OW23356   2.450   6.676   1.063
 7486SOL    HW123357   2.438   6.638   1.155
 7486SOL    HW223358   2.401   6.763   1.057
 7487SOL     OW23359   4.341   6.514   4.720
 7487SOL    HW123360   4.300   6.531   4.809
 7487SOL    HW223361   4.322   6.420   4.692
 7488SOL     OW23362   0.657   5.700   4.416
 7488SOL    HW123363   0.721   5.768   4.450
 7488SOL    HW223364   0.706   5.617   4.390
 7489SOL     OW23365   5.321   3.118   6.937
 7489SOL    HW123366   5.366   3.108   0.009
 7489SOL    HW223367   5.331   3.211   6.904
 7490SOL     OW23368   0.579   2.425   2.334
 7490SOL    HW123369   0.592   2.516   2.373
 7490SOL    HW223370   0.620   2.421   2.243
 7491SOL     OW23371   4.213   3.363   0.539
 7491SOL    HW123372   4.270   3.357   0.621
 7491SOL    HW223373   4.240   3.292   0.474
 7492SOL     OW23374   1.551   6.966   4.419
 7492SOL    HW123375   1.575   6.972   4.516
 7492SOL    HW223376   1.618   0.001   4.365
 7493SOL     OW23377   6.680   4.736   5.460
 7493SOL    HW123378   6.618   4.659   5.472
 7493SOL    HW223379   6.775   4.705   5.471
 7494SOL     OW23380   6.814   1.031   2.447
 7494SOL    HW123381   6.833   1.050   2.351
 7494SOL    HW223382   6.723   0.990   2.455
 7495SOL     OW23383   1.574   3.656   4.988
 7495SOL    HW123384   1.665   3.656   4.947
 7495SOL    HW223385   1.562   3.572   5.042
 7496SOL     OW23386   5.891   4.262   2.475
 7496SOL    HW123387   5.943   4.222   2.399
 7496SOL    HW223388   5.875   4.192   2.545
 7497SOL     OW23389   0.023   6.664   1.017
 7497SOL    HW123390   0.052   6.568   1.022
 7497SOL    HW223391   0.059   6.713   1.096
 7498SOL     OW23392   3.182   7.004   2.668
 7498SOL    HW123393   3.275   7.012   2.632
 7498SOL    HW223394   3.131   6.936   2.616
 7499SOL     OW23395   3.243   1.910   3.929
 7499SOL    HW123396   3.212   1.970   3.856
 7499SOL    HW223397   3.200   1.820   3.920
 7500SOL     OW23398   3.556   0.194   3.281
 7500SOL    HW123399   3.470   0.146   3.264
 7500SOL    HW223400   3.622   0.169   3.209
 7501SOL     OW23401   6.010   2.546   4.948
 7501SOL    HW123402   6.069   2.566   5.027
 7501SOL    HW223403   5.990   2.631   4.899
 7502SOL     OW23404   4.433   0.541   4.255
 7502SOL    HW123405   4.459   0.637   4.262
 7502SOL    HW223406   4.337   0.534   4.231
 7503SOL     OW23407   1.790   5.762   1.548
 7503SOL    HW123408   1.752   5.821   1.477
 7503SOL    HW223409   1.884   5.790   1.567
 7504SOL     OW23410   6.605   6.807   4.517
 7504SOL    HW123411   6.538   6.738   4.544
 7504SOL    HW223412   6.682   6.805   4.580
 7505SOL     OW23413   0.230   6.196   5.076
 7505SOL    HW123414   0.182   6.184   5.162
 7505SOL    HW223415   0.248   6.106   5.035
 7506SOL     OW23416   3.669   1.692   3.747
 7506SOL    HW123417   3.604   1.742   3.689
 7506SOL    HW223418   3.648   1.712   3.843
 7507SOL     OW23419   6.543   4.299   5.538
 7507SOL    HW123420   6.585   4.306   5.628
 7507SOL    HW223421   6.606   4.334   5.468
 7508SOL     OW23422   2.634   5.579   0.102
 7508SOL    HW123423   2.717   5.536   0.138
 7508SOL    HW223424   2.561   5.511   0.097
 7509SOL     OW23425   6.246   4.931   1.633
 7509SOL    HW123426   6.276   5.011   1.685
 7509SOL    HW223427   6.271   4.942   1.537
 7510SOL     OW23428   3.536   3.688   3.252
 7510SOL    HW123429   3.542   3.781   3.290
 7510SOL    HW223430   3.510   3.624   3.325
 7511SOL     OW23431   4.458   6.588   4.007
 7511SOL    HW123432   4.458   6.596   4.107
 7511SOL    HW223433   4.531   6.527   3.978
 7512SOL     OW23434   3.782   0.596   6.982
 7512SOL    HW123435   3.744   0.590   6.890
 7512SOL    HW223436   3.709   0.624   0.029
 7513SOL     OW23437   1.477   2.217   2.371
 7513SOL    HW123438   1.561   2.186   2.327
 7513SOL    HW223439   1.476   2.317   2.373
 7514SOL     OW23440   1.105   5.454   1.091
 7514SOL    HW123441   1.080   5.519   1.020
 7514SOL    HW223442   1.104   5.499   1.180
 7515SOL     OW23443   0.313   5.134   4.927
 7515SOL    HW123444   0.270   5.224   4.935
 7515SOL    HW223445   0.303   5.084   5.013
 7516SOL     OW23446   1.380   6.193   5.398
 7516SOL    HW123447   1.310   6.150   5.455
 7516SOL    HW223448   1.376   6.154   5.306
 7517SOL     OW23449   0.428   1.374   6.035
 7517SOL    HW123450   0.526   1.353   6.037
 7517SOL    HW223451   0.396   1.377   5.940
 7518SOL     OW23452   4.621   2.539   3.565
 7518SOL    HW123453   4.534   2.536   3.614
 7518SOL    HW223454   4.692   2.496   3.621
 7519SOL     OW23455   3.564   6.331   4.047
 7519SOL    HW123456   3.622   6.365   3.973
 7519SOL    HW223457   3.605   6.354   4.135
 7520SOL     OW23458   1.931   1.569   0.419
 7520SOL    HW123459   1.879   1.523   0.347
 7520SOL    HW223460   1.868   1.616   0.481
 7521SOL     OW23461   3.293   1.737   5.378
 7521SOL    HW123462   3.266   1.688   5.461
 7521SOL    HW223463   3.320   1.830   5.402
 7522SOL     OW23464   1.892   6.882   3.087
 7522SOL    HW123465   1.947   6.911   3.166
 7522SOL    HW223466   1.929   6.795   3.052
 7523SOL     OW23467   5.364   1.449   0.722
 7523SOL    HW123468   5.357   1.549   0.725
 7523SOL    HW223469   5.336   1.416   0.632
 7524SOL     OW23470   0.212   3.266   4.587
 7524SOL    HW123471   0.189   3.246   4.492
 7524SOL    HW223472   0.310   3.288   4.594
 7525SOL     OW23473   4.002   5.594   6.227
 7525SOL    HW123474   4.098   5.621   6.235
 7525SOL    HW223475   3.958   5.599   6.316
 7526SOL     OW23476   2.482   3.236   1.677
 7526SOL    HW123477   2.456   3.298   1.602
 7526SOL    HW223478   2.459   3.279   1.764
 7527SOL     OW23479   3.946   4.896   3.709
 7527SOL    HW123480   3.963   4.960   3.783
 7527SOL    HW223481   4.025   4.837   3.696
 7528SOL     OW23482   5.901   2.985   6.145
 7528SOL    HW123483   5.987   3.033   6.163
 7528SOL    HW223484   5.859   3.022   6.062
 7529SOL     OW23485   6.176   2.679   3.785
 7529SOL    HW123486   6.260   2.626   3.776
 7529SOL    HW223487   6.099   2.626   3.750
 7530SOL     OW23488   0.077   2.108   1.776
 7530SOL    HW123489   0.021   2.026   1.784
 7530SOL    HW223490   0.143   2.096   1.702
 7531SOL     OW23491   4.312   2.152   3.731
 7531SOL    HW123492   4.408   2.161   3.756
 7531SOL    HW223493   4.304   2.107   3.642
 7532SOL     OW23494   4.271   5.042   6.347
 7532SOL    HW123495   4.270   5.075   6.252
 7532SOL    HW223496   4.177   5.029   6.378
 7533SOL     OW23497   4.248   4.364   1.717
 7533SOL    HW123498   4.160   4.316   1.712
 7533SOL    HW223499   4.318   4.301   1.752
 7534SOL     OW23500   4.042   6.980   4.548
 7534SOL    HW123501   4.134   7.010   4.524
 7534SOL    HW223502   4.042   6.882   4.565
 7535SOL     OW23503   0.587   6.039   3.981
 7535SOL    HW123504   0.595   6.113   3.914
 7535SOL    HW223505   0.642   5.961   3.949
 7536SOL     OW23506   5.063   6.198   4.617
 7536SOL    HW123507   5.076   6.246   4.531
 7536SOL    HW223508   5.115   6.113   4.616
 7537SOL     OW23509   2.412   6.696   3.065
 7537SOL    HW123510   2.456   6.759   3.129
 7537SOL    HW223511   2.455   6.706   2.975
 7538SOL     OW23512   0.453   3.660   0.307
 7538SOL    HW123513   0.523   3.715   0.261
 7538SOL    HW223514   0.497   3.596   0.370
 7539SOL     OW23515   0.262   0.071   3.914
 7539SOL    HW123516   0.311   0.143   3.865
 7539SOL    HW223517   0.304   0.056   4.004
 7540SOL     OW23518   6.161   5.431   2.668
 7540SOL    HW123519   6.151   5.332   2.655
 7540SOL    HW223520   6.216   5.448   2.749
 7541SOL     OW23521   2.120   4.403   6.251
 7541SOL    HW123522   2.080   4.492   6.229
 7541SOL    HW223523   2.086   4.334   6.186
 7542SOL     OW23524   6.316   6.055   5.073
 7542SOL    HW123525   6.351   5.972   5.115
 7542SOL    HW223526   6.391   6.121   5.062
 7543SOL     OW23527   2.354   1.150   6.771
 7543SOL    HW123528   2.367   1.115   6.679
 7543SOL    HW223529   2.379   1.247   6.774
 7544SOL     OW23530   6.726   1.832   4.075
 7544SOL    HW123531   6.714   1.817   3.977
 7544SOL    HW223532   6.821   1.811   4.100
 7545SOL     OW23533   1.022   4.747   6.222
 7545SOL    HW123534   1.027   4.796   6.135
 7545SOL    HW223535   0.927   4.725   6.242
 7546SOL     OW23536   2.189   2.840   1.693
 7546SOL    HW123537   2.203   2.752   1.736
 7546SOL    HW223538   2.277   2.883   1.674
 7547SOL     OW23539   4.511   0.312   1.236
 7547SOL    HW123540   4.522   0.368   1.154
 7547SOL    HW223541   4.601   0.291   1.275
 7548SOL     OW23542   3.550   2.455   6.191
 7548SOL    HW123543   3.454   2.474   6.208
 7548SOL    HW223544   3.606   2.498   6.263
 7549SOL     OW23545   5.667   2.163   4.268
 7549SOL    HW123546   5.669   2.148   4.366
 7549SOL    HW223547   5.679   2.076   4.220
 7550SOL     OW23548   2.538   4.613   4.415
 7550SOL    HW123549   2.452   4.618   4.364
 7550SOL    HW223550   2.615   4.617   4.351
 7551SOL     OW23551   6.260   2.884   5.956
 7551SOL    HW123552   6.274   2.789   5.984
 7551SOL    HW223553   6.207   2.886   5.871
 7552SOL     OW23554   2.484   6.572   5.287
 7552SOL    HW123555   2.536   6.645   5.332
 7552SOL    HW223556   2.512   6.484   5.325
 7553SOL     OW23557   5.498   6.198   5.679
 7553SOL    HW123558   5.566   6.131   5.711
 7553SOL    HW223559   5.428   6.151   5.626
 7554SOL     OW23560   4.894   0.962   1.066
 7554SOL    HW123561   4.933   1.051   1.043
 7554SOL    HW223562   4.879   0.957   1.165
 7555SOL     OW23563   3.846   5.138   4.939
 7555SOL    HW123564   3.802   5.068   4.996
 7555SOL    HW223565   3.823   5.229   4.973
 7556SOL     OW23566   0.456   6.592   1.375
 7556SOL    HW123567   0.486   6.507   1.332
 7556SOL    HW223568   0.423   6.655   1.304
 7557SOL     OW23569   4.732   0.856   0.855
 7557SOL    HW123570   4.784   0.884   0.935
 7557SOL    HW223571   4.761   0.764   0.827
 7558SOL     OW23572   1.047   1.589   4.137
 7558SOL    HW123573   1.124   1.611   4.077
 7558SOL    HW223574   0.984   1.666   4.141
 7559SOL     OW23575   3.061   1.458   5.088
 7559SOL    HW123576   2.969   1.494   5.073
 7559SOL    HW223577   3.122   1.533   5.114
 7560SOL     OW23578   0.763   1.551   5.935
 7560SOL    HW123579   0.791   1.553   5.839
 7560SOL    HW223580   0.680   1.606   5.947
 7561SOL     OW23581   5.819   1.845   5.071
 7561SOL    HW123582   5.864   1.755   5.069
 7561SOL    HW223583   5.811   1.876   5.165
 7562SOL     OW23584   2.139   5.753   3.700
 7562SOL    HW123585   2.120   5.699   3.782
 7562SOL    HW223586   2.157   5.848   3.725
 7563SOL     OW23587   3.564   5.521   2.119
 7563SOL    HW123588   3.604   5.454   2.056
 7563SOL    HW223589   3.629   5.542   2.192
 7564SOL     OW23590   3.450   2.010   5.496
 7564SOL    HW123591   3.455   2.049   5.404
 7564SOL    HW223592   3.453   2.084   5.564
 7565SOL     OW23593   6.701   3.734   6.075
 7565SOL    HW123594   6.623   3.793   6.095
 7565SOL    HW223595   6.669   3.640   6.060
 7566SOL     OW23596   4.795   4.743   1.433
 7566SOL    HW123597   4.739   4.811   1.482
 7566SOL    HW223598   4.800   4.659   1.488
 7567SOL     OW23599   1.475   0.201   4.240
 7567SOL    HW123600   1.440   0.279   4.188
 7567SOL    HW223601   1.413   0.123   4.227
 7568SOL     OW23602   5.995   5.893   1.965
 7568SOL    HW123603   5.998   5.884   1.865
 7568SOL    HW223604   5.927   5.830   2.002
 7569SOL     OW23605   4.662   4.020   0.453
 7569SOL    HW123606   4.617   4.038   0.541
 7569SOL    HW223607   4.717   4.100   0.427
 7570SOL     OW23608   0.289   2.562   2.785
 7570SOL    HW123609   0.365   2.623   2.763
 7570SOL    HW223610   0.319   2.495   2.853
 7571SOL     OW23611   4.762   1.954   3.025
 7571SOL    HW123612   4.821   2.021   3.071
 7571SOL    HW223613   4.796   1.862   3.044
 7572SOL     OW23614   4.409   0.049   3.256
 7572SOL    HW123615   4.395   0.067   3.353
 7572SOL    HW223616   4.324   0.067   3.206
 7573SOL     OW23617   4.932   6.936   5.860
 7573SOL    HW123618   4.920   0.018   5.855
 7573SOL    HW223619   4.858   6.895   5.913
 7574SOL     OW23620   0.849   2.745   3.794
 7574SOL    HW123621   0.871   2.650   3.774
 7574SOL    HW223622   0.785   2.780   3.725
 7575SOL     OW23623   0.343   6.890   1.685
 7575SOL    HW123624   0.414   6.824   1.708
 7575SOL    HW223625   0.276   6.847   1.624
 7576SOL     OW23626   5.267   3.085   0.494
 7576SOL    HW123627   5.296   3.124   0.407
 7576SOL    HW223628   5.168   3.069   0.493
 7577SOL     OW23629   1.196   6.703   1.177
 7577SOL    HW123630   1.265   6.670   1.113
 7577SOL    HW223631   1.168   6.795   1.152
 7578SOL     OW23632   6.560   5.821   3.470
 7578SOL    HW123633   6.555   5.892   3.540
 7578SOL    HW223634   6.644   5.833   3.416
 7579SOL     OW23635   0.412   0.882   0.301
 7579SOL    HW123636   0.348   0.956   0.319
 7579SOL    HW223637   0.491   0.891   0.362
 7580SOL     OW23638   2.581   4.881   3.474
 7580SOL    HW123639   2.611   4.846   3.385
 7580SOL    HW223640   2.539   4.806   3.527
 7581SOL     OW23641   6.608   0.672   2.714
 7581SOL    HW123642   6.698   0.675   2.671
 7581SOL    HW223643   6.567   0.582   2.699
 7582SOL     OW23644   2.690   1.066   5.821
 7582SOL    HW123645   2.604   1.015   5.811
 7582SOL    HW223646   2.748   1.048   5.742
 7583SOL     OW23647   5.058   2.890   2.964
 7583SOL    HW123648   4.974   2.916   3.012
 7583SOL    HW223649   5.110   2.827   3.022
 7584SOL     OW23650   0.219   0.850   3.600
 7584SOL    HW123651   0.184   0.943   3.592
 7584SOL    HW223652   0.234   0.829   3.697
 7585SOL     OW23653   1.627   1.388   6.717
 7585SOL    HW123654   1.683   1.373   6.798
 7585SOL    HW223655   1.574   1.472   6.729
 7586SOL     OW23656   1.451   0.970   2.209
 7586SOL    HW123657   1.397   1.054   2.202
 7586SOL    HW223658   1.526   0.984   2.274
 7587SOL     OW23659   3.998   0.594   0.727
 7587SOL    HW123660   3.960   0.578   0.818
 7587SOL    HW223661   4.097   0.582   0.730
 7588SOL     OW23662   1.862   2.801   4.337
 7588SOL    HW123663   1.904   2.802   4.428
 7588SOL    HW223664   1.872   2.710   4.297
 7589SOL     OW23665   0.444   0.417   2.717
 7589SOL    HW123666   0.455   0.356   2.795
 7589SOL    HW223667   0.470   0.369   2.633
 7590SOL     OW23668   6.864   0.817   6.606
 7590SOL    HW123669   6.794   0.749   6.627
 7590SOL    HW223670   6.905   0.798   6.517
 7591SOL     OW23671   3.873   3.044   4.608
 7591SOL    HW123672   3.932   3.097   4.547
 7591SOL    HW223673   3.830   2.970   4.556
 7592SOL     OW23674   0.135   6.875   4.963
 7592SOL    HW123675   0.211   6.830   5.012
 7592SOL    HW223676   0.105   6.816   4.888
 7593SOL     OW23677   1.038   1.338   6.028
 7593SOL    HW123678   1.085   1.252   6.047
 7593SOL    HW223679   0.986   1.366   6.108
 7594SOL     OW23680   0.085   4.781   0.193
 7594SOL    HW123681   0.166   4.796   0.250
 7594SOL    HW223682   0.059   4.685   0.197
 7595SOL     OW23683   0.988   2.791   6.418
 7595SOL    HW123684   0.963   2.694   6.413
 7595SOL    HW223685   0.946   2.841   6.342
 7596SOL     OW23686   3.424   0.848   5.443
 7596SOL    HW123687   3.354   0.782   5.416
 7596SOL    HW223688   3.407   0.935   5.398
 7597SOL     OW23689   1.867   4.465   2.157
 7597SOL    HW123690   1.865   4.513   2.070
 7597SOL    HW223691   1.941   4.502   2.214
 7598SOL     OW23692   6.530   0.720   3.098
 7598SOL    HW123693   6.559   0.780   3.172
 7598SOL    HW223694   6.531   0.771   3.012
 7599SOL     OW23695   3.614   3.510   0.399
 7599SOL    HW123696   3.536   3.541   0.346
 7599SOL    HW223697   3.697   3.555   0.367
 7600SOL     OW23698   1.533   6.512   4.279
 7600SOL    HW123699   1.611   6.572   4.263
 7600SOL    HW223700   1.559   6.438   4.341
 7601SOL     OW23701   3.306   6.836   1.800
 7601SOL    HW123702   3.217   6.871   1.770
 7601SOL    HW223703   3.371   6.841   1.724
 7602SOL     OW23704   0.191   1.878   0.611
 7602SOL    HW123705   0.128   1.893   0.535
 7602SOL    HW223706   0.141   1.887   0.698
 7603SOL     OW23707   3.778   0.176   6.076
 7603SOL    HW123708   3.792   0.077   6.079
 7603SOL    HW223709   3.764   0.210   6.169
 7604SOL     OW23710   0.127   2.302   5.016
 7604SOL    HW123711   0.060   2.233   5.044
 7604SOL    HW223712   0.218   2.262   5.015
 7605SOL     OW23713   2.151   6.526   0.270
 7605SOL    HW123714   2.059   6.490   0.257
 7605SOL    HW223715   2.210   6.453   0.305
 7606SOL     OW23716   6.618   1.529   3.065
 7606SOL    HW123717   6.547   1.587   3.024
 7606SOL    HW223718   6.691   1.587   3.100
 7607SOL     OW23719   2.103   6.178   5.794
 7607SOL    HW123720   2.156   6.233   5.730
 7607SOL    HW223721   2.019   6.226   5.818
 7608SOL     OW23722   5.713   2.307   6.261
 7608SOL    HW123723   5.657   2.233   6.298
 7608SOL    HW223724   5.774   2.271   6.191
 7609SOL     OW23725   1.483   1.927   5.115
 7609SOL    HW123726   1.440   1.935   5.025
 7609SOL    HW223727   1.536   1.842   5.119
 7610SOL     OW23728   3.991   4.931   4.817
 7610SOL    HW123729   3.937   4.988   4.879
 7610SOL    HW223730   3.941   4.918   4.731
 7611SOL     OW23731   4.734   3.412   6.933
 7611SOL    HW123732   4.767   3.402   6.840
 7611SOL    HW223733   4.739   3.509   6.960
 7612SOL     OW23734   3.505   1.768   2.952
 7612SOL    HW123735   3.484   1.689   3.010
 7612SOL    HW223736   3.604   1.782   2.950
 7613SOL     OW23737   0.630   1.232   1.239
 7613SOL    HW123738   0.707   1.264   1.294
 7613SOL    HW223739   0.608   1.137   1.265
 7614SOL     OW23740   4.800   4.015   0.020
 7614SOL    HW123741   4.826   3.967   0.104
 7614SOL    HW223742   4.709   3.985   7.008
 7615SOL     OW23743   5.787   3.154   5.039
 7615SOL    HW123744   5.714   3.097   5.079
 7615SOL    HW223745   5.767   3.250   5.055
 7616SOL     OW23746   6.219   0.161   3.096
 7616SOL    HW123747   6.287   0.218   3.143
 7616SOL    HW223748   6.226   0.067   3.130
 7617SOL     OW23749   6.063   4.358   3.795
 7617SOL    HW123750   6.083   4.444   3.843
 7617SOL    HW223751   6.010   4.378   3.712
 7618SOL     OW23752   2.579   2.476   0.285
 7618SOL    HW123753   2.596   2.427   0.200
 7618SOL    HW223754   2.524   2.420   0.346
 7619SOL     OW23755   1.015   1.572   4.645
 7619SOL    HW123756   1.082   1.518   4.697
 7619SOL    HW223757   1.032   1.562   4.547
 7620SOL     OW23758   3.802   4.657   1.125
 7620SOL    HW123759   3.822   4.722   1.198
 7620SOL    HW223760   3.832   4.566   1.152
 7621SOL     OW23761   6.345   4.626   0.028
 7621SOL    HW123762   6.384   4.624   0.120
 7621SOL    HW223763   6.340   4.533   7.009
 7622SOL     OW23764   3.302   3.694   1.315
 7622SOL    HW123765   3.381   3.675   1.375
 7622SOL    HW223766   3.244   3.763   1.357
 7623SOL     OW23767   4.969   4.341   1.244
 7623SOL    HW123768   5.012   4.408   1.303
 7623SOL    HW223769   4.884   4.308   1.285
 7624SOL     OW23770   0.792   3.423   2.548
 7624SOL    HW123771   0.808   3.326   2.568
 7624SOL    HW223772   0.786   3.436   2.449
 7625SOL     OW23773   5.627   1.090   1.586
 7625SOL    HW123774   5.559   1.159   1.610
 7625SOL    HW223775   5.581   1.004   1.562
 7626SOL     OW23776   4.276   0.597   6.025
 7626SOL    HW123777   4.337   0.523   6.054
 7626SOL    HW223778   4.304   0.630   5.935
 7627SOL     OW23779   4.190   2.246   6.752
 7627SOL    HW123780   4.185   2.166   6.692
 7627SOL    HW223781   4.285   2.261   6.778
 7628SOL     OW23782   3.486   2.907   0.408
 7628SOL    HW123783   3.570   2.957   0.384
 7628SOL    HW223784   3.500   2.809   0.391
 7629SOL     OW23785   6.252   2.519   3.451
 7629SOL    HW123786   6.164   2.502   3.408
 7629SOL    HW223787   6.297   2.596   3.407
 7630SOL     OW23788   0.831   6.430   5.017
 7630SOL    HW123789   0.916   6.414   4.967
 7630SOL    HW223790   0.791   6.516   4.988
 7631SOL     OW23791   0.905   0.655   5.551
 7631SOL    HW123792   0.923   0.598   5.471
 7631SOL    HW223793   0.857   0.738   5.523
 7632SOL     OW23794   4.665   5.616   0.441
 7632SOL    HW123795   4.624   5.599   0.531
 7632SOL    HW223796   4.620   5.694   0.399
 7633SOL     OW23797   6.642   0.894   1.268
 7633SOL    HW123798   6.636   0.833   1.190
 7633SOL    HW223799   6.716   0.864   1.328
 7634SOL     OW23800   0.195   2.736   0.209
 7634SOL    HW123801   0.181   2.650   0.257
 7634SOL    HW223802   0.106   2.777   0.188
 7635SOL     OW23803   2.504   3.770   5.610
 7635SOL    HW123804   2.484   3.849   5.667
 7635SOL    HW223805   2.509   3.688   5.667
 7636SOL     OW23806   6.962   4.095   4.316
 7636SOL    HW123807   6.921   4.006   4.297
 7636SOL    HW223808   6.981   4.142   4.230
 7637SOL     OW23809   1.358   5.583   4.878
 7637SOL    HW123810   1.408   5.601   4.793
 7637SOL    HW223811   1.400   5.505   4.926
 7638SOL     OW23812   0.201   6.276   1.341
 7638SOL    HW123813   0.262   6.314   1.410
 7638SOL    HW223814   0.247   6.274   1.252
 7639SOL     OW23815   1.505   0.975   6.873
 7639SOL    HW123816   1.411   1.001   6.894
 7639SOL    HW223817   1.518   0.878   6.892
 7640SOL     OW23818   3.223   1.370   0.747
 7640SOL    HW123819   3.305   1.312   0.740
 7640SOL    HW223820   3.147   1.325   0.702
 7641SOL     OW23821   0.725   4.206   3.763
 7641SOL    HW123822   0.739   4.267   3.841
 7641SOL    HW223823   0.731   4.258   3.678
 7642SOL     OW23824   5.523   1.257   3.347
 7642SOL    HW123825   5.534   1.228   3.252
 7642SOL    HW223826   5.563   1.348   3.359
 7643SOL     OW23827   5.125   3.757   3.443
 7643SOL    HW123828   5.174   3.684   3.492
 7643SOL    HW223829   5.186   3.798   3.374
 7644SOL     OW23830   5.640   3.913   0.875
 7644SOL    HW123831   5.654   3.814   0.873
 7644SOL    HW223832   5.705   3.958   0.814
 7645SOL     OW23833   3.327   4.410   6.468
 7645SOL    HW123834   3.274   4.488   6.434
 7645SOL    HW223835   3.424   4.430   6.462
 7646SOL     OW23836   6.192   1.771   0.864
 7646SOL    HW123837   6.210   1.815   0.776
 7646SOL    HW223838   6.266   1.793   0.928
 7647SOL     OW23839   6.857   2.232   4.683
 7647SOL    HW123840   6.802   2.315   4.695
 7647SOL    HW223841   6.954   2.255   4.696
 7648SOL     OW23842   3.003   1.854   2.168
 7648SOL    HW123843   3.079   1.850   2.232
 7648SOL    HW223844   3.022   1.922   2.097
 7649SOL     OW23845   3.989   0.906   5.918
 7649SOL    HW123846   4.064   0.885   5.981
 7649SOL    HW223847   3.916   0.953   5.968
 7650SOL     OW23848   3.858   2.642   0.507
 7650SOL    HW123849   3.798   2.702   0.560
 7650SOL    HW223850   3.860   2.672   0.412
 7651SOL     OW23851   2.969   4.844   6.161
 7651SOL    HW123852   3.005   4.891   6.241
 7651SOL    HW223853   3.001   4.749   6.160
 7652SOL     OW23854   1.370   1.059   4.242
 7652SOL    HW123855   1.314   1.051   4.160
 7652SOL    HW223856   1.466   1.045   4.218
 7653SOL     OW23857   1.331   1.152   6.535
 7653SOL    HW123858   1.420   1.139   6.580
 7653SOL    HW223859   1.346   1.187   6.442
 7654SOL     OW23860   5.643   1.924   5.940
 7654SOL    HW123861   5.612   2.018   5.929
 7654SOL    HW223862   5.683   1.912   6.031
 7655SOL     OW23863   3.365   1.589   3.136
 7655SOL    HW123864   3.421   1.507   3.146
 7655SOL    HW223865   3.277   1.575   3.182
 7656SOL     OW23866   6.875   3.196   6.434
 7656SOL    HW123867   6.860   3.124   6.365
 7656SOL    HW223868   6.881   3.285   6.388
 7657SOL     OW23869   1.016   4.179   4.426
 7657SOL    HW123870   1.056   4.270   4.420
 7657SOL    HW223871   1.072   4.114   4.376
 7658SOL     OW23872   2.645   0.868   1.060
 7658SOL    HW123873   2.637   0.967   1.061
 7658SOL    HW223874   2.569   0.828   1.111
 7659SOL     OW23875   4.834   4.031   6.007
 7659SOL    HW123876   4.835   4.094   5.929
 7659SOL    HW223877   4.867   4.079   6.089
 7660SOL     OW23878   6.966   5.126   5.155
 7660SOL    HW123879   6.918   5.074   5.226
 7660SOL    HW223880   7.013   5.063   5.093
 7661SOL     OW23881   4.025   1.660   5.587
 7661SOL    HW123882   4.116   1.670   5.549
 7661SOL    HW223883   3.963   1.625   5.517
 7662SOL     OW23884   6.279   6.941   1.484
 7662SOL    HW123885   6.344   7.013   1.459
 7662SOL    HW223886   6.212   6.979   1.548
 7663SOL     OW23887   0.267   5.421   5.490
 7663SOL    HW123888   0.291   5.366   5.410
 7663SOL    HW223889   0.171   5.408   5.513
 7664SOL     OW23890   3.941   2.111   1.946
 7664SOL    HW123891   3.853   2.147   1.975
 7664SOL    HW223892   4.000   2.187   1.917
 7665SOL     OW23893   3.950   0.215   5.880
 7665SOL    HW123894   3.888   0.232   5.804
 7665SOL    HW223895   3.897   0.190   5.961
 7666SOL     OW23896   5.225   4.648   3.543
 7666SOL    HW123897   5.164   4.676   3.617
 7666SOL    HW223898   5.242   4.726   3.482
 7667SOL     OW23899   3.934   5.962   2.017
 7667SOL    HW123900   3.866   5.889   2.022
 7667SOL    HW223901   4.003   5.949   2.088
 7668SOL     OW23902   2.257   5.796   0.861
 7668SOL    HW123903   2.224   5.884   0.829
 7668SOL    HW223904   2.293   5.806   0.954
 7669SOL     OW23905   2.030   1.147   6.128
 7669SOL    HW123906   2.012   1.176   6.222
 7669SOL    HW223907   2.083   1.063   6.129
 7670SOL     OW23908   0.592   6.952   0.741
 7670SOL    HW123909   0.503   6.936   0.783
 7670SOL    HW223910   0.629   6.867   0.705
 7671SOL     OW23911   3.423   0.275   1.073
 7671SOL    HW123912   3.336   0.325   1.074
 7671SOL    HW223913   3.478   0.305   0.995
 7672SOL     OW23914   4.878   5.003   2.679
 7672SOL    HW123915   4.927   4.928   2.634
 7672SOL    HW223916   4.823   4.966   2.754
 7673SOL     OW23917   1.488   5.940   4.030
 7673SOL    HW123918   1.549   6.015   4.059
 7673SOL    HW223919   1.457   5.890   4.111
 7674SOL     OW23920   4.783   6.015   4.372
 7674SOL    HW123921   4.733   6.051   4.293
 7674SOL    HW223922   4.874   5.985   4.344
 7675SOL     OW23923   5.057   6.149   3.412
 7675SOL    HW123924   5.090   6.075   3.353
 7675SOL    HW223925   5.134   6.207   3.439
 7676SOL     OW23926   3.554   2.978   5.505
 7676SOL    HW123927   3.633   3.038   5.519
 7676SOL    HW223928   3.477   3.011   5.559
 7677SOL     OW23929   6.431   4.863   0.509
 7677SOL    HW123930   6.492   4.834   0.583
 7677SOL    HW223931   6.419   4.962   0.513
 7678SOL     OW23932   1.863   0.956   5.325
 7678SOL    HW123933   1.894   0.982   5.233
 7678SOL    HW223934   1.870   1.034   5.386
 7679SOL     OW23935   3.353   5.737   5.426
 7679SOL    HW123936   3.338   5.830   5.459
 7679SOL    HW223937   3.306   5.725   5.339
 7680SOL     OW23938   2.074   0.046   4.734
 7680SOL    HW123939   1.985   0.054   4.779
 7680SOL    HW223940   2.146   0.046   4.803
 7681SOL     OW23941   2.626   3.536   6.231
 7681SOL    HW123942   2.585   3.446   6.213
 7681SOL    HW223943   2.625   3.590   6.147
 7682SOL     OW23944   3.365   0.871   2.899
 7682SOL    HW123945   3.404   0.854   2.990
 7682SOL    HW223946   3.279   0.922   2.909
 7683SOL     OW23947   0.511   5.222   4.629
 7683SOL    HW123948   0.558   5.230   4.717
 7683SOL    HW223949   0.499   5.125   4.606
 7684SOL     OW23950   4.818   3.398   1.160
 7684SOL    HW123951   4.800   3.300   1.167
 7684SOL    HW223952   4.732   3.448   1.165
 7685SOL     OW23953   2.675   0.448   0.451
 7685SOL    HW123954   2.620   0.418   0.374
 7685SOL    HW223955   2.617   0.467   0.529
 7686SOL     OW23956   6.290   7.000   4.781
 7686SOL    HW123957   6.249   6.959   4.862
 7686SOL    HW223958   6.252   6.956   4.699
 7687SOL     OW23959   5.750   4.325   6.183
 7687SOL    HW123960   5.678   4.265   6.149
 7687SOL    HW223961   5.837   4.301   6.141
 7688SOL     OW23962   0.250   4.134   6.230
 7688SOL    HW123963   0.228   4.037   6.229
 7688SOL    HW223964   0.195   4.179   6.301
 7689SOL     OW23965   4.471   0.911   1.501
 7689SOL    HW123966   4.528   0.829   1.493
 7689SOL    HW223967   4.481   0.950   1.593
 7690SOL     OW23968   5.546   5.606   1.343
 7690SOL    HW123969   5.635   5.609   1.388
 7690SOL    HW223970   5.481   5.663   1.393
 7691SOL     OW23971   4.873   3.879   3.273
 7691SOL    HW123972   4.853   3.806   3.207
 7691SOL    HW223973   4.967   3.869   3.306
 7692SOL     OW23974   2.731   0.294   2.765
 7692SOL    HW123975   2.794   0.363   2.728
 7692SOL    HW223976   2.736   0.211   2.709
 7693SOL     OW23977   2.166   0.923   1.486
 7693SOL    HW123978   2.254   0.971   1.490
 7693SOL    HW223979   2.094   0.987   1.464
 7694SOL     OW23980   5.168   1.402   5.263
 7694SOL    HW123981   5.221   1.455   5.197
 7694SOL    HW223982   5.088   1.454   5.290
 7695SOL     OW23983   4.493   0.115   3.923
 7695SOL    HW123984   4.550   0.036   3.946
 7695SOL    HW223985   4.507   0.186   3.992
 7696SOL     OW23986   1.574   2.795   5.517
 7696SOL    HW123987   1.501   2.792   5.449
 7696SOL    HW223988   1.576   2.885   5.559
 7697SOL     OW23989   5.066   6.793   2.847
 7697SOL    HW123990   5.117   6.765   2.766
 7697SOL    HW223991   5.040   6.889   2.839
 7698SOL     OW23992   6.145   3.017   0.819
 7698SOL    HW123993   6.236   3.015   0.776
 7698SOL    HW223994   6.142   3.092   0.885
 7699SOL     OW23995   4.743   5.644   5.848
 7699SOL    HW123996   4.838   5.619   5.867
 7699SOL    HW223997   4.739   5.699   5.764
 7700SOL     OW23998   4.878   6.182   2.595
 7700SOL    HW123999   4.873   6.118   2.672
 7700SOL    HW224000   4.946   6.149   2.529
 7701SOL     OW24001   1.393   2.374   6.167
 7701SOL    HW124002   1.486   2.412   6.162
 7701SOL    HW224003   1.397   2.280   6.201
 7702SOL     OW24004   4.286   0.012   4.491
 7702SOL    HW124005   4.268   0.057   4.404
 7702SOL    HW224006   4.363   0.056   4.536
 7703SOL     OW24007   6.264   6.969   5.481
 7703SOL    HW124008   6.207   0.028   5.450
 7703SOL    HW224009   6.359   6.984   5.453
 7704SOL     OW24010   0.674   1.528   4.853
 7704SOL    HW124011   0.751   1.585   4.882
 7704SOL    HW224012   0.596   1.545   4.913
 7705SOL     OW24013   1.227   5.042   6.558
 7705SOL    HW124014   1.136   5.009   6.585
 7705SOL    HW224015   1.269   5.089   6.635
 7706SOL     OW24016   3.215   2.867   2.046
 7706SOL    HW124017   3.194   2.963   2.064
 7706SOL    HW224018   3.176   2.840   1.958
 7707SOL     OW24019   6.990   4.020   6.525
 7707SOL    HW124020   7.004   4.052   6.431
 7707SOL    HW224021   6.921   3.948   6.527
 7708SOL     OW24022   2.090   0.330   4.429
 7708SOL    HW124023   2.089   0.332   4.529
 7708SOL    HW224024   2.182   0.309   4.397
 7709SOL     OW24025   0.132   4.746   1.663
 7709SOL    HW124026   0.053   4.738   1.603
 7709SOL    HW224027   0.197   4.673   1.643
 7710SOL     OW24028   6.973   3.123   1.308
 7710SOL    HW124029   6.997   3.045   1.367
 7710SOL    HW224030   6.903   3.095   1.243
 7711SOL     OW24031   6.900   4.630   4.793
 7711SOL    HW124032   6.815   4.656   4.838
 7711SOL    HW224033   6.925   4.699   4.725
 7712SOL     OW24034   0.501   5.358   5.649
 7712SOL    HW124035   0.558   5.428   5.691
 7712SOL    HW224036   0.508   5.364   5.549
 7713SOL     OW24037   1.409   4.147   0.145
 7713SOL    HW124038   1.448   4.226   0.097
 7713SOL    HW224039   1.382   4.078   0.078
 7714SOL     OW24040   6.884   1.523   4.688
 7714SOL    HW124041   6.786   1.499   4.684
 7714SOL    HW224042   6.934   1.465   4.624
 7715SOL     OW24043   3.785   3.233   5.303
 7715SOL    HW124044   3.820   3.311   5.252
 7715SOL    HW224045   3.686   3.242   5.314
 7716SOL     OW24046   1.154   6.288   6.364
 7716SOL    HW124047   1.213   6.363   6.335
 7716SOL    HW224048   1.105   6.251   6.285
 7717SOL     OW24049   0.300   2.161   6.313
 7717SOL    HW124050   0.209   2.134   6.284
 7717SOL    HW224051   0.355   2.079   6.332
 7718SOL     OW24052   0.999   3.567   3.244
 7718SOL    HW124053   0.942   3.612   3.313
 7718SOL    HW224054   1.020   3.474   3.275
 7719SOL     OW24055   2.207   5.298   4.903
 7719SOL    HW124056   2.170   5.207   4.924
 7719SOL    HW224057   2.301   5.289   4.870
 7720SOL     OW24058   4.709   1.174   6.595
 7720SOL    HW124059   4.708   1.250   6.660
 7720SOL    HW224060   4.767   1.198   6.517
 7721SOL     OW24061   0.430   0.095   2.383
 7721SOL    HW124062   0.468   0.009   2.349
 7721SOL    HW224063   0.396   0.083   2.476
 7722SOL     OW24064   0.725   5.847   3.857
 7722SOL    HW124065   0.709   5.748   3.855
 7722SOL    HW224066   0.819   5.866   3.832
 7723SOL     OW24067   4.903   4.177   6.843
 7723SOL    HW124068   4.879   4.273   6.853
 7723SOL    HW224069   4.858   4.124   6.915
 7724SOL     OW24070   2.185   3.655   1.466
 7724SOL    HW124071   2.091   3.682   1.445
 7724SOL    HW224072   2.193   3.556   1.461
 7725SOL     OW24073   5.101   3.148   3.582
 7725SOL    HW124074   5.177   3.089   3.611
 7725SOL    HW224075   5.054   3.184   3.662
 7726SOL     OW24076   1.049   3.514   5.312
 7726SOL    HW124077   1.066   3.592   5.372
 7726SOL    HW224078   1.129   3.497   5.255
 7727SOL     OW24079   4.352   0.814   2.389
 7727SOL    HW124080   4.307   0.734   2.350
 7727SOL    HW224081   4.364   0.884   2.318
 7728SOL     OW24082   1.876   3.907   4.663
 7728SOL    HW124083   1.805   3.964   4.705
 7728SOL    HW224084   1.966   3.946   4.681
 7729SOL     OW24085   6.935   1.680   3.433
 7729SOL    HW124086   6.973   1.692   3.525
 7729SOL    HW224087   6.955   1.588   3.400
 7730SOL     OW24088   6.386   4.249   5.055
 7730SOL    HW124089   6.329   4.329   5.079
 7730SOL    HW224090   6.480   4.266   5.084
 7731SOL     OW24091   6.945   6.855   6.356
 7731SOL    HW124092   0.019   6.891   6.340
 7731SOL    HW224093   6.941   6.759   6.329
 7732SOL     OW24094   3.448   6.865   6.491
 7732SOL    HW124095   3.504   6.783   6.476
 7732SOL    HW224096   3.484   6.941   6.436
 7733SOL     OW24097   6.076   5.722   1.525
 7733SOL    HW124098   6.121   5.656   1.585
 7733SOL    HW224099   6.057   5.806   1.577
 7734SOL     OW24100   3.359   3.734   4.764
 7734SOL    HW124101   3.281   3.672   4.769
 7734SOL    HW224102   3.346   3.810   4.828
 7735SOL     OW24103   0.239   6.579   0.786
 7735SOL    HW124104   0.187   6.590   0.702
 7735SOL    HW224105   0.202   6.504   0.840
 7736SOL     OW24106   1.606   2.771   6.713
 7736SOL    HW124107   1.520   2.720   6.707
 7736SOL    HW224108   1.679   2.717   6.673
 7737SOL     OW24109   4.206   4.788   0.685
 7737SOL    HW124110   4.274   4.773   0.758
 7737SOL    HW224111   4.233   4.736   0.604
 7738SOL     OW24112   2.687   0.414   5.652
 7738SOL    HW124113   2.602   0.456   5.685
 7738SOL    HW224114   2.714   0.457   5.565
 7739SOL     OW24115   1.950   1.750   0.869
 7739SOL    HW124116   1.886   1.827   0.868
 7739SOL    HW224117   1.948   1.705   0.959
 7740SOL     OW24118   1.905   0.086   5.089
 7740SOL    HW124119   2.000   0.066   5.113
 7740SOL    HW224120   1.896   0.183   5.068
 7741SOL     OW24121   1.369   4.292   6.212
 7741SOL    HW124122   1.426   4.252   6.140
 7741SOL    HW224123   1.277   4.307   6.177
 7742SOL     OW24124   4.765   1.877   4.248
 7742SOL    HW124125   4.666   1.865   4.256
 7742SOL    HW224126   4.796   1.945   4.315
 7743SOL     OW24127   4.756   1.934   5.742
 7743SOL    HW124128   4.691   1.931   5.666
 7743SOL    HW224129   4.849   1.937   5.705
 7744SOL     OW24130   1.053   6.686   4.680
 7744SOL    HW124131   0.999   6.767   4.705
 7744SOL    HW224132   1.099   6.704   4.594
 7745SOL     OW24133   2.828   6.800   0.621
 7745SOL    HW124134   2.882   6.861   0.562
 7745SOL    HW224135   2.779   6.855   0.689
 7746SOL     OW24136   0.977   5.858   0.378
 7746SOL    HW124137   1.006   5.950   0.354
 7746SOL    HW224138   0.899   5.863   0.441
 7747SOL     OW24139   1.136   6.077   0.645
 7747SOL    HW124140   1.068   6.144   0.673
 7747SOL    HW224141   1.223   6.122   0.628
 7748SOL     OW24142   4.707   2.161   6.095
 7748SOL    HW124143   4.733   2.067   6.073
 7748SOL    HW224144   4.775   2.224   6.058
 7749SOL     OW24145   3.636   3.883   4.221
 7749SOL    HW124146   3.594   3.967   4.188
 7749SOL    HW224147   3.658   3.824   4.143
 7750SOL     OW24148   5.285   3.941   5.633
 7750SOL    HW124149   5.369   3.940   5.688
 7750SOL    HW224150   5.310   3.932   5.536
 7751SOL     OW24151   6.933   1.047   4.712
 7751SOL    HW124152   7.016   1.099   4.734
 7751SOL    HW224153   6.890   1.086   4.631
 7752SOL     OW24154   6.356   5.873   5.390
 7752SOL    HW124155   6.437   5.931   5.389
 7752SOL    HW224156   6.352   5.818   5.307
 7753SOL     OW24157   3.083   1.291   4.858
 7753SOL    HW124158   3.051   1.340   4.777
 7753SOL    HW224159   3.061   1.344   4.940
 7754SOL     OW24160   6.262   0.873   1.875
 7754SOL    HW124161   6.166   0.849   1.862
 7754SOL    HW224162   6.292   0.843   1.966
 7755SOL     OW24163   1.080   5.797   5.077
 7755SOL    HW124164   0.991   5.766   5.110
 7755SOL    HW224165   1.070   5.887   5.035
 7756SOL     OW24166   3.785   5.673   2.597
 7756SOL    HW124167   3.884   5.673   2.581
 7756SOL    HW224168   3.762   5.605   2.666
 7757SOL     OW24169   4.679   6.407   6.379
 7757SOL    HW124170   4.749   6.337   6.394
 7757SOL    HW224171   4.590   6.364   6.368
 7758SOL     OW24172   2.847   2.019   5.718
 7758SOL    HW124173   2.831   2.117   5.731
 7758SOL    HW224174   2.833   1.996   5.622
 7759SOL     OW24175   2.112   0.716   5.402
 7759SOL    HW124176   2.074   0.773   5.474
 7759SOL    HW224177   2.042   0.696   5.334
 7760SOL     OW24178   4.539   2.321   2.724
 7760SOL    HW124179   4.556   2.225   2.700
 7760SOL    HW224180   4.614   2.377   2.689
 7761SOL     OW24181   3.874   0.094   6.840
 7761SOL    HW124182   3.854   0.073   6.744
 7761SOL    HW224183   3.921   0.016   6.881
 7762SOL     OW24184   2.651   2.223   0.907
 7762SOL    HW124185   2.714   2.213   0.830
 7762SOL    HW224186   2.560   2.193   0.879
 7763SOL     OW24187   2.247   1.585   0.921
 7763SOL    HW124188   2.204   1.649   0.986
 7763SOL    HW224189   2.180   1.516   0.894
 7764SOL     OW24190   3.393   2.905   3.128
 7764SOL    HW124191   3.365   2.872   3.037
 7764SOL    HW224192   3.331   2.976   3.158
 7765SOL     OW24193   6.905   2.328   2.581
 7765SOL    HW124194   6.882   2.261   2.652
 7765SOL    HW224195   6.835   2.327   2.510
 7766SOL     OW24196   6.884   2.997   6.986
 7766SOL    HW124197   6.806   3.039   0.015
 7766SOL    HW224198   6.932   2.936   0.032
 7767SOL     OW24199   5.358   4.317   5.333
 7767SOL    HW124200   5.444   4.307   5.382
 7767SOL    HW224201   5.369   4.285   5.239
 7768SOL     OW24202   3.485   5.193   2.134
 7768SOL    HW124203   3.459   5.119   2.072
 7768SOL    HW224204   3.433   5.185   2.219
 7769SOL     OW24205   6.178   1.972   1.935
 7769SOL    HW124206   6.119   1.948   1.858
 7769SOL    HW224207   6.159   2.066   1.963
 7770SOL     OW24208   3.786   5.616   1.440
 7770SOL    HW124209   3.713   5.681   1.418
 7770SOL    HW224210   3.781   5.592   1.537
 7771SOL     OW24211   2.215   1.530   5.484
 7771SOL    HW124212   2.217   1.517   5.583
 7771SOL    HW224213   2.296   1.581   5.456
 7772SOL     OW24214   5.407   1.454   4.739
 7772SOL    HW124215   5.504   1.480   4.735
 7772SOL    HW224216   5.351   1.533   4.714
 7773SOL     OW24217   3.808   4.607   5.368
 7773SOL    HW124218   3.762   4.524   5.398
 7773SOL    HW224219   3.742   4.669   5.326
 7774SOL     OW24220   4.478   1.393   6.185
 7774SOL    HW124221   4.488   1.407   6.283
 7774SOL    HW224222   4.399   1.445   6.151
 7775SOL     OW24223   3.169   0.005   2.336
 7775SOL    HW124224   3.166   0.024   2.238
 7775SOL    HW224225   3.077   0.017   2.375
 7776SOL     OW24226   3.701   3.719   0.093
 7776SOL    HW124227   3.738   3.792   0.150
 7776SOL    HW224228   3.611   3.744   0.059
 7777SOL     OW24229   1.861   1.000   0.092
 7777SOL    HW124230   1.880   0.903   0.079
 7777SOL    HW224231   1.936   1.054   0.056
 7778SOL     OW24232   5.693   0.669   0.594
 7778SOL    HW124233   5.605   0.714   0.574
 7778SOL    HW224234   5.767   0.733   0.575
 7779SOL     OW24235   3.797   3.496   6.541
 7779SOL    HW124236   3.822   3.560   6.613
 7779SOL    HW224237   3.725   3.435   6.574
 7780SOL     OW24238   1.385   0.172   4.529
 7780SOL    HW124239   1.483   0.182   4.549
 7780SOL    HW224240   1.373   0.114   4.449
 7781SOL     OW24241   1.300   4.849   4.888
 7781SOL    HW124242   1.242   4.785   4.838
 7781SOL    HW224243   1.384   4.866   4.838
 7782SOL     OW24244   3.165   4.418   6.717
 7782SOL    HW124245   3.230   4.388   6.646
 7782SOL    HW224246   3.147   4.342   6.779
 7783SOL     OW24247   2.989   5.608   6.048
 7783SOL    HW124248   2.907   5.642   6.001
 7783SOL    HW224249   3.049   5.563   5.982
 7784SOL     OW24250   0.266   2.511   6.891
 7784SOL    HW124251   0.290   2.482   6.799
 7784SOL    HW224252   0.173   2.548   6.891
 7785SOL     OW24253   2.701   5.857   4.274
 7785SOL    HW124254   2.731   5.819   4.186
 7785SOL    HW224255   2.740   5.948   4.287
 7786SOL     OW24256   3.305   4.058   4.728
 7786SOL    HW124257   3.205   4.060   4.735
 7786SOL    HW224258   3.331   4.026   4.637
 7787SOL     OW24259   2.738   2.342   5.400
 7787SOL    HW124260   2.665   2.408   5.416
 7787SOL    HW224261   2.809   2.385   5.344
 7788SOL     OW24262   0.619   1.251   0.167
 7788SOL    HW124263   0.656   1.201   0.246
 7788SOL    HW224264   0.641   1.348   0.176
 7789SOL     OW24265   2.086   0.148   0.986
 7789SOL    HW124266   2.012   0.161   1.051
 7789SOL    HW224267   2.168   0.195   1.019
 7790SOL     OW24268   6.019   3.706   2.781
 7790SOL    HW124269   6.087   3.636   2.804
 7790SOL    HW224270   6.055   3.796   2.807
 7791SOL     OW24271   1.733   5.260   4.798
 7791SOL    HW124272   1.761   5.338   4.742
 7791SOL    HW224273   1.814   5.207   4.823
 7792SOL     OW24274   2.710   5.471   5.916
 7792SOL    HW124275   2.703   5.559   5.869
 7792SOL    HW224276   2.624   5.452   5.964
 7793SOL     OW24277   0.616   1.073   6.361
 7793SOL    HW124278   0.655   1.055   6.451
 7793SOL    HW224279   0.593   0.986   6.317
 7794SOL     OW24280   5.445   5.530   3.732
 7794SOL    HW124281   5.535   5.565   3.706
 7794SOL    HW224282   5.454   5.435   3.762
 7795SOL     OW24283   2.329   4.859   5.424
 7795SOL    HW124284   2.260   4.791   5.451
 7795SOL    HW224285   2.341   4.926   5.497
 7796SOL     OW24286   3.954   3.168   3.818
 7796SOL    HW124287   3.932   3.091   3.878
 7796SOL    HW224288   4.010   3.234   3.868
 7797SOL     OW24289   0.940   0.223   2.491
 7797SOL    HW124290   0.988   0.243   2.576
 7797SOL    HW224291   0.940   0.124   2.475
 7798SOL     OW24292   4.243   5.305   6.914
 7798SOL    HW124293   4.230   5.221   6.966
 7798SOL    HW224294   4.304   5.367   6.964
 7799SOL     OW24295   6.867   5.023   1.116
 7799SOL    HW124296   6.816   5.044   1.200
 7799SOL    HW224297   6.813   4.960   1.060
 7800SOL     OW24298   0.744   5.796   2.134
 7800SOL    HW124299   0.715   5.732   2.205
 7800SOL    HW224300   0.689   5.782   2.052
 7801SOL     OW24301   3.861   1.882   6.263
 7801SOL    HW124302   3.840   1.784   6.262
 7801SOL    HW224303   3.960   1.895   6.250
 7802SOL     OW24304   5.966   2.241   1.613
 7802SOL    HW124305   6.052   2.204   1.647
 7802SOL    HW224306   5.984   2.310   1.544
 7803SOL     OW24307   3.884   4.288   5.651
 7803SOL    HW124308   3.827   4.229   5.708
 7803SOL    HW224309   3.862   4.274   5.555
 7804SOL     OW24310   4.864   1.613   6.372
 7804SOL    HW124311   4.887   1.561   6.290
 7804SOL    HW224312   4.805   1.690   6.347
 7805SOL     OW24313   4.855   3.560   2.175
 7805SOL    HW124314   4.863   3.461   2.163
 7805SOL    HW224315   4.776   3.594   2.123
 7806SOL     OW24316   5.149   2.749   0.021
 7806SOL    HW124317   5.107   2.806   0.091
 7806SOL    HW224318   5.128   2.786   6.947
 7807SOL     OW24319   0.148   3.746   6.601
 7807SOL    HW124320   0.130   3.803   6.682
 7807SOL    HW224321   0.062   3.705   6.569
 7808SOL     OW24322   0.489   1.579   5.087
 7808SOL    HW124323   0.530   1.670   5.088
 7808SOL    HW224324   0.465   1.552   5.181
 7809SOL     OW24325   1.910   5.259   5.115
 7809SOL    HW124326   2.001   5.239   5.150
 7809SOL    HW224327   1.914   5.338   5.053
 7810SOL     OW24328   2.721   1.460   6.756
 7810SOL    HW124329   2.789   1.414   6.698
 7810SOL    HW224330   2.679   1.393   6.818
 7811SOL     OW24331   6.992   4.248   4.092
 7811SOL    HW124332   0.009   4.223   4.001
 7811SOL    HW224333   6.901   4.287   4.084
 7812SOL     OW24334   1.515   1.591   3.416
 7812SOL    HW124335   1.427   1.592   3.368
 7812SOL    HW224336   1.580   1.536   3.365
 7813SOL     OW24337   6.437   3.098   0.768
 7813SOL    HW124338   6.502   3.059   0.703
 7813SOL    HW224339   6.388   3.174   0.726
 7814SOL     OW24340   0.812   3.959   3.370
 7814SOL    HW124341   0.836   3.863   3.360
 7814SOL    HW224342   0.830   3.989   3.464
 7815SOL     OW24343   6.582   1.953   6.337
 7815SOL    HW124344   6.505   1.928   6.395
 7815SOL    HW224345   6.620   1.871   6.294
 7816SOL     OW24346   1.258   4.025   5.014
 7816SOL    HW124347   1.252   3.956   5.086
 7816SOL    HW224348   1.238   4.115   5.052
 7817SOL     OW24349   5.242   3.796   4.702
 7817SOL    HW124350   5.305   3.861   4.744
 7817SOL    HW224351   5.201   3.739   4.773
 7818SOL     OW24352   5.197   5.320   2.465
 7818SOL    HW124353   5.218   5.307   2.562
 7818SOL    HW224354   5.103   5.353   2.455
 7819SOL     OW24355   6.650   1.121   1.638
 7819SOL    HW124356   6.594   1.132   1.720
 7819SOL    HW224357   6.741   1.087   1.664
 7820SOL     OW24358   1.978   0.544   6.311
 7820SOL    HW124359   1.907   0.589   6.365
 7820SOL    HW224360   1.941   0.459   6.272
 7821SOL     OW24361   3.197   5.219   1.335
 7821SOL    HW124362   3.170   5.160   1.411
 7821SOL    HW224363   3.157   5.183   1.250
 7822SOL     OW24364   1.626   5.812   5.027
 7822SOL    HW124365   1.683   5.883   4.985
 7822SOL    HW224366   1.615   5.736   4.963
 7823SOL     OW24367   1.551   4.342   4.826
 7823SOL    HW124368   1.592   4.287   4.898
 7823SOL    HW224369   1.576   4.438   4.837
 7824SOL     OW24370   0.489   3.127   5.555
 7824SOL    HW124371   0.475   3.225   5.570
 7824SOL    HW224372   0.429   3.096   5.481
 7825SOL     OW24373   2.911   1.352   6.566
 7825SOL    HW124374   2.942   1.257   6.575
 7825SOL    HW224375   2.980   1.414   6.604
 7826SOL     OW24376   0.905   3.072   6.247
 7826SOL    HW124377   0.820   3.028   6.218
 7826SOL    HW224378   0.969   3.075   6.170
 7827SOL     OW24379   6.501   5.378   5.149
 7827SOL    HW124380   6.540   5.401   5.060
 7827SOL    HW224381   6.500   5.279   5.161
 7828SOL     OW24382   0.777   5.125   0.492
 7828SOL    HW124383   0.775   5.124   0.392
 7828SOL    HW224384   0.824   5.207   0.524
 7829SOL     OW24385   3.945   3.134   0.768
 7829SOL    HW124386   3.874   3.134   0.697
 7829SOL    HW224387   3.947   3.224   0.813
 7830SOL     OW24388   2.666   5.186   3.790
 7830SOL    HW124389   2.621   5.164   3.704
 7830SOL    HW224390   2.765   5.175   3.780
 7831SOL     OW24391   1.674   0.600   0.032
 7831SOL    HW124392   1.624   0.627   6.966
 7831SOL    HW224393   1.771   0.589   0.010
 7832SOL     OW24394   6.375   0.688   4.792
 7832SOL    HW124395   6.331   0.623   4.855
 7832SOL    HW224396   6.320   0.770   4.785
 7833SOL     OW24397   1.833   0.503   3.430
 7833SOL    HW124398   1.862   0.475   3.522
 7833SOL    HW224399   1.751   0.452   3.404
 7834SOL     OW24400   6.488   3.858   5.063
 7834SOL    HW124401   6.549   3.841   4.986
 7834SOL    HW224402   6.532   3.920   5.127
 7835SOL     OW24403   4.093   2.466   5.436
 7835SOL    HW124404   4.097   2.521   5.353
 7835SOL    HW224405   4.187   2.445   5.466
 7836SOL     OW24406   3.323   3.529   4.080
 7836SOL    HW124407   3.300   3.468   4.157
 7836SOL    HW224408   3.286   3.491   3.996
 7837SOL     OW24409   0.138   5.823   0.480
 7837SOL    HW124410   0.171   5.918   0.483
 7837SOL    HW224411   0.119   5.792   0.574
 7838SOL     OW24412   4.620   5.838   2.175
 7838SOL    HW124413   4.549   5.894   2.131
 7838SOL    HW224414   4.648   5.765   2.113
 7839SOL     OW24415   5.972   3.101   4.229
 7839SOL    HW124416   5.984   3.003   4.245
 7839SOL    HW224417   5.984   3.151   4.315
 7840SOL     OW24418   1.842   3.090   4.348
 7840SOL    HW124419   1.831   2.992   4.363
 7840SOL    HW224420   1.931   3.108   4.307
 7841SOL     OW24421   4.132   1.924   6.169
 7841SOL    HW124422   4.224   1.962   6.166
 7841SOL    HW224423   4.102   1.901   6.077
 7842SOL     OW24424   1.372   0.508   2.005
 7842SOL    HW124425   1.446   0.480   1.944
 7842SOL    HW224426   1.408   0.574   2.071
 7843SOL     OW24427   0.046   6.164   3.438
 7843SOL    HW124428   0.029   6.263   3.433
 7843SOL    HW224429   0.020   6.130   3.528
 7844SOL     OW24430   4.320   1.317   2.495
 7844SOL    HW124431   4.248   1.324   2.564
 7844SOL    HW224432   4.348   1.409   2.467
 7845SOL     OW24433   6.892   2.852   1.103
 7845SOL    HW124434   6.826   2.902   1.160
 7845SOL    HW224435   6.894   2.756   1.131
 7846SOL     OW24436   0.979   1.591   0.706
 7846SOL    HW124437   1.050   1.661   0.713
 7846SOL    HW224438   1.020   1.504   0.681
 7847SOL     OW24439   5.480   3.856   5.813
 7847SOL    HW124440   5.545   3.788   5.778
 7847SOL    HW224441   5.489   3.863   5.912
 7848SOL     OW24442   3.351   4.157   1.119
 7848SOL    HW124443   3.286   4.218   1.074
 7848SOL    HW224444   3.395   4.098   1.051
 7849SOL     OW24445   4.563   4.487   0.146
 7849SOL    HW124446   4.598   4.395   0.127
 7849SOL    HW224447   4.628   4.555   0.113
 7850SOL     OW24448   0.099   1.154   3.851
 7850SOL    HW124449   0.125   1.134   3.756
 7850SOL    HW224450   0.181   1.162   3.907
 7851SOL     OW24451   0.102   4.949   1.459
 7851SOL    HW124452   0.173   4.886   1.490
 7851SOL    HW224453   0.046   4.904   1.388
 7852SOL     OW24454   0.970   3.092   6.532
 7852SOL    HW124455   1.047   3.110   6.593
 7852SOL    HW224456   1.003   3.089   6.437
 7853SOL     OW24457   3.988   2.929   1.911
 7853SOL    HW124458   4.060   2.898   1.849
 7853SOL    HW224459   4.016   3.016   1.953
 7854SOL     OW24460   5.066   1.846   6.553
 7854SOL    HW124461   4.981   1.868   6.506
 7854SOL    HW224462   5.071   1.747   6.568
 7855SOL     OW24463   5.378   0.128   4.371
 7855SOL    HW124464   5.342   0.146   4.462
 7855SOL    HW224465   5.327   0.053   4.329
 7856SOL     OW24466   2.387   6.375   4.471
 7856SOL    HW124467   2.393   6.358   4.570
 7856SOL    HW224468   2.292   6.375   4.443
 7857SOL     OW24469   6.291   4.937   1.343
 7857SOL    HW124470   6.249   5.000   1.277
 7857SOL    HW224471   6.252   4.845   1.330
 7858SOL     OW24472   0.491   4.396   6.647
 7858SOL    HW124473   0.401   4.389   6.604
 7858SOL    HW224474   0.483   4.439   6.736
 7859SOL     OW24475   5.370   2.854   0.600
 7859SOL    HW124476   5.299   2.922   0.582
 7859SOL    HW224477   5.330   2.777   0.649
 7860SOL     OW24478   2.862   1.002   4.754
 7860SOL    HW124479   2.861   1.027   4.657
 7860SOL    HW224480   2.796   1.058   4.804
 7861SOL     OW24481   2.167   6.106   0.281
 7861SOL    HW124482   2.141   6.153   0.196
 7861SOL    HW224483   2.265   6.084   0.277
 7862SOL     OW24484   2.234   5.736   0.013
 7862SOL    HW124485   2.180   5.802   6.978
 7862SOL    HW224486   2.328   5.768   0.022
 7863SOL     OW24487   0.342   4.115   3.643
 7863SOL    HW124488   0.408   4.045   3.617
 7863SOL    HW224489   0.261   4.071   3.682
 7864SOL     OW24490   1.884   6.080   5.255
 7864SOL    HW124491   1.821   6.002   5.262
 7864SOL    HW224492   1.973   6.055   5.292
 7865SOL     OW24493   5.438   4.780   3.676
 7865SOL    HW124494   5.528   4.789   3.634
 7865SOL    HW224495   5.376   4.733   3.612
 7866SOL     OW24496   6.993   0.268   6.337
 7866SOL    HW124497   7.009   0.236   6.431
 7866SOL    HW224498   6.969   0.190   6.279
 7867SOL     OW24499   4.874   4.970   3.807
 7867SOL    HW124500   4.911   5.032   3.876
 7867SOL    HW224501   4.774   4.964   3.817
 7868SOL     OW24502   3.190   6.173   1.459
 7868SOL    HW124503   3.176   6.084   1.502
 7868SOL    HW224504   3.133   6.181   1.378
 7869SOL     OW24505   5.783   4.807   6.373
 7869SOL    HW124506   5.796   4.815   6.274
 7869SOL    HW224507   5.702   4.750   6.391
 7870SOL     OW24508   5.819   5.666   4.648
 7870SOL    HW124509   5.860   5.757   4.656
 7870SOL    HW224510   5.727   5.667   4.688
 7871SOL     OW24511   5.571   1.872   1.338
 7871SOL    HW124512   5.662   1.847   1.307
 7871SOL    HW224513   5.519   1.790   1.361
 7872SOL     OW24514   1.200   5.700   2.905
 7872SOL    HW124515   1.159   5.709   2.996
 7872SOL    HW224516   1.163   5.772   2.845
 7873SOL     OW24517   5.496   2.049   0.208
 7873SOL    HW124518   5.594   2.031   0.199
 7873SOL    HW224519   5.444   1.970   0.177
 7874SOL     OW24520   5.590   2.976   0.539
 7874SOL    HW124521   5.507   2.924   0.556
 7874SOL    HW224522   5.619   2.963   0.444
 7875SOL     OW24523   6.179   4.716   6.512
 7875SOL    HW124524   6.104   4.768   6.552
 7875SOL    HW224525   6.254   4.778   6.489
 7876SOL     OW24526   1.494   0.007   3.727
 7876SOL    HW124527   1.423   7.015   3.657
 7876SOL    HW224528   1.456   7.000   3.816
 7877SOL     OW24529   0.234   2.773   3.160
 7877SOL    HW124530   0.321   2.813   3.130
 7877SOL    HW224531   0.160   2.813   3.107
 7878SOL     OW24532   4.601   4.683   3.000
 7878SOL    HW124533   4.648   4.595   3.006
 7878SOL    HW224534   4.514   4.671   2.953
 7879SOL     OW24535   3.141   4.863   2.694
 7879SOL    HW124536   3.141   4.920   2.776
 7879SOL    HW224537   3.234   4.831   2.676
 7880SOL     OW24538   1.310   4.296   2.345
 7880SOL    HW124539   1.336   4.392   2.337
 7880SOL    HW224540   1.351   4.244   2.270
 7881SOL     OW24541   4.914   4.281   3.705
 7881SOL    HW124542   4.957   4.191   3.699
 7881SOL    HW224543   4.820   4.270   3.736
 7882SOL     OW24544   1.262   3.295   6.846
 7882SOL    HW124545   1.220   3.245   6.921
 7882SOL    HW224546   1.346   3.340   6.878
 7883SOL     OW24547   1.022   0.206   5.270
 7883SOL    HW124548   1.002   0.228   5.175
 7883SOL    HW224549   1.014   0.289   5.326
 7884SOL     OW24550   0.681   2.882   4.260
 7884SOL    HW124551   0.658   2.954   4.194
 7884SOL    HW224552   0.737   2.812   4.216
 7885SOL     OW24553   6.775   6.136   6.361
 7885SOL    HW124554   6.797   6.177   6.449
 7885SOL    HW224555   6.676   6.132   6.350
 7886SOL     OW24556   5.127   4.801   0.435
 7886SOL    HW124557   5.096   4.894   0.457
 7886SOL    HW224558   5.066   4.760   0.368
 7887SOL     OW24559   4.478   2.810   5.866
 7887SOL    HW124560   4.576   2.828   5.876
 7887SOL    HW224561   4.437   2.795   5.956
 7888SOL     OW24562   4.945   0.436   4.554
 7888SOL    HW124563   5.044   0.439   4.567
 7888SOL    HW224564   4.914   0.523   4.515
 7889SOL     OW24565   0.790   5.216   2.399
 7889SOL    HW124566   0.764   5.124   2.368
 7889SOL    HW224567   0.842   5.262   2.327
 7890SOL     OW24568   1.746   2.917   2.634
 7890SOL    HW124569   1.798   2.999   2.657
 7890SOL    HW224570   1.766   2.845   2.700
 7891SOL     OW24571   1.312   4.839   3.125
 7891SOL    HW124572   1.215   4.843   3.102
 7891SOL    HW224573   1.328   4.886   3.212
 7892SOL     OW24574   2.369   2.916   5.570
 7892SOL    HW124575   2.352   2.884   5.477
 7892SOL    HW224576   2.340   2.845   5.635
 7893SOL     OW24577   6.011   6.613   1.635
 7893SOL    HW124578   5.989   6.710   1.635
 7893SOL    HW224579   6.066   6.591   1.554
 7894SOL     OW24580   3.228   0.783   1.846
 7894SOL    HW124581   3.210   0.881   1.834
 7894SOL    HW224582   3.322   0.764   1.819
 7895SOL     OW24583   6.601   1.616   3.366
 7895SOL    HW124584   6.678   1.651   3.312
 7895SOL    HW224585   6.521   1.673   3.352
 7896SOL     OW24586   3.936   1.904   5.981
 7896SOL    HW124587   3.841   1.922   6.004
 7896SOL    HW224588   3.944   1.815   5.936
 7897SOL     OW24589   2.649   3.075   6.378
 7897SOL    HW124590   2.664   3.134   6.298
 7897SOL    HW224591   2.737   3.038   6.409
 7898SOL     OW24592   4.448   2.509   3.963
 7898SOL    HW124593   4.531   2.458   3.986
 7898SOL    HW224594   4.415   2.556   4.045
 7899SOL     OW24595   5.078   0.884   2.758
 7899SOL    HW124596   5.125   0.890   2.670
 7899SOL    HW224597   4.980   0.873   2.744
 7900SOL     OW24598   1.877   5.312   0.856
 7900SOL    HW124599   1.863   5.327   0.954
 7900SOL    HW224600   1.946   5.241   0.843
 7901SOL     OW24601   5.954   5.835   0.461
 7901SOL    HW124602   5.869   5.842   0.409
 7901SOL    HW224603   5.954   5.902   0.535
 7902SOL     OW24604   5.455   4.780   6.485
 7902SOL    HW124605   5.493   4.869   6.459
 7902SOL    HW224606   5.516   4.736   6.550
 7903SOL     OW24607   6.919   2.198   6.891
 7903SOL    HW124608   6.946   2.265   6.822
 7903SOL    HW224609   6.882   2.246   6.971
 7904SOL     OW24610   6.471   0.872   2.849
 7904SOL    HW124611   6.376   0.868   2.819
 7904SOL    HW224612   6.525   0.805   2.797
 7905SOL     OW24613   3.070   1.857   1.009
 7905SOL    HW124614   3.089   1.766   0.970
 7905SOL    HW224615   3.000   1.849   1.080
 7906SOL     OW24616   6.988   5.523   0.186
 7906SOL    HW124617   7.001   5.621   0.175
 7906SOL    HW224618   0.022   5.475   0.114
 7907SOL     OW24619   6.223   2.718   2.423
 7907SOL    HW124620   6.241   2.813   2.448
 7907SOL    HW224621   6.134   2.711   2.377
 7908SOL     OW24622   6.097   1.696   3.272
 7908SOL    HW124623   6.158   1.680   3.194
 7908SOL    HW224624   6.099   1.793   3.296
 7909SOL     OW24625   4.468   5.313   5.610
 7909SOL    HW124626   4.453   5.378   5.536
 7909SOL    HW224627   4.564   5.318   5.641
 7910SOL     OW24628   6.013   4.000   6.003
 7910SOL    HW124629   6.103   3.989   6.045
 7910SOL    HW224630   5.946   3.946   6.054
 7911SOL     OW24631   6.722   5.091   6.881
 7911SOL    HW124632   6.654   5.036   6.929
 7911SOL    HW224633   6.686   5.183   6.864
 7912SOL     OW24634   0.080   5.172   5.418
 7912SOL    HW124635   0.057   5.184   5.321
 7912SOL    HW224636   0.076   5.075   5.442
 7913SOL     OW24637   0.884   5.912   6.475
 7913SOL    HW124638   0.978   5.945   6.479
 7913SOL    HW224639   0.854   5.884   6.566
 7914SOL     OW24640   0.156   3.610   2.359
 7914SOL    HW124641   0.213   3.676   2.408
 7914SOL    HW224642   0.107   3.553   2.425
 7915SOL     OW24643   4.679   1.310   2.266
 7915SOL    HW124644   4.612   1.244   2.234
 7915SOL    HW224645   4.709   1.368   2.190
 7916SOL     OW24646   4.656   3.313   5.317
 7916SOL    HW124647   4.564   3.284   5.290
 7916SOL    HW224648   4.694   3.373   5.246
 7917SOL     OW24649   3.761   3.886   3.557
 7917SOL    HW124650   3.736   3.956   3.623
 7917SOL    HW224651   3.849   3.846   3.583
 7918SOL     OW24652   6.252   2.198   2.234
 7918SOL    HW124653   6.167   2.157   2.267
 7918SOL    HW224654   6.235   2.246   2.148
 7919SOL     OW24655   5.990   4.854   1.701
 7919SOL    HW124656   6.085   4.879   1.682
 7919SOL    HW224657   5.987   4.763   1.741
 7920SOL     OW24658   0.515   6.138   1.652
 7920SOL    HW124659   0.514   6.110   1.747
 7920SOL    HW224660   0.506   6.058   1.593
 7921SOL     OW24661   3.433   6.247   1.419
 7921SOL    HW124662   3.344   6.207   1.438
 7921SOL    HW224663   3.479   6.194   1.348
 7922SOL     OW24664   0.818   4.839   6.585
 7922SOL    HW124665   0.803   4.782   6.666
 7922SOL    HW224666   0.833   4.934   6.613
 7923SOL     OW24667   0.976   1.443   3.081
 7923SOL    HW124668   1.063   1.402   3.057
 7923SOL    HW224669   0.984   1.542   3.079
 7924SOL     OW24670   2.191   0.617   3.799
 7924SOL    HW124671   2.171   0.520   3.790
 7924SOL    HW224672   2.216   0.638   3.893
 7925SOL     OW24673   0.134   0.738   6.769
 7925SOL    HW124674   0.088   0.653   6.793
 7925SOL    HW224675   0.073   0.796   6.714
 7926SOL     OW24676   3.344   0.299   2.220
 7926SOL    HW124677   3.405   0.310   2.298
 7926SOL    HW224678   3.252   0.275   2.251
 7927SOL     OW24679   4.501   5.071   4.287
 7927SOL    HW124680   4.569   5.023   4.231
 7927SOL    HW224681   4.424   5.099   4.230
 7928SOL     OW24682   1.173   4.734   0.252
 7928SOL    HW124683   1.131   4.655   0.295
 7928SOL    HW224684   1.162   4.814   0.311
 7929SOL     OW24685   4.028   3.658   4.370
 7929SOL    HW124686   4.054   3.755   4.379
 7929SOL    HW224687   3.931   3.651   4.347
 7930SOL     OW24688   5.424   5.840   4.531
 7930SOL    HW124689   5.482   5.871   4.456
 7930SOL    HW224690   5.478   5.781   4.592
 7931SOL     OW24691   1.407   3.362   0.579
 7931SOL    HW124692   1.375   3.303   0.505
 7931SOL    HW224693   1.352   3.344   0.661
 7932SOL     OW24694   2.983   6.754   1.166
 7932SOL    HW124695   3.061   6.727   1.110
 7932SOL    HW224696   3.013   6.772   1.259
 7933SOL     OW24697   0.939   0.530   6.286
 7933SOL    HW124698   0.936   0.549   6.384
 7933SOL    HW224699   0.912   0.611   6.235
 7934SOL     OW24700   3.991   3.177   5.657
 7934SOL    HW124701   4.052   3.099   5.647
 7934SOL    HW224702   4.041   3.261   5.638
 7935SOL     OW24703   4.383   6.067   1.572
 7935SOL    HW124704   4.421   6.128   1.642
 7935SOL    HW224705   4.387   6.113   1.483
 7936SOL     OW24706   4.530   5.445   3.175
 7936SOL    HW124707   4.511   5.543   3.180
 7936SOL    HW224708   4.469   5.396   3.237
 7937SOL     OW24709   6.337   6.832   5.931
 7937SOL    HW124710   6.385   6.856   6.015
 7937SOL    HW224711   6.294   6.913   5.893
 7938SOL     OW24712   5.635   4.617   4.616
 7938SOL    HW124713   5.733   4.601   4.624
 7938SOL    HW224714   5.614   4.710   4.646
 7939SOL     OW24715   0.762   6.899   4.586
 7939SOL    HW124716   0.753   6.949   4.501
 7939SOL    HW224717   0.719   6.809   4.577
 7940SOL     OW24718   1.715   5.584   0.928
 7940SOL    HW124719   1.810   5.616   0.940
 7940SOL    HW224720   1.682   5.547   1.015
 7941SOL     OW24721   0.523   0.340   0.137
 7941SOL    HW124722   0.611   0.319   0.093
 7941SOL    HW224723   0.512   0.439   0.145
 7942SOL     OW24724   1.459   1.497   1.106
 7942SOL    HW124725   1.490   1.547   1.025
 7942SOL    HW224726   1.436   1.403   1.080
 7943SOL     OW24727   5.628   2.383   0.643
 7943SOL    HW124728   5.541   2.339   0.619
 7943SOL    HW224729   5.613   2.449   0.717
 7944SOL     OW24730   0.431   4.276   2.139
 7944SOL    HW124731   0.465   4.205   2.078
 7944SOL    HW224732   0.508   4.321   2.185
 7945SOL     OW24733   5.100   6.464   1.797
 7945SOL    HW124734   5.086   6.384   1.855
 7945SOL    HW224735   5.175   6.446   1.733
 7946SOL     OW24736   1.527   1.999   5.893
 7946SOL    HW124737   1.542   1.958   5.803
 7946SOL    HW224738   1.594   1.962   5.958
 7947SOL     OW24739   3.875   4.782   6.212
 7947SOL    HW124740   3.842   4.817   6.124
 7947SOL    HW224741   3.947   4.714   6.196
 7948SOL     OW24742   0.971   5.115   0.039
 7948SOL    HW124743   1.066   5.147   0.031
 7948SOL    HW224744   0.908   5.190   0.019
 7949SOL     OW24745   6.698   4.550   4.188
 7949SOL    HW124746   6.751   4.471   4.157
 7949SOL    HW224747   6.734   4.581   4.276
 7950SOL     OW24748   3.088   4.850   4.242
 7950SOL    HW124749   3.110   4.947   4.256
 7950SOL    HW224750   3.024   4.820   4.313
 7951SOL     OW24751   2.960   3.343   0.838
 7951SOL    HW124752   2.971   3.243   0.831
 7951SOL    HW224753   3.048   3.384   0.861
 7952SOL     OW24754   4.937   4.338   0.179
 7952SOL    HW124755   4.841   4.333   0.152
 7952SOL    HW224756   4.994   4.343   0.096
 7953SOL     OW24757   2.404   2.717   3.219
 7953SOL    HW124758   2.323   2.680   3.264
 7953SOL    HW224759   2.471   2.744   3.288
 7954SOL     OW24760   4.875   5.383   5.305
 7954SOL    HW124761   4.961   5.432   5.316
 7954SOL    HW224762   4.886   5.289   5.337
 7955SOL     OW24763   1.534   0.006   6.257
 7955SOL    HW124764   1.572   6.990   6.170
 7955SOL    HW224765   1.435   7.012   6.257
 7956SOL     OW24766   6.247   7.011   4.026
 7956SOL    HW124767   6.265   0.079   4.076
 7956SOL    HW224768   6.203   0.015   3.939
 7957SOL     OW24769   1.268   2.423   1.393
 7957SOL    HW124770   1.217   2.485   1.452
 7957SOL    HW224771   1.272   2.333   1.436
 7958SOL     OW24772   2.161   5.635   2.973
 7958SOL    HW124773   2.157   5.568   2.899
 7958SOL    HW224774   2.255   5.666   2.986
 7959SOL     OW24775   5.044   5.508   0.880
 7959SOL    HW124776   5.076   5.564   0.957
 7959SOL    HW224777   5.122   5.487   0.821
 7960SOL     OW24778   2.282   2.435   0.710
 7960SOL    HW124779   2.200   2.383   0.685
 7960SOL    HW224780   2.256   2.521   0.754
 7961SOL     OW24781   2.044   5.680   6.828
 7961SOL    HW124782   2.093   5.612   6.882
 7961SOL    HW224783   2.109   5.726   6.767
 7962SOL     OW24784   1.220   0.152   2.111
 7962SOL    HW124785   1.261   0.064   2.085
 7962SOL    HW224786   1.131   0.135   2.155
 7963SOL     OW24787   1.371   6.760   4.317
 7963SOL    HW124788   1.395   6.666   4.341
 7963SOL    HW224789   1.451   6.819   4.330
 7964SOL     OW24790   6.092   5.885   3.321
 7964SOL    HW124791   6.097   5.954   3.249
 7964SOL    HW224792   6.131   5.799   3.287
 7965SOL     OW24793   5.663   1.910   0.744
 7965SOL    HW124794   5.670   1.868   0.835
 7965SOL    HW224795   5.594   1.983   0.748
 7966SOL     OW24796   6.879   6.152   3.679
 7966SOL    HW124797   6.894   6.054   3.666
 7966SOL    HW224798   6.788   6.177   3.646
 7967SOL     OW24799   3.179   6.226   2.218
 7967SOL    HW124800   3.241   6.230   2.139
 7967SOL    HW224801   3.106   6.161   2.199
 7968SOL     OW24802   1.620   0.936   1.608
 7968SOL    HW124803   1.569   0.932   1.522
 7968SOL    HW224804   1.603   0.852   1.660
 7969SOL     OW24805   3.217   2.034   3.397
 7969SOL    HW124806   3.281   2.076   3.333
 7969SOL    HW224807   3.170   1.958   3.353
 7970SOL     OW24808   0.339   5.228   3.369
 7970SOL    HW124809   0.264   5.218   3.303
 7970SOL    HW224810   0.382   5.140   3.385
 7971SOL     OW24811   2.546   1.535   2.444
 7971SOL    HW124812   2.471   1.510   2.382
 7971SOL    HW224813   2.628   1.555   2.390
 7972SOL     OW24814   0.746   4.983   2.255
 7972SOL    HW124815   0.765   5.049   2.182
 7972SOL    HW224816   0.701   4.903   2.216
 7973SOL     OW24817   4.587   2.305   2.213
 7973SOL    HW124818   4.501   2.254   2.211
 7973SOL    HW224819   4.648   2.266   2.281
 7974SOL     OW24820   5.509   6.682   3.957
 7974SOL    HW124821   5.411   6.671   3.940
 7974SOL    HW224822   5.550   6.592   3.970
 7975SOL     OW24823   2.455   1.050   3.319
 7975SOL    HW124824   2.361   1.056   3.287
 7975SOL    HW224825   2.457   1.049   3.419
 7976SOL     OW24826   0.639   6.622   6.173
 7976SOL    HW124827   0.695   6.588   6.249
 7976SOL    HW224828   0.682   6.595   6.086
 7977SOL     OW24829   5.056   6.709   1.869
 7977SOL    HW124830   5.059   6.619   1.825
 7977SOL    HW224831   4.977   6.714   1.929
 7978SOL     OW24832   3.996   2.587   6.292
 7978SOL    HW124833   3.987   2.499   6.244
 7978SOL    HW224834   4.091   2.602   6.317
 7979SOL     OW24835   4.259   0.074   4.240
 7979SOL    HW124836   4.199   0.124   4.177
 7979SOL    HW224837   4.266   6.996   4.211
 7980SOL     OW24838   2.653   0.403   2.015
 7980SOL    HW124839   2.610   0.353   2.090
 7980SOL    HW224840   2.584   0.425   1.945
 7981SOL     OW24841   1.074   5.937   2.804
 7981SOL    HW124842   1.036   6.024   2.833
 7981SOL    HW224843   1.003   5.882   2.759
 7982SOL     OW24844   0.129   2.894   1.010
 7982SOL    HW124845   0.140   2.951   0.929
 7982SOL    HW224846   0.031   2.882   1.029
 7983SOL     OW24847   4.776   2.396   1.947
 7983SOL    HW124848   4.784   2.466   2.018
 7983SOL    HW224849   4.680   2.370   1.935
 7984SOL     OW24850   0.481   0.410   0.832
 7984SOL    HW124851   0.478   0.364   0.743
 7984SOL    HW224852   0.389   0.434   0.860
 7985SOL     OW24853   0.664   1.136   0.958
 7985SOL    HW124854   0.634   1.175   1.045
 7985SOL    HW224855   0.595   1.072   0.924
 7986SOL     OW24856   4.133   2.569   0.519
 7986SOL    HW124857   4.155   2.632   0.593
 7986SOL    HW224858   4.034   2.567   0.504
 7987SOL     OW24859   0.185   2.677   4.771
 7987SOL    HW124860   0.115   2.677   4.843
 7987SOL    HW224861   0.273   2.651   4.810
 7988SOL     OW24862   2.596   1.350   5.524
 7988SOL    HW124863   2.547   1.273   5.566
 7988SOL    HW224864   2.565   1.436   5.564
 7989SOL     OW24865   3.431   3.440   5.294
 7989SOL    HW124866   3.515   3.480   5.331
 7989SOL    HW224867   3.450   3.347   5.261
 7990SOL     OW24868   2.208   2.404   4.854
 7990SOL    HW124869   2.228   2.395   4.951
 7990SOL    HW224870   2.109   2.399   4.840
 7991SOL     OW24871   0.085   3.345   4.955
 7991SOL    HW124872   7.010   3.384   4.963
 7991SOL    HW224873   0.142   3.407   4.900
 7992SOL     OW24874   2.701   0.712   0.377
 7992SOL    HW124875   2.727   0.704   0.281
 7992SOL    HW224876   2.696   0.621   0.418
 7993SOL     OW24877   2.472   6.783   6.612
 7993SOL    HW124878   2.375   6.786   6.590
 7993SOL    HW224879   2.509   6.876   6.615
 7994SOL     OW24880   5.786   0.422   3.964
 7994SOL    HW124881   5.738   0.358   3.904
 7994SOL    HW224882   5.859   0.467   3.913
 7995SOL     OW24883   4.131   4.851   3.028
 7995SOL    HW124884   4.049   4.850   3.085
 7995SOL    HW224885   4.212   4.858   3.085
 7996SOL     OW24886   3.729   0.791   5.208
 7996SOL    HW124887   3.774   0.710   5.246
 7996SOL    HW224888   3.789   0.835   5.141
 7997SOL     OW24889   5.841   2.563   2.552
 7997SOL    HW124890   5.912   2.586   2.486
 7997SOL    HW224891   5.754   2.553   2.505
 7998SOL     OW24892   6.441   5.297   6.965
 7998SOL    HW124893   6.469   5.215   7.015
 7998SOL    HW224894   6.462   5.286   6.868
 7999SOL     OW24895   1.726   0.503   5.689
 7999SOL    HW124896   1.801   0.491   5.624
 7999SOL    HW224897   1.697   0.413   5.723
 8000SOL     OW24898   5.773   0.110   5.950
 8000SOL    HW124899   5.723   0.170   6.012
 8000SOL    HW224900   5.761   0.015   5.978
 8001SOL     OW24901   2.162   6.918   1.099
 8001SOL    HW124902   2.126   6.848   1.160
 8001SOL    HW224903   2.101   6.998   1.099
 8002SOL     OW24904   5.621   3.290   5.704
 8002SOL    HW124905   5.572   3.214   5.747
 8002SOL    HW224906   5.691   3.325   5.765
 8003SOL     OW24907   3.916   4.894   3.183
 8003SOL    HW124908   3.818   4.914   3.183
 8003SOL    HW224909   3.958   4.935   3.264
 8004SOL     OW24910   1.791   3.766   2.330
 8004SOL    HW124911   1.876   3.762   2.381
 8004SOL    HW224912   1.716   3.733   2.387
 8005SOL     OW24913   2.830   1.167   1.617
 8005SOL    HW124914   2.926   1.171   1.589
 8005SOL    HW224915   2.815   1.232   1.692
 8006SOL     OW24916   3.296   6.252   0.729
 8006SOL    HW124917   3.363   6.180   0.709
 8006SOL    HW224918   3.329   6.308   0.805
 8007SOL     OW24919   0.873   0.920   4.078
 8007SOL    HW124920   0.909   0.879   3.994
 8007SOL    HW224921   0.773   0.910   4.079
 8008SOL     OW24922   6.277   5.955   0.402
 8008SOL    HW124923   6.231   5.896   0.468
 8008SOL    HW224924   6.250   5.928   0.309
 8009SOL     OW24925   0.032   0.113   3.746
 8009SOL    HW124926   0.108   0.084   3.805
 8009SOL    HW224927   0.014   0.043   3.677
 8010SOL     OW24928   2.687   2.550   6.754
 8010SOL    HW124929   2.690   2.614   6.678
 8010SOL    HW224930   2.677   2.600   6.840
 8011SOL     OW24931   2.254   2.031   1.042
 8011SOL    HW124932   2.242   2.106   0.977
 8011SOL    HW224933   2.346   2.035   1.082
 8012SOL     OW24934   3.279   6.586   3.003
 8012SOL    HW124935   3.272   6.496   2.959
 8012SOL    HW224936   3.264   6.658   2.935
 8013SOL     OW24937   6.531   4.763   5.100
 8013SOL    HW124938   6.534   4.667   5.125
 8013SOL    HW224939   6.478   4.814   5.168
 8014SOL     OW24940   1.970   0.317   6.812
 8014SOL    HW124941   1.925   0.251   6.873
 8014SOL    HW224942   2.029   0.267   6.749
 8015SOL     OW24943   1.781   1.834   6.681
 8015SOL    HW124944   1.759   1.837   6.778
 8015SOL    HW224945   1.741   1.914   6.635
 8016SOL     OW24946   3.680   6.494   1.072
 8016SOL    HW124947   3.693   6.547   0.988
 8016SOL    HW224948   3.583   6.497   1.099
 8017SOL     OW24949   5.988   4.424   4.649
 8017SOL    HW124950   5.942   4.338   4.672
 8017SOL    HW224951   6.067   4.437   4.710
 8018SOL     OW24952   5.329   2.881   4.635
 8018SOL    HW124953   5.239   2.907   4.670
 8018SOL    HW224954   5.374   2.820   4.701
 8019SOL     OW24955   2.477   4.921   1.487
 8019SOL    HW124956   2.519   4.904   1.398
 8019SOL    HW224957   2.502   4.848   1.551
 8020SOL     OW24958   5.908   6.394   6.346
 8020SOL    HW124959   5.929   6.348   6.260
 8020SOL    HW224960   5.878   6.326   6.413
 8021SOL     OW24961   0.914   0.925   0.943
 8021SOL    HW124962   0.994   0.984   0.956
 8021SOL    HW224963   0.840   0.979   0.901
 8022SOL     OW24964   4.062   5.610   3.130
 8022SOL    HW124965   3.977   5.584   3.084
 8022SOL    HW224966   4.044   5.686   3.193
 8023SOL     OW24967   5.916   6.397   3.576
 8023SOL    HW124968   5.930   6.355   3.665
 8023SOL    HW224969   5.962   6.342   3.506
 8024SOL     OW24970   4.848   5.355   4.543
 8024SOL    HW124971   4.834   5.432   4.606
 8024SOL    HW224972   4.765   5.340   4.489
 8025SOL     OW24973   3.218   6.130   0.228
 8025SOL    HW124974   3.164   6.086   0.156
 8025SOL    HW224975   3.305   6.083   0.239
 8026SOL     OW24976   1.731   2.770   0.776
 8026SOL    HW124977   1.652   2.725   0.818
 8026SOL    HW224978   1.721   2.869   0.786
 8027SOL     OW24979   5.364   3.083   5.728
 8027SOL    HW124980   5.328   3.136   5.652
 8027SOL    HW224981   5.303   3.093   5.807
 8028SOL     OW24982   5.651   4.603   6.938
 8028SOL    HW124983   5.675   4.698   6.957
 8028SOL    HW224984   5.710   4.542   6.991
 8029SOL     OW24985   3.124   4.812   0.647
 8029SOL    HW124986   3.057   4.862   0.701
 8029SOL    HW224987   3.182   4.877   0.597
 8030SOL     OW24988   5.948   4.092   6.929
 8030SOL    HW124989   6.000   4.098   6.843
 8030SOL    HW224990   5.931   3.996   6.950
 8031SOL     OW24991   3.847   5.979   1.636
 8031SOL    HW124992   3.895   6.066   1.635
 8031SOL    HW224993   3.806   5.963   1.546
 8032SOL     OW24994   5.558   4.992   6.154
 8032SOL    HW124995   5.604   4.909   6.122
 8032SOL    HW224996   5.577   5.004   6.252
 8033SOL     OW24997   6.044   2.703   0.124
 8033SOL    HW124998   5.947   2.710   0.151
 8033SOL    HW224999   6.050   2.664   0.033
 8034SOL     OW25000   6.146   1.286   5.307
 8034SOL    HW125001   6.205   1.252   5.234
 8034SOL    HW225002   6.202   1.310   5.387
 8035SOL     OW25003   5.421   6.312   0.064
 8035SOL    HW125004   5.450   6.392   0.118
 8035SOL    HW225005   5.470   6.312   6.994
 8036SOL     OW25006   1.783   3.911   1.568
 8036SOL    HW125007   1.694   3.916   1.613
 8036SOL    HW225008   1.854   3.897   1.636
 8037SOL     OW25009   1.704   3.272   1.261
 8037SOL    HW125010   1.725   3.324   1.178
 8037SOL    HW225011   1.781   3.279   1.325
 8038SOL     OW25012   6.761   1.566   4.314
 8038SOL    HW125013   6.820   1.552   4.235
 8038SOL    HW225014   6.813   1.610   4.387
 8039SOL     OW25015   2.343   6.657   4.365
 8039SOL    HW125016   2.340   6.568   4.409
 8039SOL    HW225017   2.283   6.721   4.414
 8040SOL     OW25018   6.726   5.483   0.987
 8040SOL    HW125019   6.704   5.433   1.070
 8040SOL    HW225020   6.679   5.442   0.909
 8041SOL     OW25021   4.141   2.004   0.261
 8041SOL    HW125022   4.125   2.095   0.300
 8041SOL    HW225023   4.198   1.951   0.324
 8042SOL     OW25024   2.580   3.285   1.236
 8042SOL    HW125025   2.671   3.327   1.237
 8042SOL    HW225026   2.519   3.337   1.296
 8043SOL     OW25027   2.376   0.315   1.722
 8043SOL    HW125028   2.326   0.350   1.800
 8043SOL    HW225029   2.317   0.254   1.669
 8044SOL     OW25030   3.343   4.072   1.937
 8044SOL    HW125031   3.301   4.064   2.028
 8044SOL    HW225032   3.440   4.092   1.947
 8045SOL     OW25033   6.405   2.785   3.344
 8045SOL    HW125034   6.452   2.800   3.257
 8045SOL    HW225035   6.469   2.744   3.409
 8046SOL     OW25036   0.296   5.385   5.939
 8046SOL    HW125037   0.381   5.357   5.984
 8046SOL    HW225038   0.284   5.334   5.855
 8047SOL     OW25039   3.520   5.895   3.896
 8047SOL    HW125040   3.485   5.899   3.802
 8047SOL    HW225041   3.459   5.948   3.956
 8048SOL     OW25042   6.515   0.624   5.819
 8048SOL    HW125043   6.613   0.612   5.804
 8048SOL    HW225044   6.496   0.622   5.917
 8049SOL     OW25045   1.687   5.153   0.517
 8049SOL    HW125046   1.655   5.226   0.456
 8049SOL    HW225047   1.657   5.171   0.610
 8050SOL     OW25048   1.259   2.979   1.442
 8050SOL    HW125049   1.245   2.974   1.541
 8050SOL    HW225050   1.339   2.924   1.417
 8051SOL     OW25051   3.709   1.441   3.221
 8051SOL    HW125052   3.784   1.375   3.216
 8051SOL    HW225053   3.725   1.504   3.297
 8052SOL     OW25054   3.397   2.157   2.984
 8052SOL    HW125055   3.316   2.101   2.967
 8052SOL    HW225056   3.419   2.154   3.082
 8053SOL     OW25057   3.902   3.370   2.114
 8053SOL    HW125058   3.923   3.467   2.118
 8053SOL    HW225059   3.867   3.340   2.203
 8054SOL     OW25060   4.014   6.163   4.710
 8054SOL    HW125061   4.038   6.245   4.763
 8054SOL    HW225062   4.029   6.082   4.767
 8055SOL     OW25063   1.339   6.874   5.339
 8055SOL    HW125064   1.420   6.849   5.286
 8055SOL    HW225065   1.347   6.970   5.368
 8056SOL     OW25066   4.172   1.834   2.848
 8056SOL    HW125067   4.155   1.837   2.947
 8056SOL    HW225068   4.090   1.866   2.799
 8057SOL     OW25069   4.055   6.441   3.900
 8057SOL    HW125070   4.050   6.474   3.994
 8057SOL    HW225071   4.040   6.342   3.898
 8058SOL     OW25072   1.985   0.609   3.224
 8058SOL    HW125073   1.941   0.580   3.140
 8058SOL    HW225074   1.940   0.566   3.302
 8059SOL     OW25075   2.570   1.604   4.082
 8059SOL    HW125076   2.499   1.542   4.051
 8059SOL    HW225077   2.649   1.599   4.020
 8060SOL     OW25078   0.810   1.337   5.053
 8060SOL    HW125079   0.760   1.349   4.967
 8060SOL    HW225080   0.850   1.425   5.081
 8061SOL     OW25081   0.019   5.740   1.547
 8061SOL    HW125082   0.057   5.684   1.620
 8061SOL    HW225083   0.076   5.820   1.531
 8062SOL     OW25084   2.044   3.756   2.450
 8062SOL    HW125085   2.063   3.684   2.517
 8062SOL    HW225086   2.079   3.728   2.360
 8063SOL     OW25087   2.958   2.805   6.917
 8063SOL    HW125088   2.954   2.729   6.982
 8063SOL    HW225089   2.910   2.883   6.954
 8064SOL     OW25090   6.522   3.333   7.011
 8064SOL    HW125091   6.524   3.313   6.913
 8064SOL    HW225092   6.504   3.430   0.008
 8065SOL     OW25093   4.521   0.213   6.323
 8065SOL    HW125094   4.614   0.180   6.309
 8065SOL    HW225095   4.463   0.183   6.248
 8066SOL     OW25096   1.991   0.321   1.472
 8066SOL    HW125097   1.918   0.263   1.509
 8066SOL    HW225098   1.959   0.416   1.468
 8067SOL     OW25099   5.179   2.387   1.747
 8067SOL    HW125100   5.234   2.417   1.668
 8067SOL    HW225101   5.089   2.357   1.715
 8068SOL     OW25102   0.852   4.441   4.187
 8068SOL    HW125103   0.889   4.388   4.264
 8068SOL    HW225104   0.916   4.513   4.162
 8069SOL     OW25105   2.042   6.319   2.123
 8069SOL    HW125106   2.114   6.388   2.132
 8069SOL    HW225107   1.954   6.360   2.146
 8070SOL     OW25108   3.982   7.002   2.099
 8070SOL    HW125109   3.949   6.912   2.128
 8070SOL    HW225110   3.919   0.055   2.133
 8071SOL     OW25111   3.968   6.350   6.932
 8071SOL    HW125112   3.936   6.259   6.906
 8071SOL    HW225113   4.049   6.342   6.989
 8072SOL     OW25114   5.238   0.565   1.740
 8072SOL    HW125115   5.289   0.644   1.774
 8072SOL    HW225116   5.145   0.568   1.775
 8073SOL     OW25117   3.658   6.371   5.718
 8073SOL    HW125118   3.739   6.412   5.759
 8073SOL    HW225119   3.682   6.331   5.630
 8074SOL     OW25120   3.205   3.815   6.900
 8074SOL    HW125121   3.148   3.761   6.961
 8074SOL    HW225122   3.186   3.791   6.805
 8075SOL     OW25123   6.097   1.106   2.812
 8075SOL    HW125124   6.047   1.120   2.726
 8075SOL    HW225125   6.194   1.120   2.797
 8076SOL     OW25126   5.443   2.764   6.601
 8076SOL    HW125127   5.395   2.837   6.552
 8076SOL    HW225128   5.398   2.748   6.689
 8077SOL     OW25129   1.172   1.131   0.446
 8077SOL    HW125130   1.218   1.120   0.358
 8077SOL    HW225131   1.092   1.072   0.450
 8078SOL     OW25132   6.051   3.674   0.319
 8078SOL    HW125133   6.116   3.744   0.346
 8078SOL    HW225134   6.070   3.589   0.367
 8079SOL     OW25135   6.820   1.753   1.960
 8079SOL    HW125136   6.908   1.750   2.006
 8079SOL    HW225137   6.829   1.806   1.875
 8080SOL     OW25138   3.801   4.958   0.263
 8080SOL    HW125139   3.779   5.047   0.304
 8080SOL    HW225140   3.735   4.937   0.191
 8081SOL     OW25141   5.707   0.682   5.551
 8081SOL    HW125142   5.714   0.746   5.628
 8081SOL    HW225143   5.679   0.592   5.586
 8082SOL     OW25144   6.333   3.276   4.086
 8082SOL    HW125145   6.340   3.244   4.180
 8082SOL    HW225146   6.265   3.349   4.080
 8083SOL     OW25147   5.151   2.568   4.302
 8083SOL    HW125148   5.138   2.531   4.210
 8083SOL    HW225149   5.219   2.514   4.351
 8084SOL     OW25150   6.740   0.164   1.502
 8084SOL    HW125151   6.739   0.089   1.568
 8084SOL    HW225152   6.820   0.156   1.443
 8085SOL     OW25153   6.435   1.865   1.098
 8085SOL    HW125154   6.420   1.961   1.076
 8085SOL    HW225155   6.366   1.835   1.165
 8086SOL     OW25156   3.347   6.725   6.014
 8086SOL    HW125157   3.294   6.742   6.097
 8086SOL    HW225158   3.290   6.677   5.947
 8087SOL     OW25159   2.668   3.049   1.550
 8087SOL    HW125160   2.611   3.121   1.587
 8087SOL    HW225161   2.748   3.089   1.506
 8088SOL     OW25162   4.364   0.220   2.790
 8088SOL    HW125163   4.266   0.204   2.806
 8088SOL    HW225164   4.395   0.296   2.847
 8089SOL     OW25165   5.898   2.970   0.898
 8089SOL    HW125166   5.993   2.962   0.866
 8089SOL    HW225167   5.897   2.994   0.995
 8090SOL     OW25168   4.562   2.190   5.011
 8090SOL    HW125169   4.528   2.279   4.980
 8090SOL    HW225170   4.661   2.193   5.020
 8091SOL     OW25171   3.152   5.299   5.805
 8091SOL    HW125172   3.195   5.226   5.753
 8091SOL    HW225173   3.052   5.289   5.801
 8092SOL     OW25174   0.584   1.817   4.118
 8092SOL    HW125175   0.519   1.891   4.133
 8092SOL    HW225176   0.537   1.737   4.082
 8093SOL     OW25177   5.547   6.191   1.132
 8093SOL    HW125178   5.510   6.211   1.041
 8093SOL    HW225179   5.495   6.118   1.175
 8094SOL     OW25180   1.262   3.841   4.557
 8094SOL    HW125181   1.172   3.843   4.601
 8094SOL    HW225182   1.330   3.882   4.619
 8095SOL     OW25183   5.918   3.752   4.604
 8095SOL    HW125184   5.899   3.749   4.506
 8095SOL    HW225185   5.831   3.761   4.654
 8096SOL     OW25186   3.921   6.926   1.073
 8096SOL    HW125187   3.915   0.003   1.040
 8096SOL    HW225188   3.939   6.927   1.171
 8097SOL     OW25189   4.475   0.946   4.697
 8097SOL    HW125190   4.505   0.997   4.778
 8097SOL    HW225191   4.414   1.004   4.643
 8098SOL     OW25192   2.867   0.001   4.058
 8098SOL    HW125193   2.829   6.952   3.993
 8098SOL    HW225194   2.959   0.026   4.031
 8099SOL     OW25195   5.381   6.472   5.140
 8099SOL    HW125196   5.298   6.521   5.167
 8099SOL    HW225197   5.433   6.528   5.075
 8100SOL     OW25198   0.997   6.562   1.308
 8100SOL    HW125199   0.913   6.523   1.271
 8100SOL    HW225200   1.064   6.573   1.234
 8101SOL     OW25201   0.722   5.584   2.780
 8101SOL    HW125202   0.726   5.617   2.874
 8101SOL    HW225203   0.793   5.515   2.765
 8102SOL     OW25204   0.192   0.048   6.466
 8102SOL    HW125205   0.207   6.978   6.514
 8102SOL    HW225206   0.117   0.097   6.510
 8103SOL     OW25207   2.705   1.811   2.502
 8103SOL    HW125208   2.718   1.856   2.414
 8103SOL    HW225209   2.624   1.848   2.547
 8104SOL     OW25210   2.249   6.418   5.860
 8104SOL    HW125211   2.180   6.489   5.874
 8104SOL    HW225212   2.283   6.386   5.948
 8105SOL     OW25213   1.806   2.657   2.315
 8105SOL    HW125214   1.865   2.736   2.296
 8105SOL    HW225215   1.740   2.682   2.386
 8106SOL     OW25216   0.715   3.909   4.298
 8106SOL    HW125217   0.632   3.941   4.344
 8106SOL    HW225218   0.784   3.884   4.366
 8107SOL     OW25219   1.784   6.071   6.079
 8107SOL    HW125220   1.760   6.054   5.983
 8107SOL    HW225221   1.752   5.995   6.135
 8108SOL     OW25222   2.112   3.367   4.238
 8108SOL    HW125223   2.113   3.413   4.327
 8108SOL    HW225224   2.105   3.435   4.165
 8109SOL     OW25225   0.904   5.215   5.560
 8109SOL    HW125226   0.937   5.235   5.467
 8109SOL    HW225227   0.945   5.130   5.593
 8110SOL     OW25228   1.729   4.349   0.961
 8110SOL    HW125229   1.672   4.393   1.030
 8110SOL    HW225230   1.706   4.252   0.955
 8111SOL     OW25231   2.711   5.569   4.286
 8111SOL    HW125232   2.757   5.507   4.222
 8111SOL    HW225233   2.760   5.655   4.291
 8112SOL     OW25234   4.207   0.826   4.731
 8112SOL    HW125235   4.139   0.858   4.665
 8112SOL    HW225236   4.190   0.730   4.753
 8113SOL     OW25237   3.635   3.068   5.924
 8113SOL    HW125238   3.649   3.072   6.023
 8113SOL    HW225239   3.559   3.006   5.904
 8114SOL     OW25240   2.741   4.005   1.674
 8114SOL    HW125241   2.764   3.908   1.687
 8114SOL    HW225242   2.733   4.025   1.577
 8115SOL     OW25243   3.683   2.105   1.037
 8115SOL    HW125244   3.674   2.045   1.117
 8115SOL    HW225245   3.719   2.052   0.960
 8116SOL     OW25246   5.436   0.640   5.769
 8116SOL    HW125247   5.403   0.630   5.863
 8116SOL    HW225248   5.499   0.717   5.763
 8117SOL     OW25249   2.444   1.705   5.460
 8117SOL    HW125250   2.446   1.803   5.481
 8117SOL    HW225251   2.469   1.653   5.541
 8118SOL     OW25252   1.207   2.992   4.456
 8118SOL    HW125253   1.271   2.959   4.387
 8118SOL    HW225254   1.223   3.090   4.472
 8119SOL     OW25255   1.229   5.866   2.131
 8119SOL    HW125256   1.170   5.939   2.166
 8119SOL    HW225257   1.324   5.887   2.155
 8120SOL     OW25258   4.080   4.518   1.295
 8120SOL    HW125259   4.103   4.433   1.341
 8120SOL    HW225260   4.094   4.508   1.196
 8121SOL     OW25261   6.542   6.558   3.351
 8121SOL    HW125262   6.479   6.609   3.410
 8121SOL    HW225263   6.548   6.464   3.383
 8122SOL     OW25264   0.665   6.284   1.404
 8122SOL    HW125265   0.758   6.309   1.432
 8122SOL    HW225266   0.620   6.237   1.479
 8123SOL     OW25267   0.803   5.709   6.998
 8123SOL    HW125268   0.717   5.658   7.008
 8123SOL    HW225269   0.825   5.718   6.901
 8124SOL     OW25270   0.406   6.016   2.558
 8124SOL    HW125271   0.309   6.019   2.585
 8124SOL    HW225272   0.457   6.084   2.610
 8125SOL     OW25273   5.770   5.299   2.826
 8125SOL    HW125274   5.674   5.325   2.835
 8125SOL    HW225275   5.817   5.366   2.769
 8126SOL     OW25276   6.167   4.924   2.060
 8126SOL    HW125277   6.069   4.911   2.071
 8126SOL    HW225278   6.184   4.996   1.992
 8127SOL     OW25279   3.309   4.482   1.147
 8127SOL    HW125280   3.370   4.422   1.200
 8127SOL    HW225281   3.270   4.431   1.071
 8128SOL     OW25282   3.866   2.669   5.515
 8128SOL    HW125283   3.930   2.693   5.442
 8128SOL    HW225284   3.863   2.569   5.524
 8129SOL     OW25285   4.852   6.435   6.992
 8129SOL    HW125286   4.811   6.519   0.010
 8129SOL    HW225287   4.952   6.441   7.000
 8130SOL     OW25288   1.001   0.105   0.934
 8130SOL    HW125289   0.982   0.160   1.015
 8130SOL    HW225290   0.969   0.153   0.852
 8131SOL     OW25291   1.087   1.504   0.107
 8131SOL    HW125292   1.133   1.583   0.065
 8131SOL    HW225293   1.148   1.425   0.105
 8132SOL     OW25294   6.048   4.641   2.914
 8132SOL    HW125295   6.001   4.700   2.849
 8132SOL    HW225296   6.145   4.667   2.919
 8133SOL     OW25297   0.604   5.776   1.902
 8133SOL    HW125298   0.516   5.757   1.857
 8133SOL    HW225299   0.661   5.694   1.898
 8134SOL     OW25300   2.252   2.607   1.836
 8134SOL    HW125301   2.156   2.582   1.827
 8134SOL    HW225302   2.301   2.536   1.887
 8135SOL     OW25303   3.822   6.049   2.384
 8135SOL    HW125304   3.776   6.126   2.339
 8135SOL    HW225305   3.759   5.971   2.388
 8136SOL     OW25306   3.350   6.031   1.069
 8136SOL    HW125307   3.323   5.966   1.140
 8136SOL    HW225308   3.301   6.009   0.984
 8137SOL     OW25309   2.730   3.943   5.241
 8137SOL    HW125310   2.630   3.938   5.241
 8137SOL    HW225311   2.768   3.868   5.295
 8138SOL     OW25312   5.122   0.933   3.944
 8138SOL    HW125313   5.172   0.963   4.026
 8138SOL    HW225314   5.135   1.000   3.871
 8139SOL     OW25315   1.556   2.841   4.348
 8139SOL    HW125316   1.648   2.805   4.331
 8139SOL    HW225317   1.540   2.846   4.447
 8140SOL     OW25318   4.684   0.752   1.445
 8140SOL    HW125319   4.674   0.833   1.387
 8140SOL    HW225320   4.764   0.763   1.505
 8141SOL     OW25321   5.789   0.846   5.305
 8141SOL    HW125322   5.796   0.852   5.405
 8141SOL    HW225323   5.757   0.754   5.280
 8142SOL     OW25324   2.398   5.180   1.519
 8142SOL    HW125325   2.305   5.200   1.488
 8142SOL    HW225326   2.422   5.086   1.494
 8143SOL     OW25327   6.077   5.191   0.767
 8143SOL    HW125328   6.025   5.267   0.805
 8143SOL    HW225329   6.049   5.106   0.812
 8144SOL     OW25330   0.142   5.414   0.379
 8144SOL    HW125331   0.190   5.350   0.318
 8144SOL    HW225332   0.060   5.448   0.333
 8145SOL     OW25333   5.166   5.636   0.032
 8145SOL    HW125334   5.096   5.695   7.009
 8145SOL    HW225335   5.187   5.668   0.125
 8146SOL     OW25336   6.086   0.365   4.733
 8146SOL    HW125337   6.168   0.409   4.698
 8146SOL    HW225338   6.041   0.314   4.660
 8147SOL     OW25339   1.781   0.645   6.452
 8147SOL    HW125340   1.766   0.595   6.537
 8147SOL    HW225341   1.784   0.743   6.472
 8148SOL     OW25342   4.699   4.534   0.373
 8148SOL    HW125343   4.681   4.632   0.382
 8148SOL    HW225344   4.629   4.493   0.313
 8149SOL     OW25345   0.661   0.291   5.048
 8149SOL    HW125346   0.683   0.200   5.012
 8149SOL    HW225347   0.597   0.336   4.986
 8150SOL     OW25348   0.585   3.921   0.682
 8150SOL    HW125349   0.537   3.934   0.596
 8150SOL    HW225350   0.524   3.943   0.758
 8151SOL     OW25351   6.470   6.241   3.423
 8151SOL    HW125352   6.393   6.283   3.375
 8151SOL    HW225353   6.531   6.199   3.356
 8152SOL     OW25354   4.961   1.369   2.916
 8152SOL    HW125355   4.946   1.277   2.880
 8152SOL    HW225356   4.902   1.383   2.996
 8153SOL     OW25357   0.093   1.795   1.706
 8153SOL    HW125358   0.054   1.705   1.724
 8153SOL    HW225359   0.165   1.814   1.772
 8154SOL     OW25360   2.294   0.693   2.575
 8154SOL    HW125361   2.232   0.648   2.511
 8154SOL    HW225362   2.292   0.645   2.663
 8155SOL     OW25363   1.752   5.308   3.319
 8155SOL    HW125364   1.809   5.338   3.242
 8155SOL    HW225365   1.709   5.388   3.361
 8156SOL     OW25366   0.874   4.739   1.049
 8156SOL    HW125367   0.897   4.707   1.141
 8156SOL    HW225368   0.875   4.839   1.048
 8157SOL     OW25369   6.830   4.166   4.946
 8157SOL    HW125370   6.878   4.082   4.921
 8157SOL    HW225371   6.891   4.244   4.929
 8158SOL     OW25372   6.204   5.647   6.454
 8158SOL    HW125373   6.249   5.570   6.409
 8158SOL    HW225374   6.205   5.633   6.553
 8159SOL     OW25375   2.972   6.790   5.002
 8159SOL    HW125376   2.916   6.773   4.922
 8159SOL    HW225377   3.057   6.835   4.975
 8160SOL     OW25378   5.810   1.476   2.042
 8160SOL    HW125379   5.902   1.495   2.007
 8160SOL    HW225380   5.777   1.389   2.006
 8161SOL     OW25381   5.865   3.438   1.713
 8161SOL    HW125382   5.909   3.421   1.801
 8161SOL    HW225383   5.766   3.427   1.723
 8162SOL     OW25384   0.340   5.308   5.233
 8162SOL    HW125385   0.352   5.218   5.192
 8162SOL    HW225386   0.273   5.360   5.180
 8163SOL     OW25387   4.291   4.457   5.472
 8163SOL    HW125388   4.224   4.402   5.522
 8163SOL    HW225389   4.377   4.458   5.523
 8164SOL     OW25390   5.506   2.001   1.112
 8164SOL    HW125391   5.511   1.952   1.199
 8164SOL    HW225392   5.433   1.963   1.056
 8165SOL     OW25393   0.251   1.103   0.318
 8165SOL    HW125394   0.259   1.196   0.354
 8165SOL    HW225395   0.155   1.079   0.309
 8166SOL     OW25396   1.504   1.687   5.880
 8166SOL    HW125397   1.446   1.610   5.854
 8166SOL    HW225398   1.522   1.743   5.799
 8167SOL     OW25399   1.910   3.293   3.902
 8167SOL    HW125400   1.852   3.260   3.976
 8167SOL    HW225401   2.004   3.263   3.917
 8168SOL     OW25402   1.408   0.678   2.204
 8168SOL    HW125403   1.384   0.774   2.194
 8168SOL    HW225404   1.332   0.629   2.246
 8169SOL     OW25405   4.994   2.971   0.454
 8169SOL    HW125406   4.954   3.063   0.445
 8169SOL    HW225407   4.970   2.932   0.542
 8170SOL     OW25408   6.839   4.961   2.300
 8170SOL    HW125409   6.748   5.001   2.311
 8170SOL    HW225410   6.830   4.867   2.266
 8171SOL     OW25411   2.409   1.231   0.396
 8171SOL    HW125412   2.325   1.185   0.427
 8171SOL    HW225413   2.386   1.321   0.360
 8172SOL     OW25414   1.159   2.704   0.289
 8172SOL    HW125415   1.198   2.771   0.352
 8172SOL    HW225416   1.152   2.745   0.197
 8173SOL     OW25417   5.898   1.275   1.490
 8173SOL    HW125418   5.866   1.368   1.471
 8173SOL    HW225419   5.847   1.210   1.434
 8174SOL     OW25420   2.971   5.999   3.122
 8174SOL    HW125421   2.956   6.006   3.024
 8174SOL    HW225422   2.904   6.055   3.171
 8175SOL     OW25423   0.298   1.596   5.553
 8175SOL    HW125424   0.206   1.568   5.525
 8175SOL    HW225425   0.292   1.657   5.632
 8176SOL     OW25426   2.253   4.534   0.504
 8176SOL    HW125427   2.153   4.532   0.510
 8176SOL    HW225428   2.280   4.536   0.408
 8177SOL     OW25429   3.100   1.204   4.136
 8177SOL    HW125430   3.032   1.165   4.198
 8177SOL    HW225431   3.110   1.302   4.154
 8178SOL     OW25432   3.012   6.651   1.489
 8178SOL    HW125433   3.048   6.719   1.554
 8178SOL    HW225434   2.913   6.646   1.499
 8179SOL     OW25435   5.448   0.789   3.325
 8179SOL    HW125436   5.427   0.692   3.313
 8179SOL    HW225437   5.451   0.811   3.422
 8180SOL     OW25438   4.640   6.649   0.035
 8180SOL    HW125439   4.608   6.744   0.031
 8180SOL    HW225440   4.653   6.623   0.130
 8181SOL     OW25441   7.009   0.328   0.433
 8181SOL    HW125442   0.032   0.400   0.490
 8181SOL    HW225443   7.003   0.361   0.339
 8182SOL     OW25444   3.148   3.552   4.475
 8182SOL    HW125445   3.116   3.646   4.470
 8182SOL    HW225446   3.070   3.489   4.463
 8183SOL     OW25447   6.775   0.596   5.411
 8183SOL    HW125448   6.805   0.541   5.489
 8183SOL    HW225449   6.696   0.553   5.368
 8184SOL     OW25450   0.600   5.502   6.762
 8184SOL    HW125451   0.563   5.551   6.840
 8184SOL    HW225452   0.579   5.552   6.678
 8185SOL     OW25453   0.728   6.327   6.044
 8185SOL    HW125454   0.631   6.349   6.057
 8185SOL    HW225455   0.743   6.294   5.951
 8186SOL     OW25456   1.954   5.444   6.563
 8186SOL    HW125457   1.957   5.345   6.576
 8186SOL    HW225458   1.976   5.466   6.467
 8187SOL     OW25459   0.910   0.959   5.821
 8187SOL    HW125460   0.850   0.970   5.901
 8187SOL    HW225461   0.904   1.041   5.764
 8188SOL     OW25462   1.613   3.112   2.914
 8188SOL    HW125463   1.645   3.206   2.897
 8188SOL    HW225464   1.574   3.107   3.006
 8189SOL     OW25465   5.682   4.992   3.847
 8189SOL    HW125466   5.718   5.082   3.874
 8189SOL    HW225467   5.686   4.984   3.747
 8190SOL     OW25468   6.929   4.046   2.946
 8190SOL    HW125469   6.979   4.077   3.027
 8190SOL    HW225470   6.992   4.040   2.869
 8191SOL     OW25471   4.156   5.446   0.768
 8191SOL    HW125472   4.220   5.400   0.829
 8191SOL    HW225473   4.134   5.386   0.691
 8192SOL     OW25474   0.344   6.244   3.651
 8192SOL    HW125475   0.297   6.194   3.724
 8192SOL    HW225476   0.391   6.179   3.591
 8193SOL     OW25477   0.782   5.028   4.463
 8193SOL    HW125478   0.801   5.067   4.372
 8193SOL    HW225479   0.685   5.002   4.468
 8194SOL     OW25480   4.596   6.623   2.006
 8194SOL    HW125481   4.633   6.677   1.931
 8194SOL    HW225482   4.497   6.635   2.011
 8195SOL     OW25483   6.038   6.142   3.457
 8195SOL    HW125484   6.061   6.049   3.430
 8195SOL    HW225485   6.001   6.191   3.378
 8196SOL     OW25486   5.099   1.494   1.655
 8196SOL    HW125487   5.115   1.417   1.593
 8196SOL    HW225488   5.186   1.534   1.682
 8197SOL     OW25489   3.788   2.038   2.629
 8197SOL    HW125490   3.826   1.946   2.636
 8197SOL    HW225491   3.705   2.045   2.683
 8198SOL     OW25492   1.466   6.327   1.743
 8198SOL    HW125493   1.430   6.324   1.836
 8198SOL    HW225494   1.547   6.386   1.740
 8199SOL     OW25495   5.735   2.592   6.913
 8199SOL    HW125496   5.687   2.637   6.838
 8199SOL    HW225497   5.834   2.601   6.899
 8200SOL     OW25498   4.268   3.079   0.765
 8200SOL    HW125499   4.203   3.056   0.692
 8200SOL    HW225500   4.219   3.111   0.845
 8201SOL     OW25501   5.896   6.939   5.336
 8201SOL    HW125502   5.981   6.891   5.312
 8201SOL    HW225503   5.878   7.011   5.269
 8202SOL     OW25504   0.750   6.606   2.060
 8202SOL    HW125505   0.828   6.632   2.116
 8202SOL    HW225506   0.674   6.670   2.075
 8203SOL     OW25507   1.484   3.277   1.429
 8203SOL    HW125508   1.519   3.242   1.516
 8203SOL    HW225509   1.560   3.294   1.367
 8204SOL     OW25510   3.398   3.110   1.143
 8204SOL    HW125511   3.317   3.057   1.117
 8204SOL    HW225512   3.470   3.096   1.075
 8205SOL     OW25513   1.196   3.727   6.904
 8205SOL    HW125514   1.192   3.651   6.840
 8205SOL    HW225515   1.103   3.755   6.929
 8206SOL     OW25516   3.151   0.338   0.513
 8206SOL    HW125517   3.230   0.282   0.490
 8206SOL    HW225518   3.167   0.385   0.600
 8207SOL     OW25519   4.018   3.894   4.842
 8207SOL    HW125520   4.098   3.835   4.856
 8207SOL    HW225521   3.945   3.841   4.798
 8208SOL     OW25522   2.299   0.744   0.241
 8208SOL    HW125523   2.298   0.680   0.318
 8208SOL    HW225524   2.217   0.730   0.185
 8209SOL     OW25525   6.272   1.620   4.728
 8209SOL    HW125526   6.217   1.687   4.778
 8209SOL    HW225527   6.241   1.616   4.633
 8210SOL     OW25528   2.282   2.326   6.615
 8210SOL    HW125529   2.206   2.345   6.552
 8210SOL    HW225530   2.304   2.408   6.667
 8211SOL     OW25531   3.717   4.734   1.592
 8211SOL    HW125532   3.737   4.811   1.653
 8211SOL    HW225533   3.669   4.663   1.642
 8212SOL     OW25534   1.615   2.828   3.414
 8212SOL    HW125535   1.566   2.822   3.327
 8212SOL    HW225536   1.601   2.743   3.466
 8213SOL     OW25537   6.713   5.128   1.329
 8213SOL    HW125538   6.639   5.062   1.341
 8213SOL    HW225539   6.784   5.111   1.398
 8214SOL     OW25540   5.855   3.892   3.577
 8214SOL    HW125541   5.798   3.934   3.648
 8214SOL    HW225542   5.884   3.962   3.513
 8215SOL     OW25543   3.414   5.268   3.259
 8215SOL    HW125544   3.408   5.299   3.354
 8215SOL    HW225545   3.324   5.239   3.227
 8216SOL     OW25546   5.424   3.731   3.785
 8216SOL    HW125547   5.411   3.767   3.693
 8216SOL    HW225548   5.491   3.787   3.834
 8217SOL     OW25549   2.138   5.964   6.901
 8217SOL    HW125550   2.142   6.057   6.937
 8217SOL    HW225551   2.043   5.940   6.880
 8218SOL     OW25552   6.624   2.767   0.136
 8218SOL    HW125553   6.668   2.843   0.183
 8218SOL    HW225554   6.540   2.798   0.092
 8219SOL     OW25555   5.862   1.731   0.164
 8219SOL    HW125556   5.858   1.826   0.131
 8219SOL    HW225557   5.803   1.674   0.107
 8220SOL     OW25558   3.965   3.644   2.080
 8220SOL    HW125559   4.006   3.639   2.171
 8220SOL    HW225560   4.010   3.716   2.027
 8221SOL     OW25561   5.190   6.110   3.701
 8221SOL    HW125562   5.107   6.164   3.691
 8221SOL    HW225563   5.166   6.015   3.722
 8222SOL     OW25564   6.228   2.143   1.475
 8222SOL    HW125565   6.319   2.128   1.436
 8222SOL    HW225566   6.182   2.055   1.487
 8223SOL     OW25567   0.738   5.216   5.828
 8223SOL    HW125568   0.811   5.275   5.794
 8223SOL    HW225569   0.700   5.162   5.752
 8224SOL     OW25570   1.325   3.393   3.939
 8224SOL    HW125571   1.395   3.322   3.927
 8224SOL    HW225572   1.347   3.448   4.020
 8225SOL     OW25573   4.998   1.704   0.222
 8225SOL    HW125574   4.924   1.766   0.247
 8225SOL    HW225575   5.081   1.757   0.203
 8226SOL     OW25576   5.201   0.587   0.695
 8226SOL    HW125577   5.179   0.491   0.709
 8226SOL    HW225578   5.295   0.604   0.726
 8227SOL     OW25579   6.528   3.532   3.155
 8227SOL    HW125580   6.548   3.437   3.132
 8227SOL    HW225581   6.439   3.538   3.200
 8228SOL     OW25582   6.433   2.683   5.105
 8228SOL    HW125583   6.360   2.716   5.046
 8228SOL    HW225584   6.451   2.587   5.085
 8229SOL     OW25585   3.690   4.862   0.640
 8229SOL    HW125586   3.671   4.917   0.722
 8229SOL    HW225587   3.638   4.898   0.563
 8230SOL     OW25588   4.996   0.131   4.229
 8230SOL    HW125589   5.079   0.183   4.208
 8230SOL    HW225590   4.916   0.187   4.209
 8231SOL     OW25591   4.570   6.069   0.893
 8231SOL    HW125592   4.610   5.991   0.940
 8231SOL    HW225593   4.477   6.047   0.865
 8232SOL     OW25594   2.905   2.741   6.171
 8232SOL    HW125595   2.858   2.652   6.175
 8232SOL    HW225596   3.001   2.728   6.195
 8233SOL     OW25597   0.271   5.272   0.179
 8233SOL    HW125598   0.339   5.218   0.229
 8233SOL    HW225599   0.247   5.225   0.094
 8234SOL     OW25600   3.436   1.975   6.887
 8234SOL    HW125601   3.386   2.049   6.934
 8234SOL    HW225602   3.520   2.011   6.848
 8235SOL     OW25603   4.892   2.577   0.958
 8235SOL    HW125604   4.891   2.533   1.048
 8235SOL    HW225605   4.844   2.519   0.893
 8236SOL     OW25606   5.487   3.418   0.378
 8236SOL    HW125607   5.563   3.370   0.422
 8236SOL    HW225608   5.522   3.498   0.330
 8237SOL     OW25609   4.274   6.364   5.626
 8237SOL    HW125610   4.289   6.451   5.579
 8237SOL    HW225611   4.177   6.351   5.643
 8238SOL     OW25612   1.946   1.739   6.435
 8238SOL    HW125613   1.962   1.650   6.393
 8238SOL    HW225614   1.929   1.728   6.532
 8239SOL     OW25615   6.907   1.871   6.350
 8239SOL    HW125616   6.867   1.949   6.398
 8239SOL    HW225617   6.939   1.900   6.260
 8240SOL     OW25618   3.981   3.803   3.728
 8240SOL    HW125619   4.036   3.756   3.659
 8240SOL    HW225620   3.922   3.737   3.774
 8241SOL     OW25621   4.168   6.711   0.389
 8241SOL    HW125622   4.184   6.785   0.324
 8241SOL    HW225623   4.229   6.635   0.369
 8242SOL     OW25624   0.882   4.279   5.620
 8242SOL    HW125625   0.829   4.363   5.606
 8242SOL    HW225626   0.968   4.286   5.568
 8243SOL     OW25627   0.641   3.693   4.864
 8243SOL    HW125628   0.619   3.718   4.770
 8243SOL    HW225629   0.559   3.694   4.920
 8244SOL     OW25630   0.483   6.508   4.432
 8244SOL    HW125631   0.397   6.460   4.420
 8244SOL    HW225632   0.540   6.497   4.351
 8245SOL     OW25633   3.674   2.812   0.657
 8245SOL    HW125634   3.591   2.759   0.638
 8245SOL    HW225635   3.672   2.897   0.604
 8246SOL     OW25636   5.134   3.862   5.882
 8246SOL    HW125637   5.225   3.834   5.854
 8246SOL    HW225638   5.082   3.892   5.802
 8247SOL     OW25639   0.913   0.280   1.407
 8247SOL    HW125640   0.951   0.222   1.479
 8247SOL    HW225641   0.910   0.375   1.439
 8248SOL     OW25642   6.302   4.003   3.509
 8248SOL    HW125643   6.339   3.958   3.428
 8248SOL    HW225644   6.266   4.093   3.483
 8249SOL     OW25645   2.243   4.907   3.440
 8249SOL    HW125646   2.160   4.936   3.392
 8249SOL    HW225647   2.322   4.955   3.402
 8250SOL     OW25648   4.038   3.805   2.594
 8250SOL    HW125649   4.005   3.717   2.558
 8250SOL    HW225650   4.108   3.788   2.663
 8251SOL     OW25651   5.732   1.832   4.632
 8251SOL    HW125652   5.757   1.855   4.538
 8251SOL    HW225653   5.693   1.912   4.677
 8252SOL     OW25654   1.528   3.123   4.645
 8252SOL    HW125655   1.558   3.027   4.639
 8252SOL    HW225656   1.595   3.182   4.600
 8253SOL     OW25657   3.270   3.254   5.403
 8253SOL    HW125658   3.307   3.346   5.390
 8253SOL    HW225659   3.191   3.241   5.343
 8254SOL     OW25660   3.623   5.486   3.751
 8254SOL    HW125661   3.615   5.386   3.742
 8254SOL    HW225662   3.532   5.526   3.756
 8255SOL     OW25663   4.334   5.123   3.824
 8255SOL    HW125664   4.359   5.219   3.829
 8255SOL    HW225665   4.417   5.066   3.825
 8256SOL     OW25666   0.084   1.510   4.311
 8256SOL    HW125667   0.095   1.587   4.375
 8256SOL    HW225668   0.050   1.545   4.224
 8257SOL     OW25669   6.735   4.323   3.999
 8257SOL    HW125670   6.708   4.247   4.058
 8257SOL    HW225671   6.662   4.342   3.934
 8258SOL     OW25672   4.365   1.492   6.839
 8258SOL    HW125673   4.383   1.432   6.917
 8258SOL    HW225674   4.391   1.586   6.862
 8259SOL     OW25675   3.553   1.757   1.964
 8259SOL    HW125676   3.529   1.850   1.994
 8259SOL    HW225677   3.500   1.735   1.882
 8260SOL     OW25678   2.400   5.688   0.554
 8260SOL    HW125679   2.347   5.769   0.530
 8260SOL    HW225680   2.380   5.661   0.648
 8261SOL     OW25681   5.880   1.597   1.640
 8261SOL    HW125682   5.806   1.664   1.643
 8261SOL    HW225683   5.900   1.566   1.733
 8262SOL     OW25684   1.072   2.265   1.081
 8262SOL    HW125685   1.094   2.251   1.178
 8262SOL    HW225686   1.009   2.195   1.050
 8263SOL     OW25687   6.363   1.481   0.898
 8263SOL    HW125688   6.420   1.559   0.875
 8263SOL    HW225689   6.268   1.510   0.910
 8264SOL     OW25690   2.135   5.018   2.849
 8264SOL    HW125691   2.092   4.928   2.850
 8264SOL    HW225692   2.163   5.041   2.756
 8265SOL     OW25693   1.817   0.826   1.941
 8265SOL    HW125694   1.835   0.750   2.003
 8265SOL    HW225695   1.767   0.793   1.861
 8266SOL     OW25696   3.314   0.179   2.959
 8266SOL    HW125697   3.240   0.150   2.898
 8266SOL    HW225698   3.390   0.114   2.953
 8267SOL     OW25699   0.726   3.581   1.223
 8267SOL    HW125700   0.744   3.517   1.298
 8267SOL    HW225701   0.764   3.545   1.138
 8268SOL     OW25702   2.795   6.693   5.456
 8268SOL    HW125703   2.837   6.783   5.471
 8268SOL    HW225704   2.811   6.665   5.361
 8269SOL     OW25705   6.011   2.131   1.163
 8269SOL    HW125706   5.913   2.148   1.159
 8269SOL    HW225707   6.058   2.190   1.097
 8270SOL     OW25708   3.780   5.816   3.447
 8270SOL    HW125709   3.758   5.893   3.506
 8270SOL    HW225710   3.780   5.845   3.351
 8271SOL     OW25711   6.909   1.891   2.459
 8271SOL    HW125712   7.002   1.868   2.489
 8271SOL    HW225713   6.869   1.813   2.411
 8272SOL     OW25714   3.443   1.485   3.732
 8272SOL    HW125715   3.363   1.542   3.714
 8272SOL    HW225716   3.518   1.542   3.765
 8273SOL     OW25717   2.405   6.194   0.926
 8273SOL    HW125718   2.409   6.294   0.932
 8273SOL    HW225719   2.312   6.163   0.940
 8274SOL     OW25720   5.133   5.415   3.279
 8274SOL    HW125721   5.033   5.424   3.280
 8274SOL    HW225722   5.162   5.358   3.356
 8275SOL     OW25723   5.165   2.549   5.842
 8275SOL    HW125724   5.215   2.624   5.885
 8275SOL    HW225725   5.075   2.581   5.813
 8276SOL     OW25726   1.172   1.724   3.542
 8276SOL    HW125727   1.251   1.751   3.598
 8276SOL    HW225728   1.199   1.720   3.446
 8277SOL     OW25729   6.411   0.256   6.700
 8277SOL    HW125730   6.342   0.282   6.768
 8277SOL    HW225731   6.403   0.159   6.679
 8278SOL     OW25732   2.037   2.239   0.368
 8278SOL    HW125733   2.130   2.234   0.332
 8278SOL    HW225734   1.979   2.176   0.317
 8279SOL     OW25735   6.984   6.350   3.842
 8279SOL    HW125736   6.941   6.299   3.768
 8279SOL    HW225737   6.927   6.430   3.864
 8280SOL     OW25738   2.961   2.875   5.868
 8280SOL    HW125739   2.990   2.783   5.896
 8280SOL    HW225740   2.981   2.888   5.771
 8281SOL     OW25741   6.615   5.637   1.773
 8281SOL    HW125742   6.663   5.721   1.797
 8281SOL    HW225743   6.548   5.616   1.845
 8282SOL     OW25744   5.253   2.376   5.456
 8282SOL    HW125745   5.215   2.303   5.513
 8282SOL    HW225746   5.180   2.440   5.432
 8283SOL     OW25747   1.779   3.883   5.793
 8283SOL    HW125748   1.726   3.967   5.784
 8283SOL    HW225749   1.848   3.894   5.865
 8284SOL     OW25750   6.858   4.670   2.290
 8284SOL    HW125751   6.927   4.654   2.219
 8284SOL    HW225752   6.870   4.602   2.363
 8285SOL     OW25753   3.460   3.574   5.022
 8285SOL    HW125754   3.543   3.629   5.018
 8285SOL    HW225755   3.470   3.503   5.091
 8286SOL     OW25756   6.479   2.086   5.959
 8286SOL    HW125757   6.383   2.067   5.939
 8286SOL    HW225758   6.485   2.142   6.042
 8287SOL     OW25759   1.724   5.383   4.454
 8287SOL    HW125760   1.636   5.370   4.408
 8287SOL    HW225761   1.729   5.477   4.490
 8288SOL     OW25762   2.521   2.532   3.032
 8288SOL    HW125763   2.483   2.596   3.099
 8288SOL    HW225764   2.612   2.503   3.061
 8289SOL     OW25765   0.242   6.400   6.756
 8289SOL    HW125766   0.321   6.337   6.752
 8289SOL    HW225767   0.268   6.483   6.805
 8290SOL     OW25768   6.639   2.579   1.177
 8290SOL    HW125769   6.736   2.593   1.194
 8290SOL    HW225770   6.609   2.493   1.217
 8291SOL     OW25771   4.666   0.397   0.443
 8291SOL    HW125772   4.737   0.350   0.391
 8291SOL    HW225773   4.683   0.495   0.442
 8292SOL     OW25774   3.055   6.891   6.749
 8292SOL    HW125775   3.066   6.931   6.659
 8292SOL    HW225776   3.144   6.870   6.788
 8293SOL     OW25777   5.587   5.902   6.037
 8293SOL    HW125778   5.661   5.966   6.059
 8293SOL    HW225779   5.508   5.922   6.093
 8294SOL     OW25780   5.635   2.481   0.342
 8294SOL    HW125781   5.535   2.478   0.333
 8294SOL    HW225782   5.664   2.416   0.413
 8295SOL     OW25783   4.984   3.870   1.085
 8295SOL    HW125784   5.017   3.775   1.092
 8295SOL    HW225785   4.950   3.886   0.993
 8296SOL     OW25786   1.907   5.427   6.907
 8296SOL    HW125787   1.929   5.330   6.909
 8296SOL    HW225788   1.990   5.480   6.921
 8297SOL     OW25789   0.048   2.896   2.997
 8297SOL    HW125790   6.971   2.876   3.025
 8297SOL    HW225791   0.050   2.917   2.899
 8298SOL     OW25792   4.433   0.983   1.755
 8298SOL    HW125793   4.433   0.887   1.782
 8298SOL    HW225794   4.503   1.032   1.807
 8299SOL     OW25795   6.283   2.284   1.693
 8299SOL    HW125796   6.269   2.239   1.605
 8299SOL    HW225797   6.381   2.283   1.716
 8300SOL     OW25798   0.742   4.833   3.476
 8300SOL    HW125799   0.803   4.894   3.426
 8300SOL    HW225800   0.795   4.772   3.534
 8301SOL     OW25801   3.844   2.931   6.876
 8301SOL    HW125802   3.843   2.864   6.802
 8301SOL    HW225803   3.762   2.987   6.873
 8302SOL     OW25804   5.778   6.229   6.564
 8302SOL    HW125805   5.679   6.239   6.556
 8302SOL    HW225806   5.807   6.262   6.654
 8303SOL     OW25807   0.446   0.550   5.128
 8303SOL    HW125808   0.402   0.475   5.079
 8303SOL    HW225809   0.395   0.635   5.112
 8304SOL     OW25810   1.142   3.678   6.495
 8304SOL    HW125811   1.169   3.710   6.404
 8304SOL    HW225812   1.131   3.757   6.556
 8305SOL     OW25813   3.487   5.742   3.282
 8305SOL    HW125814   3.395   5.743   3.242
 8305SOL    HW225815   3.513   5.648   3.304
 8306SOL     OW25816   0.532   3.401   4.255
 8306SOL    HW125817   0.480   3.481   4.226
 8306SOL    HW225818   0.614   3.430   4.304
 8307SOL     OW25819   3.941   5.598   1.130
 8307SOL    HW125820   3.901   5.518   1.174
 8307SOL    HW225821   4.034   5.578   1.100
 8308SOL     OW25822   3.666   6.401   2.510
 8308SOL    HW125823   3.573   6.397   2.545
 8308SOL    HW225824   3.692   6.496   2.493
 8309SOL     OW25825   5.092   5.835   1.873
 8309SOL    HW125826   5.028   5.831   1.950
 8309SOL    HW225827   5.041   5.841   1.787
 8310SOL     OW25828   0.205   4.496   0.441
 8310SOL    HW125829   0.140   4.495   0.364
 8310SOL    HW225830   0.159   4.528   0.523
 8311SOL     OW25831   6.473   0.751   0.115
 8311SOL    HW125832   6.522   0.819   0.169
 8311SOL    HW225833   6.410   0.796   0.053
 8312SOL     OW25834   5.727   6.646   1.709
 8312SOL    HW125835   5.726   6.582   1.786
 8312SOL    HW225836   5.821   6.661   1.679
 8313SOL     OW25837   3.693   1.391   2.528
 8313SOL    HW125838   3.786   1.421   2.510
 8313SOL    HW225839   3.640   1.466   2.569
 8314SOL     OW25840   6.610   0.283   2.848
 8314SOL    HW125841   6.598   0.347   2.923
 8314SOL    HW225842   6.706   0.282   2.819
 8315SOL     OW25843   5.219   3.904   6.788
 8315SOL    HW125844   5.207   3.935   6.694
 8315SOL    HW225845   5.209   3.982   6.850
 8316SOL     OW25846   2.064   3.964   6.709
 8316SOL    HW125847   2.029   3.887   6.763
 8316SOL    HW225848   2.045   4.050   6.756
 8317SOL     OW25849   2.284   4.489   2.109
 8317SOL    HW125850   2.366   4.520   2.060
 8317SOL    HW225851   2.204   4.505   2.052
 8318SOL     OW25852   3.996   1.906   5.209
 8318SOL    HW125853   4.037   1.975   5.268
 8318SOL    HW225854   3.897   1.915   5.210
 8319SOL     OW25855   3.499   1.227   5.306
 8319SOL    HW125856   3.561   1.148   5.308
 8319SOL    HW225857   3.414   1.202   5.352
 8320SOL     OW25858   3.318   4.338   1.544
 8320SOL    HW125859   3.383   4.334   1.620
 8320SOL    HW225860   3.307   4.434   1.515
 8321SOL     OW25861   0.689   0.667   1.488
 8321SOL    HW125862   0.662   0.728   1.562
 8321SOL    HW225863   0.770   0.704   1.443
 8322SOL     OW25864   6.190   6.427   7.017
 8322SOL    HW125865   6.190   6.411   0.098
 8322SOL    HW225866   6.106   6.473   6.990
 8323SOL     OW25867   0.734   1.930   1.932
 8323SOL    HW125868   0.687   1.854   1.886
 8323SOL    HW225869   0.811   1.961   1.876
 8324SOL     OW25870   6.265   0.964   2.220
 8324SOL    HW125871   6.201   0.892   2.191
 8324SOL    HW225872   6.275   0.961   2.319
 8325SOL     OW25873   3.226   3.239   3.916
 8325SOL    HW125874   3.297   3.169   3.902
 8325SOL    HW225875   3.233   3.308   3.843
 8326SOL     OW25876   3.862   3.491   6.030
 8326SOL    HW125877   3.880   3.406   5.980
 8326SOL    HW225878   3.938   3.555   6.016
 8327SOL     OW25879   5.466   2.213   5.828
 8327SOL    HW125880   5.489   2.269   5.908
 8327SOL    HW225881   5.521   2.243   5.750
 8328SOL     OW25882   2.133   2.012   5.592
 8328SOL    HW125883   2.109   2.048   5.502
 8328SOL    HW225884   2.220   2.052   5.622
 8329SOL     OW25885   6.924   3.216   5.385
 8329SOL    HW125886   6.948   3.305   5.423
 8329SOL    HW225887   6.986   3.146   5.419
 8330SOL     OW25888   2.365   6.393   0.096
 8330SOL    HW125889   2.400   6.390   0.190
 8330SOL    HW225890   2.435   6.432   0.036
 8331SOL     OW25891   2.496   6.458   0.661
 8331SOL    HW125892   2.444   6.543   0.653
 8331SOL    HW225893   2.562   6.452   0.586
 8332SOL     OW25894   4.943   5.437   2.526
 8332SOL    HW125895   4.847   5.424   2.505
 8332SOL    HW225896   4.963   5.400   2.616
 8333SOL     OW25897   0.542   5.637   6.990
 8333SOL    HW125898   0.474   5.599   0.036
 8333SOL    HW225899   0.540   5.737   6.995
 8334SOL     OW25900   6.263   1.920   3.840
 8334SOL    HW125901   6.192   1.911   3.911
 8334SOL    HW225902   6.314   2.004   3.855
 8335SOL     OW25903   5.464   6.659   6.050
 8335SOL    HW125904   5.512   6.631   6.133
 8335SOL    HW225905   5.435   6.578   5.999
 8336SOL     OW25906   0.044   1.713   2.128
 8336SOL    HW125907   0.093   1.783   2.181
 8336SOL    HW225908   0.104   1.678   2.057
 8337SOL     OW25909   0.699   6.485   2.628
 8337SOL    HW125910   0.606   6.484   2.591
 8337SOL    HW225911   0.715   6.402   2.680
 8338SOL     OW25912   1.578   4.575   1.531
 8338SOL    HW125913   1.613   4.592   1.439
 8338SOL    HW225914   1.554   4.478   1.540
 8339SOL     OW25915   5.386   1.512   2.558
 8339SOL    HW125916   5.371   1.542   2.651
 8339SOL    HW225917   5.434   1.583   2.506
 8340SOL     OW25918   5.099   3.601   0.939
 8340SOL    HW125919   5.181   3.657   0.952
 8340SOL    HW225920   5.106   3.520   0.996
 8341SOL     OW25921   2.667   6.136   0.871
 8341SOL    HW125922   2.575   6.147   0.909
 8341SOL    HW225923   2.660   6.107   0.775
 8342SOL     OW25924   4.142   0.809   0.619
 8342SOL    HW125925   4.058   0.759   0.640
 8342SOL    HW225926   4.174   0.857   0.701
 8343SOL     OW25927   1.413   5.545   6.067
 8343SOL    HW125928   1.390   5.462   6.118
 8343SOL    HW225929   1.446   5.520   5.976
 8344SOL     OW25930   4.449   6.411   5.856
 8344SOL    HW125931   4.386   6.394   5.780
 8344SOL    HW225932   4.460   6.327   5.910
 8345SOL     OW25933   6.165   0.853   2.836
 8345SOL    HW125934   6.129   0.810   2.919
 8345SOL    HW225935   6.120   0.942   2.823
 8346SOL     OW25936   3.479   5.538   1.236
 8346SOL    HW125937   3.505   5.588   1.153
 8346SOL    HW225938   3.432   5.453   1.210
 8347SOL     OW25939   3.354   6.387   5.481
 8347SOL    HW125940   3.369   6.475   5.526
 8347SOL    HW225941   3.318   6.321   5.547
 8348SOL     OW25942   1.315   0.812   0.278
 8348SOL    HW125943   1.268   0.784   0.362
 8348SOL    HW225944   1.400   0.759   0.268
 8349SOL     OW25945   5.268   5.068   1.434
 8349SOL    HW125946   5.259   5.070   1.534
 8349SOL    HW225947   5.237   4.980   1.400
 8350SOL     OW25948   6.014   1.012   4.890
 8350SOL    HW125949   6.021   0.993   4.988
 8350SOL    HW225950   6.094   0.976   4.843
 8351SOL     OW25951   3.656   6.074   3.539
 8351SOL    HW125952   3.615   6.051   3.450
 8351SOL    HW225953   3.610   6.154   3.577
 8352SOL     OW25954   6.680   6.401   2.213
 8352SOL    HW125955   6.619   6.398   2.293
 8352SOL    HW225956   6.626   6.401   2.130
 8353SOL     OW25957   0.509   3.787   2.325
 8353SOL    HW125958   0.472   3.742   2.406
 8353SOL    HW225959   0.472   3.880   2.319
 8354SOL     OW25960   2.417   1.409   6.728
 8354SOL    HW125961   2.473   1.405   6.645
 8354SOL    HW225962   2.476   1.401   6.809
 8355SOL     OW25963   3.077   0.668   0.443
 8355SOL    HW125964   3.055   0.585   0.392
 8355SOL    HW225965   3.006   0.737   0.426
 8356SOL     OW25966   2.160   5.480   6.972
 8356SOL    HW125967   2.201   5.560   7.015
 8356SOL    HW225968   2.212   5.399   6.996
 8357SOL     OW25969   4.604   5.699   5.001
 8357SOL    HW125970   4.689   5.690   4.950
 8357SOL    HW225971   4.538   5.632   4.967
 8358SOL     OW25972   1.951   2.870   5.389
 8358SOL    HW125973   1.978   2.804   5.318
 8358SOL    HW225974   1.966   2.829   5.479
 8359SOL     OW25975   4.235   5.432   4.455
 8359SOL    HW125976   4.278   5.347   4.485
 8359SOL    HW225977   4.187   5.475   4.532
 8360SOL     OW25978   5.049   0.113   3.353
 8360SOL    HW125979   5.104   0.121   3.270
 8360SOL    HW225980   4.953   0.135   3.332
 8361SOL     OW25981   1.896   0.360   2.699
 8361SOL    HW125982   1.849   0.448   2.710
 8361SOL    HW225983   1.910   0.342   2.601
 8362SOL     OW25984   2.908   2.308   0.590
 8362SOL    HW125985   2.851   2.227   0.576
 8362SOL    HW225986   2.994   2.281   0.633
 8363SOL     OW25987   7.017   3.282   0.639
 8363SOL    HW125988   0.070   3.303   0.571
 8363SOL    HW225989   6.927   3.308   0.602
 8364SOL     OW25990   6.468   3.865   3.884
 8364SOL    HW125991   6.395   3.799   3.903
 8364SOL    HW225992   6.437   3.957   3.907
 8365SOL     OW25993   2.293   3.387   5.642
 8365SOL    HW125994   2.308   3.448   5.720
 8365SOL    HW225995   2.307   3.292   5.671
 8366SOL     OW25996   2.950   6.299   2.937
 8366SOL    HW125997   2.869   6.276   2.991
 8366SOL    HW225998   2.927   6.368   2.869
 8367SOL     OW25999   5.660   5.995   3.872
 8367SOL    HW126000   5.579   5.964   3.821
 8367SOL    HW226001   5.632   6.029   3.961
 8368SOL     OW26002   3.164   5.136   6.075
 8368SOL    HW126003   3.206   5.189   6.002
 8368SOL    HW226004   3.067   5.159   6.081
 8369SOL     OW26005   1.861   1.359   0.603
 8369SOL    HW126006   1.840   1.263   0.587
 8369SOL    HW226007   1.914   1.395   0.526
 8370SOL     OW26008   1.176   1.766   6.278
 8370SOL    HW126009   1.188   1.753   6.179
 8370SOL    HW226010   1.190   1.678   6.324
 8371SOL     OW26011   1.562   3.599   0.562
 8371SOL    HW126012   1.602   3.582   0.652
 8371SOL    HW226013   1.522   3.514   0.527
 8372SOL     OW26014   6.959   0.832   2.884
 8372SOL    HW126015   6.926   0.904   2.945
 8372SOL    HW226016   6.889   0.813   2.814
 8373SOL     OW26017   1.662   6.186   5.101
 8373SOL    HW126018   1.731   6.128   5.145
 8373SOL    HW226019   1.665   6.171   5.002
 8374SOL     OW26020   6.488   6.960   6.992
 8374SOL    HW126021   6.559   6.974   6.924
 8374SOL    HW226022   6.405   7.009   6.964
 8375SOL     OW26023   3.107   0.211   6.538
 8375SOL    HW126024   3.170   0.140   6.572
 8375SOL    HW226025   3.159   0.282   6.491
 8376SOL     OW26026   3.022   0.605   4.570
 8376SOL    HW126027   2.934   0.560   4.588
 8376SOL    HW226028   3.068   0.558   4.494
 8377SOL     OW26029   5.766   4.575   1.574
 8377SOL    HW126030   5.762   4.626   1.660
 8377SOL    HW226031   5.752   4.478   1.592
 8378SOL     OW26032   4.842   3.001   3.095
 8378SOL    HW126033   4.792   2.956   3.168
 8378SOL    HW226034   4.812   3.096   3.087
 8379SOL     OW26035   6.146   2.517   2.573
 8379SOL    HW126036   6.201   2.586   2.525
 8379SOL    HW226037   6.123   2.551   2.664
 8380SOL     OW26038   4.482   1.727   3.390
 8380SOL    HW126039   4.518   1.742   3.482
 8380SOL    HW226040   4.518   1.797   3.328
 8381SOL     OW26041   1.969   5.772   4.680
 8381SOL    HW126042   2.037   5.719   4.730
 8381SOL    HW226043   2.014   5.828   4.610
 8382SOL     OW26044   1.119   3.000   2.069
 8382SOL    HW126045   1.213   3.027   2.092
 8382SOL    HW226046   1.107   3.002   1.970
 8383SOL     OW26047   2.719   2.514   6.315
 8383SOL    HW126048   2.681   2.428   6.282
 8383SOL    HW226049   2.807   2.498   6.359
 8384SOL     OW26050   0.479   0.031   1.932
 8384SOL    HW126051   0.566   0.055   1.889
 8384SOL    HW226052   0.404   0.074   1.881
 8385SOL     OW26053   4.972   1.996   1.336
 8385SOL    HW126054   5.058   2.047   1.327
 8385SOL    HW226055   4.898   2.059   1.359
 8386SOL     OW26056   1.085   4.382   2.472
 8386SOL    HW126057   1.101   4.457   2.536
 8386SOL    HW226058   1.170   4.357   2.427
 8387SOL     OW26059   0.554   2.677   1.447
 8387SOL    HW126060   0.590   2.603   1.504
 8387SOL    HW226061   0.622   2.749   1.438
 8388SOL     OW26062   1.662   0.602   2.308
 8388SOL    HW126063   1.745   0.646   2.272
 8388SOL    HW226064   1.582   0.633   2.257
 8389SOL     OW26065   5.367   2.621   2.412
 8389SOL    HW126066   5.273   2.601   2.440
 8389SOL    HW226067   5.369   2.707   2.361
 8390SOL     OW26068   5.339   1.634   5.431
 8390SOL    HW126069   5.382   1.680   5.354
 8390SOL    HW226070   5.335   1.535   5.413
 8391SOL     OW26071   6.222   6.989   1.180
 8391SOL    HW126072   6.227   0.072   1.178
 8391SOL    HW226073   6.253   6.957   1.270
 8392SOL     OW26074   5.071   3.099   4.889
 8392SOL    HW126075   5.013   3.037   4.942
 8392SOL    HW226076   5.034   3.109   4.797
 8393SOL     OW26077   5.146   7.003   1.547
 8393SOL    HW126078   5.187   6.992   1.457
 8393SOL    HW226079   5.093   6.922   1.569
 8394SOL     OW26080   6.278   3.407   1.773
 8394SOL    HW126081   6.351   3.405   1.705
 8394SOL    HW226082   6.237   3.498   1.776
 8395SOL     OW26083   1.702   1.235   4.688
 8395SOL    HW126084   1.661   1.263   4.601
 8395SOL    HW226085   1.673   1.297   4.760
 8396SOL     OW26086   4.150   5.890   4.332
 8396SOL    HW126087   4.140   5.790   4.334
 8396SOL    HW226088   4.235   5.916   4.376
 8397SOL     OW26089   6.166   0.744   3.120
 8397SOL    HW126090   6.258   0.718   3.148
 8397SOL    HW226091   6.144   0.834   3.158
 8398SOL     OW26092   4.508   2.264   5.929
 8398SOL    HW126093   4.547   2.355   5.918
 8398SOL    HW226094   4.559   2.213   5.998
 8399SOL     OW26095   6.974   5.189   0.889
 8399SOL    HW126096   6.920   5.172   0.971
 8399SOL    HW226097   7.016   5.280   0.894
 8400SOL     OW26098   1.479   2.399   4.694
 8400SOL    HW126099   1.527   2.447   4.621
 8400SOL    HW226100   1.544   2.348   4.749
 8401SOL     OW26101   3.014   0.219   6.150
 8401SOL    HW126102   3.035   0.239   6.055
 8401SOL    HW226103   2.923   0.176   6.156
 8402SOL     OW26104   3.582   0.378   5.976
 8402SOL    HW126105   3.609   0.282   5.979
 8402SOL    HW226106   3.604   0.421   6.064
 8403SOL     OW26107   5.926   4.956   4.493
 8403SOL    HW126108   5.919   4.895   4.415
 8403SOL    HW226109   5.933   4.903   4.577
 8404SOL     OW26110   1.644   2.027   6.541
 8404SOL    HW126111   1.593   2.108   6.509
 8404SOL    HW226112   1.654   1.962   6.465
 8405SOL     OW26113   3.985   0.567   5.723
 8405SOL    HW126114   3.932   0.649   5.703
 8405SOL    HW226115   3.981   0.548   5.821
 8406SOL     OW26116   5.109   0.470   5.913
 8406SOL    HW126117   5.100   0.548   5.975
 8406SOL    HW226118   5.030   0.466   5.852
 8407SOL     OW26119   3.403   6.955   4.064
 8407SOL    HW126120   3.336   6.956   4.138
 8407SOL    HW226121   3.411   6.862   4.027
 8408SOL     OW26122   3.912   1.463   1.808
 8408SOL    HW126123   3.825   1.464   1.758
 8408SOL    HW226124   3.988   1.467   1.742
 8409SOL     OW26125   4.113   2.301   1.846
 8409SOL    HW126126   4.108   2.376   1.780
 8409SOL    HW226127   4.141   2.336   1.935
 8410SOL     OW26128   6.838   1.974   1.408
 8410SOL    HW126129   6.933   1.945   1.411
 8410SOL    HW226130   6.792   1.930   1.330
 8411SOL     OW26131   1.966   5.498   0.633
 8411SOL    HW126132   1.943   5.427   0.699
 8411SOL    HW226133   1.907   5.489   0.552
 8412SOL     OW26134   2.217   2.603   6.093
 8412SOL    HW126135   2.272   2.683   6.070
 8412SOL    HW226136   2.137   2.632   6.146
 8413SOL     OW26137   4.294   5.788   4.838
 8413SOL    HW126138   4.375   5.740   4.805
 8413SOL    HW226139   4.269   5.754   4.929
 8414SOL     OW26140   1.058   0.850   1.710
 8414SOL    HW126141   1.016   0.762   1.688
 8414SOL    HW226142   1.064   0.860   1.809
 8415SOL     OW26143   2.304   0.918   5.318
 8415SOL    HW126144   2.381   0.900   5.379
 8415SOL    HW226145   2.232   0.851   5.334
 8416SOL     OW26146   6.693   1.373   5.090
 8416SOL    HW126147   6.782   1.362   5.136
 8416SOL    HW226148   6.640   1.443   5.137
 8417SOL     OW26149   1.197   3.824   5.194
 8417SOL    HW126150   1.194   3.797   5.291
 8417SOL    HW226151   1.151   3.755   5.139
 8418SOL     OW26152   0.365   6.077   2.281
 8418SOL    HW126153   0.345   6.001   2.219
 8418SOL    HW226154   0.374   6.042   2.374
 8419SOL     OW26155   4.113   1.968   4.283
 8419SOL    HW126156   4.181   2.010   4.342
 8419SOL    HW226157   4.154   1.945   4.195
 8420SOL     OW26158   3.112   0.387   2.574
 8420SOL    HW126159   3.037   0.428   2.625
 8420SOL    HW226160   3.199   0.426   2.605
 8421SOL     OW26161   4.836   6.064   6.199
 8421SOL    HW126162   4.871   5.972   6.187
 8421SOL    HW226163   4.788   6.093   6.115
 8422SOL     OW26164   4.487   2.489   3.136
 8422SOL    HW126165   4.484   2.516   3.040
 8422SOL    HW226166   4.403   2.439   3.159
 8423SOL     OW26167   6.979   5.141   6.557
 8423SOL    HW126168   0.059   5.131   6.537
 8423SOL    HW226169   6.952   5.236   6.541
 8424SOL     OW26170   2.452   6.901   3.816
 8424SOL    HW126171   2.485   6.981   3.765
 8424SOL    HW226172   2.412   6.835   3.752
 8425SOL     OW26173   3.843   3.868   2.902
 8425SOL    HW126174   3.841   3.943   2.835
 8425SOL    HW226175   3.846   3.781   2.853
 8426SOL     OW26176   3.741   2.960   1.767
 8426SOL    HW126177   3.827   2.962   1.820
 8426SOL    HW226178   3.691   2.877   1.789
 8427SOL     OW26179   3.693   3.812   3.896
 8427SOL    HW126180   3.744   3.894   3.921
 8427SOL    HW226181   3.756   3.736   3.879
 8428SOL     OW26182   6.545   7.000   0.494
 8428SOL    HW126183   6.507   0.042   0.565
 8428SOL    HW226184   6.516   0.016   0.404
 8429SOL     OW26185   2.423   5.562   5.633
 8429SOL    HW126186   2.408   5.496   5.706
 8429SOL    HW226187   2.520   5.569   5.613
 8430SOL     OW26188   4.404   6.519   5.282
 8430SOL    HW126189   4.465   6.480   5.214
 8430SOL    HW226190   4.312   6.483   5.269
 8431SOL     OW26191   2.878   3.583   6.362
 8431SOL    HW126192   2.946   3.514   6.338
 8431SOL    HW226193   2.793   3.565   6.312
 8432SOL     OW26194   6.484   5.276   6.100
 8432SOL    HW126195   6.448   5.217   6.173
 8432SOL    HW226196   6.411   5.337   6.068
 8433SOL     OW26197   5.407   2.667   1.111
 8433SOL    HW126198   5.475   2.602   1.079
 8433SOL    HW226199   5.449   2.756   1.125
 8434SOL     OW26200   2.079   6.385   5.454
 8434SOL    HW126201   2.170   6.350   5.475
 8434SOL    HW226202   2.024   6.386   5.538
 8435SOL     OW26203   4.600   1.006   3.070
 8435SOL    HW126204   4.593   0.971   2.977
 8435SOL    HW226205   4.685   1.057   3.080
 8436SOL     OW26206   2.625   5.913   2.502
 8436SOL    HW126207   2.605   5.836   2.442
 8436SOL    HW226208   2.584   5.896   2.592
 8437SOL     OW26209   1.667   3.951   1.950
 8437SOL    HW126210   1.735   4.015   1.914
 8437SOL    HW226211   1.681   3.941   2.049
 8438SOL     OW26212   0.980   4.431   2.216
 8438SOL    HW126213   1.044   4.396   2.147
 8438SOL    HW226214   1.017   4.414   2.307
 8439SOL     OW26215   5.906   5.059   3.465
 8439SOL    HW126216   5.886   5.115   3.384
 8439SOL    HW226217   5.941   5.118   3.538
 8440SOL     OW26218   2.272   1.765   3.148
 8440SOL    HW126219   2.359   1.727   3.117
 8440SOL    HW226220   2.199   1.736   3.086
 8441SOL     OW26221   6.266   1.225   4.694
 8441SOL    HW126222   6.231   1.293   4.758
 8441SOL    HW226223   6.364   1.212   4.709
 8442SOL     OW26224   3.327   1.173   5.912
 8442SOL    HW126225   3.361   1.261   5.878
 8442SOL    HW226226   3.231   1.183   5.941
 8443SOL     OW26227   0.856   4.072   3.067
 8443SOL    HW126228   0.818   4.131   3.137
 8443SOL    HW226229   0.818   3.980   3.075
 8444SOL     OW26230   5.193   5.237   4.701
 8444SOL    HW126231   5.169   5.325   4.661
 8444SOL    HW226232   5.195   5.244   4.800
 8445SOL     OW26233   4.373   5.667   6.716
 8445SOL    HW126234   4.399   5.599   6.784
 8445SOL    HW226235   4.447   5.678   6.650
 8446SOL     OW26236   6.586   5.494   4.901
 8446SOL    HW126237   6.627   5.413   4.859
 8446SOL    HW226238   6.641   5.575   4.877
 8447SOL     OW26239   4.041   1.893   3.094
 8447SOL    HW126240   3.988   1.811   3.072
 8447SOL    HW226241   4.002   1.972   3.045
 8448SOL     OW26242   3.773   6.281   3.106
 8448SOL    HW126243   3.871   6.267   3.101
 8448SOL    HW226244   3.729   6.200   3.143
 8449SOL     OW26245   2.130   2.520   3.125
 8449SOL    HW126246   2.177   2.497   3.039
 8449SOL    HW226247   2.072   2.600   3.110
 8450SOL     OW26248   6.862   0.748   6.937
 8450SOL    HW126249   6.807   0.801   6.873
 8450SOL    HW226250   6.802   0.697   6.998
 8451SOL     OW26251   4.552   2.576   0.999
 8451SOL    HW126252   4.580   2.664   1.037
 8451SOL    HW226253   4.464   2.586   0.953
 8452SOL     OW26254   5.064   2.185   5.575
 8452SOL    HW126255   4.986   2.190   5.638
 8452SOL    HW226256   5.037   2.139   5.491
 8453SOL     OW26257   0.685   6.116   1.043
 8453SOL    HW126258   0.618   6.100   1.115
 8453SOL    HW226259   0.773   6.140   1.083
 8454SOL     OW26260   6.542   4.372   0.113
 8454SOL    HW126261   6.508   4.459   0.149
 8454SOL    HW226262   6.556   4.380   0.014
 8455SOL     OW26263   0.136   0.672   3.393
 8455SOL    HW126264   0.138   0.739   3.468
 8455SOL    HW226265   0.044   0.635   3.385
 8456SOL     OW26266   5.956   0.614   3.788
 8456SOL    HW126267   5.916   0.673   3.859
 8456SOL    HW226268   6.020   0.667   3.733
 8457SOL     OW26269   6.506   6.794   5.167
 8457SOL    HW126270   6.603   6.787   5.145
 8457SOL    HW226271   6.465   6.702   5.167
 8458SOL     OW26272   6.967   6.237   0.026
 8458SOL    HW126273   6.950   6.254   6.946
 8458SOL    HW226274   6.886   6.262   0.078
 8459SOL     OW26275   1.644   5.632   2.996
 8459SOL    HW126276   1.580   5.622   3.073
 8459SOL    HW226277   1.594   5.668   2.917
 8460SOL     OW26278   3.657   4.102   3.674
 8460SOL    HW126279   3.615   4.134   3.590
 8460SOL    HW226280   3.617   4.150   3.752
 8461SOL     OW26281   6.304   3.650   3.927
 8461SOL    HW126282   6.263   3.602   4.004
 8461SOL    HW226283   6.262   3.618   3.842
 8462SOL     OW26284   2.213   2.951   1.983
 8462SOL    HW126285   2.210   2.884   2.057
 8462SOL    HW226286   2.208   2.903   1.895
 8463SOL     OW26287   5.209   1.441   1.983
 8463SOL    HW126288   5.305   1.454   1.959
 8463SOL    HW226289   5.200   1.423   2.081
 8464SOL     OW26290   6.530   2.066   4.528
 8464SOL    HW126291   6.522   1.991   4.462
 8464SOL    HW226292   6.612   2.052   4.584
 8465SOL     OW26293   1.530   2.294   0.243
 8465SOL    HW126294   1.552   2.380   0.197
 8465SOL    HW226295   1.434   2.294   0.270
 8466SOL     OW26296   1.031   6.586   3.936
 8466SOL    HW126297   0.944   6.574   3.888
 8466SOL    HW226298   1.103   6.606   3.869
 8467SOL     OW26299   2.731   5.394   0.558
 8467SOL    HW126300   2.642   5.391   0.512
 8467SOL    HW226301   2.719   5.432   0.650
 8468SOL     OW26302   4.689   1.814   0.107
 8468SOL    HW126303   4.707   1.816   0.205
 8468SOL    HW226304   4.735   1.892   0.063
 8469SOL     OW26305   3.710   2.176   6.817
 8469SOL    HW126306   3.678   2.179   6.911
 8469SOL    HW226307   3.803   2.212   6.812
 8470SOL     OW26308   2.351   2.472   6.313
 8470SOL    HW126309   2.319   2.505   6.225
 8470SOL    HW226310   2.389   2.549   6.366
 8471SOL     OW26311   4.053   0.946   3.766
 8471SOL    HW126312   3.993   1.025   3.750
 8471SOL    HW226313   4.084   0.948   3.861
 8472SOL     OW26314   1.725   6.119   3.150
 8472SOL    HW126315   1.695   6.103   3.056
 8472SOL    HW226316   1.769   6.208   3.158
 8473SOL     OW26317   6.799   5.897   0.034
 8473SOL    HW126318   6.742   5.844   0.098
 8473SOL    HW226319   6.864   5.835   7.007
 8474SOL     OW26320   4.332   4.426   0.970
 8474SOL    HW126321   4.397   4.416   1.045
 8474SOL    HW226322   4.272   4.504   0.988
 8475SOL     OW26323   4.494   1.069   3.318
 8475SOL    HW126324   4.529   1.044   3.228
 8475SOL    HW226325   4.477   0.986   3.372
 8476SOL     OW26326   4.689   0.035   2.618
 8476SOL    HW126327   4.733   0.123   2.598
 8476SOL    HW226328   4.751   6.977   2.595
 8477SOL     OW26329   2.597   1.201   1.834
 8477SOL    HW126330   2.543   1.197   1.918
 8477SOL    HW226331   2.677   1.142   1.844
 8478SOL     OW26332   1.884   0.322   5.936
 8478SOL    HW126333   1.968   0.375   5.949
 8478SOL    HW226334   1.880   0.291   5.841
 8479SOL     OW26335   4.843   1.018   1.830
 8479SOL    HW126336   4.769   1.009   1.896
 8479SOL    HW226337   4.830   1.102   1.777
 8480SOL     OW26338   1.683   1.318   1.487
 8480SOL    HW126339   1.596   1.329   1.536
 8480SOL    HW226340   1.751   1.279   1.549
 8481SOL     OW26341   3.909   0.024   4.186
 8481SOL    HW126342   3.820   0.017   4.140
 8481SOL    HW226343   3.957   0.105   4.154
 8482SOL     OW26344   0.814   0.553   2.204
 8482SOL    HW126345   0.825   0.616   2.128
 8482SOL    HW226346   0.773   0.600   2.281
 8483SOL     OW26347   4.152   6.076   1.821
 8483SOL    HW126348   4.068   6.040   1.862
 8483SOL    HW226349   4.196   6.004   1.767
 8484SOL     OW26350   0.505   4.964   4.554
 8484SOL    HW126351   0.499   4.912   4.640
 8484SOL    HW226352   0.454   4.916   4.483
 8485SOL     OW26353   3.101   3.318   5.941
 8485SOL    HW126354   3.053   3.406   5.941
 8485SOL    HW226355   3.176   3.322   5.875
 8486SOL     OW26356   4.681   0.712   2.453
 8486SOL    HW126357   4.640   0.625   2.425
 8486SOL    HW226358   4.623   0.787   2.422
 8487SOL     OW26359   4.280   0.032   0.774
 8487SOL    HW126360   4.205   0.098   0.766
 8487SOL    HW226361   4.248   6.967   0.820
 8488SOL     OW26362   4.880   3.244   4.670
 8488SOL    HW126363   4.872   3.273   4.575
 8488SOL    HW226364   4.835   3.155   4.682
 8489SOL     OW26365   4.256   4.987   2.773
 8489SOL    HW126366   4.176   4.953   2.822
 8489SOL    HW226367   4.281   5.077   2.810
 8490SOL     OW26368   3.666   5.548   2.831
 8490SOL    HW126369   3.708   5.574   2.919
 8490SOL    HW226370   3.666   5.449   2.822
 8491SOL     OW26371   2.313   0.953   2.336
 8491SOL    HW126372   2.265   0.965   2.423
 8491SOL    HW226373   2.329   1.043   2.295
 8492SOL     OW26374   5.653   3.684   4.682
 8492SOL    HW126375   5.601   3.696   4.597
 8492SOL    HW226376   5.650   3.588   4.709
 8493SOL     OW26377   3.646   2.332   0.889
 8493SOL    HW126378   3.599   2.307   0.804
 8493SOL    HW226379   3.685   2.251   0.931
 8494SOL     OW26380   3.198   5.189   6.861
 8494SOL    HW126381   3.245   5.154   6.780
 8494SOL    HW226382   3.136   5.262   6.834
 8495SOL     OW26383   0.183   2.539   0.431
 8495SOL    HW126384   0.222   2.447   0.429
 8495SOL    HW226385   0.234   2.596   0.496
 8496SOL     OW26386   6.846   2.936   3.341
 8496SOL    HW126387   6.928   2.993   3.336
 8496SOL    HW226388   6.849   2.881   3.424
 8497SOL     OW26389   6.141   5.381   3.342
 8497SOL    HW126390   6.157   5.283   3.340
 8497SOL    HW226391   6.148   5.414   3.436
 8498SOL     OW26392   0.183   1.000   0.902
 8498SOL    HW126393   0.130   1.059   0.841
 8498SOL    HW226394   0.158   0.905   0.886
 8499SOL     OW26395   3.415   3.896   6.689
 8499SOL    HW126396   3.329   3.867   6.730
 8499SOL    HW226397   3.425   3.856   6.598
 8500SOL     OW26398   2.951   1.083   6.327
 8500SOL    HW126399   2.981   0.989   6.313
 8500SOL    HW226400   3.000   1.144   6.265
 8501SOL     OW26401   2.053   4.256   6.045
 8501SOL    HW126402   1.957   4.243   6.071
 8501SOL    HW226403   2.058   4.285   5.950
 8502SOL     OW26404   0.219   0.443   2.462
 8502SOL    HW126405   0.184   0.357   2.425
 8502SOL    HW226406   0.295   0.475   2.406
 8503SOL     OW26407   2.776   5.448   2.883
 8503SOL    HW126408   2.858   5.393   2.865
 8503SOL    HW226409   2.803   5.538   2.916
 8504SOL     OW26410   0.813   5.738   3.446
 8504SOL    HW126411   0.846   5.729   3.352
 8504SOL    HW226412   0.713   5.732   3.447
 8505SOL     OW26413   4.823   3.078   3.573
 8505SOL    HW126414   4.829   3.044   3.667
 8505SOL    HW226415   4.798   3.174   3.574
 8506SOL     OW26416   0.991   6.515   0.591
 8506SOL    HW126417   1.042   6.460   0.657
 8506SOL    HW226418   1.031   6.606   0.585
 8507SOL     OW26419   1.902   0.559   5.004
 8507SOL    HW126420   1.846   0.632   4.964
 8507SOL    HW226421   1.916   0.577   5.101
 8508SOL     OW26422   1.203   2.500   6.016
 8508SOL    HW126423   1.241   2.563   5.948
 8508SOL    HW226424   1.278   2.451   6.061
 8509SOL     OW26425   6.255   2.015   4.744
 8509SOL    HW126426   6.320   1.999   4.669
 8509SOL    HW226427   6.162   2.020   4.706
 8510SOL     OW26428   5.327   0.048   2.699
 8510SOL    HW126429   5.316   0.142   2.731
 8510SOL    HW226430   5.335   7.004   2.778
 8511SOL     OW26431   6.942   4.776   1.839
 8511SOL    HW126432   6.857   4.765   1.787
 8511SOL    HW226433   0.002   4.743   1.785
 8512SOL     OW26434   4.534   1.940   0.421
 8512SOL    HW126435   4.626   1.927   0.384
 8512SOL    HW226436   4.500   2.030   0.395
 8513SOL     OW26437   6.873   4.177   0.998
 8513SOL    HW126438   6.829   4.131   1.075
 8513SOL    HW226439   6.945   4.238   1.031
 8514SOL     OW26440   2.928   2.499   5.792
 8514SOL    HW126441   2.948   2.421   5.732
 8514SOL    HW226442   2.849   2.549   5.756
 8515SOL     OW26443   0.976   0.332   1.127
 8515SOL    HW126444   0.958   0.313   1.224
 8515SOL    HW226445   0.901   0.385   1.089
 8516SOL     OW26446   5.792   2.140   3.329
 8516SOL    HW126447   5.811   2.089   3.413
 8516SOL    HW226448   5.864   2.123   3.262
 8517SOL     OW26449   1.957   2.014   5.277
 8517SOL    HW126450   1.926   2.051   5.365
 8517SOL    HW226451   2.031   1.948   5.293
 8518SOL     OW26452   5.332   4.908   0.307
 8518SOL    HW126453   5.262   4.862   0.363
 8518SOL    HW226454   5.332   4.868   0.215
 8519SOL     OW26455   1.038   3.474   0.714
 8519SOL    HW126456   1.040   3.558   0.660
 8519SOL    HW226457   1.125   3.463   0.762
 8520SOL     OW26458   4.067   4.314   5.913
 8520SOL    HW126459   4.015   4.252   5.972
 8520SOL    HW226460   4.107   4.387   5.969
 8521SOL     OW26461   1.914   6.406   5.667
 8521SOL    HW126462   1.834   6.443   5.620
 8521SOL    HW226463   1.900   6.411   5.766
 8522SOL     OW26464   0.823   6.878   0.501
 8522SOL    HW126465   0.766   6.960   0.502
 8522SOL    HW226466   0.765   6.797   0.511
 8523SOL     OW26467   2.941   1.300   6.953
 8523SOL    HW126468   3.037   1.286   6.932
 8523SOL    HW226469   2.892   1.213   6.947
 8524SOL     OW26470   2.250   5.749   4.715
 8524SOL    HW126471   2.231   5.683   4.787
 8524SOL    HW226472   2.299   5.827   4.752
 8525SOL     OW26473   6.602   4.876   1.357
 8525SOL    HW126474   6.618   4.841   1.450
 8525SOL    HW226475   6.543   4.813   1.307
 8526SOL     OW26476   1.376   6.147   0.343
 8526SOL    HW126477   1.398   6.053   0.368
 8526SOL    HW226478   1.391   6.160   0.245
 8527SOL     OW26479   3.025   0.825   5.565
 8527SOL    HW126480   2.943   0.768   5.573
 8527SOL    HW226481   3.066   0.811   5.475
 8528SOL     OW26482   5.318   1.972   0.553
 8528SOL    HW126483   5.236   1.991   0.499
 8528SOL    HW226484   5.362   2.058   0.578
 8529SOL     OW26485   1.146   6.056   6.535
 8529SOL    HW126486   1.169   6.102   6.621
 8529SOL    HW226487   1.150   6.121   6.460
 8530SOL     OW26488   3.249   4.086   4.172
 8530SOL    HW126489   3.219   4.132   4.255
 8530SOL    HW226490   3.231   3.988   4.180
 8531SOL     OW26491   6.541   5.315   3.987
 8531SOL    HW126492   6.630   5.340   4.026
 8531SOL    HW226493   6.515   5.224   4.020
 8532SOL     OW26494   2.464   5.420   4.830
 8532SOL    HW126495   2.441   5.512   4.860
 8532SOL    HW226496   2.558   5.418   4.795
 8533SOL     OW26497   2.033   5.770   5.156
 8533SOL    HW126498   2.055   5.682   5.114
 8533SOL    HW226499   1.961   5.757   5.225
 8534SOL     OW26500   2.979   2.258   3.972
 8534SOL    HW126501   3.043   2.241   4.047
 8534SOL    HW226502   2.897   2.302   4.009
 8535SOL     OW26503   6.238   0.387   2.926
 8535SOL    HW126504   6.253   0.290   2.943
 8535SOL    HW226505   6.164   0.421   2.984
 8536SOL     OW26506   0.677   1.090   4.725
 8536SOL    HW126507   0.769   1.050   4.732
 8536SOL    HW226508   0.682   1.175   4.674
 8537SOL     OW26509   6.563   1.133   2.801
 8537SOL    HW126510   6.539   1.036   2.808
 8537SOL    HW226511   6.628   1.157   2.872
 8538SOL     OW26512   1.263   2.401   0.296
 8538SOL    HW126513   1.223   2.323   0.345
 8538SOL    HW226514   1.191   2.454   0.253
 8539SOL     OW26515   5.881   2.615   3.154
 8539SOL    HW126516   5.805   2.680   3.163
 8539SOL    HW226517   5.960   2.662   3.114
 8540SOL     OW26518   3.825   0.059   0.749
 8540SOL    HW126519   3.835   7.012   0.673
 8540SOL    HW226520   3.731   0.057   0.782
 8541SOL     OW26521   1.952   2.840   4.605
 8541SOL    HW126522   1.914   2.908   4.669
 8541SOL    HW226523   2.024   2.789   4.651
 8542SOL     OW26524   3.336   4.694   0.354
 8542SOL    HW126525   3.260   4.640   0.318
 8542SOL    HW226526   3.300   4.763   0.417
 8543SOL     OW26527   2.370   2.250   6.189
 8543SOL    HW126528   2.345   2.182   6.258
 8543SOL    HW226529   2.380   2.340   6.233
 8544SOL     OW26530   6.600   3.256   3.103
 8544SOL    HW126531   6.577   3.222   3.012
 8544SOL    HW226532   6.580   3.184   3.171
 8545SOL     OW26533   5.106   6.689   4.819
 8545SOL    HW126534   5.123   6.591   4.833
 8545SOL    HW226535   5.145   6.741   4.895
 8546SOL     OW26536   4.382   1.862   5.678
 8546SOL    HW126537   4.303   1.878   5.737
 8546SOL    HW226538   4.358   1.797   5.606
 8547SOL     OW26539   0.963   4.391   3.219
 8547SOL    HW126540   0.997   4.406   3.312
 8547SOL    HW226541   0.897   4.316   3.219
 8548SOL     OW26542   6.173   1.509   5.877
 8548SOL    HW126543   6.102   1.516   5.946
 8548SOL    HW226544   6.132   1.517   5.786
 8549SOL     OW26545   5.699   3.436   5.075
 8549SOL    HW126546   5.609   3.421   5.115
 8549SOL    HW226547   5.753   3.495   5.136
 8550SOL     OW26548   1.008   4.059   6.739
 8550SOL    HW126549   0.948   3.990   6.780
 8550SOL    HW226550   1.080   4.014   6.687
 8551SOL     OW26551   3.406   3.929   0.255
 8551SOL    HW126552   3.387   3.835   0.229
 8551SOL    HW226553   3.463   3.931   0.337
 8552SOL     OW26554   2.970   6.317   3.908
 8552SOL    HW126555   3.008   6.258   3.836
 8552SOL    HW226556   2.871   6.315   3.904
 8553SOL     OW26557   5.472   6.165   0.405
 8553SOL    HW126558   5.385   6.174   0.355
 8553SOL    HW226559   5.540   6.225   0.364
 8554SOL     OW26560   6.460   4.602   0.295
 8554SOL    HW126561   6.520   4.673   0.332
 8554SOL    HW226562   6.370   4.608   0.338
 8555SOL     OW26563   1.066   6.937   4.069
 8555SOL    HW126564   1.011   6.995   4.128
 8555SOL    HW226565   1.056   6.841   4.097
 8556SOL     OW26566   6.345   0.372   3.581
 8556SOL    HW126567   6.433   0.331   3.557
 8556SOL    HW226568   6.287   0.303   3.623
 8557SOL     OW26569   0.122   0.943   1.267
 8557SOL    HW126570   0.163   1.033   1.278
 8557SOL    HW226571   0.047   0.948   1.200
 8558SOL     OW26572   1.339   5.237   1.945
 8558SOL    HW126573   1.375   5.323   1.910
 8558SOL    HW226574   1.354   5.164   1.879
 8559SOL     OW26575   0.387   1.178   6.253
 8559SOL    HW126576   0.482   1.155   6.272
 8559SOL    HW226577   0.382   1.240   6.175
 8560SOL     OW26578   6.184   2.786   6.525
 8560SOL    HW126579   6.161   2.877   6.490
 8560SOL    HW226580   6.252   2.744   6.466
 8561SOL     OW26581   4.815   6.396   4.280
 8561SOL    HW126582   4.779   6.481   4.241
 8561SOL    HW226583   4.751   6.321   4.261
 8562SOL     OW26584   3.574   6.573   4.610
 8562SOL    HW126585   3.627   6.512   4.552
 8562SOL    HW226586   3.552   6.526   4.696
 8563SOL     OW26587   2.542   2.911   5.824
 8563SOL    HW126588   2.572   2.976   5.754
 8563SOL    HW226589   2.616   2.896   5.890
 8564SOL     OW26590   0.623   0.058   3.708
 8564SOL    HW126591   0.605   6.979   3.730
 8564SOL    HW226592   0.553   0.092   3.646
 8565SOL     OW26593   4.223   0.214   1.650
 8565SOL    HW126594   4.273   0.218   1.736
 8565SOL    HW226595   4.194   0.119   1.633
 8566SOL     OW26596   2.158   3.188   3.438
 8566SOL    HW126597   2.256   3.173   3.437
 8566SOL    HW226598   2.111   3.105   3.468
 8567SOL     OW26599   5.472   6.849   0.826
 8567SOL    HW126600   5.423   6.763   0.819
 8567SOL    HW226601   5.568   6.835   0.803
 8568SOL     OW26602   5.246   1.043   0.291
 8568SOL    HW126603   5.254   1.067   0.194
 8568SOL    HW226604   5.306   1.101   0.345
 8569SOL     OW26605   4.192   1.330   4.779
 8569SOL    HW126606   4.270   1.384   4.747
 8569SOL    HW226607   4.214   1.290   4.868
 8570SOL     OW26608   0.921   4.646   0.037
 8570SOL    HW126609   0.855   4.674   0.106
 8570SOL    HW226610   1.010   4.632   0.079
 8571SOL     OW26611   0.206   4.316   5.174
 8571SOL    HW126612   0.222   4.278   5.083
 8571SOL    HW226613   0.137   4.388   5.168
 8572SOL     OW26614   2.856   5.259   5.511
 8572SOL    HW126615   2.926   5.207   5.463
 8572SOL    HW226616   2.820   5.330   5.450
 8573SOL     OW26617   3.889   5.694   4.918
 8573SOL    HW126618   3.824   5.628   4.958
 8573SOL    HW226619   3.911   5.666   4.825
 8574SOL     OW26620   0.339   3.855   4.754
 8574SOL    HW126621   0.274   3.871   4.828
 8574SOL    HW226622   0.329   3.762   4.720
 8575SOL     OW26623   3.217   3.131   6.852
 8575SOL    HW126624   3.301   3.186   6.855
 8575SOL    HW226625   3.138   3.191   6.861
 8576SOL     OW26626   1.827   0.008   1.926
 8576SOL    HW126627   1.823   6.932   1.962
 8576SOL    HW226628   1.743   0.028   1.876
 8577SOL     OW26629   6.565   5.560   3.085
 8577SOL    HW126630   6.659   5.526   3.085
 8577SOL    HW226631   6.533   5.571   3.179
 8578SOL     OW26632   4.350   6.865   3.633
 8578SOL    HW126633   4.282   6.851   3.705
 8578SOL    HW226634   4.442   6.861   3.673
 8579SOL     OW26635   0.789   6.020   3.295
 8579SOL    HW126636   0.777   6.111   3.255
 8579SOL    HW226637   0.717   6.004   3.363
 8580SOL     OW26638   2.654   4.302   6.512
 8580SOL    HW126639   2.642   4.249   6.429
 8580SOL    HW226640   2.604   4.258   6.587
 8581SOL     OW26641   3.115   2.742   1.440
 8581SOL    HW126642   3.140   2.647   1.425
 8581SOL    HW226643   3.191   2.801   1.412
 8582SOL     OW26644   4.533   4.488   1.141
 8582SOL    HW126645   4.587   4.406   1.162
 8582SOL    HW226646   4.496   4.527   1.225
 8583SOL     OW26647   5.800   6.886   6.237
 8583SOL    HW126648   5.832   6.800   6.195
 8583SOL    HW226649   5.705   6.902   6.211
 8584SOL     OW26650   0.220   5.182   6.440
 8584SOL    HW126651   0.266   5.093   6.446
 8584SOL    HW226652   0.246   5.226   6.354
 8585SOL     OW26653   0.756   1.708   0.772
 8585SOL    HW126654   0.843   1.661   0.755
 8585SOL    HW226655   0.755   1.744   0.865
 8586SOL     OW26656   4.213   5.332   4.002
 8586SOL    HW126657   4.271   5.364   3.927
 8586SOL    HW226658   4.117   5.350   3.980
 8587SOL     OW26659   0.029   1.635   1.277
 8587SOL    HW126660   7.014   1.703   1.344
 8587SOL    HW226661   6.969   1.597   1.227
 8588SOL     OW26662   4.558   2.106   6.914
 8588SOL    HW126663   4.487   2.078   6.849
 8588SOL    HW226664   4.534   2.073   7.006
 8589SOL     OW26665   2.674   2.048   4.621
 8589SOL    HW126666   2.622   1.969   4.590
 8589SOL    HW226667   2.639   2.079   4.710
 8590SOL     OW26668   6.367   4.987   5.758
 8590SOL    HW126669   6.268   4.981   5.769
 8590SOL    HW226670   6.391   4.961   5.665
 8591SOL     OW26671   1.112   3.082   7.015
 8591SOL    HW126672   1.012   3.090   7.011
 8591SOL    HW226673   1.137   2.990   0.026
 8592SOL     OW26674   6.335   5.451   6.342
 8592SOL    HW126675   6.271   5.385   6.304
 8592SOL    HW226676   6.414   5.460   6.282
 8593SOL     OW26677   1.042   0.529   2.811
 8593SOL    HW126678   1.029   0.533   2.712
 8593SOL    HW226679   0.959   0.561   2.857
 8594SOL     OW26680   3.517   3.443   3.691
 8594SOL    HW126681   3.547   3.489   3.608
 8594SOL    HW226682   3.430   3.481   3.721
 8595SOL     OW26683   1.971   2.606   1.765
 8595SOL    HW126684   1.906   2.592   1.689
 8595SOL    HW226685   1.966   2.702   1.795
 8596SOL     OW26686   6.391   4.894   2.221
 8596SOL    HW126687   6.309   4.905   2.165
 8596SOL    HW226688   6.466   4.945   2.180
 8597SOL     OW26689   1.656   1.499   0.704
 8597SOL    HW126690   1.741   1.486   0.654
 8597SOL    HW226691   1.586   1.436   0.670
 8598SOL     OW26692   5.301   4.500   0.428
 8598SOL    HW126693   5.356   4.426   0.466
 8598SOL    HW226694   5.321   4.510   0.331
 8599SOL     OW26695   1.180   3.351   2.717
 8599SOL    HW126696   1.133   3.424   2.767
 8599SOL    HW226697   1.213   3.385   2.629
 8600SOL     OW26698   6.152   4.118   6.744
 8600SOL    HW126699   6.168   4.084   6.651
 8600SOL    HW226700   6.189   4.053   6.810
 8601SOL     OW26701   0.059   0.147   4.240
 8601SOL    HW126702   0.037   0.193   4.154
 8601SOL    HW226703   7.004   0.081   4.262
 8602SOL     OW26704   3.322   6.708   2.025
 8602SOL    HW126705   3.403   6.649   2.024
 8602SOL    HW226706   3.315   6.757   1.938
 8603SOL     OW26707   4.318   3.316   0.933
 8603SOL    HW126708   4.273   3.290   1.019
 8603SOL    HW226709   4.416   3.325   0.948
 8604SOL     OW26710   5.500   2.526   2.866
 8604SOL    HW126711   5.478   2.467   2.788
 8604SOL    HW226712   5.523   2.470   2.945
 8605SOL     OW26713   2.913   6.662   1.914
 8605SOL    HW126714   2.838   6.601   1.941
 8605SOL    HW226715   3.000   6.622   1.940
 8606SOL     OW26716   4.136   4.816   5.868
 8606SOL    HW126717   4.103   4.909   5.853
 8606SOL    HW226718   4.131   4.764   5.783
 8607SOL     OW26719   3.534   6.245   1.825
 8607SOL    HW126720   3.608   6.275   1.765
 8607SOL    HW226721   3.532   6.145   1.830
 8608SOL     OW26722   4.513   6.045   2.652
 8608SOL    HW126723   4.429   6.085   2.614
 8608SOL    HW226724   4.559   5.991   2.581
 8609SOL     OW26725   3.919   0.329   5.574
 8609SOL    HW126726   3.834   0.301   5.617
 8609SOL    HW226727   3.954   0.412   5.619
 8610SOL     OW26728   6.925   6.723   4.142
 8610SOL    HW126729   6.950   6.710   4.046
 8610SOL    HW226730   6.978   6.662   4.199
 8611SOL     OW26731   1.584   1.851   3.423
 8611SOL    HW126732   1.530   1.767   3.427
 8611SOL    HW226733   1.669   1.839   3.475
 8612SOL     OW26734   4.506   2.970   5.285
 8612SOL    HW126735   4.558   2.988   5.369
 8612SOL    HW226736   4.566   2.923   5.219
 8613SOL     OW26737   1.241   1.602   0.360
 8613SOL    HW126738   1.265   1.505   0.360
 8613SOL    HW226739   1.321   1.656   0.388
 8614SOL     OW26740   1.089   1.425   3.370
 8614SOL    HW126741   1.122   1.517   3.351
 8614SOL    HW226742   1.031   1.394   3.294
 8615SOL     OW26743   4.646   2.588   5.232
 8615SOL    HW126744   4.555   2.616   5.264
 8615SOL    HW226745   4.644   2.491   5.207
 8616SOL     OW26746   1.886   3.304   6.557
 8616SOL    HW126747   1.950   3.229   6.572
 8616SOL    HW226748   1.869   3.352   6.643
 8617SOL     OW26749   5.889   3.018   1.181
 8617SOL    HW126750   5.852   3.054   1.267
 8617SOL    HW226751   5.988   3.009   1.188
 8618SOL     OW26752   4.688   0.540   4.166
 8618SOL    HW126753   4.597   0.517   4.201
 8618SOL    HW226754   4.695   0.638   4.152
 8619SOL     OW26755   4.694   5.792   0.843
 8619SOL    HW126756   4.603   5.753   0.859
 8619SOL    HW226757   4.736   5.747   0.765
 8620SOL     OW26758   6.059   6.578   3.301
 8620SOL    HW126759   6.081   6.661   3.250
 8620SOL    HW226760   5.960   6.571   3.314
 8621SOL     OW26761   5.584   0.862   3.109
 8621SOL    HW126762   5.555   0.852   3.204
 8621SOL    HW226763   5.672   0.910   3.105
 8622SOL     OW26764   5.599   5.123   6.967
 8622SOL    HW126765   5.642   5.131   0.040
 8622SOL    HW226766   5.504   5.094   6.978
 8623SOL     OW26767   6.554   2.749   2.655
 8623SOL    HW126768   6.478   2.768   2.717
 8623SOL    HW226769   6.519   2.708   2.571
 8624SOL     OW26770   0.694   5.099   3.792
 8624SOL    HW126771   0.717   5.175   3.853
 8624SOL    HW226772   0.686   5.132   3.698
 8625SOL     OW26773   4.133   0.629   5.479
 8625SOL    HW126774   4.105   0.617   5.574
 8625SOL    HW226775   4.169   0.721   5.466
 8626SOL     OW26776   2.846   3.559   2.817
 8626SOL    HW126777   2.935   3.554   2.863
 8626SOL    HW226778   2.774   3.530   2.880
 8627SOL     OW26779   2.333   0.283   6.568
 8627SOL    HW126780   2.234   0.297   6.574
 8627SOL    HW226781   2.376   0.316   6.652
 8628SOL     OW26782   6.183   1.309   0.312
 8628SOL    HW126783   6.196   1.408   0.309
 8628SOL    HW226784   6.247   1.269   0.377
 8629SOL     OW26785   1.214   5.039   3.983
 8629SOL    HW126786   1.262   4.956   3.955
 8629SOL    HW226787   1.130   5.048   3.929
 8630SOL     OW26788   5.595   4.311   4.407
 8630SOL    HW126789   5.551   4.289   4.320
 8630SOL    HW226790   5.672   4.249   4.421
 8631SOL     OW26791   3.738   5.834   4.202
 8631SOL    HW126792   3.675   5.911   4.217
 8631SOL    HW226793   3.768   5.833   4.107
 8632SOL     OW26794   4.833   0.259   3.677
 8632SOL    HW126795   4.745   0.212   3.671
 8632SOL    HW226796   4.865   0.280   3.585
 8633SOL     OW26797   6.331   0.583   3.949
 8633SOL    HW126798   6.316   0.516   4.022
 8633SOL    HW226799   6.407   0.643   3.974
 8634SOL     OW26800   6.530   5.184   1.709
 8634SOL    HW126801   6.593   5.107   1.720
 8634SOL    HW226802   6.491   5.183   1.617
 8635SOL     OW26803   6.326   4.196   5.406
 8635SOL    HW126804   6.389   4.238   5.471
 8635SOL    HW226805   6.327   4.248   5.321
 8636SOL     OW26806   5.436   5.899   0.402
 8636SOL    HW126807   5.440   5.998   0.385
 8636SOL    HW226808   5.450   5.882   0.499
 8637SOL     OW26809   1.550   0.499   1.535
 8637SOL    HW126810   1.584   0.546   1.454
 8637SOL    HW226811   1.524   0.566   1.604
 8638SOL     OW26812   4.067   5.366   0.301
 8638SOL    HW126813   3.988   5.360   0.239
 8638SOL    HW226814   4.111   5.455   0.290
 8639SOL     OW26815   0.235   2.974   2.628
 8639SOL    HW126816   0.161   2.992   2.693
 8639SOL    HW226817   0.224   2.882   2.590
 8640SOL     OW26818   5.236   6.379   1.173
 8640SOL    HW126819   5.317   6.378   1.113
 8640SOL    HW226820   5.155   6.355   1.120
 8641SOL     OW26821   5.568   4.532   3.351
 8641SOL    HW126822   5.468   4.530   3.349
 8641SOL    HW226823   5.604   4.494   3.266
 8642SOL     OW26824   4.768   1.779   1.337
 8642SOL    HW126825   4.865   1.762   1.356
 8642SOL    HW226826   4.759   1.843   1.261
 8643SOL     OW26827   4.792   1.098   6.011
 8643SOL    HW126828   4.864   1.139   6.066
 8643SOL    HW226829   4.718   1.164   5.998
 8644SOL     OW26830   6.152   3.131   5.234
 8644SOL    HW126831   6.104   3.066   5.175
 8644SOL    HW226832   6.211   3.081   5.298
 8645SOL     OW26833   5.988   4.608   1.861
 8645SOL    HW126834   6.046   4.529   1.843
 8645SOL    HW226835   5.916   4.582   1.926
 8646SOL     OW26836   5.391   1.149   0.505
 8646SOL    HW126837   5.491   1.141   0.499
 8646SOL    HW226838   5.359   1.100   0.586
 8647SOL     OW26839   4.397   5.127   1.807
 8647SOL    HW126840   4.300   5.129   1.783
 8647SOL    HW226841   4.413   5.060   1.879
 8648SOL     OW26842   5.339   2.014   4.607
 8648SOL    HW126843   5.316   2.048   4.515
 8648SOL    HW226844   5.394   2.083   4.655
 8649SOL     OW26845   6.958   4.553   5.798
 8649SOL    HW126846   0.032   4.594   5.797
 8649SOL    HW226847   6.965   4.457   5.824
 8650SOL     OW26848   1.661   4.762   2.431
 8650SOL    HW126849   1.757   4.760   2.460
 8650SOL    HW226850   1.657   4.775   2.332
 8651SOL     OW26851   3.108   1.715   1.406
 8651SOL    HW126852   3.101   1.707   1.505
 8651SOL    HW226853   3.163   1.640   1.370
 8652SOL     OW26854   1.847   3.596   3.853
 8652SOL    HW126855   1.841   3.540   3.771
 8652SOL    HW226856   1.915   3.558   3.915
 8653SOL     OW26857   6.693   3.490   6.544
 8653SOL    HW126858   6.645   3.563   6.496
 8653SOL    HW226859   6.775   3.464   6.493
 8654SOL     OW26860   0.467   0.036   3.077
 8654SOL    HW126861   0.473   6.961   3.037
 8654SOL    HW226862   0.449   0.103   3.005
 8655SOL     OW26863   5.960   6.075   4.407
 8655SOL    HW126864   5.946   6.046   4.312
 8655SOL    HW226865   6.058   6.078   4.427
 8656SOL     OW26866   5.998   2.490   1.511
 8656SOL    HW126867   5.912   2.537   1.492
 8656SOL    HW226868   6.048   2.540   1.582
 8657SOL     OW26869   3.321   4.239   0.243
 8657SOL    HW126870   3.352   4.231   0.337
 8657SOL    HW226871   3.277   4.154   0.214
 8658SOL     OW26872   6.859   5.411   0.561
 8658SOL    HW126873   6.843   5.481   0.492
 8658SOL    HW226874   6.948   5.425   0.603
 8659SOL     OW26875   5.320   0.625   4.372
 8659SOL    HW126876   5.280   0.596   4.285
 8659SOL    HW226877   5.412   0.585   4.381
 8660SOL     OW26878   5.823   4.745   1.385
 8660SOL    HW126879   5.753   4.816   1.376
 8660SOL    HW226880   5.793   4.678   1.454
 8661SOL     OW26881   6.582   3.729   1.628
 8661SOL    HW126882   6.544   3.763   1.714
 8661SOL    HW226883   6.512   3.733   1.557
 8662SOL     OW26884   0.070   0.197   0.758
 8662SOL    HW126885   0.159   0.171   0.718
 8662SOL    HW226886   0.050   0.292   0.735
 8663SOL     OW26887   2.506   5.446   0.402
 8663SOL    HW126888   2.462   5.392   0.330
 8663SOL    HW226889   2.448   5.525   0.424
 8664SOL     OW26890   4.315   5.288   0.928
 8664SOL    HW126891   4.407   5.270   0.893
 8664SOL    HW226892   4.320   5.311   1.026
 8665SOL     OW26893   5.305   5.593   5.667
 8665SOL    HW126894   5.298   5.499   5.636
 8665SOL    HW226895   5.361   5.598   5.750
 8666SOL     OW26896   5.452   3.477   4.600
 8666SOL    HW126897   5.354   3.483   4.618
 8666SOL    HW226898   5.478   3.381   4.592
 8667SOL     OW26899   5.034   1.600   3.743
 8667SOL    HW126900   5.070   1.524   3.689
 8667SOL    HW226901   4.935   1.608   3.726
 8668SOL     OW26902   3.387   1.970   4.271
 8668SOL    HW126903   3.474   2.018   4.260
 8668SOL    HW226904   3.403   1.881   4.315
 8669SOL     OW26905   4.183   0.915   6.125
 8669SOL    HW126906   4.207   0.818   6.130
 8669SOL    HW226907   4.122   0.939   6.200
 8670SOL     OW26908   3.746   4.985   4.340
 8670SOL    HW126909   3.663   4.974   4.394
 8670SOL    HW226910   3.782   5.077   4.354
 8671SOL     OW26911   5.643   6.297   2.973
 8671SOL    HW126912   5.592   6.347   3.043
 8671SOL    HW226913   5.692   6.362   2.915
 8672SOL     OW26914   3.124   4.904   4.889
 8672SOL    HW126915   3.034   4.861   4.892
 8672SOL    HW226916   3.195   4.835   4.904
 8673SOL     OW26917   5.758   2.102   1.003
 8673SOL    HW126918   5.736   2.182   0.948
 8673SOL    HW226919   5.674   2.055   1.029
 8674SOL     OW26920   0.797   0.451   2.610
 8674SOL    HW126921   0.716   0.412   2.565
 8674SOL    HW226922   0.869   0.382   2.612
 8675SOL     OW26923   2.100   1.666   2.941
 8675SOL    HW126924   2.180   1.605   2.940
 8675SOL    HW226925   2.023   1.619   2.984
 8676SOL     OW26926   4.475   0.270   3.627
 8676SOL    HW126927   4.427   0.274   3.715
 8676SOL    HW226928   4.429   0.206   3.567
 8677SOL     OW26929   2.739   4.400   5.577
 8677SOL    HW126930   2.685   4.477   5.544
 8677SOL    HW226931   2.751   4.333   5.503
 8678SOL     OW26932   0.942   0.125   6.616
 8678SOL    HW126933   0.849   0.161   6.607
 8678SOL    HW226934   1.008   0.198   6.600
 8679SOL     OW26935   7.009   2.368   4.320
 8679SOL    HW126936   6.926   2.321   4.351
 8679SOL    HW226937   0.072   2.311   4.340
 8680SOL     OW26938   1.653   3.551   0.179
 8680SOL    HW126939   1.715   3.490   0.129
 8680SOL    HW226940   1.704   3.598   0.251
 8681SOL     OW26941   3.958   3.884   1.112
 8681SOL    HW126942   3.996   3.886   1.019
 8681SOL    HW226943   3.861   3.906   1.108
 8682SOL     OW26944   2.192   6.156   2.702
 8682SOL    HW126945   2.169   6.250   2.724
 8682SOL    HW226946   2.117   6.096   2.732
 8683SOL     OW26947   6.750   3.162   6.681
 8683SOL    HW126948   6.824   3.161   6.749
 8683SOL    HW226949   6.785   3.200   6.595
 8684SOL     OW26950   6.586   2.818   3.973
 8684SOL    HW126951   6.654   2.787   4.040
 8684SOL    HW226952   6.504   2.762   3.980
 8685SOL     OW26953   1.023   2.250   5.489
 8685SOL    HW126954   1.051   2.303   5.569
 8685SOL    HW226955   1.017   2.153   5.512
 8686SOL     OW26956   6.223   2.218   3.384
 8686SOL    HW126957   6.151   2.281   3.415
 8686SOL    HW226958   6.307   2.271   3.366
 8687SOL     OW26959   3.942   0.001   3.071
 8687SOL    HW126960   3.921   6.964   2.990
 8687SOL    HW226961   3.862   0.057   3.094
 8688SOL     OW26962   1.912   0.625   2.127
 8688SOL    HW126963   2.003   0.667   2.128
 8688SOL    HW226964   1.919   0.529   2.099
 8689SOL     OW26965   4.342   5.935   0.729
 8689SOL    HW126966   4.338   5.925   0.629
 8689SOL    HW226967   4.322   5.847   0.771
 8690SOL     OW26968   0.666   1.633   2.816
 8690SOL    HW126969   0.638   1.552   2.869
 8690SOL    HW226970   0.732   1.606   2.746
 8691SOL     OW26971   5.359   2.248   0.615
 8691SOL    HW126972   5.353   2.261   0.516
 8691SOL    HW226973   5.289   2.303   0.660
 8692SOL     OW26974   2.120   1.336   4.003
 8692SOL    HW126975   2.146   1.247   4.041
 8692SOL    HW226976   2.050   1.378   4.061
 8693SOL     OW26977   5.492   2.127   0.829
 8693SOL    HW126978   5.451   2.155   0.742
 8693SOL    HW226979   5.423   2.084   0.886
 8694SOL     OW26980   4.470   6.882   6.005
 8694SOL    HW126981   4.464   6.870   5.906
 8694SOL    HW226982   4.565   6.891   6.032
 8695SOL     OW26983   3.888   4.512   5.802
 8695SOL    HW126984   3.902   4.436   5.739
 8695SOL    HW226985   3.870   4.476   5.894
 8696SOL     OW26986   2.200   5.313   1.370
 8696SOL    HW126987   2.119   5.261   1.342
 8696SOL    HW226988   2.200   5.402   1.324
 8697SOL     OW26989   6.095   4.747   1.288
 8697SOL    HW126990   6.008   4.762   1.334
 8697SOL    HW226991   6.102   4.651   1.259
 8698SOL     OW26992   5.528   5.383   4.748
 8698SOL    HW126993   5.556   5.368   4.653
 8698SOL    HW226994   5.480   5.302   4.782
 8699SOL     OW26995   1.154   1.567   5.233
 8699SOL    HW126996   1.094   1.558   5.153
 8699SOL    HW226997   1.182   1.476   5.264
 8700SOL     OW26998   2.618   1.055   5.350
 8700SOL    HW126999   2.575   1.127   5.406
 8700SOL    HW227000   2.597   1.072   5.254
 8701SOL     OW27001   1.006   1.528   5.015
 8701SOL    HW127002   1.070   1.495   4.946
 8701SOL    HW227003   0.952   1.603   4.976
 8702SOL     OW27004   4.441   5.951   6.822
 8702SOL    HW127005   4.347   5.922   6.842
 8702SOL    HW227006   4.485   5.884   6.762
 8703SOL     OW27007   2.737   5.525   0.800
 8703SOL    HW127008   2.752   5.622   0.820
 8703SOL    HW227009   2.793   5.469   0.862
 8704SOL     OW27010   0.437   4.254   1.506
 8704SOL    HW127011   0.400   4.164   1.485
 8704SOL    HW227012   0.467   4.257   1.602
 8705SOL     OW27013   4.910   0.203   5.828
 8705SOL    HW127014   4.839   0.197   5.757
 8705SOL    HW227015   4.898   0.288   5.880
 8706SOL     OW27016   5.294   1.976   0.919
 8706SOL    HW127017   5.229   1.937   0.984
 8706SOL    HW227018   5.253   1.976   0.828
 8707SOL     OW27019   4.683   3.042   5.820
 8707SOL    HW127020   4.649   3.032   5.914
 8707SOL    HW227021   4.707   3.137   5.803
 8708SOL     OW27022   3.849   1.555   1.344
 8708SOL    HW127023   3.848   1.650   1.314
 8708SOL    HW227024   3.943   1.521   1.345
 8709SOL     OW27025   6.887   3.892   0.905
 8709SOL    HW127026   6.975   3.889   0.858
 8709SOL    HW227027   6.881   3.975   0.961
 8710SOL     OW27028   1.334   3.464   3.007
 8710SOL    HW127029   1.430   3.466   3.037
 8710SOL    HW227030   1.280   3.526   3.064
 8711SOL     OW27031   0.656   1.338   3.992
 8711SOL    HW127032   0.753   1.339   4.013
 8711SOL    HW227033   0.609   1.279   4.058
 8712SOL     OW27034   3.463   1.563   5.610
 8712SOL    HW127035   3.374   1.557   5.567
 8712SOL    HW227036   3.525   1.497   5.568
 8713SOL     OW27037   6.846   4.472   3.407
 8713SOL    HW127038   6.840   4.424   3.320
 8713SOL    HW227039   6.754   4.481   3.446
 8714SOL     OW27040   1.435   1.593   4.674
 8714SOL    HW127041   1.507   1.656   4.704
 8714SOL    HW227042   1.457   1.556   4.584
 8715SOL     OW27043   6.164   1.825   1.209
 8715SOL    HW127044   6.164   1.792   1.304
 8715SOL    HW227045   6.128   1.919   1.207
 8716SOL     OW27046   1.575   2.137   1.350
 8716SOL    HW127047   1.651   2.183   1.305
 8716SOL    HW227048   1.568   2.043   1.317
 8717SOL     OW27049   2.894   3.337   1.152
 8717SOL    HW127050   2.980   3.371   1.191
 8717SOL    HW227051   2.903   3.330   1.053
 8718SOL     OW27052   6.073   2.962   5.477
 8718SOL    HW127053   6.154   2.985   5.532
 8718SOL    HW227054   6.055   3.035   5.412
 8719SOL     OW27055   6.806   0.437   6.409
 8719SOL    HW127056   6.796   0.514   6.347
 8719SOL    HW227057   6.876   0.375   6.375
 8720SOL     OW27058   4.956   3.780   6.332
 8720SOL    HW127059   4.996   3.812   6.246
 8720SOL    HW227060   4.857   3.785   6.326
 8721SOL     OW27061   0.054   2.595   4.113
 8721SOL    HW127062   0.065   2.544   4.198
 8721SOL    HW227063   0.083   2.690   4.127
 8722SOL     OW27064   3.597   2.499   0.314
 8722SOL    HW127065   3.596   2.422   0.251
 8722SOL    HW227066   3.649   2.574   0.273
 8723SOL     OW27067   6.869   4.101   1.248
 8723SOL    HW127068   6.880   4.135   1.341
 8723SOL    HW227069   6.956   4.063   1.215
 8724SOL     OW27070   4.859   6.751   6.455
 8724SOL    HW127071   4.810   6.729   6.539
 8724SOL    HW227072   4.950   6.788   6.477
 8725SOL     OW27073   2.992   5.612   0.618
 8725SOL    HW127074   2.937   5.695   0.628
 8725SOL    HW227075   2.947   5.536   0.665
 8726SOL     OW27076   5.438   0.397   1.452
 8726SOL    HW127077   5.384   0.477   1.428
 8726SOL    HW227078   5.518   0.424   1.506
 8727SOL     OW27079   6.212   6.068   1.331
 8727SOL    HW127080   6.262   6.027   1.255
 8727SOL    HW227081   6.160   6.146   1.299
 8728SOL     OW27082   2.391   0.170   4.680
 8728SOL    HW127083   2.348   0.115   4.752
 8728SOL    HW227084   2.378   0.125   4.592
 8729SOL     OW27085   5.582   6.320   4.844
 8729SOL    HW127086   5.564   6.222   4.831
 8729SOL    HW227087   5.520   6.373   4.786
 8730SOL     OW27088   0.128   6.257   1.663
 8730SOL    HW127089   0.029   6.264   1.647
 8730SOL    HW227090   0.169   6.348   1.654
 8731SOL     OW27091   0.817   1.532   2.586
 8731SOL    HW127092   0.902   1.480   2.577
 8731SOL    HW227093   0.820   1.610   2.524
 8732SOL     OW27094   5.214   4.770   1.276
 8732SOL    HW127095   5.138   4.825   1.309
 8732SOL    HW227096   5.205   4.756   1.177
 8733SOL     OW27097   0.940   6.395   1.699
 8733SOL    HW127098   0.842   6.384   1.683
 8733SOL    HW227099   0.988   6.402   1.611
 8734SOL     OW27100   6.395   5.502   0.839
 8734SOL    HW127101   6.480   5.510   0.786
 8734SOL    HW227102   6.360   5.409   0.833
 8735SOL     OW27103   6.747   2.405   6.512
 8735SOL    HW127104   6.667   2.346   6.507
 8735SOL    HW227105   6.722   2.491   6.556
 8736SOL     OW27106   0.738   4.476   6.668
 8736SOL    HW127107   0.799   4.397   6.674
 8736SOL    HW227108   0.644   4.445   6.656
 8737SOL     OW27109   3.514   5.887   6.275
 8737SOL    HW127110   3.567   5.955   6.224
 8737SOL    HW227111   3.421   5.883   6.237
 8738SOL     OW27112   1.083   3.776   4.341
 8738SOL    HW127113   1.128   3.853   4.296
 8738SOL    HW227114   1.144   3.737   4.409
 8739SOL     OW27115   1.036   3.191   5.199
 8739SOL    HW127116   0.953   3.187   5.255
 8739SOL    HW227117   1.114   3.162   5.254
 8740SOL     OW27118   2.168   6.289   1.179
 8740SOL    HW127119   2.161   6.209   1.239
 8740SOL    HW227120   2.097   6.355   1.203
 8741SOL     OW27121   1.785   3.362   2.365
 8741SOL    HW127122   1.810   3.402   2.453
 8741SOL    HW227123   1.765   3.265   2.377
 8742SOL     OW27124   4.745   0.018   1.913
 8742SOL    HW127125   4.823   0.073   1.944
 8742SOL    HW227126   4.690   7.008   1.992
 8743SOL     OW27127   2.400   4.745   2.790
 8743SOL    HW127128   2.369   4.837   2.768
 8743SOL    HW227129   2.474   4.718   2.729
 8744SOL     OW27130   3.399   2.736   5.679
 8744SOL    HW127131   3.456   2.670   5.730
 8744SOL    HW227132   3.309   2.697   5.662
 8745SOL     OW27133   6.351   2.388   6.186
 8745SOL    HW127134   6.357   2.288   6.183
 8745SOL    HW227135   6.429   2.424   6.238
 8746SOL     OW27136   5.080   4.528   5.492
 8746SOL    HW127137   5.031   4.458   5.440
 8746SOL    HW227138   5.025   4.611   5.495
 8747SOL     OW27139   1.925   2.574   4.203
 8747SOL    HW127140   1.906   2.476   4.202
 8747SOL    HW227141   1.970   2.601   4.118
 8748SOL     OW27142   2.321   0.443   6.996
 8748SOL    HW127143   2.228   0.424   0.008
 8748SOL    HW227144   2.328   0.539   6.968
 8749SOL     OW27145   4.131   0.785   3.555
 8749SOL    HW127146   4.124   0.824   3.646
 8749SOL    HW227147   4.156   0.857   3.490
 8750SOL     OW27148   2.269   1.029   5.074
 8750SOL    HW127149   2.218   0.960   5.021
 8750SOL    HW227150   2.277   0.998   5.169
 8751SOL     OW27151   2.251   6.942   2.755
 8751SOL    HW127152   2.340   6.952   2.711
 8751SOL    HW227153   2.217   6.849   2.740
 8752SOL     OW27154   1.674   2.302   6.101
 8752SOL    HW127155   1.611   2.237   6.142
 8752SOL    HW227156   1.751   2.253   6.060
 8753SOL     OW27157   5.383   0.911   5.070
 8753SOL    HW127158   5.478   0.937   5.087
 8753SOL    HW227159   5.334   0.988   5.028
 8754SOL     OW27160   1.354   1.456   5.816
 8754SOL    HW127161   1.259   1.486   5.803
 8754SOL    HW227162   1.355   1.362   5.849
 8755SOL     OW27163   2.159   1.771   1.122
 8755SOL    HW127164   2.060   1.778   1.133
 8755SOL    HW227165   2.197   1.860   1.099
 8756SOL     OW27166   2.167   3.002   4.511
 8756SOL    HW127167   2.082   2.951   4.508
 8756SOL    HW227168   2.202   3.005   4.605
 8757SOL     OW27169   4.774   5.991   4.974
 8757SOL    HW127170   4.830   5.912   4.999
 8757SOL    HW227171   4.812   6.035   4.893
 8758SOL     OW27172   6.247   6.293   1.966
 8758SOL    HW127173   6.277   6.200   1.947
 8758SOL    HW227174   6.147   6.295   1.975
 8759SOL     OW27175   5.159   0.944   5.864
 8759SOL    HW127176   5.228   1.008   5.897
 8759SOL    HW227177   5.088   0.995   5.815
 8760SOL     OW27178   2.027   2.577   3.896
 8760SOL    HW127179   1.969   2.613   3.824
 8760SOL    HW227180   2.118   2.618   3.889
 8761SOL     OW27181   4.412   6.554   0.347
 8761SOL    HW127182   4.374   6.520   0.262
 8761SOL    HW227183   4.510   6.573   0.335
 8762SOL     OW27184   0.451   4.041   0.914
 8762SOL    HW127185   0.397   3.969   0.958
 8762SOL    HW227186   0.392   4.097   0.856
 8763SOL     OW27187   0.246   6.471   6.049
 8763SOL    HW127188   0.330   6.418   6.052
 8763SOL    HW227189   0.168   6.411   6.066
 8764SOL     OW27190   3.723   1.903   5.189
 8764SOL    HW127191   3.653   1.906   5.118
 8764SOL    HW227192   3.705   1.826   5.250
 8765SOL     OW27193   0.054   0.330   4.463
 8765SOL    HW127194   0.068   0.284   4.376
 8765SOL    HW227195   0.055   0.430   4.449
 8766SOL     OW27196   2.102   4.562   2.339
 8766SOL    HW127197   2.163   4.524   2.269
 8766SOL    HW227198   2.052   4.640   2.301
 8767SOL     OW27199   4.882   1.644   4.412
 8767SOL    HW127200   4.934   1.717   4.457
 8767SOL    HW227201   4.836   1.680   4.332
 8768SOL     OW27202   1.655   3.443   6.800
 8768SOL    HW127203   1.617   3.367   6.748
 8768SOL    HW227204   1.622   3.439   6.894
 8769SOL     OW27205   1.985   0.233   5.686
 8769SOL    HW127206   2.051   0.158   5.678
 8769SOL    HW227207   2.000   0.298   5.611
 8770SOL     OW27208   5.599   2.312   2.268
 8770SOL    HW127209   5.609   2.280   2.174
 8770SOL    HW227210   5.556   2.241   2.323
 8771SOL     OW27211   1.401   1.888   6.375
 8771SOL    HW127212   1.320   1.875   6.319
 8771SOL    HW227213   1.432   1.799   6.410
 8772SOL     OW27214   5.671   0.405   0.069
 8772SOL    HW127215   5.721   0.473   0.124
 8772SOL    HW227216   5.594   0.370   0.122
 8773SOL     OW27217   2.771   2.316   3.005
 8773SOL    HW127218   2.724   2.314   3.093
 8773SOL    HW227219   2.841   2.244   3.003
 8774SOL     OW27220   1.138   0.993   0.004
 8774SOL    HW127221   1.148   1.018   6.925
 8774SOL    HW227222   1.218   1.024   0.056
 8775SOL     OW27223   6.052   0.226   3.962
 8775SOL    HW127224   6.119   0.227   4.037
 8775SOL    HW227225   5.964   0.261   3.995
 8776SOL     OW27226   3.310   3.316   4.815
 8776SOL    HW127227   3.266   3.247   4.757
 8776SOL    HW227228   3.271   3.406   4.796
 8777SOL     OW27229   6.590   5.762   1.443
 8777SOL    HW127230   6.494   5.786   1.456
 8777SOL    HW227231   6.628   5.729   1.530
 8778SOL     OW27232   0.834   2.431   3.103
 8778SOL    HW127233   0.802   2.457   3.012
 8778SOL    HW227234   0.796   2.494   3.171
 8779SOL     OW27235   1.578   4.286   0.647
 8779SOL    HW127236   1.663   4.233   0.641
 8779SOL    HW227237   1.505   4.228   0.683
 8780SOL     OW27238   1.796   5.611   3.787
 8780SOL    HW127239   1.872   5.597   3.851
 8780SOL    HW227240   1.817   5.567   3.700
 8781SOL     OW27241   0.345   1.974   1.950
 8781SOL    HW127242   0.389   1.907   2.009
 8781SOL    HW227243   0.251   1.990   1.983
 8782SOL     OW27244   4.758   1.749   2.492
 8782SOL    HW127245   4.678   1.808   2.499
 8782SOL    HW227246   4.742   1.679   2.421
 8783SOL     OW27247   5.439   3.433   5.172
 8783SOL    HW127248   5.446   3.407   5.269
 8783SOL    HW227249   5.350   3.405   5.136
 8784SOL     OW27250   5.406   4.119   5.062
 8784SOL    HW127251   5.440   4.199   5.014
 8784SOL    HW227252   5.328   4.081   5.012
 8785SOL     OW27253   5.954   4.657   6.866
 8785SOL    HW127254   5.935   4.589   6.938
 8785SOL    HW227255   5.922   4.622   6.778
 8786SOL     OW27256   1.758   6.028   0.158
 8786SOL    HW127257   1.744   5.996   0.251
 8786SOL    HW227258   1.745   6.127   0.154
 8787SOL     OW27259   0.912   3.205   0.308
 8787SOL    HW127260   0.888   3.113   0.278
 8787SOL    HW227261   0.849   3.271   0.267
 8788SOL     OW27262   1.047   1.969   5.586
 8788SOL    HW127263   1.124   1.914   5.553
 8788SOL    HW227264   1.058   1.986   5.684
 8789SOL     OW27265   6.996   0.218   6.598
 8789SOL    HW127266   0.023   0.267   6.674
 8789SOL    HW227267   6.898   0.235   6.600
 8790SOL     OW27268   5.537   1.757   0.312
 8790SOL    HW127269   5.634   1.774   0.291
 8790SOL    HW227270   5.524   1.757   0.411
 8791SOL     OW27271   4.777   6.560   5.538
 8791SOL    HW127272   4.729   6.550   5.625
 8791SOL    HW227273   4.839   6.638   5.542
 8792SOL     OW27274   5.253   0.158   2.409
 8792SOL    HW127275   5.153   0.160   2.408
 8792SOL    HW227276   5.284   0.121   2.496
 8793SOL     OW27277   1.290   5.441   4.600
 8793SOL    HW127278   1.202   5.429   4.555
 8793SOL    HW227279   1.285   5.407   4.694
 8794SOL     OW27280   2.783   6.718   2.629
 8794SOL    HW127281   2.872   6.751   2.661
 8794SOL    HW227282   2.770   6.744   2.534
 8795SOL     OW27283   1.598   6.343   5.310
 8795SOL    HW127284   1.625   6.310   5.219
 8795SOL    HW227285   1.536   6.277   5.352
 8796SOL     OW27286   5.426   2.709   4.847
 8796SOL    HW127287   5.401   2.729   4.942
 8796SOL    HW227288   5.517   2.746   4.829
 8797SOL     OW27289   0.512   6.692   6.790
 8797SOL    HW127290   0.495   6.676   6.693
 8797SOL    HW227291   0.574   6.769   6.800
 8798SOL     OW27292   4.848   3.754   5.950
 8798SOL    HW127293   4.855   3.844   5.994
 8798SOL    HW227294   4.927   3.740   5.891
 8799SOL     OW27295   3.693   5.871   2.849
 8799SOL    HW127296   3.742   5.813   2.785
 8799SOL    HW227297   3.611   5.908   2.806
 8800SOL     OW27298   4.204   4.901   6.713
 8800SOL    HW127299   4.292   4.854   6.706
 8800SOL    HW227300   4.130   4.836   6.693
 8801SOL     OW27301   2.702   0.072   4.914
 8801SOL    HW127302   2.797   0.099   4.903
 8801SOL    HW227303   2.697   6.995   4.947
 8802SOL     OW27304   2.821   0.344   2.350
 8802SOL    HW127305   2.825   0.443   2.361
 8802SOL    HW227306   2.729   0.317   2.321
 8803SOL     OW27307   3.676   6.066   0.268
 8803SOL    HW127308   3.586   6.029   0.247
 8803SOL    HW227309   3.677   6.099   0.363
 8804SOL     OW27310   4.274   0.499   0.758
 8804SOL    HW127311   4.342   0.495   0.684
 8804SOL    HW227312   4.314   0.544   0.838
 8805SOL     OW27313   0.319   0.150   2.841
 8805SOL    HW127314   0.221   0.157   2.820
 8805SOL    HW227315   0.345   0.226   2.901
 8806SOL     OW27316   2.240   5.088   6.678
 8806SOL    HW127317   2.156   5.131   6.646
 8806SOL    HW227318   2.307   5.159   6.701
 8807SOL     OW27319   1.783   6.026   6.407
 8807SOL    HW127320   1.745   6.105   6.360
 8807SOL    HW227321   1.747   5.942   6.366
 8808SOL     OW27322   5.877   1.361   0.923
 8808SOL    HW127323   5.855   1.317   1.010
 8808SOL    HW227324   5.925   1.447   0.940
 8809SOL     OW27325   5.867   4.033   1.204
 8809SOL    HW127326   5.936   3.992   1.264
 8809SOL    HW227327   5.782   3.981   1.210
 8810SOL     OW27328   5.008   1.562   4.026
 8810SOL    HW127329   5.091   1.527   4.069
 8810SOL    HW227330   5.023   1.572   3.928
 8811SOL     OW27331   1.249   1.232   3.712
 8811SOL    HW127332   1.198   1.318   3.713
 8811SOL    HW227333   1.190   1.157   3.684
 8812SOL     OW27334   1.575   0.663   0.908
 8812SOL    HW127335   1.668   0.626   0.901
 8812SOL    HW227336   1.532   0.631   0.992
 8813SOL     OW27337   1.526   5.021   1.408
 8813SOL    HW127338   1.600   5.005   1.343
 8813SOL    HW227339   1.458   4.948   1.399
 8814SOL     OW27340   5.230   0.396   6.835
 8814SOL    HW127341   5.161   0.371   6.767
 8814SOL    HW227342   5.208   0.485   6.874
 8815SOL     OW27343   0.153   6.099   2.753
 8815SOL    HW127344   0.093   6.127   2.828
 8815SOL    HW227345   0.235   6.156   2.752
 8816SOL     OW27346   1.019   5.826   1.432
 8816SOL    HW127347   0.923   5.836   1.405
 8816SOL    HW227348   1.052   5.737   1.401
 8817SOL     OW27349   2.404   5.304   5.407
 8817SOL    HW127350   2.502   5.287   5.414
 8817SOL    HW227351   2.373   5.358   5.485
 8818SOL     OW27352   6.801   5.440   4.100
 8818SOL    HW127353   6.742   5.515   4.130
 8818SOL    HW227354   6.869   5.475   4.035
 8819SOL     OW27355   5.493   0.059   4.725
 8819SOL    HW127356   5.592   0.054   4.711
 8819SOL    HW227357   5.457   0.142   4.681
 8820SOL     OW27358   1.431   2.728   4.127
 8820SOL    HW127359   1.487   2.770   4.198
 8820SOL    HW227360   1.380   2.799   4.078
 8821SOL     OW27361   1.686   0.895   6.289
 8821SOL    HW127362   1.696   0.942   6.201
 8821SOL    HW227363   1.589   0.893   6.315
 8822SOL     OW27364   0.407   2.473   3.585
 8822SOL    HW127365   0.384   2.381   3.554
 8822SOL    HW227366   0.464   2.467   3.667
 8823SOL     OW27367   2.391   5.807   1.953
 8823SOL    HW127368   2.448   5.854   2.020
 8823SOL    HW227369   2.330   5.743   2.000
 8824SOL     OW27370   4.197   3.707   0.909
 8824SOL    HW127371   4.132   3.768   0.864
 8824SOL    HW227372   4.270   3.761   0.951
 8825SOL     OW27373   1.242   1.735   1.408
 8825SOL    HW127374   1.172   1.664   1.419
 8825SOL    HW227375   1.332   1.696   1.425
 8826SOL     OW27376   5.818   1.451   0.021
 8826SOL    HW127377   5.763   1.378   6.997
 8826SOL    HW227378   5.878   1.413   0.091
 8827SOL     OW27379   1.154   1.150   3.411
 8827SOL    HW127380   1.190   1.101   3.331
 8827SOL    HW227381   1.196   1.241   3.416
 8828SOL     OW27382   1.962   6.436   2.415
 8828SOL    HW127383   2.051   6.404   2.384
 8828SOL    HW227384   1.891   6.403   2.352
 8829SOL     OW27385   0.302   1.597   0.158
 8829SOL    HW127386   0.300   1.694   0.181
 8829SOL    HW227387   0.325   1.586   0.061
 8830SOL     OW27388   0.582   2.210   0.661
 8830SOL    HW127389   0.627   2.152   0.728
 8830SOL    HW227390   0.651   2.259   0.608
 8831SOL     OW27391   6.897   0.603   3.028
 8831SOL    HW127392   6.884   0.594   3.127
 8831SOL    HW227393   6.923   0.697   3.007
 8832SOL     OW27394   0.365   1.036   2.606
 8832SOL    HW127395   0.293   1.104   2.618
 8832SOL    HW227396   0.342   0.953   2.657
 8833SOL     OW27397   2.274   4.817   3.719
 8833SOL    HW127398   2.258   4.859   3.630
 8833SOL    HW227399   2.349   4.865   3.765
 8834SOL     OW27400   5.902   4.156   4.705
 8834SOL    HW127401   5.896   4.110   4.793
 8834SOL    HW227402   5.994   4.145   4.668
 8835SOL     OW27403   0.259   6.897   6.682
 8835SOL    HW127404   0.298   6.951   6.757
 8835SOL    HW227405   0.307   6.810   6.674
 8836SOL     OW27406   4.878   2.149   0.578
 8836SOL    HW127407   4.908   2.200   0.659
 8836SOL    HW227408   4.784   2.175   0.556
 8837SOL     OW27409   0.423   1.358   1.873
 8837SOL    HW127410   0.425   1.279   1.934
 8837SOL    HW227411   0.516   1.381   1.844
 8838SOL     OW27412   2.268   5.493   3.820
 8838SOL    HW127413   2.350   5.547   3.840
 8838SOL    HW227414   2.188   5.537   3.860
 8839SOL     OW27415   6.582   6.789   3.958
 8839SOL    HW127416   6.562   6.696   3.924
 8839SOL    HW227417   6.609   6.784   4.054
 8840SOL     OW27418   5.665   1.981   1.738
 8840SOL    HW127419   5.669   1.973   1.838
 8840SOL    HW227420   5.586   1.931   1.703
 8841SOL     OW27421   1.756   0.509   4.659
 8841SOL    HW127422   1.745   0.519   4.757
 8841SOL    HW227423   1.842   0.551   4.630
 8842SOL     OW27424   2.106   3.183   2.434
 8842SOL    HW127425   2.142   3.270   2.403
 8842SOL    HW227426   2.054   3.140   2.360
 8843SOL     OW27427   0.511   3.217   4.543
 8843SOL    HW127428   0.509   3.255   4.450
 8843SOL    HW227429   0.559   3.279   4.604
 8844SOL     OW27430   6.231   1.669   6.512
 8844SOL    HW127431   6.145   1.676   6.563
 8844SOL    HW227432   6.287   1.595   6.549
 8845SOL     OW27433   5.872   4.209   0.275
 8845SOL    HW127434   5.903   4.131   0.328
 8845SOL    HW227435   5.773   4.219   0.284
 8846SOL     OW27436   2.290   4.804   3.081
 8846SOL    HW127437   2.343   4.797   2.997
 8846SOL    HW227438   2.232   4.886   3.077
 8847SOL     OW27439   2.708   0.966   2.558
 8847SOL    HW127440   2.714   0.936   2.463
 8847SOL    HW227441   2.613   0.982   2.583
 8848SOL     OW27442   1.404   0.337   2.459
 8848SOL    HW127443   1.342   0.407   2.494
 8848SOL    HW227444   1.403   0.258   2.520
 8849SOL     OW27445   2.732   6.688   1.547
 8849SOL    HW127446   2.709   6.674   1.451
 8849SOL    HW227447   2.678   6.763   1.584
 8850SOL     OW27448   3.325   2.559   6.849
 8850SOL    HW127449   3.288   2.651   6.835
 8850SOL    HW227450   3.252   2.492   6.838
 8851SOL     OW27451   1.451   3.470   2.720
 8851SOL    HW127452   1.479   3.392   2.663
 8851SOL    HW227453   1.372   3.445   2.775
 8852SOL     OW27454   0.948   1.950   6.099
 8852SOL    HW127455   0.999   2.017   6.152
 8852SOL    HW227456   0.951   1.861   6.145
 8853SOL     OW27457   5.398   1.262   1.634
 8853SOL    HW127458   5.319   1.260   1.573
 8853SOL    HW227459   5.454   1.343   1.614
 8854SOL     OW27460   0.836   2.147   4.931
 8854SOL    HW127461   0.933   2.151   4.906
 8854SOL    HW227462   0.822   2.075   4.999
 8855SOL     OW27463   5.359   5.411   0.964
 8855SOL    HW127464   5.391   5.500   0.996
 8855SOL    HW227465   5.297   5.372   1.033
 8856SOL     OW27466   6.640   0.250   5.640
 8856SOL    HW127467   6.593   0.161   5.641
 8856SOL    HW227468   6.606   0.307   5.715
 8857SOL     OW27469   6.352   1.903   6.461
 8857SOL    HW127470   6.312   1.813   6.481
 8857SOL    HW227471   6.286   1.975   6.484
 8858SOL     OW27472   6.468   6.348   4.593
 8858SOL    HW127473   6.410   6.341   4.512
 8858SOL    HW227474   6.412   6.334   4.675
 8859SOL     OW27475   0.604   6.210   3.787
 8859SOL    HW127476   0.525   6.246   3.737
 8859SOL    HW227477   0.683   6.205   3.726
 8860SOL     OW27478   0.529   4.350   3.005
 8860SOL    HW127479   0.522   4.266   3.060
 8860SOL    HW227480   0.465   4.346   2.929
 8861SOL     OW27481   4.483   2.972   0.927
 8861SOL    HW127482   4.403   3.003   0.875
 8861SOL    HW227483   4.564   2.972   0.868
 8862SOL     OW27484   4.757   4.680   4.868
 8862SOL    HW127485   4.673   4.626   4.859
 8862SOL    HW227486   4.817   4.662   4.790
 8863SOL     OW27487   2.130   3.861   3.353
 8863SOL    HW127488   2.174   3.920   3.421
 8863SOL    HW227489   2.036   3.892   3.339
 8864SOL     OW27490   6.196   1.767   5.167
 8864SOL    HW127491   6.101   1.739   5.154
 8864SOL    HW227492   6.255   1.687   5.161
 8865SOL     OW27493   2.759   1.350   0.427
 8865SOL    HW127494   2.679   1.397   0.388
 8865SOL    HW227495   2.835   1.415   0.436
 8866SOL     OW27496   6.022   6.936   2.330
 8866SOL    HW127497   6.017   6.840   2.303
 8866SOL    HW227498   5.937   6.963   2.375
 8867SOL     OW27499   6.394   3.588   2.796
 8867SOL    HW127500   6.481   3.550   2.763
 8867SOL    HW227501   6.364   3.660   2.734
 8868SOL     OW27502   6.629   3.110   3.355
 8868SOL    HW127503   6.576   3.105   3.440
 8868SOL    HW227504   6.714   3.058   3.366
 8869SOL     OW27505   3.970   6.892   3.313
 8869SOL    HW127506   3.988   6.917   3.218
 8869SOL    HW227507   4.022   6.952   3.374
 8870SOL     OW27508   1.622   0.632   2.870
 8870SOL    HW127509   1.574   0.714   2.901
 8870SOL    HW227510   1.613   0.624   2.770
 8871SOL     OW27511   6.727   0.111   2.491
 8871SOL    HW127512   6.667   0.082   2.566
 8871SOL    HW227513   6.718   0.048   2.415
 8872SOL     OW27514   6.496   3.868   3.628
 8872SOL    HW127515   6.502   3.867   3.728
 8872SOL    HW227516   6.415   3.919   3.600
 8873SOL     OW27517   2.106   2.211   2.492
 8873SOL    HW127518   2.180   2.145   2.500
 8873SOL    HW227519   2.138   2.291   2.442
 8874SOL     OW27520   3.012   6.154   1.190
 8874SOL    HW127521   2.988   6.120   1.099
 8874SOL    HW227522   3.084   6.223   1.181
 8875SOL     OW27523   6.578   3.260   4.481
 8875SOL    HW127524   6.631   3.293   4.403
 8875SOL    HW227525   6.521   3.334   4.517
 8876SOL     OW27526   4.403   0.520   6.636
 8876SOL    HW127527   4.423   0.602   6.581
 8876SOL    HW227528   4.387   0.547   6.731
 8877SOL     OW27529   0.518   4.435   1.030
 8877SOL    HW127530   0.435   4.485   1.052
 8877SOL    HW227531   0.583   4.444   1.106
 8878SOL     OW27532   4.698   4.132   1.008
 8878SOL    HW127533   4.700   4.097   1.102
 8878SOL    HW227534   4.737   4.063   0.947
 8879SOL     OW27535   6.692   4.577   2.862
 8879SOL    HW127536   6.644   4.522   2.794
 8879SOL    HW227537   6.732   4.657   2.818
 8880SOL     OW27538   4.226   1.305   3.422
 8880SOL    HW127539   4.137   1.323   3.465
 8880SOL    HW227540   4.218   1.229   3.358
 8881SOL     OW27541   4.089   4.851   4.147
 8881SOL    HW127542   3.998   4.834   4.108
 8881SOL    HW227543   4.078   4.882   4.242
 8882SOL     OW27544   4.185   1.109   0.727
 8882SOL    HW127545   4.263   1.146   0.678
 8882SOL    HW227546   4.141   1.182   0.780
 8883SOL     OW27547   0.058   6.593   4.632
 8883SOL    HW127548   0.063   6.577   4.730
 8883SOL    HW227549   0.100   6.682   4.611
 8884SOL     OW27550   4.801   3.466   5.493
 8884SOL    HW127551   4.751   3.518   5.562
 8884SOL    HW227552   4.737   3.408   5.442
 8885SOL     OW27553   5.873   5.966   1.100
 8885SOL    HW127554   5.957   5.925   1.063
 8885SOL    HW227555   5.895   6.050   1.150
 8886SOL     OW27556   4.007   5.993   6.426
 8886SOL    HW127557   4.040   5.978   6.333
 8886SOL    HW227558   4.084   5.994   6.490
 8887SOL     OW27559   4.570   0.093   1.700
 8887SOL    HW127560   4.524   0.152   1.767
 8887SOL    HW227561   4.649   0.050   1.743
 8888SOL     OW27562   3.248   2.133   2.590
 8888SOL    HW127563   3.207   2.077   2.662
 8888SOL    HW227564   3.348   2.128   2.596
 8889SOL     OW27565   1.431   5.306   6.231
 8889SOL    HW127566   1.481   5.314   6.317
 8889SOL    HW227567   1.361   5.236   6.240
 8890SOL     OW27568   0.723   6.315   0.322
 8890SOL    HW127569   0.814   6.353   0.310
 8890SOL    HW227570   0.725   6.243   0.391
 8891SOL     OW27571   6.487   3.847   5.789
 8891SOL    HW127572   6.462   3.944   5.791
 8891SOL    HW227573   6.422   3.794   5.844
 8892SOL     OW27574   3.043   5.208   4.581
 8892SOL    HW127575   2.963   5.250   4.539
 8892SOL    HW227576   3.039   5.109   4.570
 8893SOL     OW27577   1.070   5.171   5.104
 8893SOL    HW127578   1.091   5.224   5.186
 8893SOL    HW227579   1.155   5.156   5.053
 8894SOL     OW27580   4.793   1.807   1.045
 8894SOL    HW127581   4.834   1.721   1.077
 8894SOL    HW227582   4.730   1.787   0.970
 8895SOL     OW27583   6.523   3.470   0.487
 8895SOL    HW127584   6.589   3.524   0.539
 8895SOL    HW227585   6.498   3.519   0.403
 8896SOL     OW27586   0.644   2.118   4.024
 8896SOL    HW127587   0.613   2.055   4.096
 8896SOL    HW227588   0.567   2.144   3.967
 8897SOL     OW27589   1.658   4.917   4.216
 8897SOL    HW127590   1.682   4.833   4.264
 8897SOL    HW227591   1.741   4.969   4.194
 8898SOL     OW27592   4.711   4.149   2.405
 8898SOL    HW127593   4.771   4.073   2.428
 8898SOL    HW227594   4.616   4.123   2.424
 8899SOL     OW27595   1.440   3.572   3.527
 8899SOL    HW127596   1.441   3.671   3.517
 8899SOL    HW227597   1.391   3.547   3.610
 8900SOL     OW27598   4.929   2.217   4.241
 8900SOL    HW127599   4.994   2.196   4.168
 8900SOL    HW227600   4.863   2.285   4.210
 8901SOL     OW27601   1.420   4.168   4.526
 8901SOL    HW127602   1.353   4.159   4.452
 8901SOL    HW227603   1.373   4.187   4.612
 8902SOL     OW27604   0.538   4.248   0.447
 8902SOL    HW127605   0.444   4.225   0.421
 8902SOL    HW227606   0.574   4.179   0.510
 8903SOL     OW27607   0.794   0.055   5.010
 8903SOL    HW127608   0.843   7.014   5.075
 8903SOL    HW227609   0.840   0.052   4.921
 8904SOL     OW27610   0.149   1.119   3.581
 8904SOL    HW127611   0.158   1.105   3.483
 8904SOL    HW227612   0.183   1.210   3.606
 8905SOL     OW27613   1.145   3.667   2.740
 8905SOL    HW127614   1.181   3.755   2.709
 8905SOL    HW227615   1.157   3.659   2.839
 8906SOL     OW27616   5.776   0.027   6.984
 8906SOL    HW127617   5.862   6.997   6.965
 8906SOL    HW227618   5.783   0.077   0.053
 8907SOL     OW27619   2.812   3.566   5.217
 8907SOL    HW127620   2.724   3.554   5.262
 8907SOL    HW227621   2.845   3.478   5.183
 8908SOL     OW27622   1.523   4.399   0.021
 8908SOL    HW127623   1.447   4.461   0.001
 8908SOL    HW227624   1.598   4.451   0.062
 8909SOL     OW27625   1.661   6.555   1.663
 8909SOL    HW127626   1.682   6.644   1.704
 8909SOL    HW227627   1.586   6.566   1.597
 8910SOL     OW27628   1.917   0.351   3.643
 8910SOL    HW127629   1.998   0.356   3.701
 8910SOL    HW227630   1.903   0.256   3.613
 8911SOL     OW27631   4.189   2.205   4.856
 8911SOL    HW127632   4.179   2.256   4.942
 8911SOL    HW227633   4.101   2.196   4.811
 8912SOL     OW27634   3.834   3.555   3.829
 8912SOL    HW127635   3.892   3.498   3.771
 8912SOL    HW227636   3.794   3.499   3.902
 8913SOL     OW27637   5.146   6.383   7.009
 8913SOL    HW127638   5.084   6.312   0.027
 8913SOL    HW227639   5.240   6.350   7.012
 8914SOL     OW27640   4.861   5.094   6.637
 8914SOL    HW127641   4.865   5.079   6.538
 8914SOL    HW227642   4.902   5.015   6.684
 8915SOL     OW27643   1.505   0.932   3.279
 8915SOL    HW127644   1.501   0.963   3.374
 8915SOL    HW227645   1.456   0.997   3.220
 8916SOL     OW27646   5.009   1.226   0.996
 8916SOL    HW127647   5.101   1.212   1.033
 8916SOL    HW227648   5.015   1.276   0.910
 8917SOL     OW27649   5.746   2.108   0.511
 8917SOL    HW127650   5.779   2.057   0.590
 8917SOL    HW227651   5.730   2.203   0.538
 8918SOL     OW27652   0.580   3.816   2.891
 8918SOL    HW127653   0.602   3.811   2.988
 8918SOL    HW227654   0.614   3.734   2.845
 8919SOL     OW27655   6.515   3.450   1.619
 8919SOL    HW127656   6.561   3.539   1.623
 8919SOL    HW227657   6.563   3.392   1.553
 8920SOL     OW27658   6.653   1.179   6.979
 8920SOL    HW127659   6.733   1.184   6.919
 8920SOL    HW227660   6.675   1.127   0.044
 8921SOL     OW27661   2.176   3.295   2.726
 8921SOL    HW127662   2.221   3.222   2.675
 8921SOL    HW227663   2.166   3.268   2.821
 8922SOL     OW27664   4.182   5.626   4.272
 8922SOL    HW127665   4.105   5.591   4.219
 8922SOL    HW227666   4.213   5.555   4.336
 8923SOL     OW27667   2.032   1.526   4.208
 8923SOL    HW127668   2.072   1.614   4.182
 8923SOL    HW227669   2.002   1.530   4.303
 8924SOL     OW27670   6.407   5.220   5.493
 8924SOL    HW127671   6.456   5.133   5.504
 8924SOL    HW227672   6.325   5.206   5.438
 8925SOL     OW27673   0.906   6.264   2.610
 8925SOL    HW127674   0.898   6.312   2.523
 8925SOL    HW227675   0.967   6.186   2.599
 8926SOL     OW27676   5.726   1.586   6.039
 8926SOL    HW127677   5.691   1.508   6.090
 8926SOL    HW227678   5.706   1.574   5.942
 8927SOL     OW27679   1.398   1.137   5.835
 8927SOL    HW127680   1.459   1.155   5.758
 8927SOL    HW227681   1.315   1.092   5.802
 8928SOL     OW27682   0.719   6.463   5.335
 8928SOL    HW127683   0.694   6.489   5.428
 8928SOL    HW227684   0.696   6.367   5.319
 8929SOL     OW27685   0.328   1.898   3.803
 8929SOL    HW127686   0.274   1.814   3.795
 8929SOL    HW227687   0.386   1.908   3.722
 8930SOL     OW27688   2.367   4.698   3.313
 8930SOL    HW127689   2.357   4.708   3.214
 8930SOL    HW227690   2.288   4.739   3.359
 8931SOL     OW27691   4.245   2.911   0.308
 8931SOL    HW127692   4.302   2.961   0.374
 8931SOL    HW227693   4.297   2.834   0.272
 8932SOL     OW27694   0.527   3.552   3.448
 8932SOL    HW127695   0.479   3.598   3.523
 8932SOL    HW227696   0.461   3.529   3.376
 8933SOL     OW27697   3.794   2.154   5.230
 8933SOL    HW127698   3.761   2.060   5.217
 8933SOL    HW227699   3.893   2.156   5.223
 8934SOL     OW27700   2.933   5.936   2.849
 8934SOL    HW127701   2.837   5.963   2.851
 8934SOL    HW227702   2.944   5.859   2.786
 8935SOL     OW27703   0.167   4.560   0.994
 8935SOL    HW127704   0.239   4.587   0.929
 8935SOL    HW227705   0.160   4.461   0.997
 8936SOL     OW27706   3.209   2.708   1.016
 8936SOL    HW127707   3.286   2.770   1.029
 8936SOL    HW227708   3.222   2.655   0.932
 8937SOL     OW27709   0.453   6.304   6.169
 8937SOL    HW127710   0.429   6.302   6.266
 8937SOL    HW227711   0.409   6.227   6.122
 8938SOL     OW27712   5.256   6.047   1.797
 8938SOL    HW127713   5.201   5.964   1.810
 8938SOL    HW227714   5.259   6.070   1.700
 8939SOL     OW27715   4.348   2.009   4.924
 8939SOL    HW127716   4.419   2.047   4.984
 8939SOL    HW227717   4.280   2.079   4.904
 8940SOL     OW27718   5.871   0.755   2.585
 8940SOL    HW127719   5.808   0.678   2.577
 8940SOL    HW227720   5.820   0.840   2.596
 8941SOL     OW27721   5.008   1.805   5.930
 8941SOL    HW127722   5.024   1.812   5.832
 8941SOL    HW227723   5.093   1.826   5.979
 8942SOL     OW27724   0.846   3.127   5.386
 8942SOL    HW127725   0.790   3.045   5.371
 8942SOL    HW227726   0.920   3.106   5.450
 8943SOL     OW27727   5.375   3.701   1.038
 8943SOL    HW127728   5.452   3.637   1.032
 8943SOL    HW227729   5.365   3.732   1.132
 8944SOL     OW27730   4.542   5.575   0.696
 8944SOL    HW127731   4.554   5.481   0.728
 8944SOL    HW227732   4.501   5.630   0.769
 8945SOL     OW27733   2.128   0.924   4.364
 8945SOL    HW127734   2.083   0.847   4.320
 8945SOL    HW227735   2.072   1.006   4.355
 8946SOL     OW27736   3.805   1.551   4.301
 8946SOL    HW127737   3.726   1.525   4.356
 8946SOL    HW227738   3.776   1.573   4.208
 8947SOL     OW27739   3.942   3.844   5.098
 8947SOL    HW127740   3.973   3.864   5.005
 8947SOL    HW227741   4.019   3.857   5.161
 8948SOL     OW27742   6.578   5.177   2.860
 8948SOL    HW127743   6.614   5.216   2.945
 8948SOL    HW227744   6.610   5.231   2.782
 8949SOL     OW27745   2.257   5.890   0.474
 8949SOL    HW127746   2.268   5.947   0.392
 8949SOL    HW227747   2.214   5.945   0.546
 8950SOL     OW27748   4.542   2.548   4.710
 8950SOL    HW127749   4.462   2.487   4.709
 8950SOL    HW227750   4.625   2.493   4.719
 8951SOL     OW27751   2.522   2.349   5.706
 8951SOL    HW127752   2.618   2.364   5.728
 8951SOL    HW227753   2.465   2.383   5.780
 8952SOL     OW27754   6.743   0.377   3.159
 8952SOL    HW127755   6.672   0.399   3.092
 8952SOL    HW227756   6.823   0.339   3.113
 8953SOL     OW27757   1.846   3.928   6.533
 8953SOL    HW127758   1.884   3.987   6.462
 8953SOL    HW227759   1.913   3.916   6.607
 8954SOL     OW27760   1.755   6.036   5.817
 8954SOL    HW127761   1.665   6.024   5.776
 8954SOL    HW227762   1.826   6.023   5.747
 8955SOL     OW27763   5.877   3.680   3.222
 8955SOL    HW127764   5.970   3.703   3.250
 8955SOL    HW227765   5.871   3.582   3.202
 8956SOL     OW27766   1.181   1.121   5.670
 8956SOL    HW127767   1.104   1.097   5.729
 8956SOL    HW227768   1.220   1.038   5.631
 8957SOL     OW27769   2.753   4.864   2.040
 8957SOL    HW127770   2.754   4.765   2.034
 8957SOL    HW227771   2.669   4.895   2.084
 8958SOL     OW27772   2.188   0.140   4.149
 8958SOL    HW127773   2.222   0.058   4.103
 8958SOL    HW227774   2.226   0.221   4.103
 8959SOL     OW27775   2.239   4.304   1.195
 8959SOL    HW127776   2.266   4.382   1.252
 8959SOL    HW227777   2.145   4.317   1.164
 8960SOL     OW27778   3.727   5.938   1.376
 8960SOL    HW127779   3.781   5.895   1.304
 8960SOL    HW227780   3.656   5.874   1.407
 8961SOL     OW27781   1.506   2.101   3.781
 8961SOL    HW127782   1.415   2.141   3.787
 8961SOL    HW227783   1.568   2.166   3.737
 8962SOL     OW27784   5.042   6.932   3.989
 8962SOL    HW127785   5.103   6.976   3.923
 8962SOL    HW227786   4.987   7.001   4.035
 8963SOL     OW27787   0.167   0.914   4.016
 8963SOL    HW127788   0.161   0.877   4.108
 8963SOL    HW227789   0.094   0.981   4.001
 8964SOL     OW27790   6.017   4.937   2.826
 8964SOL    HW127791   5.971   5.025   2.833
 8964SOL    HW227792   6.087   4.941   2.755
 8965SOL     OW27793   0.880   5.225   1.194
 8965SOL    HW127794   0.896   5.319   1.164
 8965SOL    HW227795   0.962   5.190   1.241
 8966SOL     OW27796   2.744   2.708   5.405
 8966SOL    HW127797   2.690   2.791   5.386
 8966SOL    HW227798   2.841   2.728   5.392
 8967SOL     OW27799   4.130   0.481   0.379
 8967SOL    HW127800   4.142   0.578   0.397
 8967SOL    HW227801   4.207   0.447   0.325
 8968SOL     OW27802   5.545   5.152   2.470
 8968SOL    HW127803   5.469   5.121   2.527
 8968SOL    HW227804   5.531   5.120   2.376
 8969SOL     OW27805   6.143   0.811   4.431
 8969SOL    HW127806   6.137   0.713   4.415
 8969SOL    HW227807   6.082   0.859   4.368
 8970SOL     OW27808   3.696   2.337   1.477
 8970SOL    HW127809   3.644   2.255   1.450
 8970SOL    HW227810   3.650   2.381   1.554
 8971SOL     OW27811   4.049   5.632   2.552
 8971SOL    HW127812   4.109   5.705   2.520
 8971SOL    HW227813   4.102   5.565   2.605
 8972SOL     OW27814   5.855   0.668   4.538
 8972SOL    HW127815   5.897   0.630   4.620
 8972SOL    HW227816   5.910   0.645   4.457
 8973SOL     OW27817   1.243   5.192   0.060
 8973SOL    HW127818   1.220   5.194   0.157
 8973SOL    HW227819   1.328   5.141   0.046
 8974SOL     OW27820   0.225   3.236   4.315
 8974SOL    HW127821   0.270   3.325   4.304
 8974SOL    HW227822   0.274   3.168   4.260
 8975SOL     OW27823   2.422   6.717   0.662
 8975SOL    HW127824   2.367   6.732   0.580
 8975SOL    HW227825   2.380   6.765   0.739
 8976SOL     OW27826   0.124   5.481   4.661
 8976SOL    HW127827   0.032   5.504   4.692
 8976SOL    HW227828   0.134   5.506   4.565
 8977SOL     OW27829   5.981   1.521   6.042
 8977SOL    HW127830   6.011   1.572   6.122
 8977SOL    HW227831   5.888   1.550   6.017
 8978SOL     OW27832   5.589   6.340   0.845
 8978SOL    HW127833   5.556   6.262   0.792
 8978SOL    HW227834   5.681   6.322   0.879
 8979SOL     OW27835   1.924   5.022   4.478
 8979SOL    HW127836   2.007   5.031   4.423
 8979SOL    HW227837   1.868   4.947   4.442
 8980SOL     OW27838   3.569   3.017   4.145
 8980SOL    HW127839   3.530   3.097   4.190
 8980SOL    HW227840   3.514   2.995   4.064
 8981SOL     OW27841   3.171   1.588   5.586
 8981SOL    HW127842   3.151   1.527   5.663
 8981SOL    HW227843   3.090   1.641   5.563
 8982SOL     OW27844   3.315   4.762   1.106
 8982SOL    HW127845   3.413   4.778   1.105
 8982SOL    HW227846   3.297   4.664   1.109
 8983SOL     OW27847   5.007   5.058   0.442
 8983SOL    HW127848   5.027   5.105   0.356
 8983SOL    HW227849   5.004   5.124   0.517
 8984SOL     OW27850   2.188   5.341   3.164
 8984SOL    HW127851   2.235   5.428   3.181
 8984SOL    HW227852   2.098   5.359   3.125
 8985SOL     OW27853   3.425   3.124   6.353
 8985SOL    HW127854   3.513   3.105   6.308
 8985SOL    HW227855   3.357   3.057   6.322
 8986SOL     OW27856   3.492   6.000   2.695
 8986SOL    HW127857   3.430   5.996   2.617
 8986SOL    HW227858   3.573   6.053   2.670
 8987SOL     OW27859   5.304   6.145   2.070
 8987SOL    HW127860   5.335   6.173   1.979
 8987SOL    HW227861   5.307   6.046   2.078
 8988SOL     OW27862   0.386   5.441   4.681
 8988SOL    HW127863   0.432   5.353   4.672
 8988SOL    HW227864   0.287   5.427   4.671
 8989SOL     OW27865   3.599   3.053   6.597
 8989SOL    HW127866   3.526   3.010   6.543
 8989SOL    HW227867   3.688   3.027   6.558
 8990SOL     OW27868   0.371   6.017   4.350
 8990SOL    HW127869   0.344   6.047   4.258
 8990SOL    HW227870   0.470   6.003   4.353
 8991SOL     OW27871   0.890   2.250   5.254
 8991SOL    HW127872   0.790   2.247   5.258
 8991SOL    HW227873   0.927   2.259   5.346
 8992SOL     OW27874   6.103   2.304   6.895
 8992SOL    HW127875   6.177   2.279   6.832
 8992SOL    HW227876   6.100   2.238   6.971
 8993SOL     OW27877   4.685   2.423   0.176
 8993SOL    HW127878   4.692   2.518   0.145
 8993SOL    HW227879   4.598   2.384   0.146
 8994SOL     OW27880   1.906   5.425   3.995
 8994SOL    HW127881   1.932   5.396   4.087
 8994SOL    HW227882   1.963   5.377   3.928
 8995SOL     OW27883   6.798   1.448   0.662
 8995SOL    HW127884   6.841   1.376   0.607
 8995SOL    HW227885   6.846   1.458   0.749
 8996SOL     OW27886   4.730   4.976   5.985
 8996SOL    HW127887   4.744   4.889   6.032
 8996SOL    HW227888   4.818   5.012   5.955
 8997SOL     OW27889   5.702   0.627   4.888
 8997SOL    HW127890   5.638   0.553   4.867
 8997SOL    HW227891   5.795   0.599   4.863
 8998SOL     OW27892   6.232   3.361   4.384
 8998SOL    HW127893   6.279   3.415   4.454
 8998SOL    HW227894   6.163   3.303   4.428
 8999SOL     OW27895   4.133   6.846   6.303
 8999SOL    HW127896   4.230   6.828   6.318
 8999SOL    HW227897   4.119   6.883   6.211
 9000SOL     OW27898   1.473   3.889   1.605
 9000SOL    HW127899   1.380   3.926   1.603
 9000SOL    HW227900   1.481   3.821   1.678
 9001SOL     OW27901   1.134   5.452   2.459
 9001SOL    HW127902   1.138   5.399   2.545
 9001SOL    HW227903   1.176   5.541   2.473
 9002SOL     OW27904   0.914   4.328   0.287
 9002SOL    HW127905   0.978   4.271   0.340
 9002SOL    HW227906   0.940   4.325   0.191
 9003SOL     OW27907   5.543   0.937   1.311
 9003SOL    HW127908   5.460   0.957   1.259
 9003SOL    HW227909   5.619   0.992   1.276
 9004SOL     OW27910   4.067   4.997   0.596
 9004SOL    HW127911   4.133   4.934   0.638
 9004SOL    HW227912   4.003   4.944   0.539
 9005SOL     OW27913   5.274   1.491   5.012
 9005SOL    HW127914   5.341   1.460   4.944
 9005SOL    HW227915   5.198   1.535   4.964
 9006SOL     OW27916   3.414   5.945   0.295
 9006SOL    HW127917   3.426   5.847   0.282
 9006SOL    HW227918   3.386   5.964   0.389
 9007SOL     OW27919   2.950   1.063   2.808
 9007SOL    HW127920   2.997   1.142   2.768
 9007SOL    HW227921   2.893   1.019   2.738
 9008SOL     OW27922   0.150   5.429   3.009
 9008SOL    HW127923   0.228   5.446   2.947
 9008SOL    HW227924   0.139   5.507   3.070
 9009SOL     OW27925   4.135   5.703   0.962
 9009SOL    HW127926   4.066   5.701   0.889
 9009SOL    HW227927   4.091   5.731   1.048
 9010SOL     OW27928   1.659   6.117   4.142
 9010SOL    HW127929   1.645   6.144   4.237
 9010SOL    HW227930   1.705   6.190   4.093
 9011SOL     OW27931   2.941   1.584   2.245
 9011SOL    HW127932   2.910   1.675   2.217
 9011SOL    HW227933   2.915   1.568   2.340
 9012SOL     OW27934   1.475   6.124   6.447
 9012SOL    HW127935   1.482   6.138   6.348
 9012SOL    HW227936   1.426   6.201   6.487
 9013SOL     OW27937   1.511   6.272   3.760
 9013SOL    HW127938   1.539   6.361   3.798
 9013SOL    HW227939   1.590   6.226   3.721
 9014SOL     OW27940   5.460   2.830   3.183
 9014SOL    HW127941   5.445   2.907   3.245
 9014SOL    HW227942   5.400   2.754   3.208
 9015SOL     OW27943   5.367   1.594   6.896
 9015SOL    HW127944   5.431   1.541   6.952
 9015SOL    HW227945   5.331   1.537   6.823
 9016SOL     OW27946   5.979   5.508   6.360
 9016SOL    HW127947   5.996   5.531   6.264
 9016SOL    HW227948   6.045   5.558   6.418
 9017SOL     OW27949   4.035   0.710   4.393
 9017SOL    HW127950   3.963   0.775   4.417
 9017SOL    HW227951   4.056   0.652   4.471
 9018SOL     OW27952   4.184   3.963   6.203
 9018SOL    HW127953   4.225   4.000   6.120
 9018SOL    HW227954   4.178   4.034   6.272
 9019SOL     OW27955   0.414   3.609   3.722
 9019SOL    HW127956   0.322   3.593   3.758
 9019SOL    HW227957   0.480   3.555   3.774
 9020SOL     OW27958   5.920   6.656   2.276
 9020SOL    HW127959   5.835   6.708   2.289
 9020SOL    HW227960   5.920   6.614   2.186
 9021SOL     OW27961   0.345   0.467   4.224
 9021SOL    HW127962   0.320   0.462   4.128
 9021SOL    HW227963   0.288   0.535   4.270
 9022SOL     OW27964   4.347   2.840   6.128
 9022SOL    HW127965   4.282   2.853   6.053
 9022SOL    HW227966   4.303   2.861   6.215
 9023SOL     OW27967   5.467   4.119   0.776
 9023SOL    HW127968   5.527   4.049   0.814
 9023SOL    HW227969   5.391   4.075   0.728
 9024SOL     OW27970   1.597   5.092   6.133
 9024SOL    HW127971   1.547   5.006   6.124
 9024SOL    HW227972   1.535   5.163   6.163
 9025SOL     OW27973   0.756   5.726   0.972
 9025SOL    HW127974   0.664   5.761   0.953
 9025SOL    HW227975   0.749   5.649   1.036
 9026SOL     OW27976   4.268   1.611   0.131
 9026SOL    HW127977   4.315   1.648   0.210
 9026SOL    HW227978   4.329   1.551   0.080
 9027SOL     OW27979   0.396   4.170   3.376
 9027SOL    HW127980   0.362   4.158   3.469
 9027SOL    HW227981   0.342   4.113   3.314
 9028SOL     OW27982   3.645   4.434   5.662
 9028SOL    HW127983   3.578   4.459   5.732
 9028SOL    HW227984   3.730   4.404   5.705
 9029SOL     OW27985   4.058   6.411   4.845
 9029SOL    HW127986   4.123   6.456   4.905
 9029SOL    HW227987   3.977   6.384   4.898
 9030SOL     OW27988   2.460   1.889   2.860
 9030SOL    HW127989   2.413   1.948   2.926
 9030SOL    HW227990   2.393   1.848   2.798
 9031SOL     OW27991   4.366   6.850   4.721
 9031SOL    HW127992   4.428   6.925   4.743
 9031SOL    HW227993   4.326   6.866   4.631
 9032SOL     OW27994   4.745   3.973   1.792
 9032SOL    HW127995   4.799   3.901   1.836
 9032SOL    HW227996   4.697   4.026   1.863
 9033SOL     OW27997   0.704   6.259   3.209
 9033SOL    HW127998   0.682   6.286   3.115
 9033SOL    HW227999   0.709   6.340   3.267
 9034SOL     OW28000   3.971   6.189   3.960
 9034SOL    HW128001   4.014   6.109   4.003
 9034SOL    HW228002   3.928   6.245   4.030
 9035SOL     OW28003   1.363   4.652   6.768
 9035SOL    HW128004   1.341   4.708   6.688
 9035SOL    HW228005   1.281   4.603   6.798
 9036SOL     OW28006   1.483   3.834   5.216
 9036SOL    HW128007   1.384   3.827   5.213
 9036SOL    HW228008   1.523   3.743   5.203
 9037SOL     OW28009   1.041   2.057   2.602
 9037SOL    HW128010   0.978   2.096   2.670
 9037SOL    HW228011   1.053   2.122   2.527
 9038SOL     OW28012   4.149   3.810   5.318
 9038SOL    HW128013   4.187   3.723   5.287
 9038SOL    HW228014   4.223   3.876   5.328
 9039SOL     OW28015   4.141   5.608   6.537
 9039SOL    HW128016   4.195   5.630   6.619
 9039SOL    HW228017   4.153   5.512   6.514
 9040SOL     OW28018   2.629   1.668   1.141
 9040SOL    HW128019   2.582   1.585   1.173
 9040SOL    HW228020   2.648   1.727   1.219
 9041SOL     OW28021   6.916   2.302   1.675
 9041SOL    HW128022   6.844   2.241   1.643
 9041SOL    HW228023   6.991   2.247   1.714
 9042SOL     OW28024   3.460   5.912   6.888
 9042SOL    HW128025   3.382   5.964   6.924
 9042SOL    HW228026   3.497   5.959   6.808
 9043SOL     OW28027   3.061   2.097   0.057
 9043SOL    HW128028   3.048   2.016   0.000
 9043SOL    HW228029   2.998   2.094   0.135
 9044SOL     OW28030   0.608   0.841   0.071
 9044SOL    HW128031   0.680   0.911   0.073
 9044SOL    HW228032   0.536   0.866   0.136
 9045SOL     OW28033   3.922   1.619   3.800
 9045SOL    HW128034   3.826   1.602   3.775
 9045SOL    HW228035   3.978   1.621   3.718
 9046SOL     OW28036   3.372   3.853   2.533
 9046SOL    HW128037   3.342   3.765   2.496
 9046SOL    HW228038   3.351   3.857   2.630
 9047SOL     OW28039   1.378   3.563   5.804
 9047SOL    HW128040   1.464   3.604   5.835
 9047SOL    HW228041   1.312   3.635   5.785
 9048SOL     OW28042   6.403   2.131   6.224
 9048SOL    HW128043   6.472   2.061   6.241
 9048SOL    HW228044   6.314   2.086   6.211
 9049SOL     OW28045   3.252   6.666   6.479
 9049SOL    HW128046   3.304   6.586   6.448
 9049SOL    HW228047   3.313   6.745   6.484
 9050SOL     OW28048   0.461   5.147   0.343
 9050SOL    HW128049   0.477   5.092   0.425
 9050SOL    HW228050   0.514   5.110   0.267
 9051SOL     OW28051   2.695   1.201   1.042
 9051SOL    HW128052   2.621   1.263   1.017
 9051SOL    HW228053   2.716   1.212   1.139
 9052SOL     OW28054   1.585   2.528   5.456
 9052SOL    HW128055   1.490   2.502   5.437
 9052SOL    HW228056   1.588   2.625   5.483
 9053SOL     OW28057   1.947   0.855   0.364
 9053SOL    HW128058   2.003   0.933   0.336
 9053SOL    HW228059   1.858   0.887   0.396
 9054SOL     OW28060   2.427   5.721   3.050
 9054SOL    HW128061   2.433   5.696   3.147
 9054SOL    HW228062   2.394   5.816   3.042
 9055SOL     OW28063   0.152   3.979   4.454
 9055SOL    HW128064   0.077   4.037   4.424
 9055SOL    HW228065   0.147   3.890   4.407
 9056SOL     OW28066   6.205   2.553   2.972
 9056SOL    HW128067   6.174   2.624   3.035
 9056SOL    HW228068   6.151   2.557   2.888
 9057SOL     OW28069   3.821   1.906   4.275
 9057SOL    HW128070   3.773   1.818   4.277
 9057SOL    HW228071   3.912   1.896   4.315
 9058SOL     OW28072   1.915   0.847   5.621
 9058SOL    HW128073   1.823   0.847   5.584
 9058SOL    HW228074   1.958   0.936   5.604
 9059SOL     OW28075   1.170   1.945   3.146
 9059SOL    HW128076   1.234   1.994   3.086
 9059SOL    HW228077   1.139   2.005   3.219
 9060SOL     OW28078   5.441   2.607   5.533
 9060SOL    HW128079   5.377   2.531   5.523
 9060SOL    HW228080   5.394   2.685   5.574
 9061SOL     OW28081   3.578   6.000   3.279
 9061SOL    HW128082   3.536   6.044   3.199
 9061SOL    HW228083   3.556   5.902   3.277
 9062SOL     OW28084   1.853   5.394   1.125
 9062SOL    HW128085   1.948   5.415   1.146
 9062SOL    HW228086   1.793   5.461   1.169
 9063SOL     OW28087   3.032   1.323   2.257
 9063SOL    HW128088   2.988   1.411   2.271
 9063SOL    HW228089   2.966   1.250   2.274
 9064SOL     OW28090   5.629   3.613   0.239
 9064SOL    HW128091   5.722   3.606   0.201
 9064SOL    HW228092   5.577   3.680   0.187
 9065SOL     OW28093   2.571   1.351   6.983
 9065SOL    HW128094   2.539   1.286   0.036
 9065SOL    HW228095   2.561   1.444   0.000
 9066SOL     OW28096   4.940   6.893   0.298
 9066SOL    HW128097   5.004   6.970   0.305
 9066SOL    HW228098   4.847   6.927   0.310
 9067SOL     OW28099   1.285   6.562   2.707
 9067SOL    HW128100   1.203   6.522   2.748
 9067SOL    HW228101   1.356   6.571   2.777
 9068SOL     OW28102   1.492   6.074   6.947
 9068SOL    HW128103   1.497   6.064   6.847
 9068SOL    HW228104   1.584   6.075   6.985
 9069SOL     OW28105   1.498   2.245   6.478
 9069SOL    HW128106   1.402   2.257   6.503
 9069SOL    HW228107   1.541   2.334   6.464
 9070SOL     OW28108   1.357   4.099   3.416
 9070SOL    HW128109   1.265   4.103   3.456
 9070SOL    HW228110   1.421   4.147   3.477
 9071SOL     OW28111   4.684   6.513   0.315
 9071SOL    HW128112   4.741   6.576   0.368
 9071SOL    HW228113   4.698   6.419   0.348
 9072SOL     OW28114   5.329   5.526   6.831
 9072SOL    HW128115   5.246   5.582   6.838
 9072SOL    HW228116   5.315   5.439   6.877
 9073SOL     OW28117   2.021   0.522   1.809
 9073SOL    HW128118   2.071   0.532   1.723
 9073SOL    HW228119   1.923   0.512   1.789
 9074SOL     OW28120   1.073   7.007   3.300
 9074SOL    HW128121   1.040   0.061   3.362
 9074SOL    HW228122   1.171   0.003   3.284
 9075SOL     OW28123   0.952   0.839   2.692
 9075SOL    HW128124   1.027   0.821   2.627
 9075SOL    HW228125   0.871   0.788   2.664
 9076SOL     OW28126   6.574   1.561   5.292
 9076SOL    HW128127   6.627   1.630   5.243
 9076SOL    HW228128   6.597   1.562   5.389
 9077SOL     OW28129   6.036   6.611   1.955
 9077SOL    HW128130   6.031   6.524   2.004
 9077SOL    HW228131   6.025   6.594   1.857
 9078SOL     OW28132   3.222   2.936   4.848
 9078SOL    HW128133   3.319   2.940   4.826
 9078SOL    HW228134   3.192   2.841   4.853
 9079SOL     OW28135   3.726   0.731   5.963
 9079SOL    HW128136   3.743   0.735   5.864
 9079SOL    HW228137   3.786   0.663   6.004
 9080SOL     OW28138   5.093   1.585   0.838
 9080SOL    HW128139   5.014   1.592   0.777
 9080SOL    HW228140   5.138   1.673   0.844
 9081SOL     OW28141   5.480   0.212   2.077
 9081SOL    HW128142   5.575   0.186   2.096
 9081SOL    HW228143   5.471   0.239   1.981
 9082SOL     OW28144   3.238   0.865   3.321
 9082SOL    HW128145   3.273   0.953   3.353
 9082SOL    HW228146   3.306   0.822   3.261
 9083SOL     OW28147   4.536   4.832   4.673
 9083SOL    HW128148   4.459   4.802   4.730
 9083SOL    HW228149   4.577   4.752   4.629
 9084SOL     OW28150   3.550   3.471   3.051
 9084SOL    HW128151   3.598   3.498   2.967
 9084SOL    HW228152   3.493   3.546   3.082
 9085SOL     OW28153   1.471   1.909   0.855
 9085SOL    HW128154   1.455   1.941   0.948
 9085SOL    HW228155   1.552   1.956   0.817
 9086SOL     OW28156   0.401   3.906   0.451
 9086SOL    HW128157   0.306   3.927   0.429
 9086SOL    HW228158   0.431   3.826   0.399
 9087SOL     OW28159   4.852   3.738   1.935
 9087SOL    HW128160   4.891   3.734   2.027
 9087SOL    HW228161   4.834   3.645   1.903
 9088SOL     OW28162   5.289   6.620   0.801
 9088SOL    HW128163   5.201   6.655   0.833
 9088SOL    HW228164   5.275   6.564   0.719
 9089SOL     OW28165   4.331   0.098   6.107
 9089SOL    HW128166   4.367   0.005   6.095
 9089SOL    HW228167   4.381   0.161   6.047
 9090SOL     OW28168   5.772   1.375   3.657
 9090SOL    HW128169   5.806   1.281   3.656
 9090SOL    HW228170   5.756   1.404   3.751
 9091SOL     OW28171   2.965   2.661   6.670
 9091SOL    HW128172   2.885   2.670   6.611
 9091SOL    HW228173   2.950   2.713   6.754
 9092SOL     OW28174   0.095   2.876   6.222
 9092SOL    HW128175   0.080   2.779   6.204
 9092SOL    HW228176   0.157   2.887   6.299
 9093SOL     OW28177   1.975   6.343   5.205
 9093SOL    HW128178   2.011   6.366   5.295
 9093SOL    HW228179   1.915   6.263   5.212
 9094SOL     OW28180   0.853   3.833   1.673
 9094SOL    HW128181   0.939   3.811   1.626
 9094SOL    HW228182   0.776   3.795   1.621
 9095SOL     OW28183   6.764   6.345   5.642
 9095SOL    HW128184   6.706   6.343   5.723
 9095SOL    HW228185   6.707   6.361   5.561
 9096SOL     OW28186   6.635   5.404   3.749
 9096SOL    HW128187   6.606   5.495   3.720
 9096SOL    HW228188   6.577   5.373   3.824
 9097SOL     OW28189   1.242   2.144   6.367
 9097SOL    HW128190   1.147   2.160   6.393
 9097SOL    HW228191   1.288   2.090   6.437
 9098SOL     OW28192   2.116   4.389   3.982
 9098SOL    HW128193   2.102   4.303   4.032
 9098SOL    HW228194   2.187   4.376   3.913
 9099SOL     OW28195   2.288   2.061   0.108
 9099SOL    HW128196   2.246   2.125   0.043
 9099SOL    HW228197   2.317   2.111   0.190
 9100SOL     OW28198   1.249   4.575   3.377
 9100SOL    HW128199   1.238   4.476   3.384
 9100SOL    HW228200   1.237   4.604   3.282
 9101SOL     OW28201   0.886   2.630   0.395
 9101SOL    HW128202   0.883   2.727   0.418
 9101SOL    HW228203   0.961   2.613   0.331
 9102SOL     OW28204   4.210   6.816   2.928
 9102SOL    HW128205   4.252   6.779   2.845
 9102SOL    HW228206   4.256   6.780   3.009
 9103SOL     OW28207   6.456   0.947   1.052
 9103SOL    HW128208   6.544   0.952   1.005
 9103SOL    HW228209   6.471   0.933   1.150
 9104SOL     OW28210   5.737   1.848   6.179
 9104SOL    HW128211   5.822   1.888   6.213
 9104SOL    HW228212   5.749   1.750   6.166
 9105SOL     OW28213   1.909   1.177   5.482
 9105SOL    HW128214   2.001   1.152   5.514
 9105SOL    HW228215   1.868   1.241   5.547
 9106SOL     OW28216   1.546   3.711   6.877
 9106SOL    HW128217   1.474   3.713   6.807
 9106SOL    HW228218   1.601   3.629   6.865
 9107SOL     OW28219   2.782   1.935   0.381
 9107SOL    HW128220   2.874   1.897   0.389
 9107SOL    HW228221   2.765   2.000   0.455
 9108SOL     OW28222   5.925   5.567   6.044
 9108SOL    HW128223   5.889   5.479   6.012
 9108SOL    HW228224   5.948   5.624   5.965
 9109SOL     OW28225   5.810   3.830   2.555
 9109SOL    HW128226   5.910   3.836   2.557
 9109SOL    HW228227   5.781   3.750   2.606
 9110SOL     OW28228   2.168   6.129   3.280
 9110SOL    HW128229   2.160   6.042   3.230
 9110SOL    HW228230   2.238   6.186   3.237
 9111SOL     OW28231   4.245   2.352   6.246
 9111SOL    HW128232   4.174   2.297   6.289
 9111SOL    HW228233   4.334   2.310   6.264
 9112SOL     OW28234   0.853   5.018   1.042
 9112SOL    HW128235   0.853   5.099   1.101
 9112SOL    HW228236   0.927   5.024   0.976
 9113SOL     OW28237   5.944   0.957   4.283
 9113SOL    HW128238   5.980   1.005   4.203
 9113SOL    HW228239   5.851   0.924   4.263
 9114SOL     OW28240   1.506   6.088   5.710
 9114SOL    HW128241   1.524   6.157   5.781
 9114SOL    HW228242   1.516   6.131   5.620
 9115SOL     OW28243   4.706   4.245   4.643
 9115SOL    HW128244   4.741   4.176   4.580
 9115SOL    HW228245   4.608   4.234   4.655
 9116SOL     OW28246   1.823   0.504   3.027
 9116SOL    HW128247   1.785   0.545   2.944
 9116SOL    HW228248   1.757   0.439   3.065
 9117SOL     OW28249   2.407   5.951   0.223
 9117SOL    HW128250   2.454   5.883   0.279
 9117SOL    HW228251   2.439   5.945   0.129
 9118SOL     OW28252   6.466   3.982   2.428
 9118SOL    HW128253   6.456   4.036   2.512
 9118SOL    HW228254   6.556   4.000   2.387
 9119SOL     OW28255   3.301   0.291   0.208
 9119SOL    HW128256   3.286   0.198   0.242
 9119SOL    HW228257   3.389   0.294   0.161
 9120SOL     OW28258   6.585   3.805   4.802
 9120SOL    HW128259   6.495   3.792   4.759
 9120SOL    HW228260   6.620   3.896   4.780
 9121SOL     OW28261   4.022   0.527   4.611
 9121SOL    HW128262   3.967   0.573   4.681
 9121SOL    HW228263   4.018   0.428   4.624
 9122SOL     OW28264   1.091   3.562   1.642
 9122SOL    HW128265   1.100   3.645   1.698
 9122SOL    HW228266   1.165   3.498   1.667
 9123SOL     OW28267   6.618   6.826   4.218
 9123SOL    HW128268   6.549   6.897   4.203
 9123SOL    HW228269   6.625   6.807   4.316
 9124SOL     OW28270   2.690   4.910   0.469
 9124SOL    HW128271   2.605   4.952   0.502
 9124SOL    HW228272   2.738   4.868   0.547
 9125SOL     OW28273   5.499   6.219   1.871
 9125SOL    HW128274   5.568   6.169   1.923
 9125SOL    HW228275   5.452   6.155   1.809
 9126SOL     OW28276   4.569   4.706   0.953
 9126SOL    HW128277   4.642   4.673   0.894
 9126SOL    HW228278   4.528   4.629   1.003
 9127SOL     OW28279   6.782   5.048   5.367
 9127SOL    HW128280   6.799   4.951   5.384
 9127SOL    HW228281   6.748   5.092   5.450
 9128SOL     OW28282   5.854   4.249   5.742
 9128SOL    HW128283   5.757   4.275   5.742
 9128SOL    HW228284   5.863   4.154   5.712
 9129SOL     OW28285   1.206   2.648   0.815
 9129SOL    HW128286   1.250   2.666   0.904
 9129SOL    HW228287   1.122   2.703   0.808
 9130SOL     OW28288   2.954   3.335   5.146
 9130SOL    HW128289   2.920   3.296   5.061
 9130SOL    HW228290   3.052   3.317   5.154
 9131SOL     OW28291   4.575   2.736   0.370
 9131SOL    HW128292   4.628   2.770   0.292
 9131SOL    HW228293   4.616   2.771   0.454
 9132SOL     OW28294   0.798   3.804   3.907
 9132SOL    HW128295   0.728   3.858   3.862
 9132SOL    HW228296   0.760   3.759   3.988
 9133SOL     OW28297   5.610   0.405   1.212
 9133SOL    HW128298   5.521   0.449   1.226
 9133SOL    HW228299   5.674   0.437   1.283
 9134SOL     OW28300   4.889   4.996   0.830
 9134SOL    HW128301   4.830   5.015   0.909
 9134SOL    HW228302   4.982   4.979   0.861
 9135SOL     OW28303   6.275   6.377   3.243
 9135SOL    HW128304   6.211   6.436   3.293
 9135SOL    HW228305   6.252   6.379   3.145
 9136SOL     OW28306   6.761   4.552   0.379
 9136SOL    HW128307   6.742   4.598   0.465
 9136SOL    HW228308   6.711   4.465   0.375
 9137SOL     OW28309   5.204   6.654   5.241
 9137SOL    HW128310   5.109   6.665   5.210
 9137SOL    HW228311   5.204   6.611   5.331
 9138SOL     OW28312   2.155   3.402   6.748
 9138SOL    HW128313   2.197   3.423   6.837
 9138SOL    HW228314   2.111   3.484   6.712
 9139SOL     OW28315   6.450   0.145   1.397
 9139SOL    HW128316   6.427   0.207   1.322
 9139SOL    HW228317   6.542   0.165   1.430
 9140SOL     OW28318   2.083   3.539   2.675
 9140SOL    HW128319   2.128   3.450   2.671
 9140SOL    HW228320   2.095   3.579   2.766
 9141SOL     OW28321   6.978   5.672   4.818
 9141SOL    HW128322   6.878   5.671   4.822
 9141SOL    HW228323   7.010   5.763   4.792
 9142SOL     OW28324   0.924   5.047   4.168
 9142SOL    HW128325   1.011   5.068   4.213
 9142SOL    HW228326   0.935   4.966   4.110
 9143SOL     OW28327   6.309   4.159   2.880
 9143SOL    HW128328   6.356   4.136   2.965
 9143SOL    HW228329   6.233   4.221   2.899
 9144SOL     OW28330   3.027   4.411   5.398
 9144SOL    HW128331   3.020   4.465   5.314
 9144SOL    HW228332   3.014   4.314   5.376
 9145SOL     OW28333   1.325   5.853   5.705
 9145SOL    HW128334   1.385   5.928   5.732
 9145SOL    HW228335   1.380   5.772   5.683
 9146SOL     OW28336   5.686   2.963   3.499
 9146SOL    HW128337   5.713   2.869   3.483
 9146SOL    HW228338   5.594   2.965   3.540
 9147SOL     OW28339   4.082   0.185   5.414
 9147SOL    HW128340   4.014   0.213   5.482
 9147SOL    HW228341   4.036   0.139   5.338
 9148SOL     OW28342   5.355   5.757   1.454
 9148SOL    HW128343   5.369   5.698   1.533
 9148SOL    HW228344   5.260   5.789   1.452
 9149SOL     OW28345   0.331   3.768   0.716
 9149SOL    HW128346   0.405   3.754   0.650
 9149SOL    HW228347   0.317   3.684   0.770
 9150SOL     OW28348   2.640   3.419   0.070
 9150SOL    HW128349   2.698   3.478   0.013
 9150SOL    HW228350   2.544   3.434   0.045
 9151SOL     OW28351   1.776   3.005   3.849
 9151SOL    HW128352   1.730   2.918   3.833
 9151SOL    HW228353   1.837   2.996   3.928
 9152SOL     OW28354   2.079   3.992   2.615
 9152SOL    HW128355   1.984   3.997   2.645
 9152SOL    HW228356   2.086   3.931   2.536
 9153SOL     OW28357   0.399   2.716   6.031
 9153SOL    HW128358   0.324   2.649   6.033
 9153SOL    HW228359   0.360   2.808   6.030
 9154SOL     OW28360   5.585   4.801   3.373
 9154SOL    HW128361   5.595   4.702   3.362
 9154SOL    HW228362   5.638   4.831   3.452
 9155SOL     OW28363   1.110   6.103   2.528
 9155SOL    HW128364   1.122   6.099   2.429
 9155SOL    HW228365   1.195   6.133   2.571
 9156SOL     OW28366   0.073   3.519   6.093
 9156SOL    HW128367   0.032   3.598   6.048
 9156SOL    HW228368   0.052   3.436   6.041
 9157SOL     OW28369   1.599   4.617   5.724
 9157SOL    HW128370   1.535   4.544   5.748
 9157SOL    HW228371   1.693   4.584   5.733
 9158SOL     OW28372   6.792   3.818   4.521
 9158SOL    HW128373   6.806   3.822   4.422
 9158SOL    HW228374   6.749   3.903   4.552
 9159SOL     OW28375   2.546   1.421   3.769
 9159SOL    HW128376   2.492   1.387   3.692
 9159SOL    HW228377   2.487   1.439   3.847
 9160SOL     OW28378   1.403   3.494   7.005
 9160SOL    HW128379   1.444   3.466   0.075
 9160SOL    HW228380   1.420   3.592   6.990
 9161SOL     OW28381   6.322   3.783   2.641
 9161SOL    HW128382   6.282   3.866   2.682
 9161SOL    HW228383   6.305   3.783   2.543
 9162SOL     OW28384   3.919   2.346   1.665
 9162SOL    HW128385   3.909   2.278   1.592
 9162SOL    HW228386   3.867   2.316   1.745
 9163SOL     OW28387   2.435   2.133   4.289
 9163SOL    HW128388   2.387   2.115   4.375
 9163SOL    HW228389   2.530   2.160   4.309
 9164SOL     OW28390   2.263   6.982   6.296
 9164SOL    HW128391   2.166   6.962   6.314
 9164SOL    HW228392   2.270   0.048   6.241
 9165SOL     OW28393   5.463   1.750   5.835
 9165SOL    HW128394   5.396   1.816   5.801
 9165SOL    HW228395   5.545   1.798   5.867
 9166SOL     OW28396   4.416   6.318   1.755
 9166SOL    HW128397   4.393   6.286   1.847
 9166SOL    HW228398   4.350   6.387   1.726
 9167SOL     OW28399   1.412   1.380   4.252
 9167SOL    HW128400   1.377   1.293   4.218
 9167SOL    HW228401   1.446   1.434   4.176
 9168SOL     OW28402   6.843   6.143   5.049
 9168SOL    HW128403   6.845   6.241   5.068
 9168SOL    HW228404   6.753   6.106   5.073
 9169SOL     OW28405   6.677   6.000   0.975
 9169SOL    HW128406   6.608   5.931   0.998
 9169SOL    HW228407   6.709   6.044   1.059
 9170SOL     OW28408   1.586   1.129   5.583
 9170SOL    HW128409   1.612   1.194   5.512
 9170SOL    HW228410   1.597   1.036   5.550
 9171SOL     OW28411   3.371   5.222   6.618
 9171SOL    HW128412   3.336   5.214   6.525
 9171SOL    HW228413   3.461   5.178   6.624
 9172SOL     OW28414   4.667   1.551   5.309
 9172SOL    HW128415   4.612   1.495   5.370
 9172SOL    HW228416   4.607   1.595   5.241
 9173SOL     OW28417   5.620   3.817   4.923
 9173SOL    HW128418   5.704   3.812   4.977
 9173SOL    HW228419   5.624   3.750   4.849
 9174SOL     OW28420   6.785   4.613   1.324
 9174SOL    HW128421   6.784   4.668   1.408
 9174SOL    HW228422   6.691   4.598   1.292
 9175SOL     OW28423   2.305   6.892   0.846
 9175SOL    HW128424   2.395   6.933   0.860
 9175SOL    HW228425   2.245   6.915   0.923
 9176SOL     OW28426   1.655   1.019   2.040
 9176SOL    HW128427   1.708   0.940   2.008
 9176SOL    HW228428   1.585   0.987   2.104
 9177SOL     OW28429   0.606   6.803   3.775
 9177SOL    HW128430   0.615   6.757   3.863
 9177SOL    HW228431   0.538   6.755   3.719
 9178SOL     OW28432   1.193   4.656   1.133
 9178SOL    HW128433   1.243   4.574   1.159
 9178SOL    HW228434   1.096   4.643   1.154
 9179SOL     OW28435   3.758   5.127   3.929
 9179SOL    HW128436   3.729   5.036   3.959
 9179SOL    HW228437   3.812   5.170   4.003
 9180SOL     OW28438   6.901   1.369   5.250
 9180SOL    HW128439   6.966   1.293   5.259
 9180SOL    HW228440   6.857   1.385   5.339
 9181SOL     OW28441   2.784   2.384   3.725
 9181SOL    HW128442   2.848   2.440   3.778
 9181SOL    HW228443   2.803   2.394   3.628
 9182SOL     OW28444   0.570   1.918   2.290
 9182SOL    HW128445   0.556   2.002   2.236
 9182SOL    HW228446   0.602   1.943   2.381
 9183SOL     OW28447   1.810   1.306   6.243
 9183SOL    HW128448   1.735   1.271   6.300
 9183SOL    HW228449   1.862   1.373   6.296
 9184SOL     OW28450   3.391   3.743   1.048
 9184SOL    HW128451   3.352   3.735   1.140
 9184SOL    HW228452   3.319   3.725   0.980
 9185SOL     OW28453   1.397   0.297   6.001
 9185SOL    HW128454   1.343   0.222   6.039
 9185SOL    HW228455   1.418   0.364   6.073
 9186SOL     OW28456   4.596   0.097   6.646
 9186SOL    HW128457   4.516   0.149   6.676
 9186SOL    HW228458   4.679   0.141   6.680
 9187SOL     OW28459   5.613   2.621   0.807
 9187SOL    HW128460   5.696   2.675   0.793
 9187SOL    HW228461   5.538   2.661   0.754
 9188SOL     OW28462   1.784   0.391   1.713
 9188SOL    HW128463   1.726   0.437   1.646
 9188SOL    HW228464   1.803   0.298   1.682
 9189SOL     OW28465   3.677   0.320   5.713
 9189SOL    HW128466   3.616   0.245   5.686
 9189SOL    HW228467   3.662   0.343   5.809
 9190SOL     OW28468   4.630   1.123   4.876
 9190SOL    HW128469   4.625   1.214   4.835
 9190SOL    HW228470   4.717   1.080   4.851
 9191SOL     OW28471   5.568   6.831   1.917
 9191SOL    HW128472   5.577   6.919   1.870
 9191SOL    HW228473   5.645   6.819   1.980
 9192SOL     OW28474   4.880   3.594   4.218
 9192SOL    HW128475   4.919   3.596   4.310
 9192SOL    HW228476   4.882   3.500   4.184
 9193SOL     OW28477   4.091   3.283   3.183
 9193SOL    HW128478   4.100   3.207   3.246
 9193SOL    HW228479   3.998   3.286   3.147
 9194SOL     OW28480   3.685   4.851   2.865
 9194SOL    HW128481   3.605   4.844   2.805
 9194SOL    HW228482   3.658   4.892   2.952
 9195SOL     OW28483   0.530   2.628   3.039
 9195SOL    HW128484   0.532   2.646   2.941
 9195SOL    HW228485   0.496   2.535   3.056
 9196SOL     OW28486   5.130   6.745   4.262
 9196SOL    HW128487   5.128   6.759   4.361
 9196SOL    HW228488   5.178   6.660   4.241
 9197SOL     OW28489   4.254   1.565   6.154
 9197SOL    HW128490   4.204   1.627   6.093
 9197SOL    HW228491   4.297   1.618   6.226
 9198SOL     OW28492   6.174   2.202   5.194
 9198SOL    HW128493   6.242   2.218   5.122
 9198SOL    HW228494   6.202   2.125   5.250
 9199SOL     OW28495   1.176   3.147   6.079
 9199SOL    HW128496   1.171   3.189   5.988
 9199SOL    HW228497   1.212   3.213   6.144
 9200SOL     OW28498   5.025   6.102   0.720
 9200SOL    HW128499   5.104   6.159   0.701
 9200SOL    HW228500   4.951   6.124   0.656
 9201SOL     OW28501   0.532   4.234   2.613
 9201SOL    HW128502   0.610   4.292   2.591
 9201SOL    HW228503   0.564   4.141   2.634
 9202SOL     OW28504   2.505   5.868   3.969
 9202SOL    HW128505   2.588   5.881   3.915
 9202SOL    HW228506   2.485   5.953   4.020
 9203SOL     OW28507   5.089   0.830   0.313
 9203SOL    HW128508   5.078   0.784   0.402
 9203SOL    HW228509   5.154   0.905   0.322
 9204SOL     OW28510   5.283   4.278   2.732
 9204SOL    HW128511   5.294   4.377   2.733
 9204SOL    HW228512   5.219   4.251   2.804
 9205SOL     OW28513   4.621   2.517   1.681
 9205SOL    HW128514   4.612   2.600   1.737
 9205SOL    HW228515   4.717   2.505   1.655
 9206SOL     OW28516   6.427   6.152   4.302
 9206SOL    HW128517   6.420   6.068   4.248
 9206SOL    HW228518   6.509   6.203   4.274
 9207SOL     OW28519   3.878   6.082   6.870
 9207SOL    HW128520   3.823   6.091   6.953
 9207SOL    HW228521   3.872   5.988   6.836
 9208SOL     OW28522   4.315   4.035   1.707
 9208SOL    HW128523   4.363   4.099   1.768
 9208SOL    HW228524   4.216   4.049   1.716
 9209SOL     OW28525   3.918   0.385   2.821
 9209SOL    HW128526   3.969   0.299   2.821
 9209SOL    HW228527   3.952   0.444   2.895
 9210SOL     OW28528   1.155   6.756   0.566
 9210SOL    HW128529   1.110   6.808   0.639
 9210SOL    HW228530   1.217   6.816   0.516
 9211SOL     OW28531   4.876   1.471   6.144
 9211SOL    HW128532   4.860   1.519   6.058
 9211SOL    HW228533   4.957   1.412   6.134
 9212SOL     OW28534   5.602   4.349   5.456
 9212SOL    HW128535   5.664   4.277   5.425
 9212SOL    HW228536   5.609   4.359   5.555
 9213SOL     OW28537   6.423   6.441   2.375
 9213SOL    HW128538   6.394   6.469   2.283
 9213SOL    HW228539   6.370   6.361   2.404
 9214SOL     OW28540   2.109   1.783   5.738
 9214SOL    HW128541   2.038   1.714   5.723
 9214SOL    HW228542   2.101   1.855   5.668
 9215SOL     OW28543   0.395   3.826   3.284
 9215SOL    HW128544   0.329   3.888   3.242
 9215SOL    HW228545   0.413   3.749   3.223
 9216SOL     OW28546   2.527   6.016   3.366
 9216SOL    HW128547   2.500   6.091   3.426
 9216SOL    HW228548   2.513   5.929   3.414
 9217SOL     OW28549   4.070   1.367   6.896
 9217SOL    HW128550   4.150   1.408   6.852
 9217SOL    HW228551   4.002   1.345   6.826
 9218SOL     OW28552   5.588   5.452   6.776
 9218SOL    HW128553   5.491   5.473   6.789
 9218SOL    HW228554   5.629   5.427   6.864
 9219SOL     OW28555   3.124   2.634   5.674
 9219SOL    HW128556   3.077   2.665   5.591
 9219SOL    HW228557   3.063   2.577   5.728
 9220SOL     OW28558   0.345   6.532   3.357
 9220SOL    HW128559   0.294   6.476   3.423
 9220SOL    HW228560   0.414   6.474   3.312
 9221SOL     OW28561   2.830   1.545   0.966
 9221SOL    HW128562   2.772   1.619   1.000
 9221SOL    HW228563   2.836   1.473   1.035
 9222SOL     OW28564   1.336   4.850   4.381
 9222SOL    HW128565   1.250   4.800   4.389
 9222SOL    HW228566   1.408   4.787   4.351
 9223SOL     OW28567   6.753   3.296   4.761
 9223SOL    HW128568   6.712   3.331   4.677
 9223SOL    HW228569   6.744   3.197   4.764
 9224SOL     OW28570   2.002   4.757   2.891
 9224SOL    HW128571   2.057   4.673   2.885
 9224SOL    HW228572   1.943   4.764   2.811
 9225SOL     OW28573   6.274   5.421   6.039
 9225SOL    HW128574   6.181   5.404   6.069
 9225SOL    HW228575   6.273   5.455   5.945
 9226SOL     OW28576   1.147   0.118   6.028
 9226SOL    HW128577   1.110   0.026   6.041
 9226SOL    HW228578   1.073   0.185   6.040
 9227SOL     OW28579   3.066   4.162   0.531
 9227SOL    HW128580   3.001   4.092   0.562
 9227SOL    HW228581   3.144   4.118   0.488
 9228SOL     OW28582   3.499   2.849   4.787
 9228SOL    HW128583   3.490   2.868   4.885
 9228SOL    HW228584   3.569   2.779   4.773
 9229SOL     OW28585   0.125   5.416   0.945
 9229SOL    HW128586   0.067   5.497   0.959
 9229SOL    HW228587   0.164   5.419   0.853
 9230SOL     OW28588   4.549   0.992   5.121
 9230SOL    HW128589   4.583   1.024   5.032
 9230SOL    HW228590   4.481   1.056   5.155
 9231SOL     OW28591   5.992   5.945   1.694
 9231SOL    HW128592   5.906   5.995   1.686
 9231SOL    HW228593   6.067   6.011   1.707
 9232SOL     OW28594   1.312   5.074   1.721
 9232SOL    HW128595   1.241   5.005   1.725
 9232SOL    HW228596   1.291   5.140   1.649
 9233SOL     OW28597   1.388   6.300   5.962
 9233SOL    HW128598   1.331   6.372   6.003
 9233SOL    HW228599   1.463   6.341   5.911
 9234SOL     OW28600   2.598   4.107   5.975
 9234SOL    HW128601   2.695   4.112   5.950
 9234SOL    HW228602   2.590   4.076   6.070
 9235SOL     OW28603   1.840   2.131   3.159
 9235SOL    HW128604   1.820   2.035   3.138
 9235SOL    HW228605   1.936   2.140   3.185
 9236SOL     OW28606   1.403   3.288   5.745
 9236SOL    HW128607   1.376   3.380   5.714
 9236SOL    HW228608   1.471   3.297   5.818
 9237SOL     OW28609   6.371   5.502   2.877
 9237SOL    HW128610   6.429   5.504   2.795
 9237SOL    HW228611   6.428   5.499   2.959
 9238SOL     OW28612   1.750   2.660   4.748
 9238SOL    HW128613   1.800   2.727   4.692
 9238SOL    HW228614   1.719   2.585   4.691
 9239SOL     OW28615   0.845   4.776   5.742
 9239SOL    HW128616   0.877   4.726   5.823
 9239SOL    HW228617   0.871   4.726   5.660
 9240SOL     OW28618   4.041   1.636   3.538
 9240SOL    HW128619   4.030   1.735   3.524
 9240SOL    HW228620   4.089   1.596   3.461
 9241SOL     OW28621   5.504   6.586   0.226
 9241SOL    HW128622   5.528   6.662   0.166
 9241SOL    HW228623   5.437   6.617   0.293
 9242SOL     OW28624   1.756   2.323   0.812
 9242SOL    HW128625   1.708   2.276   0.886
 9242SOL    HW228626   1.812   2.397   0.850
 9243SOL     OW28627   1.679   0.117   0.126
 9243SOL    HW128628   1.736   0.141   0.048
 9243SOL    HW228629   1.646   0.201   0.170
 9244SOL     OW28630   2.775   6.132   6.169
 9244SOL    HW128631   2.819   6.044   6.189
 9244SOL    HW228632   2.832   6.184   6.106
 9245SOL     OW28633   1.496   5.026   2.840
 9245SOL    HW128634   1.428   5.092   2.809
 9245SOL    HW228635   1.571   5.073   2.885
 9246SOL     OW28636   4.854   6.198   6.432
 9246SOL    HW128637   4.871   6.127   6.500
 9246SOL    HW228638   4.876   6.163   6.341
 9247SOL     OW28639   3.765   6.401   2.831
 9247SOL    HW128640   3.744   6.363   2.922
 9247SOL    HW228641   3.785   6.326   2.768
 9248SOL     OW28642   2.824   0.725   6.736
 9248SOL    HW128643   2.918   0.719   6.770
 9248SOL    HW228644   2.803   0.820   6.712
 9249SOL     OW28645   2.304   7.000   0.078
 9249SOL    HW128646   2.369   6.926   0.095
 9249SOL    HW228647   2.299   0.002   6.997
 9250SOL     OW28648   0.212   2.949   3.628
 9250SOL    HW128649   0.277   2.874   3.616
 9250SOL    HW228650   0.175   2.946   3.721
 9251SOL     OW28651   3.372   1.845   1.261
 9251SOL    HW128652   3.302   1.846   1.332
 9251SOL    HW228653   3.441   1.915   1.281
 9252SOL     OW28654   5.905   1.461   4.623
 9252SOL    HW128655   5.940   1.400   4.694
 9252SOL    HW228656   5.841   1.411   4.565
 9253SOL     OW28657   1.717   5.632   4.580
 9253SOL    HW128658   1.649   5.704   4.595
 9253SOL    HW228659   1.808   5.668   4.603
 9254SOL     OW28660   0.199   5.295   2.449
 9254SOL    HW128661   0.106   5.265   2.427
 9254SOL    HW228662   0.232   5.246   2.530
 9255SOL     OW28663   6.792   4.372   0.771
 9255SOL    HW128664   6.837   4.455   0.804
 9255SOL    HW228665   6.807   4.298   0.837
 9256SOL     OW28666   2.784   6.388   1.105
 9256SOL    HW128667   2.868   6.338   1.125
 9256SOL    HW228668   2.768   6.387   1.006
 9257SOL     OW28669   6.134   5.756   4.851
 9257SOL    HW128670   6.234   5.749   4.842
 9257SOL    HW228671   6.111   5.781   4.945
 9258SOL     OW28672   4.036   5.495   1.760
 9258SOL    HW128673   3.981   5.443   1.694
 9258SOL    HW228674   3.981   5.513   1.842
 9259SOL     OW28675   0.719   2.096   6.608
 9259SOL    HW128676   0.757   2.173   6.659
 9259SOL    HW228677   0.785   2.021   6.607
 9260SOL     OW28678   4.813   4.010   4.510
 9260SOL    HW128679   4.856   3.964   4.432
 9260SOL    HW228680   4.805   3.944   4.585
 9261SOL     OW28681   2.020   2.147   1.532
 9261SOL    HW128682   1.921   2.141   1.544
 9261SOL    HW228683   2.043   2.139   1.435
 9262SOL     OW28684   6.453   6.626   6.116
 9262SOL    HW128685   6.525   6.569   6.155
 9262SOL    HW228686   6.370   6.571   6.104
 9263SOL     OW28687   2.109   4.448   3.181
 9263SOL    HW128688   2.139   4.497   3.100
 9263SOL    HW228689   2.186   4.396   3.219
 9264SOL     OW28690   5.765   3.962   6.391
 9264SOL    HW128691   5.848   3.916   6.423
 9264SOL    HW228692   5.726   4.016   6.465
 9265SOL     OW28693   4.963   0.809   1.335
 9265SOL    HW128694   4.980   0.803   1.433
 9265SOL    HW228695   5.002   0.729   1.290
 9266SOL     OW28696   1.863   4.248   0.511
 9266SOL    HW128697   1.944   4.243   0.570
 9266SOL    HW228698   1.815   4.160   0.513
 9267SOL     OW28699   0.869   1.186   4.160
 9267SOL    HW128700   0.832   1.187   4.253
 9267SOL    HW228701   0.895   1.093   4.135
 9268SOL     OW28702   0.324   0.882   1.659
 9268SOL    HW128703   0.272   0.797   1.673
 9268SOL    HW228704   0.406   0.881   1.716
 9269SOL     OW28705   4.032   0.869   0.159
 9269SOL    HW128706   3.967   0.879   0.084
 9269SOL    HW228707   4.060   0.959   0.192
 9270SOL     OW28708   2.811   0.672   6.221
 9270SOL    HW128709   2.774   0.755   6.180
 9270SOL    HW228710   2.901   0.691   6.260
 9271SOL     OW28711   1.276   4.594   5.562
 9271SOL    HW128712   1.234   4.635   5.481
 9271SOL    HW228713   1.349   4.532   5.534
 9272SOL     OW28714   6.308   6.151   6.035
 9272SOL    HW128715   6.357   6.166   5.949
 9272SOL    HW228716   6.361   6.088   6.092
 9273SOL     OW28717   5.811   3.358   3.513
 9273SOL    HW128718   5.776   3.447   3.542
 9273SOL    HW228719   5.770   3.286   3.568
 9274SOL     OW28720   0.608   3.345   0.951
 9274SOL    HW128721   0.679   3.409   0.922
 9274SOL    HW228722   0.639   3.295   1.032
 9275SOL     OW28723   5.701   0.913   0.838
 9275SOL    HW128724   5.771   0.984   0.828
 9275SOL    HW228725   5.745   0.825   0.854
 9276SOL     OW28726   2.508   5.070   6.987
 9276SOL    HW128727   2.431   5.133   6.978
 9276SOL    HW228728   2.589   5.121   0.001
 9277SOL     OW28729   4.743   4.997   2.384
 9277SOL    HW128730   4.659   4.965   2.428
 9277SOL    HW228731   4.728   5.088   2.347
 9278SOL     OW28732   0.562   6.979   5.893
 9278SOL    HW128733   0.580   7.005   5.798
 9278SOL    HW228734   0.465   6.994   5.913
 9279SOL     OW28735   3.259   6.396   1.765
 9279SOL    HW128736   3.319   6.470   1.736
 9279SOL    HW228737   3.265   6.321   1.699
 9280SOL     OW28738   1.310   5.443   2.929
 9280SOL    HW128739   1.274   5.535   2.914
 9280SOL    HW228740   1.330   5.431   3.026
 9281SOL     OW28741   1.597   5.215   0.772
 9281SOL    HW128742   1.659   5.274   0.824
 9281SOL    HW228743   1.524   5.182   0.832
 9282SOL     OW28744   2.791   6.798   4.808
 9282SOL    HW128745   2.839   6.861   4.746
 9282SOL    HW228746   2.698   6.832   4.824
 9283SOL     OW28747   4.410   6.492   1.063
 9283SOL    HW128748   4.509   6.478   1.062
 9283SOL    HW228749   4.369   6.447   0.983
 9284SOL     OW28750   3.812   4.689   6.466
 9284SOL    HW128751   3.740   4.741   6.512
 9284SOL    HW228752   3.833   4.732   6.378
 9285SOL     OW28753   0.400   6.283   3.244
 9285SOL    HW128754   0.377   6.198   3.290
 9285SOL    HW228755   0.497   6.284   3.222
 9286SOL     OW28756   4.365   6.870   1.944
 9286SOL    HW128757   4.338   6.774   1.947
 9286SOL    HW228758   4.453   6.879   1.898
 9287SOL     OW28759   4.572   3.817   6.082
 9287SOL    HW128760   4.654   3.773   6.044
 9287SOL    HW228761   4.499   3.816   6.013
 9288SOL     OW28762   3.254   1.809   2.283
 9288SOL    HW128763   3.300   1.746   2.220
 9288SOL    HW228764   3.290   1.901   2.271
 9289SOL     OW28765   5.095   6.812   0.913
 9289SOL    HW128766   5.155   6.876   0.865
 9289SOL    HW228767   5.002   6.820   0.876
 9290SOL     OW28768   6.004   1.008   3.732
 9290SOL    HW128769   5.995   0.928   3.791
 9290SOL    HW228770   6.070   0.990   3.660
 9291SOL     OW28771   0.570   3.838   5.749
 9291SOL    HW128772   0.594   3.934   5.735
 9291SOL    HW228773   0.645   3.791   5.796
 9292SOL     OW28774   0.157   1.295   6.451
 9292SOL    HW128775   0.140   1.246   6.537
 9292SOL    HW228776   0.242   1.260   6.410
 9293SOL     OW28777   4.867   1.991   4.767
 9293SOL    HW128778   4.842   1.894   4.774
 9293SOL    HW228779   4.784   2.046   4.763
 9294SOL     OW28780   4.624   6.935   6.423
 9294SOL    HW128781   4.603   6.995   6.501
 9294SOL    HW228782   4.723   6.923   6.416
 9295SOL     OW28783   6.057   1.165   4.447
 9295SOL    HW128784   6.116   1.159   4.528
 9295SOL    HW228785   6.032   1.073   4.417
 9296SOL     OW28786   2.106   4.967   5.695
 9296SOL    HW128787   2.197   5.006   5.679
 9296SOL    HW228788   2.088   4.965   5.793
 9297SOL     OW28789   6.599   5.122   2.339
 9297SOL    HW128790   6.545   5.086   2.415
 9297SOL    HW228791   6.612   5.220   2.351
 9298SOL     OW28792   1.488   3.394   6.453
 9298SOL    HW128793   1.392   3.366   6.446
 9298SOL    HW228794   1.530   3.393   6.363
 9299SOL     OW28795   2.469   2.582   4.745
 9299SOL    HW128796   2.482   2.681   4.745
 9299SOL    HW228797   2.423   2.554   4.830
 9300SOL     OW28798   2.015   6.188   4.350
 9300SOL    HW128799   2.043   6.255   4.281
 9300SOL    HW228800   2.083   6.115   4.354
 9301SOL     OW28801   0.635   4.532   4.442
 9301SOL    HW128802   0.722   4.579   4.426
 9301SOL    HW228803   0.650   4.433   4.442
 9302SOL     OW28804   1.808   4.560   4.610
 9302SOL    HW128805   1.897   4.543   4.651
 9302SOL    HW228806   1.772   4.476   4.571
 9303SOL     OW28807   2.159   4.482   7.011
 9303SOL    HW128808   2.180   4.402   6.955
 9303SOL    HW228809   2.129   4.557   6.952
 9304SOL     OW28810   5.187   5.296   6.616
 9304SOL    HW128811   5.197   5.351   6.533
 9304SOL    HW228812   5.233   5.342   6.692
 9305SOL     OW28813   1.808   1.810   1.393
 9305SOL    HW128814   1.859   1.816   1.307
 9305SOL    HW228815   1.795   1.902   1.430
 9306SOL     OW28816   0.065   6.575   4.901
 9306SOL    HW128817   0.031   6.594   4.993
 9306SOL    HW228818   0.165   6.580   4.901
 9307SOL     OW28819   1.590   3.726   1.169
 9307SOL    HW128820   1.604   3.816   1.210
 9307SOL    HW228821   1.562   3.661   1.239
 9308SOL     OW28822   2.135   3.176   1.861
 9308SOL    HW128823   2.189   3.254   1.893
 9308SOL    HW228824   2.154   3.096   1.918
 9309SOL     OW28825   4.956   5.568   6.576
 9309SOL    HW128826   5.023   5.521   6.519
 9309SOL    HW228827   4.891   5.502   6.612
 9310SOL     OW28828   5.969   6.006   5.838
 9310SOL    HW128829   6.023   5.969   5.913
 9310SOL    HW228830   5.951   5.934   5.771
 9311SOL     OW28831   4.748   4.299   0.529
 9311SOL    HW128832   4.699   4.283   0.615
 9311SOL    HW228833   4.717   4.385   0.489
 9312SOL     OW28834   0.197   2.656   3.414
 9312SOL    HW128835   0.227   2.712   3.491
 9312SOL    HW228836   0.200   2.710   3.330
 9313SOL     OW28837   0.717   0.695   2.625
 9313SOL    HW128838   0.736   0.597   2.630
 9313SOL    HW228839   0.623   0.712   2.655
 9314SOL     OW28840   5.380   5.107   1.004
 9314SOL    HW128841   5.418   5.106   1.097
 9314SOL    HW228842   5.405   5.193   0.959
 9315SOL     OW28843   5.432   5.986   6.295
 9315SOL    HW128844   5.525   5.951   6.288
 9315SOL    HW228845   5.433   6.086   6.293
 9316SOL     OW28846   4.716   6.986   0.407
 9316SOL    HW128847   4.724   6.992   0.507
 9316SOL    HW228848   4.711   0.061   0.369
 9317SOL     OW28849   2.902   5.793   3.263
 9317SOL    HW128850   2.971   5.746   3.319
 9317SOL    HW228851   2.947   5.862   3.206
 9318SOL     OW28852   3.762   6.799   1.690
 9318SOL    HW128853   3.784   6.852   1.772
 9318SOL    HW228854   3.689   6.844   1.639
 9319SOL     OW28855   4.449   1.749   6.947
 9319SOL    HW128856   4.502   1.756   0.014
 9319SOL    HW228857   4.500   1.792   6.872
 9320SOL     OW28858   6.610   6.705   6.999
 9320SOL    HW128859   6.566   6.795   6.994
 9320SOL    HW228860   6.620   6.667   6.907
 9321SOL     OW28861   0.596   3.644   4.468
 9321SOL    HW128862   0.536   3.696   4.408
 9321SOL    HW228863   0.663   3.706   4.509
 9322SOL     OW28864   5.074   3.498   0.060
 9322SOL    HW128865   5.076   3.586   0.013
 9322SOL    HW228866   5.167   3.467   0.077
 9323SOL     OW28867   0.986   2.259   5.953
 9323SOL    HW128868   1.039   2.231   6.033
 9323SOL    HW228869   0.908   2.197   5.942
 9324SOL     OW28870   0.216   4.459   1.695
 9324SOL    HW128871   0.296   4.485   1.642
 9324SOL    HW228872   0.242   4.442   1.790
 9325SOL     OW28873   0.537   4.643   3.322
 9325SOL    HW128874   0.519   4.565   3.382
 9325SOL    HW228875   0.592   4.710   3.371
 9326SOL     OW28876   4.846   3.925   0.829
 9326SOL    HW128877   4.768   3.864   0.811
 9326SOL    HW228878   4.903   3.932   0.747
 9327SOL     OW28879   3.201   1.191   3.182
 9327SOL    HW128880   3.258   1.260   3.139
 9327SOL    HW228881   3.233   1.175   3.276
 9328SOL     OW28882   1.971   0.844   3.422
 9328SOL    HW128883   2.032   0.795   3.483
 9328SOL    HW228884   1.958   0.790   3.338
 9329SOL     OW28885   0.562   5.246   6.649
 9329SOL    HW128886   0.559   5.328   6.707
 9329SOL    HW228887   0.520   5.266   6.561
 9330SOL     OW28888   0.221   6.689   0.393
 9330SOL    HW128889   0.250   6.728   0.306
 9330SOL    HW228890   0.135   6.640   0.381
 9331SOL     OW28891   1.997   3.837   4.106
 9331SOL    HW128892   1.905   3.811   4.137
 9331SOL    HW228893   2.040   3.896   4.174
 9332SOL     OW28894   6.399   5.164   0.543
 9332SOL    HW128895   6.458   5.180   0.623
 9332SOL    HW228896   6.451   5.182   0.460
 9333SOL     OW28897   3.169   3.855   1.511
 9333SOL    HW128898   3.209   3.846   1.602
 9333SOL    HW228899   3.171   3.951   1.483
 9334SOL     OW28900   6.641   5.756   6.214
 9334SOL    HW128901   6.618   5.686   6.146
 9334SOL    HW228902   6.584   5.744   6.295
 9335SOL     OW28903   0.642   3.744   1.530
 9335SOL    HW128904   0.580   3.780   1.600
 9335SOL    HW228905   0.634   3.799   1.447
 9336SOL     OW28906   5.508   6.952   6.282
 9336SOL    HW128907   5.484   0.030   6.298
 9336SOL    HW228908   5.445   6.912   6.215
 9337SOL     OW28909   2.450   1.141   5.584
 9337SOL    HW128910   2.416   1.127   5.676
 9337SOL    HW228911   2.376   1.173   5.525
 9338SOL     OW28912   5.232   6.405   0.343
 9338SOL    HW128913   5.234   6.448   0.253
 9338SOL    HW228914   5.152   6.346   0.350
 9339SOL     OW28915   0.009   4.106   5.328
 9339SOL    HW128916   0.101   4.100   5.288
 9339SOL    HW228917   7.011   4.198   5.363
 9340SOL     OW28918   2.385   4.806   2.017
 9340SOL    HW128919   2.379   4.893   1.969
 9340SOL    HW228920   2.298   4.785   2.060
 9341SOL     OW28921   5.726   5.372   6.373
 9341SOL    HW128922   5.802   5.432   6.396
 9341SOL    HW228923   5.667   5.417   6.306
 9342SOL     OW28924   2.964   0.215   4.658
 9342SOL    HW128925   2.911   0.300   4.649
 9342SOL    HW228926   3.020   0.203   4.576
 9343SOL     OW28927   4.793   3.595   0.269
 9343SOL    HW128928   4.796   3.628   0.175
 9343SOL    HW228929   4.716   3.637   0.317
 9344SOL     OW28930   5.518   0.619   5.347
 9344SOL    HW128931   5.559   0.645   5.260
 9344SOL    HW228932   5.576   0.651   5.422
 9345SOL     OW28933   0.483   4.506   0.422
 9345SOL    HW128934   0.533   4.420   0.434
 9345SOL    HW228935   0.387   4.493   0.447
 9346SOL     OW28936   5.387   6.915   2.114
 9346SOL    HW128937   5.441   6.972   2.176
 9346SOL    HW228938   5.446   6.875   2.044
 9347SOL     OW28939   4.171   6.220   1.170
 9347SOL    HW128940   4.128   6.177   1.090
 9347SOL    HW228941   4.130   6.310   1.185
 9348SOL     OW28942   2.261   5.525   1.585
 9348SOL    HW128943   2.274   5.448   1.522
 9348SOL    HW228944   2.241   5.608   1.534
 9349SOL     OW28945   6.865   6.248   1.641
 9349SOL    HW128946   6.870   6.341   1.605
 9349SOL    HW228947   6.791   6.198   1.596
 9350SOL     OW28948   6.674   0.586   0.074
 9350SOL    HW128949   6.613   0.660   0.101
 9350SOL    HW228950   6.629   0.498   0.089
 9351SOL     OW28951   4.220   3.024   5.612
 9351SOL    HW128952   4.288   3.038   5.684
 9351SOL    HW228953   4.207   2.926   5.597
 9352SOL     OW28954   3.216   2.677   6.555
 9352SOL    HW128955   3.119   2.669   6.577
 9352SOL    HW228956   3.258   2.586   6.556
 9353SOL     OW28957   0.237   3.401   1.522
 9353SOL    HW128958   0.198   3.446   1.441
 9353SOL    HW228959   0.337   3.403   1.515
 9354SOL     OW28960   5.324   1.672   1.679
 9354SOL    HW128961   5.316   1.761   1.724
 9354SOL    HW228962   5.319   1.684   1.580
 9355SOL     OW28963   6.320   1.211   2.712
 9355SOL    HW128964   6.410   1.173   2.731
 9355SOL    HW228965   6.317   1.306   2.743
 9356SOL     OW28966   5.246   3.197   2.579
 9356SOL    HW128967   5.210   3.198   2.673
 9356SOL    HW228968   5.208   3.274   2.528
 9357SOL     OW28969   3.465   3.806   0.637
 9357SOL    HW128970   3.528   3.777   0.709
 9357SOL    HW228971   3.516   3.855   0.567
 9358SOL     OW28972   4.976   4.224   1.999
 9358SOL    HW128973   4.893   4.180   2.033
 9358SOL    HW228974   5.056   4.167   2.021
 9359SOL     OW28975   5.672   4.739   6.112
 9359SOL    HW128976   5.622   4.668   6.162
 9359SOL    HW228977   5.749   4.697   6.064
 9360SOL     OW28978   1.260   0.562   5.395
 9360SOL    HW128979   1.348   0.581   5.352
 9360SOL    HW228980   1.271   0.559   5.495
 9361SOL     OW28981   2.353   1.244   2.330
 9361SOL    HW128982   2.319   1.332   2.297
 9361SOL    HW228983   2.389   1.255   2.423
 9362SOL     OW28984   1.437   1.741   3.114
 9362SOL    HW128985   1.511   1.679   3.089
 9362SOL    HW228986   1.466   1.835   3.099
 9363SOL     OW28987   2.237   6.591   1.510
 9363SOL    HW128988   2.200   6.516   1.565
 9363SOL    HW228989   2.260   6.668   1.570
 9364SOL     OW28990   5.762   5.171   1.184
 9364SOL    HW128991   5.680   5.130   1.224
 9364SOL    HW228992   5.820   5.208   1.257
 9365SOL     OW28993   2.069   1.304   5.208
 9365SOL    HW128994   2.001   1.310   5.281
 9365SOL    HW228995   2.048   1.373   5.138
 9366SOL     OW28996   3.139   1.299   1.906
 9366SOL    HW128997   3.081   1.241   1.963
 9366SOL    HW228998   3.232   1.262   1.905
 9367SOL     OW28999   6.578   6.288   4.035
 9367SOL    HW129000   6.522   6.370   4.029
 9367SOL    HW229001   6.626   6.286   4.122
 9368SOL     OW29002   4.699   2.874   1.368
 9368SOL    HW129003   4.675   2.780   1.391
 9368SOL    HW229004   4.725   2.923   1.451
 9369SOL     OW29005   6.668   2.158   5.592
 9369SOL    HW129006   6.671   2.181   5.495
 9369SOL    HW229007   6.761   2.162   5.630
 9370SOL     OW29008   6.163   6.873   3.457
 9370SOL    HW129009   6.141   6.968   3.479
 9370SOL    HW229010   6.197   6.867   3.363
 9371SOL     OW29011   0.959   6.908   0.273
 9371SOL    HW129012   0.934   6.831   0.215
 9371SOL    HW229013   0.931   6.890   0.367
 9372SOL     OW29014   6.231   6.248   6.650
 9372SOL    HW129015   6.284   6.169   6.619
 9372SOL    HW229016   6.177   6.222   6.730
 9373SOL     OW29017   4.451   2.445   4.333
 9373SOL    HW129018   4.523   2.493   4.382
 9373SOL    HW229019   4.365   2.496   4.343
 9374SOL     OW29020   5.314   4.074   0.373
 9374SOL    HW129021   5.312   3.997   0.309
 9374SOL    HW229022   5.228   4.124   0.367
 9375SOL     OW29023   0.929   1.291   3.748
 9375SOL    HW129024   0.969   1.315   3.836
 9375SOL    HW229025   0.977   1.341   3.675
 9376SOL     OW29026   1.943   2.889   2.343
 9376SOL    HW129027   2.034   2.859   2.371
 9376SOL    HW229028   1.952   2.964   2.277
 9377SOL     OW29029   5.755   5.048   2.775
 9377SOL    HW129030   5.788   5.045   2.681
 9377SOL    HW229031   5.761   5.142   2.810
 9378SOL     OW29032   3.762   6.187   0.972
 9378SOL    HW129033   3.757   6.266   0.912
 9378SOL    HW229034   3.741   6.104   0.919
 9379SOL     OW29035   5.346   4.707   5.568
 9379SOL    HW129036   5.374   4.708   5.472
 9379SOL    HW229037   5.251   4.674   5.574
 9380SOL     OW29038   6.311   5.959   6.432
 9380SOL    HW129039   6.244   5.933   6.362
 9380SOL    HW229040   6.273   5.938   6.522
 9381SOL     OW29041   2.541   0.844   0.131
 9381SOL    HW129042   2.615   0.779   0.115
 9381SOL    HW229043   2.465   0.797   0.176
 9382SOL     OW29044   5.474   2.196   2.490
 9382SOL    HW129045   5.433   2.283   2.516
 9382SOL    HW229046   5.553   2.178   2.548
 9383SOL     OW29047   5.833   5.729   5.387
 9383SOL    HW129048   5.925   5.750   5.421
 9383SOL    HW229049   5.772   5.805   5.408
 9384SOL     OW29050   4.359   6.194   1.984
 9384SOL    HW129051   4.318   6.196   2.075
 9384SOL    HW229052   4.295   6.151   1.920
 9385SOL     OW29053   3.944   1.361   3.906
 9385SOL    HW129054   4.030   1.360   3.957
 9385SOL    HW229055   3.927   1.454   3.872
 9386SOL     OW29056   4.000   0.252   4.574
 9386SOL    HW129057   3.992   0.153   4.579
 9386SOL    HW229058   4.044   0.279   4.488
 9387SOL     OW29059   3.880   6.758   0.310
 9387SOL    HW129060   3.815   6.682   0.306
 9387SOL    HW229061   3.963   6.734   0.259
 9388SOL     OW29062   6.940   6.796   2.479
 9388SOL    HW129063   6.853   6.829   2.441
 9388SOL    HW229064   7.015   6.830   2.423
 9389SOL     OW29065   3.201   1.162   6.915
 9389SOL    HW129066   3.249   1.245   6.945
 9389SOL    HW229067   3.204   1.093   6.987
 9390SOL     OW29068   2.869   6.877   1.776
 9390SOL    HW129069   2.857   6.865   1.677
 9390SOL    HW229070   2.908   6.793   1.814
 9391SOL     OW29071   0.533   0.857   5.448
 9391SOL    HW129072   0.612   0.855   5.510
 9391SOL    HW229073   0.496   0.765   5.439
 9392SOL     OW29074   1.381   6.039   3.792
 9392SOL    HW129075   1.399   6.135   3.811
 9392SOL    HW229076   1.414   5.983   3.868
 9393SOL     OW29077   3.852   2.346   5.502
 9393SOL    HW129078   3.826   2.269   5.444
 9393SOL    HW229079   3.935   2.388   5.467
 9394SOL     OW29080   5.647   1.907   1.997
 9394SOL    HW129081   5.550   1.889   2.015
 9394SOL    HW229082   5.702   1.876   2.075
 9395SOL     OW29083   1.740   2.231   6.741
 9395SOL    HW129084   1.673   2.159   6.722
 9395SOL    HW229085   1.768   2.274   6.655
 9396SOL     OW29086   6.194   0.378   6.863
 9396SOL    HW129087   6.126   0.415   6.799
 9396SOL    HW229088   6.218   0.449   6.930
 9397SOL     OW29089   2.964   1.219   0.685
 9397SOL    HW129090   2.954   1.318   0.696
 9397SOL    HW229091   2.878   1.180   0.652
 9398SOL     OW29092   2.187   1.855   6.796
 9398SOL    HW129093   2.167   1.952   6.783
 9398SOL    HW229094   2.275   1.833   6.755
 9399SOL     OW29095   6.552   1.063   5.445
 9399SOL    HW129096   6.560   1.131   5.372
 9399SOL    HW229097   6.640   1.055   5.492
 9400SOL     OW29098   4.626   2.228   3.433
 9400SOL    HW129099   4.559   2.250   3.504
 9400SOL    HW229100   4.717   2.224   3.474
 9401SOL     OW29101   3.719   0.180   3.060
 9401SOL    HW129102   3.722   0.132   2.972
 9401SOL    HW229103   3.687   0.273   3.045
 9402SOL     OW29104   2.287   5.221   6.956
 9402SOL    HW129105   2.310   5.252   6.864
 9402SOL    HW229106   2.193   5.188   6.958
 9403SOL     OW29107   5.604   1.586   4.447
 9403SOL    HW129108   5.529   1.640   4.409
 9403SOL    HW229109   5.605   1.595   4.546
 9404SOL     OW29110   0.642   4.091   5.709
 9404SOL    HW129111   0.729   4.140   5.713
 9404SOL    HW229112   0.567   4.157   5.717
 9405SOL     OW29113   6.394   0.101   0.684
 9405SOL    HW129114   6.380   0.197   0.657
 9405SOL    HW229115   6.340   0.082   0.766
 9406SOL     OW29116   0.061   1.105   5.742
 9406SOL    HW129117   0.138   1.044   5.722
 9406SOL    HW229118   6.997   1.073   5.694
 9407SOL     OW29119   3.174   6.128   2.808
 9407SOL    HW129120   3.234   6.070   2.862
 9407SOL    HW229121   3.087   6.141   2.857
 9408SOL     OW29122   3.726   1.827   6.516
 9408SOL    HW129123   3.674   1.743   6.502
 9408SOL    HW229124   3.749   1.867   6.427
 9409SOL     OW29125   5.489   3.731   3.128
 9409SOL    HW129126   5.391   3.744   3.143
 9409SOL    HW229127   5.530   3.688   3.209
 9410SOL     OW29128   5.050   6.641   2.555
 9410SOL    HW129129   5.073   6.555   2.600
 9410SOL    HW229130   5.119   6.710   2.576
 9411SOL     OW29131   4.831   5.832   1.314
 9411SOL    HW129132   4.799   5.783   1.233
 9411SOL    HW229133   4.784   5.920   1.320
 9412SOL     OW29134   6.401   2.818   1.393
 9412SOL    HW129135   6.393   2.834   1.295
 9412SOL    HW229136   6.375   2.724   1.413
 9413SOL     OW29137   3.629   5.667   5.152
 9413SOL    HW129138   3.607   5.687   5.247
 9413SOL    HW229139   3.707   5.723   5.123
 9414SOL     OW29140   2.662   1.619   2.207
 9414SOL    HW129141   2.637   1.531   2.168
 9414SOL    HW229142   2.721   1.668   2.142
 9415SOL     OW29143   3.232   0.921   2.271
 9415SOL    HW129144   3.284   0.874   2.199
 9415SOL    HW229145   3.222   1.018   2.246
 9416SOL     OW29146   0.692   2.405   1.128
 9416SOL    HW129147   0.620   2.435   1.066
 9416SOL    HW229148   0.781   2.434   1.093
 9417SOL     OW29149   2.102   6.471   4.487
 9417SOL    HW129150   2.047   6.411   4.545
 9417SOL    HW229151   2.075   6.566   4.500
 9418SOL     OW29152   3.656   4.136   1.114
 9418SOL    HW129153   3.741   4.164   1.160
 9418SOL    HW229154   3.590   4.104   1.182
 9419SOL     OW29155   3.822   6.063   5.329
 9419SOL    HW129156   3.874   6.056   5.244
 9419SOL    HW229157   3.885   6.065   5.407
 9420SOL     OW29158   1.003   1.334   4.005
 9420SOL    HW129159   0.964   1.272   4.073
 9420SOL    HW229160   1.028   1.420   4.048
 9421SOL     OW29161   1.562   4.905   4.808
 9421SOL    HW129162   1.588   4.962   4.885
 9421SOL    HW229163   1.577   4.955   4.723
 9422SOL     OW29164   4.056   1.879   1.806
 9422SOL    HW129165   3.977   1.832   1.847
 9422SOL    HW229166   4.055   1.975   1.834
 9423SOL     OW29167   4.529   0.727   4.860
 9423SOL    HW129168   4.452   0.691   4.912
 9423SOL    HW229169   4.498   0.802   4.801
 9424SOL     OW29170   3.023   6.259   4.426
 9424SOL    HW129171   2.930   6.224   4.426
 9424SOL    HW229172   3.079   6.208   4.492
 9425SOL     OW29173   1.360   4.053   3.729
 9425SOL    HW129174   1.264   4.057   3.758
 9425SOL    HW229175   1.403   3.972   3.769
 9426SOL     OW29176   3.394   6.544   0.184
 9426SOL    HW129177   3.439   6.497   0.108
 9426SOL    HW229178   3.309   6.584   0.153
 9427SOL     OW29179   2.908   4.767   4.044
 9427SOL    HW129180   2.855   4.682   4.052
 9427SOL    HW229181   2.977   4.770   4.116
 9428SOL     OW29182   4.615   6.315   2.553
 9428SOL    HW129183   4.549   6.240   2.546
 9428SOL    HW229184   4.702   6.279   2.586
 9429SOL     OW29185   0.277   4.028   2.546
 9429SOL    HW129186   0.267   4.109   2.488
 9429SOL    HW229187   0.352   3.972   2.512
 9430SOL     OW29188   6.425   0.015   2.213
 9430SOL    HW129189   6.402   6.943   2.251
 9430SOL    HW229190   6.365   0.085   2.251
 9431SOL     OW29191   6.613   4.597   2.115
 9431SOL    HW129192   6.584   4.505   2.140
 9431SOL    HW229193   6.646   4.645   2.196
 9432SOL     OW29194   6.449   0.016   4.396
 9432SOL    HW129195   6.390   6.975   4.340
 9432SOL    HW229196   6.495   6.977   4.465
 9433SOL     OW29197   2.493   4.634   4.967
 9433SOL    HW129198   2.435   4.609   5.044
 9433SOL    HW229199   2.589   4.629   4.994
 9434SOL     OW29200   5.509   5.183   3.089
 9434SOL    HW129201   5.430   5.243   3.104
 9434SOL    HW229202   5.549   5.203   2.999
 9435SOL     OW29203   1.520   0.773   4.581
 9435SOL    HW129204   1.606   0.756   4.532
 9435SOL    HW229205   1.445   0.778   4.515
 9436SOL     OW29206   1.819   2.606   6.657
 9436SOL    HW129207   1.819   2.517   6.612
 9436SOL    HW229208   1.895   2.611   6.721
 9437SOL     OW29209   0.636   5.439   4.099
 9437SOL    HW129210   0.669   5.478   4.185
 9437SOL    HW229211   0.705   5.378   4.062
 9438SOL     OW29212   1.294   6.213   2.287
 9438SOL    HW129213   1.384   6.205   2.244
 9438SOL    HW229214   1.305   6.221   2.386
 9439SOL     OW29215   0.703   2.918   1.521
 9439SOL    HW129216   0.645   2.969   1.584
 9439SOL    HW229217   0.734   2.978   1.447
 9440SOL     OW29218   4.754   5.795   5.599
 9440SOL    HW129219   4.730   5.793   5.502
 9440SOL    HW229220   4.841   5.843   5.611
 9441SOL     OW29221   1.187   4.680   4.678
 9441SOL    HW129222   1.092   4.657   4.656
 9441SOL    HW229223   1.242   4.597   4.676
 9442SOL     OW29224   0.719   3.235   1.516
 9442SOL    HW129225   0.757   3.305   1.577
 9442SOL    HW229226   0.790   3.167   1.495
 9443SOL     OW29227   1.602   3.225   1.667
 9443SOL    HW129228   1.552   3.149   1.708
 9443SOL    HW229229   1.671   3.257   1.732
 9444SOL     OW29230   0.040   3.452   6.573
 9444SOL    HW129231   0.134   3.441   6.603
 9444SOL    HW229232   6.999   3.476   6.652
 9445SOL     OW29233   6.048   3.890   1.358
 9445SOL    HW129234   6.052   3.871   1.456
 9445SOL    HW229235   6.140   3.908   1.323
 9446SOL     OW29236   6.000   5.347   1.335
 9446SOL    HW129237   6.022   5.250   1.349
 9446SOL    HW229238   6.065   5.387   1.270
 9447SOL     OW29239   6.134   2.613   1.702
 9447SOL    HW129240   6.215   2.611   1.761
 9447SOL    HW229241   6.053   2.593   1.757
 9448SOL     OW29242   6.381   6.341   0.397
 9448SOL    HW129243   6.423   6.251   0.399
 9448SOL    HW229244   6.413   6.395   0.475
 9449SOL     OW29245   6.902   5.393   5.158
 9449SOL    HW129246   6.969   5.442   5.103
 9449SOL    HW229247   6.912   5.295   5.144
 9450SOL     OW29248   2.875   4.819   4.436
 9450SOL    HW129249   2.817   4.758   4.489
 9450SOL    HW229250   2.818   4.871   4.371
 9451SOL     OW29251   4.288   4.603   5.961
 9451SOL    HW129252   4.237   4.537   6.017
 9451SOL    HW229253   4.231   4.683   5.944
 9452SOL     OW29254   2.832   4.306   1.428
 9452SOL    HW129255   2.772   4.365   1.375
 9452SOL    HW229256   2.799   4.212   1.423
 9453SOL     OW29257   3.440   4.965   1.995
 9453SOL    HW129258   3.354   4.939   1.951
 9453SOL    HW229259   3.508   4.893   1.981
 9454SOL     OW29260   2.374   2.545   5.076
 9454SOL    HW129261   2.452   2.553   5.138
 9454SOL    HW229262   2.314   2.471   5.106
 9455SOL     OW29263   3.437   1.809   2.614
 9455SOL    HW129264   3.348   1.821   2.570
 9455SOL    HW229265   3.509   1.811   2.546
 9456SOL     OW29266   1.700   2.994   1.185
 9456SOL    HW129267   1.669   3.085   1.212
 9456SOL    HW229268   1.636   2.955   1.119
 9457SOL     OW29269   0.208   3.326   0.445
 9457SOL    HW129270   0.191   3.402   0.383
 9457SOL    HW229271   0.306   3.308   0.451
 9458SOL     OW29272   0.050   5.904   4.726
 9458SOL    HW129273   0.015   5.997   4.740
 9458SOL    HW229274   0.101   5.899   4.641
 9459SOL     OW29275   4.817   6.078   1.782
 9459SOL    HW129276   4.845   6.156   1.725
 9459SOL    HW229277   4.746   6.108   1.846
 9460SOL     OW29278   0.624   2.261   5.281
 9460SOL    HW129279   0.544   2.322   5.287
 9460SOL    HW229280   0.611   2.184   5.343
 9461SOL     OW29281   1.566   0.336   3.367
 9461SOL    HW129282   1.518   0.424   3.363
 9461SOL    HW229283   1.573   0.306   3.462
 9462SOL     OW29284   0.690   3.370   2.934
 9462SOL    HW129285   0.662   3.391   3.027
 9462SOL    HW229286   0.726   3.452   2.891
 9463SOL     OW29287   5.141   1.283   0.488
 9463SOL    HW129288   5.073   1.275   0.416
 9463SOL    HW229289   5.223   1.232   0.463
 9464SOL     OW29290   4.953   0.036   6.146
 9464SOL    HW129291   4.982   0.029   6.241
 9464SOL    HW229292   5.033   0.033   6.086
 9465SOL     OW29293   5.951   0.355   4.342
 9465SOL    HW129294   5.942   0.318   4.250
 9465SOL    HW229295   5.937   0.282   4.409
 9466SOL     OW29296   3.075   2.453   6.828
 9466SOL    HW129297   3.022   2.372   6.803
 9466SOL    HW229298   3.041   2.532   6.777
 9467SOL     OW29299   2.084   3.376   2.210
 9467SOL    HW129300   2.142   3.377   2.128
 9467SOL    HW229301   2.000   3.428   2.192
 9468SOL     OW29302   0.051   2.600   5.624
 9468SOL    HW129303   0.143   2.639   5.634
 9468SOL    HW229304   7.000   2.668   5.652
 9469SOL     OW29305   6.413   4.318   2.186
 9469SOL    HW129306   6.320   4.339   2.158
 9469SOL    HW229307   6.411   4.261   2.268
 9470SOL     OW29308   5.178   4.206   0.925
 9470SOL    HW129309   5.162   4.233   0.830
 9470SOL    HW229310   5.244   4.131   0.928
 9471SOL     OW29311   6.516   2.286   6.432
 9471SOL    HW129312   6.479   2.208   6.382
 9471SOL    HW229313   6.443   2.351   6.451
 9472SOL     OW29314   6.617   3.577   4.545
 9472SOL    HW129315   6.520   3.573   4.568
 9472SOL    HW229316   6.657   3.661   4.581
 9473SOL     OW29317   3.598   5.319   4.836
 9473SOL    HW129318   3.504   5.296   4.862
 9473SOL    HW229319   3.606   5.318   4.736
 9474SOL     OW29320   4.179   5.096   2.523
 9474SOL    HW129321   4.083   5.119   2.511
 9474SOL    HW229322   4.187   5.025   2.594
 9475SOL     OW29323   1.480   3.681   1.408
 9475SOL    HW129324   1.477   3.777   1.435
 9475SOL    HW229325   1.525   3.627   1.480
 9476SOL     OW29326   3.750   4.026   5.545
 9476SOL    HW129327   3.827   3.972   5.578
 9476SOL    HW229328   3.760   4.043   5.447
 9477SOL     OW29329   1.103   3.084   0.909
 9477SOL    HW129330   1.160   3.055   0.985
 9477SOL    HW229331   1.059   3.005   0.867
 9478SOL     OW29332   5.556   4.879   5.325
 9478SOL    HW129333   5.585   4.950   5.261
 9478SOL    HW229334   5.562   4.790   5.282
 9479SOL     OW29335   6.818   6.036   5.802
 9479SOL    HW129336   6.908   6.044   5.761
 9479SOL    HW229337   6.826   6.039   5.902
 9480SOL     OW29338   6.176   4.985   0.259
 9480SOL    HW129339   6.198   4.942   0.172
 9480SOL    HW229340   6.225   5.072   0.268
 9481SOL     OW29341   6.986   3.420   2.130
 9481SOL    HW129342   0.050   3.364   2.115
 9481SOL    HW229343   7.012   3.505   2.175
 9482SOL     OW29344   3.793   0.562   2.644
 9482SOL    HW129345   3.844   0.507   2.710
 9482SOL    HW229346   3.843   0.648   2.628
 9483SOL     OW29347   1.459   1.639   6.840
 9483SOL    HW129348   1.393   1.580   6.794
 9483SOL    HW229349   1.462   1.728   6.794
 9484SOL     OW29350   6.294   1.266   3.181
 9484SOL    HW129351   6.377   1.290   3.131
 9484SOL    HW229352   6.283   1.328   3.259
 9485SOL     OW29353   1.310   0.365   3.208
 9485SOL    HW129354   1.368   0.404   3.136
 9485SOL    HW229355   1.220   0.410   3.207
 9486SOL     OW29356   3.303   6.230   1.999
 9486SOL    HW129357   3.279   6.284   1.918
 9486SOL    HW229358   3.396   6.195   1.988
 9487SOL     OW29359   3.010   3.158   3.618
 9487SOL    HW129360   2.989   3.176   3.522
 9487SOL    HW229361   3.109   3.159   3.632
 9488SOL     OW29362   1.494   0.313   1.221
 9488SOL    HW129363   1.415   0.349   1.171
 9488SOL    HW229364   1.540   0.243   1.166
 9489SOL     OW29365   3.613   3.920   0.446
 9489SOL    HW129366   3.638   4.007   0.488
 9489SOL    HW229367   3.687   3.854   0.460
 9490SOL     OW29368   5.288   0.962   0.677
 9490SOL    HW129369   5.196   0.997   0.696
 9490SOL    HW229370   5.338   0.952   0.763
 9491SOL     OW29371   6.292   5.208   6.565
 9491SOL    HW129372   6.200   5.172   6.578
 9491SOL    HW229373   6.288   5.308   6.563
 9492SOL     OW29374   3.074   3.888   2.057
 9492SOL    HW129375   3.035   3.933   1.977
 9492SOL    HW229376   3.120   3.956   2.115
 9493SOL     OW29377   5.142   5.916   3.210
 9493SOL    HW129378   5.144   5.839   3.146
 9493SOL    HW229379   5.217   5.978   3.189
 9494SOL     OW29380   4.311   3.378   5.456
 9494SOL    HW129381   4.370   3.437   5.401
 9494SOL    HW229382   4.281   3.300   5.401
 9495SOL     OW29383   5.743   2.847   5.429
 9495SOL    HW129384   5.825   2.822   5.376
 9495SOL    HW229385   5.703   2.765   5.468
 9496SOL     OW29386   5.654   3.967   0.167
 9496SOL    HW129387   5.652   4.065   0.187
 9496SOL    HW229388   5.747   3.940   0.142
 9497SOL     OW29389   0.061   6.241   5.965
 9497SOL    HW129390   0.031   6.335   5.952
 9497SOL    HW229391   7.002   6.186   5.998
 9498SOL     OW29392   4.509   0.172   5.864
 9498SOL    HW129393   4.596   0.184   5.911
 9498SOL    HW229394   4.463   0.260   5.855
 9499SOL     OW29395   4.544   4.216   5.842
 9499SOL    HW129396   4.508   4.203   5.750
 9499SOL    HW229397   4.643   4.203   5.841
 9500SOL     OW29398   5.314   5.685   1.940
 9500SOL    HW129399   5.309   5.661   2.037
 9500SOL    HW229400   5.229   5.732   1.914
 9501SOL     OW29401   3.382   1.792   4.617
 9501SOL    HW129402   3.363   1.884   4.651
 9501SOL    HW229403   3.412   1.797   4.522
 9502SOL     OW29404   5.707   3.676   5.336
 9502SOL    HW129405   5.648   3.691   5.256
 9502SOL    HW229406   5.678   3.593   5.383
 9503SOL     OW29407   1.749   6.444   1.041
 9503SOL    HW129408   1.661   6.477   1.074
 9503SOL    HW229409   1.799   6.519   0.998
 9504SOL     OW29410   1.007   2.802   6.696
 9504SOL    HW129411   0.973   2.757   6.613
 9504SOL    HW229412   1.037   2.895   6.673
 9505SOL     OW29413   5.778   3.376   2.659
 9505SOL    HW129414   5.699   3.332   2.617
 9505SOL    HW229415   5.839   3.307   2.698
 9506SOL     OW29416   6.266   3.829   0.391
 9506SOL    HW129417   6.251   3.912   0.337
 9506SOL    HW229418   6.313   3.852   0.476
 9507SOL     OW29419   1.261   1.906   3.892
 9507SOL    HW129420   1.331   1.898   3.822
 9507SOL    HW229421   1.289   1.974   3.960
 9508SOL     OW29422   5.067   2.059   0.408
 9508SOL    HW129423   5.061   2.116   0.326
 9508SOL    HW229424   5.001   2.091   0.476
 9509SOL     OW29425   2.433   6.827   5.037
 9509SOL    HW129426   2.531   6.843   5.035
 9509SOL    HW229427   2.388   6.897   5.093
 9510SOL     OW29428   5.999   4.473   3.318
 9510SOL    HW129429   6.026   4.429   3.233
 9510SOL    HW229430   5.907   4.441   3.345
 9511SOL     OW29431   0.882   1.158   0.807
 9511SOL    HW129432   0.806   1.152   0.871
 9511SOL    HW229433   0.855   1.213   0.728
 9512SOL     OW29434   1.421   2.416   4.014
 9512SOL    HW129435   1.380   2.458   4.095
 9512SOL    HW229436   1.353   2.415   3.940
 9513SOL     OW29437   2.312   4.345   3.785
 9513SOL    HW129438   2.321   4.249   3.814
 9513SOL    HW229439   2.360   4.357   3.698
 9514SOL     OW29440   2.481   2.943   6.210
 9514SOL    HW129441   2.393   2.947   6.258
 9514SOL    HW229442   2.551   2.986   6.266
 9515SOL     OW29443   2.203   5.880   6.343
 9515SOL    HW129444   2.176   5.900   6.248
 9515SOL    HW229445   2.122   5.873   6.400
 9516SOL     OW29446   5.172   3.383   4.433
 9516SOL    HW129447   5.090   3.426   4.469
 9516SOL    HW229448   5.216   3.443   4.367
 9517SOL     OW29449   0.306   5.547   2.130
 9517SOL    HW129450   0.206   5.548   2.129
 9517SOL    HW229451   0.338   5.516   2.220
 9518SOL     OW29452   0.847   2.421   5.722
 9518SOL    HW129453   0.889   2.473   5.648
 9518SOL    HW229454   0.919   2.387   5.783
 9519SOL     OW29455   3.413   3.571   2.688
 9519SOL    HW129456   3.373   3.492   2.735
 9519SOL    HW229457   3.396   3.654   2.740
 9520SOL     OW29458   5.684   0.277   6.146
 9520SOL    HW129459   5.666   0.315   6.236
 9520SOL    HW229460   5.684   0.351   6.078
 9521SOL     OW29461   3.660   0.288   0.939
 9521SOL    HW129462   3.684   0.331   0.852
 9521SOL    HW229463   3.741   0.247   0.980
 9522SOL     OW29464   3.713   6.963   2.434
 9522SOL    HW129465   3.792   6.906   2.456
 9522SOL    HW229466   3.714   0.028   2.491
 9523SOL     OW29467   2.899   4.807   3.765
 9523SOL    HW129468   2.919   4.826   3.861
 9523SOL    HW229469   2.851   4.719   3.757
 9524SOL     OW29470   2.681   4.006   1.364
 9524SOL    HW129471   2.705   3.922   1.316
 9524SOL    HW229472   2.606   4.052   1.316
 9525SOL     OW29473   2.151   3.083   5.133
 9525SOL    HW129474   2.232   3.041   5.092
 9525SOL    HW229475   2.159   3.083   5.232
 9526SOL     OW29476   5.307   5.107   6.922
 9526SOL    HW129477   5.211   5.109   6.949
 9526SOL    HW229478   5.314   5.085   6.825
 9527SOL     OW29479   4.139   0.162   3.143
 9527SOL    HW129480   4.065   0.103   3.110
 9527SOL    HW229481   4.105   0.222   3.215
 9528SOL     OW29482   5.792   2.345   0.885
 9528SOL    HW129483   5.758   2.367   0.794
 9528SOL    HW229484   5.885   2.381   0.895
 9529SOL     OW29485   6.285   1.092   1.367
 9529SOL    HW129486   6.380   1.099   1.396
 9529SOL    HW229487   6.253   0.998   1.381
 9530SOL     OW29488   1.265   5.519   3.886
 9530SOL    HW129489   1.256   5.618   3.883
 9530SOL    HW229490   1.342   5.494   3.944
 9531SOL     OW29491   3.533   5.191   2.410
 9531SOL    HW129492   3.484   5.245   2.478
 9531SOL    HW229493   3.522   5.094   2.431
 9532SOL     OW29494   6.606   5.189   3.145
 9532SOL    HW129495   6.509   5.209   3.162
 9532SOL    HW229496   6.660   5.222   3.222
 9533SOL     OW29497   1.908   4.001   3.335
 9533SOL    HW129498   1.872   3.991   3.242
 9533SOL    HW229499   1.927   4.097   3.353
 9534SOL     OW29500   5.554   4.874   4.648
 9534SOL    HW129501   5.477   4.927   4.612
 9534SOL    HW229502   5.637   4.930   4.645
 9535SOL     OW29503   0.870   1.194   5.668
 9535SOL    HW129504   0.919   1.254   5.605
 9535SOL    HW229505   0.772   1.215   5.664
 9536SOL     OW29506   3.666   4.287   5.147
 9536SOL    HW129507   3.739   4.274   5.080
 9536SOL    HW229508   3.629   4.198   5.174
 9537SOL     OW29509   0.734   1.409   3.227
 9537SOL    HW129510   0.795   1.441   3.155
 9537SOL    HW229511   0.786   1.354   3.292
 9538SOL     OW29512   4.400   0.939   5.723
 9538SOL    HW129513   4.309   0.956   5.687
 9538SOL    HW229514   4.469   0.962   5.653
 9539SOL     OW29515   3.557   3.438   2.364
 9539SOL    HW129516   3.463   3.423   2.397
 9539SOL    HW229517   3.555   3.462   2.267
 9540SOL     OW29518   4.591   4.580   3.673
 9540SOL    HW129519   4.687   4.596   3.651
 9540SOL    HW229520   4.539   4.562   3.590
 9541SOL     OW29521   1.963   5.305   5.864
 9541SOL    HW129522   2.008   5.370   5.925
 9541SOL    HW229523   1.873   5.342   5.838
 9542SOL     OW29524   6.338   3.985   4.369
 9542SOL    HW129525   6.261   3.938   4.324
 9542SOL    HW229526   6.311   4.079   4.390
 9543SOL     OW29527   2.979   0.057   5.551
 9543SOL    HW129528   3.014   6.982   5.565
 9543SOL    HW229529   2.901   0.073   5.613
 9544SOL     OW29530   5.596   3.557   4.082
 9544SOL    HW129531   5.550   3.471   4.101
 9544SOL    HW229532   5.693   3.540   4.064
 9545SOL     OW29533   0.978   4.518   1.658
 9545SOL    HW129534   0.972   4.442   1.723
 9545SOL    HW229535   0.963   4.604   1.705
 9546SOL     OW29536   2.534   2.641   7.009
 9546SOL    HW129537   2.488   2.554   6.995
 9546SOL    HW229538   2.556   2.652   0.089
 9547SOL     OW29539   4.073   6.495   4.152
 9547SOL    HW129540   4.083   6.439   4.234
 9547SOL    HW229541   4.081   6.592   4.176
 9548SOL     OW29542   1.196   4.702   7.005
 9548SOL    HW129543   1.130   4.754   6.951
 9548SOL    HW229544   1.191   4.730   0.084
 9549SOL     OW29545   5.200   3.125   1.009
 9549SOL    HW129546   5.254   3.125   0.925
 9549SOL    HW229547   5.108   3.090   0.990
 9550SOL     OW29548   5.596   3.353   1.489
 9550SOL    HW129549   5.614   3.361   1.587
 9550SOL    HW229550   5.658   3.413   1.439
 9551SOL     OW29551   6.466   3.109   6.732
 9551SOL    HW129552   6.453   3.163   6.649
 9551SOL    HW229553   6.562   3.084   6.741
 9552SOL     OW29554   3.305   2.166   7.004
 9552SOL    HW129555   3.224   2.126   0.030
 9552SOL    HW229556   3.334   2.247   0.040
 9553SOL     OW29557   5.457   1.452   6.527
 9553SOL    HW129558   5.511   1.535   6.539
 9553SOL    HW229559   5.396   1.440   6.606
 9554SOL     OW29560   2.425   6.594   3.972
 9554SOL    HW129561   2.432   6.690   3.946
 9554SOL    HW229562   2.363   6.547   3.910
 9555SOL     OW29563   6.411   0.614   3.642
 9555SOL    HW129564   6.405   0.625   3.741
 9555SOL    HW229565   6.364   0.530   3.615
 9556SOL     OW29566   1.907   4.418   0.092
 9556SOL    HW129567   1.991   4.471   0.080
 9556SOL    HW229568   1.917   4.330   0.045
 9557SOL     OW29569   4.896   0.801   1.632
 9557SOL    HW129570   4.941   0.724   1.678
 9557SOL    HW229571   4.854   0.861   1.700
 9558SOL     OW29572   4.880   6.461   6.607
 9558SOL    HW129573   4.976   6.462   6.577
 9558SOL    HW229574   4.821   6.452   6.527
 9559SOL     OW29575   1.387   4.062   0.406
 9559SOL    HW129576   1.327   3.983   0.415
 9559SOL    HW229577   1.414   4.073   0.311
 9560SOL     OW29578   3.637   6.921   1.924
 9560SOL    HW129579   3.560   6.906   1.862
 9560SOL    HW229580   3.652   0.002   1.935
 9561SOL     OW29581   0.668   0.703   0.737
 9561SOL    HW129582   0.768   0.702   0.746
 9561SOL    HW229583   0.626   0.682   0.825
 9562SOL     OW29584   3.202   5.738   3.460
 9562SOL    HW129585   3.130   5.670   3.445
 9562SOL    HW229586   3.213   5.794   3.378
 9563SOL     OW29587   0.484   6.361   1.244
 9563SOL    HW129588   0.529   6.293   1.302
 9563SOL    HW229589   0.476   6.326   1.151
 9564SOL     OW29590   1.034   0.741   0.115
 9564SOL    HW129591   1.080   0.654   0.096
 9564SOL    HW229592   1.075   0.813   0.058
 9565SOL     OW29593   3.206   1.468   3.451
 9565SOL    HW129594   3.185   1.546   3.510
 9565SOL    HW229595   3.247   1.395   3.505
 9566SOL     OW29596   2.937   0.835   0.082
 9566SOL    HW129597   2.850   0.787   0.072
 9566SOL    HW229598   2.992   0.823   7.017
 9567SOL     OW29599   6.522   3.964   0.984
 9567SOL    HW129600   6.540   4.031   0.912
 9567SOL    HW229601   6.476   3.885   0.945
 9568SOL     OW29602   4.873   1.505   6.779
 9568SOL    HW129603   4.895   1.584   6.836
 9568SOL    HW229604   4.843   1.429   6.837
 9569SOL     OW29605   5.751   0.933   2.125
 9569SOL    HW129606   5.748   0.843   2.167
 9569SOL    HW229607   5.815   0.992   2.175
 9570SOL     OW29608   0.436   3.140   1.277
 9570SOL    HW129609   0.338   3.158   1.270
 9570SOL    HW229610   0.463   3.137   1.373
 9571SOL     OW29611   2.461   1.885   6.756
 9571SOL    HW129612   2.515   1.900   6.839
 9571SOL    HW229613   2.460   1.968   6.701
 9572SOL     OW29614   2.265   4.078   3.853
 9572SOL    HW129615   2.180   4.026   3.851
 9572SOL    HW229616   2.291   4.095   3.948
 9573SOL     OW29617   6.218   0.904   4.681
 9573SOL    HW129618   6.180   0.868   4.596
 9573SOL    HW229619   6.243   1.000   4.669
 9574SOL     OW29620   3.099   3.332   1.375
 9574SOL    HW129621   3.191   3.301   1.397
 9574SOL    HW229622   3.033   3.258   1.393
 9575SOL     OW29623   6.089   6.562   1.355
 9575SOL    HW129624   6.143   6.640   1.323
 9575SOL    HW229625   5.993   6.588   1.364
 9576SOL     OW29626   0.644   6.583   0.003
 9576SOL    HW129627   0.623   6.616   6.928
 9576SOL    HW229628   0.624   6.485   0.008
 9577SOL     OW29629   6.236   5.331   2.174
 9577SOL    HW129630   6.216   5.406   2.236
 9577SOL    HW229631   6.266   5.251   2.227
 9578SOL     OW29632   2.018   2.786   3.056
 9578SOL    HW129633   1.990   2.786   3.152
 9578SOL    HW229634   2.087   2.857   3.041
 9579SOL     OW29635   5.811   6.192   2.248
 9579SOL    HW129636   5.783   6.227   2.338
 9579SOL    HW229637   5.889   6.130   2.259
 9580SOL     OW29638   5.336   4.608   2.759
 9580SOL    HW129639   5.249   4.638   2.720
 9580SOL    HW229640   5.411   4.633   2.697
 9581SOL     OW29641   6.483   1.380   6.997
 9581SOL    HW129642   6.554   1.311   7.012
 9581SOL    HW229643   6.525   1.463   6.959
 9582SOL     OW29644   5.054   5.996   4.270
 9582SOL    HW129645   5.012   6.052   4.199
 9582SOL    HW229646   5.125   6.048   4.317
 9583SOL     OW29647   3.521   4.368   1.760
 9583SOL    HW129648   3.520   4.461   1.798
 9583SOL    HW229649   3.555   4.304   1.828
 9584SOL     OW29650   2.082   5.553   4.873
 9584SOL    HW129651   2.133   5.469   4.894
 9584SOL    HW229652   2.031   5.582   4.954
 9585SOL     OW29653   4.438   5.651   1.353
 9585SOL    HW129654   4.534   5.635   1.374
 9585SOL    HW229655   4.428   5.739   1.307
 9586SOL     OW29656   4.540   4.877   2.029
 9586SOL    HW129657   4.576   4.853   1.939
 9586SOL    HW229658   4.614   4.879   2.096
 9587SOL     OW29659   2.768   5.786   1.722
 9587SOL    HW129660   2.801   5.803   1.629
 9587SOL    HW229661   2.831   5.827   1.788
 9588SOL     OW29662   6.535   5.481   0.407
 9588SOL    HW129663   6.621   5.458   0.363
 9588SOL    HW229664   6.464   5.493   0.337
 9589SOL     OW29665   1.736   3.676   6.158
 9589SOL    HW129666   1.822   3.639   6.122
 9589SOL    HW229667   1.677   3.703   6.083
 9590SOL     OW29668   5.670   1.635   1.855
 9590SOL    HW129669   5.665   1.728   1.890
 9590SOL    HW229670   5.732   1.581   1.914
 9591SOL     OW29671   3.706   0.702   6.490
 9591SOL    HW129672   3.764   0.622   6.504
 9591SOL    HW229673   3.627   0.677   6.433
 9592SOL     OW29674   2.386   5.434   5.880
 9592SOL    HW129675   2.299   5.393   5.908
 9592SOL    HW229676   2.458   5.364   5.885
 9593SOL     OW29677   1.767   1.655   4.456
 9593SOL    HW129678   1.865   1.675   4.461
 9593SOL    HW229679   1.728   1.698   4.374
 9594SOL     OW29680   0.346   6.106   4.085
 9594SOL    HW129681   0.431   6.056   4.067
 9594SOL    HW229682   0.366   6.204   4.090
 9595SOL     OW29683   7.003   3.361   3.714
 9595SOL    HW129684   0.014   3.280   3.765
 9595SOL    HW229685   6.923   3.339   3.658
 9596SOL     OW29686   0.452   6.671   0.971
 9596SOL    HW129687   0.444   6.770   0.954
 9596SOL    HW229688   0.387   6.622   0.914
 9597SOL     OW29689   0.643   4.004   2.711
 9597SOL    HW129690   0.688   3.958   2.635
 9597SOL    HW229691   0.625   3.938   2.784
 9598SOL     OW29692   1.083   4.147   3.459
 9598SOL    HW129693   1.023   4.108   3.529
 9598SOL    HW229694   1.081   4.090   3.377
 9599SOL     OW29695   3.669   0.020   4.077
 9599SOL    HW129696   3.664   0.079   3.997
 9599SOL    HW229697   3.578   0.004   4.113
 9600SOL     OW29698   3.246   0.828   1.513
 9600SOL    HW129699   3.247   0.862   1.607
 9600SOL    HW229700   3.310   0.752   1.504
 9601SOL     OW29701   6.887   4.205   1.516
 9601SOL    HW129702   6.969   4.218   1.571
 9601SOL    HW229703   6.825   4.142   1.563
 9602SOL     OW29704   4.855   4.257   5.858
 9602SOL    HW129705   4.952   4.261   5.834
 9602SOL    HW229706   4.841   4.297   5.948
 9603SOL     OW29707   5.691   6.043   5.478
 9603SOL    HW129708   5.739   6.126   5.507
 9603SOL    HW229709   5.682   5.981   5.555
 9604SOL     OW29710   5.261   6.748   0.317
 9604SOL    HW129711   5.214   6.836   0.328
 9604SOL    HW229712   5.226   6.701   0.236
 9605SOL     OW29713   6.627   6.325   3.630
 9605SOL    HW129714   6.662   6.419   3.632
 9605SOL    HW229715   6.564   6.315   3.553
 9606SOL     OW29716   1.516   1.653   6.494
 9606SOL    HW129717   1.595   1.688   6.443
 9606SOL    HW229718   1.515   1.694   6.585
 9607SOL     OW29719   3.206   2.802   6.206
 9607SOL    HW129720   3.172   2.883   6.159
 9607SOL    HW229721   3.285   2.827   6.263
 9608SOL     OW29722   6.727   3.881   3.486
 9608SOL    HW129723   6.645   3.874   3.543
 9608SOL    HW229724   6.755   3.790   3.456
 9609SOL     OW29725   4.035   2.610   5.895
 9609SOL    HW129726   3.962   2.542   5.901
 9609SOL    HW229727   4.124   2.567   5.911
 9610SOL     OW29728   1.414   3.981   2.464
 9610SOL    HW129729   1.489   4.046   2.454
 9610SOL    HW229730   1.331   4.020   2.424
 9611SOL     OW29731   1.232   0.531   0.681
 9611SOL    HW129732   1.206   0.485   0.596
 9611SOL    HW229733   1.268   0.463   0.746
 9612SOL     OW29734   0.470   2.921   3.041
 9612SOL    HW129735   0.521   2.836   3.053
 9612SOL    HW229736   0.522   2.982   2.981
 9613SOL     OW29737   5.855   5.476   3.329
 9613SOL    HW129738   5.887   5.407   3.264
 9613SOL    HW229739   5.777   5.439   3.380
 9614SOL     OW29740   5.203   2.053   2.977
 9614SOL    HW129741   5.146   2.024   2.900
 9614SOL    HW229742   5.159   2.029   3.063
 9615SOL     OW29743   2.337   3.050   1.296
 9615SOL    HW129744   2.384   2.964   1.276
 9615SOL    HW229745   2.400   3.126   1.278
 9616SOL     OW29746   3.511   2.806   6.735
 9616SOL    HW129747   3.566   2.884   6.764
 9616SOL    HW229748   3.415   2.832   6.732
 9617SOL     OW29749   2.397   2.334   4.081
 9617SOL    HW129750   2.320   2.288   4.036
 9617SOL    HW229751   2.442   2.271   4.144
 9618SOL     OW29752   3.099   0.996   0.638
 9618SOL    HW129753   3.053   1.082   0.665
 9618SOL    HW229754   3.033   0.936   0.593
 9619SOL     OW29755   2.566   0.824   4.631
 9619SOL    HW129756   2.573   0.799   4.727
 9619SOL    HW229757   2.653   0.863   4.600
 9620SOL     OW29758   5.569   0.204   5.495
 9620SOL    HW129759   5.559   0.232   5.400
 9620SOL    HW229760   5.524   0.117   5.509
 9621SOL     OW29761   1.642   2.736   3.042
 9621SOL    HW129762   1.665   2.667   3.110
 9621SOL    HW229763   1.707   2.732   2.966
 9622SOL     OW29764   5.677   0.465   1.538
 9622SOL    HW129765   5.732   0.536   1.494
 9622SOL    HW229766   5.671   0.483   1.636
 9623SOL     OW29767   3.310   3.523   6.504
 9623SOL    HW129768   3.351   3.536   6.414
 9623SOL    HW229769   3.298   3.425   6.522
 9624SOL     OW29770   5.993   3.075   3.085
 9624SOL    HW129771   6.075   3.041   3.132
 9624SOL    HW229772   5.920   3.090   3.152
 9625SOL     OW29773   6.007   6.128   0.042
 9625SOL    HW129774   5.957   6.101   6.977
 9625SOL    HW229775   6.100   6.155   0.017
 9626SOL     OW29776   3.590   6.646   6.467
 9626SOL    HW129777   3.576   6.570   6.404
 9626SOL    HW229778   3.688   6.663   6.477
 9627SOL     OW29779   0.997   6.598   6.665
 9627SOL    HW129780   0.906   6.634   6.644
 9627SOL    HW229781   1.065   6.648   6.612
 9628SOL     OW29782   4.222   5.846   1.687
 9628SOL    HW129783   4.297   5.905   1.658
 9628SOL    HW229784   4.178   5.805   1.607
 9629SOL     OW29785   2.621   6.300   1.286
 9629SOL    HW129786   2.672   6.348   1.215
 9629SOL    HW229787   2.543   6.356   1.314
 9630SOL     OW29788   6.071   1.094   5.757
 9630SOL    HW129789   6.012   1.148   5.697
 9630SOL    HW229790   6.161   1.084   5.715
 9631SOL     OW29791   5.938   5.972   6.774
 9631SOL    HW129792   5.850   6.001   6.812
 9631SOL    HW229793   5.923   5.930   6.684
 9632SOL     OW29794   1.723   6.048   1.794
 9632SOL    HW129795   1.649   6.076   1.733
 9632SOL    HW229796   1.685   5.998   1.872
 9633SOL     OW29797   6.875   5.367   6.516
 9633SOL    HW129798   6.921   5.370   6.427
 9633SOL    HW229799   6.844   5.459   6.539
 9634SOL     OW29800   1.041   6.435   4.786
 9634SOL    HW129801   1.076   6.379   4.711
 9634SOL    HW229802   1.066   6.530   4.770
 9635SOL     OW29803   1.880   5.316   5.396
 9635SOL    HW129804   1.926   5.239   5.440
 9635SOL    HW229805   1.927   5.337   5.310
 9636SOL     OW29806   4.005   1.286   5.890
 9636SOL    HW129807   3.937   1.275   5.817
 9636SOL    HW229808   4.082   1.225   5.873
 9637SOL     OW29809   2.030   1.430   6.792
 9637SOL    HW129810   1.982   1.366   6.731
 9637SOL    HW229811   2.000   1.523   6.773
 9638SOL     OW29812   6.478   2.109   5.270
 9638SOL    HW129813   6.438   2.031   5.318
 9638SOL    HW229814   6.503   2.081   5.177
 9639SOL     OW29815   4.505   1.211   2.678
 9639SOL    HW129816   4.443   1.255   2.613
 9639SOL    HW229817   4.595   1.254   2.673
 9640SOL     OW29818   1.964   1.891   2.073
 9640SOL    HW129819   1.982   1.960   2.143
 9640SOL    HW229820   1.999   1.924   1.985
 9641SOL     OW29821   6.211   5.904   0.138
 9641SOL    HW129822   6.132   5.948   0.096
 9641SOL    HW229823   6.293   5.957   0.118
 9642SOL     OW29824   3.224   0.516   4.377
 9642SOL    HW129825   3.308   0.526   4.430
 9642SOL    HW229826   3.247   0.496   4.281
 9643SOL     OW29827   4.637   4.228   3.674
 9643SOL    HW129828   4.611   4.132   3.661
 9643SOL    HW229829   4.625   4.278   3.588
 9644SOL     OW29830   2.093   2.033   5.891
 9644SOL    HW129831   2.162   2.002   5.956
 9644SOL    HW229832   2.092   1.972   5.812
 9645SOL     OW29833   2.942   5.472   5.193
 9645SOL    HW129834   2.861   5.429   5.153
 9645SOL    HW229835   3.017   5.405   5.197
 9646SOL     OW29836   4.328   4.677   2.914
 9646SOL    HW129837   4.340   4.657   2.817
 9646SOL    HW229838   4.249   4.737   2.926
 9647SOL     OW29839   6.591   3.103   0.365
 9647SOL    HW129840   6.493   3.091   0.381
 9647SOL    HW229841   6.636   3.131   0.450
 9648SOL     OW29842   4.656   2.818   1.103
 9648SOL    HW129843   4.662   2.851   1.197
 9648SOL    HW229844   4.581   2.865   1.055
 9649SOL     OW29845   2.143   6.035   0.689
 9649SOL    HW129846   2.078   5.963   0.664
 9649SOL    HW229847   2.125   6.065   0.783
 9650SOL     OW29848   6.817   6.541   1.850
 9650SOL    HW129849   6.851   6.559   1.758
 9650SOL    HW229850   6.882   6.482   1.898
 9651SOL     OW29851   0.311   1.759   5.779
 9651SOL    HW129852   0.277   1.678   5.827
 9651SOL    HW229853   0.275   1.842   5.822
 9652SOL     OW29854   0.808   5.898   3.006
 9652SOL    HW129855   0.776   5.951   3.085
 9652SOL    HW229856   0.848   5.960   2.939
 9653SOL     OW29857   6.037   5.211   4.523
 9653SOL    HW129858   6.017   5.116   4.502
 9653SOL    HW229859   5.953   5.265   4.524
 9654SOL     OW29860   2.219   2.775   2.194
 9654SOL    HW129861   2.300   2.716   2.188
 9654SOL    HW229862   2.141   2.729   2.152
 9655SOL     OW29863   6.330   2.883   6.757
 9655SOL    HW129864   6.363   2.977   6.748
 9655SOL    HW229865   6.254   2.869   6.693
 9656SOL     OW29866   3.876   1.010   2.745
 9656SOL    HW129867   3.794   0.975   2.790
 9656SOL    HW229868   3.882   0.974   2.652
 9657SOL     OW29869   7.011   0.197   4.877
 9657SOL    HW129870   0.094   0.193   4.877
 9657SOL    HW229871   6.980   0.256   4.803
 9658SOL     OW29872   6.798   2.310   2.904
 9658SOL    HW129873   6.729   2.252   2.861
 9658SOL    HW229874   6.781   2.405   2.880
 9659SOL     OW29875   0.518   4.793   6.998
 9659SOL    HW129876   0.503   4.743   0.065
 9659SOL    HW229877   0.601   4.759   6.953
 9660SOL     OW29878   0.679   5.434   0.154
 9660SOL    HW129879   0.611   5.492   0.109
 9660SOL    HW229880   0.651   5.416   0.248
 9661SOL     OW29881   4.316   6.600   1.313
 9661SOL    HW129882   4.358   6.567   1.228
 9661SOL    HW229883   4.251   6.673   1.291
 9662SOL     OW29884   5.674   0.863   4.457
 9662SOL    HW129885   5.621   0.916   4.523
 9662SOL    HW229886   5.752   0.820   4.504
 9663SOL     OW29887   2.501   5.445   2.229
 9663SOL    HW129888   2.442   5.435   2.149
 9663SOL    HW229889   2.469   5.383   2.302
 9664SOL     OW29890   2.788   6.175   1.684
 9664SOL    HW129891   2.795   6.144   1.589
 9664SOL    HW229892   2.780   6.274   1.686
 9665SOL     OW29893   5.088   4.012   4.586
 9665SOL    HW129894   4.990   4.028   4.573
 9665SOL    HW229895   5.101   3.925   4.634
 9666SOL     OW29896   5.841   4.795   4.302
 9666SOL    HW129897   5.839   4.797   4.202
 9666SOL    HW229898   5.787   4.718   4.335
 9667SOL     OW29899   4.082   3.493   3.729
 9667SOL    HW129900   4.074   3.556   3.652
 9667SOL    HW229901   4.118   3.406   3.698
 9668SOL     OW29902   0.640   0.960   5.219
 9668SOL    HW129903   0.738   0.961   5.240
 9668SOL    HW229904   0.589   0.930   5.300
 9669SOL     OW29905   1.944   5.845   0.622
 9669SOL    HW129906   1.995   5.766   0.586
 9669SOL    HW229907   1.857   5.814   0.660
 9670SOL     OW29908   5.652   5.197   0.198
 9670SOL    HW129909   5.567   5.173   0.244
 9670SOL    HW229910   5.728   5.147   0.239
 9671SOL     OW29911   6.821   6.945   6.094
 9671SOL    HW129912   6.846   6.863   6.042
 9671SOL    HW229913   6.853   6.936   6.188
 9672SOL     OW29914   0.592   6.862   5.011
 9672SOL    HW129915   0.665   6.815   5.061
 9672SOL    HW229916   0.622   6.954   4.986
 9673SOL     OW29917   2.747   3.213   6.178
 9673SOL    HW129918   2.725   3.208   6.081
 9673SOL    HW229919   2.836   3.257   6.191
 9674SOL     OW29920   3.184   6.750   2.312
 9674SOL    HW129921   3.189   6.848   2.329
 9674SOL    HW229922   3.243   6.727   2.235
 9675SOL     OW29923   6.974   2.606   2.162
 9675SOL    HW129924   0.021   2.539   2.123
 9675SOL    HW229925   6.906   2.631   2.094
 9676SOL     OW29926   0.279   3.502   4.384
 9676SOL    HW129927   0.273   3.531   4.479
 9676SOL    HW229928   0.312   3.577   4.327
 9677SOL     OW29929   2.100   3.554   5.015
 9677SOL    HW129930   2.086   3.456   5.006
 9677SOL    HW229931   2.111   3.577   5.112
 9678SOL     OW29932   2.914   3.410   3.124
 9678SOL    HW129933   2.995   3.466   3.103
 9678SOL    HW229934   2.899   3.345   3.050
 9679SOL     OW29935   0.902   3.373   1.670
 9679SOL    HW129936   0.961   3.312   1.724
 9679SOL    HW229937   0.949   3.459   1.655
 9680SOL     OW29938   6.001   5.232   3.681
 9680SOL    HW129939   6.011   5.321   3.637
 9680SOL    HW229940   6.082   5.212   3.736
 9681SOL     OW29941   1.566   0.902   2.910
 9681SOL    HW129942   1.482   0.935   2.951
 9681SOL    HW229943   1.640   0.904   2.978
 9682SOL     OW29944   6.071   4.313   3.044
 9682SOL    HW129945   6.155   4.315   3.098
 9682SOL    HW229946   6.009   4.244   3.082
 9683SOL     OW29947   4.571   5.969   6.440
 9683SOL    HW129948   4.661   5.979   6.397
 9683SOL    HW229949   4.573   6.014   6.530
 9684SOL     OW29950   1.566   3.631   3.913
 9684SOL    HW129951   1.529   3.578   3.989
 9684SOL    HW229952   1.660   3.604   3.895
 9685SOL     OW29953   1.677   2.150   0.008
 9685SOL    HW129954   1.637   2.184   0.093
 9685SOL    HW229955   1.666   2.218   6.953
 9686SOL     OW29956   5.880   0.997   1.641
 9686SOL    HW129957   5.928   1.073   1.598
 9686SOL    HW229958   5.785   1.023   1.658
 9687SOL     OW29959   3.361   0.185   3.956
 9687SOL    HW129960   3.382   0.095   3.994
 9687SOL    HW229961   3.367   0.182   3.856
 9688SOL     OW29962   0.471   1.740   3.097
 9688SOL    HW129963   0.371   1.742   3.102
 9688SOL    HW229964   0.509   1.753   3.189
 9689SOL     OW29965   2.001   5.813   6.097
 9689SOL    HW129966   1.976   5.904   6.062
 9689SOL    HW229967   1.928   5.779   6.156
 9690SOL     OW29968   6.437   4.369   1.248
 9690SOL    HW129969   6.485   4.328   1.324
 9690SOL    HW229970   6.428   4.303   1.174
 9691SOL     OW29971   1.260   4.274   1.751
 9691SOL    HW129972   1.351   4.285   1.789
 9691SOL    HW229973   1.263   4.287   1.652
 9692SOL     OW29974   2.644   5.700   1.341
 9692SOL    HW129975   2.572   5.630   1.343
 9692SOL    HW229976   2.732   5.658   1.358
 9693SOL     OW29977   5.536   5.969   1.660
 9693SOL    HW129978   5.510   5.921   1.576
 9693SOL    HW229979   5.510   5.914   1.739
 9694SOL     OW29980   1.876   2.076   0.221
 9694SOL    HW129981   1.940   2.002   0.198
 9694SOL    HW229982   1.807   2.084   0.149
 9695SOL     OW29983   6.268   4.064   1.296
 9695SOL    HW129984   6.286   4.138   1.232
 9695SOL    HW229985   6.349   4.006   1.304
 9696SOL     OW29986   4.314   3.109   1.198
 9696SOL    HW129987   4.345   3.148   1.284
 9696SOL    HW229988   4.339   3.012   1.194
 9697SOL     OW29989   0.934   6.175   0.036
 9697SOL    HW129990   0.980   6.099   0.081
 9697SOL    HW229991   0.958   6.176   6.956
 9698SOL     OW29992   5.795   2.085   4.900
 9698SOL    HW129993   5.838   2.165   4.942
 9698SOL    HW229994   5.791   2.011   4.967
 9699SOL     OW29995   1.688   3.251   0.357
 9699SOL    HW129996   1.638   3.178   0.310
 9699SOL    HW229997   1.629   3.292   0.426
 9700SOL     OW29998   3.667   4.160   4.418
 9700SOL    HW129999   3.743   4.096   4.409
 9700SOL    HW230000   3.681   4.219   4.497
 9701SOL     OW30001   5.589   4.782   4.941
 9701SOL    HW130002   5.628   4.874   4.952
 9701SOL    HW230003   5.492   4.789   4.918
 9702SOL     OW30004   4.298   0.982   0.926
 9702SOL    HW130005   4.341   1.046   0.990
 9702SOL    HW230006   4.273   1.030   0.842
 9703SOL     OW30007   2.910   6.510   3.464
 9703SOL    HW130008   2.987   6.544   3.409
 9703SOL    HW230009   2.921   6.412   3.478
 9704SOL     OW30010   3.085   0.585   3.253
 9704SOL    HW130011   3.032   0.669   3.255
 9704SOL    HW230012   3.154   0.591   3.180
 9705SOL     OW30013   3.732   4.012   0.865
 9705SOL    HW130014   3.689   3.922   0.874
 9705SOL    HW230015   3.738   4.056   0.954
 9706SOL     OW30016   5.399   2.986   2.956
 9706SOL    HW130017   5.429   2.910   2.898
 9706SOL    HW230018   5.392   2.954   3.051
 9707SOL     OW30019   2.408   5.323   2.462
 9707SOL    HW130020   2.470   5.248   2.439
 9707SOL    HW230021   2.394   5.324   2.561
 9708SOL     OW30022   2.771   1.819   2.887
 9708SOL    HW130023   2.678   1.851   2.866
 9708SOL    HW230024   2.828   1.825   2.805
 9709SOL     OW30025   1.984   5.228   2.613
 9709SOL    HW130026   2.061   5.185   2.564
 9709SOL    HW230027   1.916   5.158   2.635
 9710SOL     OW30028   0.223   0.446   3.255
 9710SOL    HW130029   0.225   0.472   3.158
 9710SOL    HW230030   0.201   0.526   3.310
 9711SOL     OW30031   0.924   4.219   5.117
 9711SOL    HW130032   0.873   4.223   5.031
 9711SOL    HW230033   0.876   4.160   5.182
 9712SOL     OW30034   4.507   2.221   4.193
 9712SOL    HW130035   4.502   2.315   4.224
 9712SOL    HW230036   4.496   2.159   4.271
 9713SOL     OW30037   6.677   4.874   2.529
 9713SOL    HW130038   6.715   4.851   2.619
 9713SOL    HW230039   6.751   4.885   2.463
 9714SOL     OW30040   1.758   2.060   1.552
 9714SOL    HW130041   1.673   2.086   1.506
 9714SOL    HW230042   1.738   1.997   1.626
 9715SOL     OW30043   5.129   5.554   5.057
 9715SOL    HW130044   5.222   5.564   5.092
 9715SOL    HW230045   5.072   5.507   5.125
 9716SOL     OW30046   4.322   1.775   6.549
 9716SOL    HW130047   4.365   1.763   6.460
 9716SOL    HW230048   4.227   1.744   6.546
 9717SOL     OW30049   5.750   4.788   4.032
 9717SOL    HW130050   5.693   4.706   4.036
 9717SOL    HW230051   5.709   4.854   3.971
 9718SOL     OW30052   4.724   3.247   1.577
 9718SOL    HW130053   4.720   3.150   1.600
 9718SOL    HW230054   4.813   3.268   1.537
 9719SOL     OW30055   0.297   1.393   0.345
 9719SOL    HW130056   0.380   1.399   0.401
 9719SOL    HW230057   0.301   1.463   0.274
 9720SOL     OW30058   0.043   0.245   1.893
 9720SOL    HW130059   0.005   0.159   1.925
 9720SOL    HW230060   0.132   0.229   1.850
 9721SOL     OW30061   6.807   4.103   2.562
 9721SOL    HW130062   6.738   4.034   2.587
 9721SOL    HW230063   6.773   4.156   2.484
 9722SOL     OW30064   0.710   0.119   4.004
 9722SOL    HW130065   0.664   0.067   3.932
 9722SOL    HW230066   0.753   0.056   4.068
 9723SOL     OW30067   0.341   1.132   3.966
 9723SOL    HW130068   0.417   1.125   4.029
 9723SOL    HW230069   0.302   1.041   3.950
 9724SOL     OW30070   3.850   2.757   1.376
 9724SOL    HW130071   3.829   2.673   1.427
 9724SOL    HW230072   3.949   2.765   1.363
 9725SOL     OW30073   4.286   3.112   5.318
 9725SOL    HW130074   4.235   3.046   5.374
 9725SOL    HW230075   4.375   3.074   5.295
 9726SOL     OW30076   5.903   6.795   5.019
 9726SOL    HW130077   5.817   6.844   5.033
 9726SOL    HW230078   5.888   6.698   5.034
 9727SOL     OW30079   1.790   2.435   5.856
 9727SOL    HW130080   1.839   2.521   5.872
 9727SOL    HW230081   1.692   2.451   5.866
 9728SOL     OW30082   3.050   4.931   6.835
 9728SOL    HW130083   2.954   4.954   6.853
 9728SOL    HW230084   3.104   5.016   6.830
 9729SOL     OW30085   3.222   5.191   2.336
 9729SOL    HW130086   3.166   5.235   2.266
 9729SOL    HW230087   3.206   5.092   2.334
 9730SOL     OW30088   6.801   3.651   3.163
 9730SOL    HW130089   6.713   3.610   3.137
 9730SOL    HW230090   6.805   3.660   3.263
 9731SOL     OW30091   4.581   5.349   0.833
 9731SOL    HW130092   4.665   5.353   0.887
 9731SOL    HW230093   4.595   5.288   0.755
 9732SOL     OW30094   6.438   5.863   3.087
 9732SOL    HW130095   6.528   5.883   3.047
 9732SOL    HW230096   6.406   5.944   3.137
 9733SOL     OW30097   5.403   4.335   6.483
 9733SOL    HW130098   5.501   4.328   6.500
 9733SOL    HW230099   5.353   4.321   6.569
 9734SOL     OW30100   5.345   2.455   4.747
 9734SOL    HW130101   5.404   2.377   4.766
 9734SOL    HW230102   5.386   2.538   4.784
 9735SOL     OW30103   1.280   4.086   1.086
 9735SOL    HW130104   1.356   4.124   1.139
 9735SOL    HW230105   1.313   4.013   1.027
 9736SOL     OW30106   3.393   1.573   0.596
 9736SOL    HW130107   3.422   1.498   0.656
 9736SOL    HW230108   3.295   1.587   0.606
 9737SOL     OW30109   4.084   2.195   5.252
 9737SOL    HW130110   4.127   2.175   5.341
 9737SOL    HW230111   4.097   2.292   5.231
 9738SOL     OW30112   1.959   0.305   2.436
 9738SOL    HW130113   2.013   0.223   2.416
 9738SOL    HW230114   1.861   0.282   2.433
 9739SOL     OW30115   5.290   5.044   1.704
 9739SOL    HW130116   5.216   5.073   1.765
 9739SOL    HW230117   5.358   4.992   1.757
 9740SOL     OW30118   6.720   4.212   3.219
 9740SOL    HW130119   6.774   4.158   3.284
 9740SOL    HW230120   6.782   4.270   3.165
 9741SOL     OW30121   4.523   2.255   1.601
 9741SOL    HW130122   4.546   2.349   1.625
 9741SOL    HW230123   4.509   2.201   1.684
 9742SOL     OW30124   4.785   2.059   4.446
 9742SOL    HW130125   4.804   2.133   4.381
 9742SOL    HW230126   4.867   2.040   4.500
 9743SOL     OW30127   1.980   2.692   5.630
 9743SOL    HW130128   1.907   2.691   5.698
 9743SOL    HW230129   2.068   2.712   5.674
 9744SOL     OW30130   1.585   0.732   1.781
 9744SOL    HW130131   1.490   0.761   1.781
 9744SOL    HW230132   1.597   0.656   1.845
 9745SOL     OW30133   0.289   2.167   4.620
 9745SOL    HW130134   0.381   2.196   4.594
 9745SOL    HW230135   0.226   2.244   4.615
 9746SOL     OW30136   6.094   1.621   4.517
 9746SOL    HW130137   6.048   1.641   4.431
 9746SOL    HW230138   6.035   1.563   4.574
 9747SOL     OW30139   0.308   0.258   7.006
 9747SOL    HW130140   0.376   0.294   0.052
 9747SOL    HW230141   0.342   0.173   6.965
 9748SOL     OW30142   6.913   5.980   4.033
 9748SOL    HW130143   6.938   6.056   3.973
 9748SOL    HW230144   6.986   5.965   4.100
 9749SOL     OW30145   0.733   4.274   4.469
 9749SOL    HW130146   0.777   4.333   4.536
 9749SOL    HW230147   0.795   4.200   4.443
 9750SOL     OW30148   4.252   4.881   3.680
 9750SOL    HW130149   4.274   4.863   3.584
 9750SOL    HW230150   4.278   4.974   3.704
 9751SOL     OW30151   1.833   2.442   0.341
 9751SOL    HW130152   1.900   2.368   0.340
 9751SOL    HW230153   1.778   2.436   0.424
 9752SOL     OW30154   3.069   1.263   5.645
 9752SOL    HW130155   2.996   1.302   5.588
 9752SOL    HW230156   3.055   1.289   5.740
 9753SOL     OW30157   6.645   5.924   5.107
 9753SOL    HW130158   6.606   5.948   5.018
 9753SOL    HW230159   6.695   5.838   5.099
 9754SOL     OW30160   0.456   1.955   6.428
 9754SOL    HW130161   0.543   1.942   6.381
 9754SOL    HW230162   0.444   1.884   6.497
 9755SOL     OW30163   4.009   4.946   5.273
 9755SOL    HW130164   4.074   5.018   5.298
 9755SOL    HW230165   3.958   4.916   5.354
 9756SOL     OW30166   6.011   2.580   5.920
 9756SOL    HW130167   6.106   2.551   5.934
 9756SOL    HW230168   5.982   2.637   5.997
 9757SOL     OW30169   6.182   2.288   3.894
 9757SOL    HW130170   6.216   2.371   3.850
 9757SOL    HW230171   6.260   2.231   3.921
 9758SOL     OW30172   2.871   0.274   0.455
 9758SOL    HW130173   2.791   0.334   0.440
 9758SOL    HW230174   2.953   0.330   0.462
 9759SOL     OW30175   3.735   6.160   1.247
 9759SOL    HW130176   3.706   6.073   1.287
 9759SOL    HW230177   3.745   6.149   1.148
 9760SOL     OW30178   5.668   4.294   6.481
 9760SOL    HW130179   5.747   4.260   6.532
 9760SOL    HW230180   5.681   4.276   6.384
 9761SOL     OW30181   5.552   5.718   2.520
 9761SOL    HW130182   5.547   5.678   2.429
 9761SOL    HW230183   5.601   5.805   2.516
 9762SOL     OW30184   2.308   1.890   3.862
 9762SOL    HW130185   2.320   1.925   3.955
 9762SOL    HW230186   2.236   1.942   3.816
 9763SOL     OW30187   2.305   1.571   1.587
 9763SOL    HW130188   2.329   1.607   1.497
 9763SOL    HW230189   2.212   1.535   1.585
 9764SOL     OW30190   1.369   2.440   1.964
 9764SOL    HW130191   1.447   2.404   2.015
 9764SOL    HW230192   1.393   2.528   1.924
 9765SOL     OW30193   0.040   1.561   5.498
 9765SOL    HW130194   7.010   1.503   5.564
 9765SOL    HW230195   6.997   1.635   5.468
 9766SOL     OW30196   2.946   0.851   2.108
 9766SOL    HW130197   2.979   0.839   2.201
 9766SOL    HW230198   2.966   0.944   2.077
 9767SOL     OW30199   4.644   0.520   5.314
 9767SOL    HW130200   4.726   0.513   5.258
 9767SOL    HW230201   4.629   0.616   5.340
 9768SOL     OW30202   4.443   2.523   2.871
 9768SOL    HW130203   4.402   2.597   2.818
 9768SOL    HW230204   4.472   2.450   2.810
 9769SOL     OW30205   0.248   2.056   1.572
 9769SOL    HW130206   0.307   2.009   1.638
 9769SOL    HW230207   0.271   2.025   1.480
 9770SOL     OW30208   6.170   4.353   6.382
 9770SOL    HW130209   6.223   4.338   6.298
 9770SOL    HW230210   6.230   4.392   6.452
 9771SOL     OW30211   3.880   5.767   5.401
 9771SOL    HW130212   3.894   5.805   5.310
 9771SOL    HW230213   3.782   5.755   5.417
 9772SOL     OW30214   6.575   0.406   1.857
 9772SOL    HW130215   6.649   0.438   1.798
 9772SOL    HW230216   6.538   0.320   1.821
 9773SOL     OW30217   5.576   5.490   3.455
 9773SOL    HW130218   5.627   5.566   3.497
 9773SOL    HW230219   5.486   5.522   3.427
 9774SOL     OW30220   6.979   4.968   3.165
 9774SOL    HW130221   6.960   4.882   3.213
 9774SOL    HW230222   6.916   4.977   3.087
 9775SOL     OW30223   3.084   2.180   4.781
 9775SOL    HW130224   3.100   2.229   4.867
 9775SOL    HW230225   3.037   2.241   4.717
 9776SOL     OW30226   0.393   4.882   4.836
 9776SOL    HW130227   0.336   4.805   4.862
 9776SOL    HW230228   0.361   4.965   4.883
 9777SOL     OW30229   5.786   4.886   6.859
 9777SOL    HW130230   5.750   4.911   6.769
 9777SOL    HW230231   5.851   4.811   6.849
 9778SOL     OW30232   3.803   0.539   3.690
 9778SOL    HW130233   3.896   0.503   3.699
 9778SOL    HW230234   3.796   0.626   3.738
 9779SOL     OW30235   2.889   2.159   6.190
 9779SOL    HW130236   2.851   2.067   6.196
 9779SOL    HW230237   2.963   2.160   6.123
 9780SOL     OW30238   3.452   4.259   0.488
 9780SOL    HW130239   3.503   4.344   0.480
 9780SOL    HW230240   3.512   4.186   0.519
 9781SOL     OW30241   1.870   5.043   4.095
 9781SOL    HW130242   1.887   5.049   3.997
 9781SOL    HW230243   1.938   5.096   4.145
 9782SOL     OW30244   6.568   0.610   1.507
 9782SOL    HW130245   6.614   0.696   1.485
 9782SOL    HW230246   6.489   0.628   1.566
 9783SOL     OW30247   5.196   1.313   2.555
 9783SOL    HW130248   5.272   1.377   2.566
 9783SOL    HW230249   5.120   1.341   2.614
 9784SOL     OW30250   5.337   0.898   4.349
 9784SOL    HW130251   5.393   0.923   4.428
 9784SOL    HW230252   5.345   0.799   4.333
 9785SOL     OW30253   0.933   2.728   1.157
 9785SOL    HW130254   1.017   2.744   1.208
 9785SOL    HW230255   0.933   2.635   1.120
 9786SOL     OW30256   2.552   6.940   4.699
 9786SOL    HW130257   2.499   6.954   4.616
 9786SOL    HW230258   2.534   7.015   4.763
 9787SOL     OW30259   5.638   4.755   1.953
 9787SOL    HW130260   5.657   4.740   1.856
 9787SOL    HW230261   5.687   4.687   2.007
 9788SOL     OW30262   0.436   1.116   5.477
 9788SOL    HW130263   0.395   1.159   5.397
 9788SOL    HW230264   0.453   1.020   5.459
 9789SOL     OW30265   1.591   5.891   4.405
 9789SOL    HW130266   1.676   5.941   4.417
 9789SOL    HW230267   1.560   5.854   4.493
 9790SOL     OW30268   6.275   1.838   4.495
 9790SOL    HW130269   6.364   1.794   4.506
 9790SOL    HW230270   6.202   1.774   4.520
 9791SOL     OW30271   1.155   2.744   1.310
 9791SOL    HW130272   1.124   2.678   1.379
 9791SOL    HW230273   1.188   2.827   1.355
 9792SOL     OW30274   4.045   5.894   2.263
 9792SOL    HW130275   3.967   5.949   2.292
 9792SOL    HW230276   4.098   5.866   2.343
 9793SOL     OW30277   4.813   5.909   2.778
 9793SOL    HW130278   4.790   5.831   2.721
 9793SOL    HW230279   4.735   5.932   2.836
 9794SOL     OW30280   3.931   3.071   6.412
 9794SOL    HW130281   4.002   3.009   6.444
 9794SOL    HW230282   3.967   3.164   6.406
 9795SOL     OW30283   2.336   4.366   4.258
 9795SOL    HW130284   2.392   4.329   4.332
 9795SOL    HW230285   2.320   4.464   4.273
 9796SOL     OW30286   3.087   4.799   0.355
 9796SOL    HW130287   2.995   4.818   0.390
 9796SOL    HW230288   3.096   4.839   0.264
 9797SOL     OW30289   4.671   2.750   4.826
 9797SOL    HW130290   4.601   2.688   4.789
 9797SOL    HW230291   4.694   2.819   4.758
 9798SOL     OW30292   2.057   2.058   1.865
 9798SOL    HW130293   2.153   2.045   1.889
 9798SOL    HW230294   2.035   2.000   1.786
 9799SOL     OW30295   3.228   4.102   2.210
 9799SOL    HW130296   3.204   4.198   2.197
 9799SOL    HW230297   3.254   4.087   2.305
 9800SOL     OW30298   3.536   4.934   0.151
 9800SOL    HW130299   3.533   4.838   0.125
 9800SOL    HW230300   3.449   4.978   0.130
 9801SOL     OW30301   4.540   5.248   6.991
 9801SOL    HW130302   4.553   5.163   6.941
 9801SOL    HW230303   4.466   5.237   0.041
 9802SOL     OW30304   0.551   4.520   1.343
 9802SOL    HW130305   0.630   4.562   1.388
 9802SOL    HW230306   0.548   4.423   1.364
 9803SOL     OW30307   5.452   0.571   6.961
 9803SOL    HW130308   5.399   0.500   6.914
 9803SOL    HW230309   5.529   0.530   7.009
 9804SOL     OW30310   5.822   5.379   4.566
 9804SOL    HW130311   5.748   5.359   4.503
 9804SOL    HW230312   5.815   5.473   4.598
 9805SOL     OW30313   3.221   4.322   0.936
 9805SOL    HW130314   3.153   4.316   0.863
 9805SOL    HW230315   3.312   4.330   0.896
 9806SOL     OW30316   6.629   2.151   2.735
 9806SOL    HW130317   6.574   2.183   2.659
 9806SOL    HW230318   6.573   2.145   2.818
 9807SOL     OW30319   3.500   2.836   1.016
 9807SOL    HW130320   3.534   2.764   0.957
 9807SOL    HW230321   3.569   2.859   1.085
 9808SOL     OW30322   1.153   1.802   5.335
 9808SOL    HW130323   1.169   1.709   5.301
 9808SOL    HW230324   1.056   1.825   5.323
 9809SOL     OW30325   1.246   0.538   4.774
 9809SOL    HW130326   1.292   0.498   4.696
 9809SOL    HW230327   1.218   0.466   4.838
 9810SOL     OW30328   3.842   1.112   3.775
 9810SOL    HW130329   3.759   1.152   3.735
 9810SOL    HW230330   3.865   1.161   3.859
 9811SOL     OW30331   1.380   0.098   2.614
 9811SOL    HW130332   1.416   0.105   2.707
 9811SOL    HW230333   1.411   0.012   2.572
 9812SOL     OW30334   4.916   2.943   5.036
 9812SOL    HW130335   4.833   2.917   5.086
 9812SOL    HW230336   4.928   2.882   4.958
 9813SOL     OW30337   7.009   4.898   0.673
 9813SOL    HW130338   0.054   4.941   0.608
 9813SOL    HW230339   6.931   4.958   0.692
 9814SOL     OW30340   6.684   0.875   5.656
 9814SOL    HW130341   6.619   0.883   5.732
 9814SOL    HW230342   6.673   0.785   5.613
 9815SOL     OW30343   6.829   3.766   2.905
 9815SOL    HW130344   6.843   3.861   2.933
 9815SOL    HW230345   6.851   3.705   2.981
 9816SOL     OW30346   6.421   0.483   6.101
 9816SOL    HW130347   6.510   0.512   6.135
 9816SOL    HW230348   6.350   0.511   6.166
 9817SOL     OW30349   2.495   0.345   0.269
 9817SOL    HW130350   2.405   0.302   0.280
 9817SOL    HW230351   2.498   0.392   0.180
 9818SOL     OW30352   0.928   6.773   3.228
 9818SOL    HW130353   0.937   6.797   3.132
 9818SOL    HW230354   0.940   6.855   3.284
 9819SOL     OW30355   6.781   2.704   4.495
 9819SOL    HW130356   6.780   2.789   4.442
 9819SOL    HW230357   6.764   2.723   4.591
 9820SOL     OW30358   3.585   2.721   6.003
 9820SOL    HW130359   3.541   2.808   5.977
 9820SOL    HW230360   3.517   2.662   6.047
 9821SOL     OW30361   3.814   2.999   1.512
 9821SOL    HW130362   3.836   2.911   1.469
 9821SOL    HW230363   3.780   2.983   1.604
 9822SOL     OW30364   3.329   6.262   4.832
 9822SOL    HW130365   3.263   6.333   4.852
 9822SOL    HW230366   3.394   6.254   4.907
 9823SOL     OW30367   3.279   7.005   3.246
 9823SOL    HW130368   3.228   7.009   3.160
 9823SOL    HW230369   3.350   6.935   3.240
 9824SOL     OW30370   1.080   5.956   5.751
 9824SOL    HW130371   1.176   5.929   5.745
 9824SOL    HW230372   1.026   5.880   5.785
 9825SOL     OW30373   6.798   6.838   5.183
 9825SOL    HW130374   6.791   6.893   5.100
 9825SOL    HW230375   6.880   6.780   5.177
 9826SOL     OW30376   2.425   5.616   5.273
 9826SOL    HW130377   2.511   5.604   5.225
 9826SOL    HW230378   2.418   5.709   5.309
 9827SOL     OW30379   1.716   4.749   1.699
 9827SOL    HW130380   1.640   4.798   1.741
 9827SOL    HW230381   1.685   4.705   1.615
 9828SOL     OW30382   4.764   1.725   4.772
 9828SOL    HW130383   4.738   1.650   4.711
 9828SOL    HW230384   4.682   1.775   4.800
 9829SOL     OW30385   4.722   5.290   5.662
 9829SOL    HW130386   4.820   5.307   5.653
 9829SOL    HW230387   4.702   5.198   5.628
 9830SOL     OW30388   5.454   1.591   3.683
 9830SOL    HW130389   5.477   1.508   3.734
 9830SOL    HW230390   5.532   1.654   3.685
 9831SOL     OW30391   0.706   4.447   2.638
 9831SOL    HW130392   0.754   4.484   2.558
 9831SOL    HW230393   0.765   4.383   2.686
 9832SOL     OW30394   4.386   5.997   4.645
 9832SOL    HW130395   4.373   5.927   4.715
 9832SOL    HW230396   4.409   5.953   4.558
 9833SOL     OW30397   4.072   3.688   3.496
 9833SOL    HW130398   4.118   3.619   3.439
 9833SOL    HW230399   4.052   3.768   3.440
 9834SOL     OW30400   2.592   6.356   5.394
 9834SOL    HW130401   2.692   6.362   5.396
 9834SOL    HW230402   2.555   6.402   5.475
 9835SOL     OW30403   4.162   3.483   4.213
 9835SOL    HW130404   4.261   3.474   4.225
 9835SOL    HW230405   4.121   3.509   4.300
 9836SOL     OW30406   6.846   3.535   5.791
 9836SOL    HW130407   6.775   3.528   5.861
 9836SOL    HW230408   6.904   3.613   5.810
 9837SOL     OW30409   5.895   1.971   3.528
 9837SOL    HW130410   5.964   2.001   3.463
 9837SOL    HW230411   5.889   1.871   3.527
 9838SOL     OW30412   1.488   6.401   1.243
 9838SOL    HW130413   1.459   6.455   1.322
 9838SOL    HW230414   1.466   6.305   1.258
 9839SOL     OW30415   4.890   6.532   3.973
 9839SOL    HW130416   4.894   6.604   3.904
 9839SOL    HW230417   4.853   6.569   4.058
 9840SOL     OW30418   6.287   1.924   6.766
 9840SOL    HW130419   6.381   1.907   6.736
 9840SOL    HW230420   6.286   1.947   6.863
 9841SOL     OW30421   6.812   5.888   3.376
 9841SOL    HW130422   6.786   5.974   3.331
 9841SOL    HW230423   6.860   5.908   3.461
 9842SOL     OW30424   3.566   0.457   6.820
 9842SOL    HW130425   3.662   0.434   6.810
 9842SOL    HW230426   3.550   0.552   6.793
 9843SOL     OW30427   6.975   0.606   1.781
 9843SOL    HW130428   0.052   0.610   1.813
 9843SOL    HW230429   6.919   0.557   1.848
 9844SOL     OW30430   4.482   0.131   4.625
 9844SOL    HW130431   4.445   0.144   4.717
 9844SOL    HW230432   4.576   0.163   4.621
 9845SOL     OW30433   1.417   3.687   2.098
 9845SOL    HW130434   1.474   3.634   2.161
 9845SOL    HW230435   1.471   3.710   2.017
 9846SOL     OW30436   6.283   2.484   1.025
 9846SOL    HW130437   6.361   2.545   1.012
 9846SOL    HW230438   6.278   2.454   1.120
 9847SOL     OW30439   4.282   3.803   6.585
 9847SOL    HW130440   4.289   3.760   6.495
 9847SOL    HW230441   4.223   3.748   6.643
 9848SOL     OW30442   3.192   3.737   5.692
 9848SOL    HW130443   3.106   3.756   5.739
 9848SOL    HW230444   3.263   3.798   5.727
 9849SOL     OW30445   1.037   2.165   4.471
 9849SOL    HW130446   1.093   2.215   4.537
 9849SOL    HW230447   0.986   2.093   4.517
 9850SOL     OW30448   1.674   6.907   3.969
 9850SOL    HW130449   1.741   6.981   3.966
 9850SOL    HW230450   1.701   6.841   4.040
 9851SOL     OW30451   3.405   5.303   4.015
 9851SOL    HW130452   3.351   5.349   4.086
 9851SOL    HW230453   3.487   5.263   4.055
 9852SOL     OW30454   1.967   6.934   0.464
 9852SOL    HW130455   1.913   6.900   0.541
 9852SOL    HW230456   1.929   0.003   0.431
 9853SOL     OW30457   0.149   4.400   3.505
 9853SOL    HW130458   0.146   4.494   3.540
 9853SOL    HW230459   0.205   4.344   3.566
 9854SOL     OW30460   0.369   3.685   6.427
 9854SOL    HW130461   0.297   3.675   6.495
 9854SOL    HW230462   0.346   3.760   6.365
 9855SOL     OW30463   0.941   5.343   0.243
 9855SOL    HW130464   0.858   5.345   0.187
 9855SOL    HW230465   0.950   5.430   0.292
 9856SOL     OW30466   5.622   3.218   3.157
 9856SOL    HW130467   5.535   3.241   3.200
 9856SOL    HW230468   5.609   3.212   3.058
 9857SOL     OW30469   4.483   0.322   5.448
 9857SOL    HW130470   4.518   0.410   5.415
 9857SOL    HW230471   4.387   0.331   5.472
 9858SOL     OW30472   6.341   6.046   1.892
 9858SOL    HW130473   6.327   5.996   1.807
 9858SOL    HW230474   6.439   6.060   1.908
 9859SOL     OW30475   0.106   5.574   3.250
 9859SOL    HW130476   0.087   5.648   3.315
 9859SOL    HW230477   0.204   5.553   3.251
 9860SOL     OW30478   1.704   3.222   4.129
 9860SOL    HW130479   1.743   3.183   4.212
 9860SOL    HW230480   1.711   3.322   4.132
 9861SOL     OW30481   3.801   2.011   2.973
 9861SOL    HW130482   3.883   2.067   2.959
 9861SOL    HW230483   3.744   2.015   2.892
 9862SOL     OW30484   1.436   4.069   6.741
 9862SOL    HW130485   1.419   4.166   6.753
 9862SOL    HW230486   1.499   4.055   6.664
 9863SOL     OW30487   4.050   6.717   1.581
 9863SOL    HW130488   4.014   6.667   1.503
 9863SOL    HW230489   3.977   6.731   1.649
 9864SOL     OW30490   2.150   5.902   5.753
 9864SOL    HW130491   2.227   5.887   5.691
 9864SOL    HW230492   2.106   5.989   5.731
 9865SOL     OW30493   1.581   5.065   5.492
 9865SOL    HW130494   1.545   4.972   5.504
 9865SOL    HW230495   1.656   5.080   5.557
 9866SOL     OW30496   0.066   5.343   5.623
 9866SOL    HW130497   0.040   5.270   5.560
 9866SOL    HW230498   7.009   5.357   5.690
 9867SOL     OW30499   4.095   1.551   2.019
 9867SOL    HW130500   4.129   1.631   1.969
 9867SOL    HW230501   4.016   1.513   1.971
 9868SOL     OW30502   2.442   4.414   3.561
 9868SOL    HW130503   2.531   4.386   3.524
 9868SOL    HW230504   2.415   4.502   3.522
 9869SOL     OW30505   0.323   2.402   1.131
 9869SOL    HW130506   0.343   2.339   1.206
 9869SOL    HW230507   0.344   2.358   1.044
 9870SOL     OW30508   2.424   2.506   2.488
 9870SOL    HW130509   2.483   2.548   2.556
 9870SOL    HW230510   2.332   2.543   2.495
 9871SOL     OW30511   5.552   5.222   3.453
 9871SOL    HW130512   5.537   5.320   3.469
 9871SOL    HW230513   5.638   5.209   3.403
 9872SOL     OW30514   0.686   4.988   5.680
 9872SOL    HW130515   0.764   4.935   5.713
 9872SOL    HW230516   0.644   4.942   5.602
 9873SOL     OW30517   0.897   0.985   5.270
 9873SOL    HW130518   0.942   1.071   5.245
 9873SOL    HW230519   0.967   0.916   5.289
 9874SOL     OW30520   0.226   1.963   4.423
 9874SOL    HW130521   0.312   1.973   4.373
 9874SOL    HW230522   0.225   2.025   4.502
 9875SOL     OW30523   6.690   6.200   0.667
 9875SOL    HW130524   6.653   6.230   0.755
 9875SOL    HW230525   6.626   6.138   0.622
 9876SOL     OW30526   0.605   6.553   3.637
 9876SOL    HW130527   0.689   6.566   3.691
 9876SOL    HW230528   0.597   6.627   3.570
 9877SOL     OW30529   1.293   5.924   5.436
 9877SOL    HW130530   1.195   5.929   5.416
 9877SOL    HW230531   1.307   5.890   5.529
 9878SOL     OW30532   3.525   2.495   6.629
 9878SOL    HW130533   3.462   2.440   6.575
 9878SOL    HW230534   3.478   2.530   6.710
 9879SOL     OW30535   6.988   5.593   5.951
 9879SOL    HW130536   6.934   5.665   5.908
 9879SOL    HW230537   0.064   5.596   5.916
 9880SOL     OW30538   2.961   1.095   0.939
 9880SOL    HW130539   3.005   1.141   0.862
 9880SOL    HW230540   2.864   1.121   0.942
 9881SOL     OW30541   6.047   1.227   3.525
 9881SOL    HW130542   6.065   1.321   3.498
 9881SOL    HW230543   6.134   1.178   3.537
 9882SOL     OW30544   3.576   3.422   4.738
 9882SOL    HW130545   3.596   3.330   4.707
 9882SOL    HW230546   3.516   3.418   4.818
 9883SOL     OW30547   1.970   6.825   2.501
 9883SOL    HW130548   1.906   6.748   2.507
 9883SOL    HW230549   1.960   6.882   2.582
 9884SOL     OW30550   3.076   3.015   5.664
 9884SOL    HW130551   3.173   3.035   5.674
 9884SOL    HW230552   3.058   2.979   5.573
 9885SOL     OW30553   4.905   2.670   5.286
 9885SOL    HW130554   4.900   2.768   5.267
 9885SOL    HW230555   4.818   2.627   5.262
 9886SOL     OW30556   3.693   5.946   0.875
 9886SOL    HW130557   3.778   5.901   0.847
 9886SOL    HW230558   3.650   5.893   0.947
 9887SOL     OW30559   3.312   1.997   0.282
 9887SOL    HW130560   3.406   1.977   0.257
 9887SOL    HW230561   3.250   1.936   0.232
 9888SOL     OW30562   6.398   6.686   3.533
 9888SOL    HW130563   6.346   6.771   3.526
 9888SOL    HW230564   6.358   6.628   3.603
 9889SOL     OW30565   6.631   5.620   2.782
 9889SOL    HW130566   6.629   5.647   2.879
 9889SOL    HW230567   6.606   5.698   2.726
 9890SOL     OW30568   0.710   3.608   2.748
 9890SOL    HW130569   0.662   3.659   2.676
 9890SOL    HW230570   0.777   3.547   2.706
 9891SOL     OW30571   4.803   6.384   1.988
 9891SOL    HW130572   4.902   6.370   1.987
 9891SOL    HW230573   4.783   6.480   2.006
 9892SOL     OW30574   1.549   5.542   3.712
 9892SOL    HW130575   1.478   5.558   3.780
 9892SOL    HW230576   1.639   5.543   3.756
 9893SOL     OW30577   5.622   5.095   5.131
 9893SOL    HW130578   5.602   5.124   5.037
 9893SOL    HW230579   5.592   5.166   5.195
 9894SOL     OW30580   4.446   3.527   5.294
 9894SOL    HW130581   4.371   3.549   5.232
 9894SOL    HW230582   4.533   3.535   5.246
 9895SOL     OW30583   5.477   1.827   6.801
 9895SOL    HW130584   5.445   1.759   6.866
 9895SOL    HW230585   5.398   1.874   6.761
 9896SOL     OW30586   3.922   3.501   0.211
 9896SOL    HW130587   3.863   3.531   0.136
 9896SOL    HW230588   3.904   3.405   0.231
 9897SOL     OW30589   6.696   1.334   3.386
 9897SOL    HW130590   6.663   1.413   3.334
 9897SOL    HW230591   6.796   1.330   3.380
 9898SOL     OW30592   1.822   4.617   6.432
 9898SOL    HW130593   1.889   4.670   6.483
 9898SOL    HW230594   1.733   4.661   6.438
 9899SOL     OW30595   4.982   5.306   2.765
 9899SOL    HW130596   4.903   5.245   2.765
 9899SOL    HW230597   5.061   5.258   2.728
 9900SOL     OW30598   1.680   3.914   3.915
 9900SOL    HW130599   1.715   3.918   4.009
 9900SOL    HW230600   1.697   3.823   3.877
 9901SOL     OW30601   2.405   1.675   6.164
 9901SOL    HW130602   2.401   1.717   6.073
 9901SOL    HW230603   2.361   1.735   6.230
 9902SOL     OW30604   4.850   3.647   6.618
 9902SOL    HW130605   4.918   3.674   6.550
 9902SOL    HW230606   4.759   3.648   6.577
 9903SOL     OW30607   3.405   1.230   1.784
 9903SOL    HW130608   3.489   1.177   1.797
 9903SOL    HW230609   3.425   1.315   1.737
 9904SOL     OW30610   0.353   0.377   1.749
 9904SOL    HW130611   0.421   0.392   1.677
 9904SOL    HW230612   0.324   0.282   1.748
 9905SOL     OW30613   1.740   6.534   6.227
 9905SOL    HW130614   1.730   6.443   6.266
 9905SOL    HW230615   1.813   6.583   6.274
 9906SOL     OW30616   3.912   3.817   5.827
 9906SOL    HW130617   3.957   3.751   5.887
 9906SOL    HW230618   3.943   3.804   5.733
 9907SOL     OW30619   1.221   6.840   2.845
 9907SOL    HW130620   1.185   6.780   2.774
 9907SOL    HW230621   1.310   6.876   2.816
 9908SOL     OW30622   0.160   3.142   5.141
 9908SOL    HW130623   0.116   3.069   5.089
 9908SOL    HW230624   0.133   3.231   5.104
 9909SOL     OW30625   3.405   0.101   2.501
 9909SOL    HW130626   3.369   0.114   2.409
 9909SOL    HW230627   3.443   0.009   2.509
 9910SOL     OW30628   0.739   4.680   0.788
 9910SOL    HW130629   0.685   4.596   0.779
 9910SOL    HW230630   0.776   4.685   0.881
 9911SOL     OW30631   3.896   5.138   2.750
 9911SOL    HW130632   3.928   5.098   2.836
 9911SOL    HW230633   3.887   5.066   2.682
 9912SOL     OW30634   4.129   6.835   0.863
 9912SOL    HW130635   4.109   6.792   0.775
 9912SOL    HW230636   4.047   6.833   0.920
 9913SOL     OW30637   4.255   2.261   2.543
 9913SOL    HW130638   4.172   2.209   2.524
 9913SOL    HW230639   4.269   2.267   2.642
 9914SOL     OW30640   2.193   5.538   5.138
 9914SOL    HW130641   2.203   5.439   5.137
 9914SOL    HW230642   2.260   5.578   5.200
 9915SOL     OW30643   5.895   3.532   4.052
 9915SOL    HW130644   5.960   3.456   4.060
 9915SOL    HW230645   5.940   3.610   4.008
 9916SOL     OW30646   2.963   3.085   0.827
 9916SOL    HW130647   2.978   3.081   0.729
 9916SOL    HW230648   2.961   2.993   0.865
 9917SOL     OW30649   2.232   2.754   5.030
 9917SOL    HW130650   2.267   2.847   5.032
 9917SOL    HW230651   2.308   2.689   5.034
 9918SOL     OW30652   2.455   0.815   4.892
 9918SOL    HW130653   2.448   0.719   4.866
 9918SOL    HW230654   2.387   0.836   4.963
 9919SOL     OW30655   0.399   5.758   2.474
 9919SOL    HW130656   0.477   5.732   2.417
 9919SOL    HW230657   0.406   5.855   2.498
 9920SOL     OW30658   3.924   6.595   2.720
 9920SOL    HW130659   4.017   6.560   2.716
 9920SOL    HW230660   3.867   6.532   2.772
 9921SOL     OW30661   5.008   6.838   3.574
 9921SOL    HW130662   5.078   6.810   3.509
 9921SOL    HW230663   4.920   6.850   3.527
 9922SOL     OW30664   5.072   3.120   1.892
 9922SOL    HW130665   4.998   3.055   1.876
 9922SOL    HW230666   5.052   3.206   1.844
 9923SOL     OW30667   6.242   0.880   6.116
 9923SOL    HW130668   6.224   0.785   6.090
 9923SOL    HW230669   6.285   0.883   6.206
 9924SOL     OW30670   4.655   0.756   2.920
 9924SOL    HW130671   4.622   0.821   2.852
 9924SOL    HW230672   4.755   0.762   2.927
 9925SOL     OW30673   3.315   2.096   5.032
 9925SOL    HW130674   3.240   2.161   5.038
 9925SOL    HW230675   3.279   2.003   5.025
 9926SOL     OW30676   1.565   0.474   6.156
 9926SOL    HW130677   1.547   0.543   6.227
 9926SOL    HW230678   1.584   0.519   6.069
 9927SOL     OW30679   1.096   2.504   2.025
 9927SOL    HW130680   1.188   2.477   1.996
 9927SOL    HW230681   1.102   2.572   2.097
 9928SOL     OW30682   7.004   3.441   2.515
 9928SOL    HW130683   6.926   3.491   2.479
 9928SOL    HW230684   6.972   3.355   2.556
 9929SOL     OW30685   1.412   4.215   5.687
 9929SOL    HW130686   1.391   4.282   5.616
 9929SOL    HW230687   1.461   4.138   5.646
 9930SOL     OW30688   0.347   5.546   0.159
 9930SOL    HW130689   0.272   5.613   0.151
 9930SOL    HW230690   0.311   5.454   0.145
 9931SOL     OW30691   2.795   4.759   6.658
 9931SOL    HW130692   2.836   4.668   6.648
 9931SOL    HW230693   2.805   4.789   6.752
 9932SOL     OW30694   2.011   2.479   0.985
 9932SOL    HW130695   2.072   2.500   0.909
 9932SOL    HW230696   2.043   2.398   1.033
 9933SOL     OW30697   0.519   1.397   2.172
 9933SOL    HW130698   0.470   1.480   2.196
 9933SOL    HW230699   0.560   1.357   2.254
 9934SOL     OW30700   5.155   0.936   6.638
 9934SOL    HW130701   5.092   0.859   6.627
 9934SOL    HW230702   5.108   1.021   6.613
 9935SOL     OW30703   2.486   2.335   0.525
 9935SOL    HW130704   2.411   2.362   0.585
 9935SOL    HW230705   2.572   2.368   0.562
 9936SOL     OW30706   5.242   6.252   6.055
 9936SOL    HW130707   5.179   6.330   6.056
 9936SOL    HW230708   5.194   6.171   6.021
 9937SOL     OW30709   1.990   6.531   3.227
 9937SOL    HW130710   1.892   6.547   3.237
 9937SOL    HW230711   2.006   6.438   3.194
 9938SOL     OW30712   6.587   1.095   3.447
 9938SOL    HW130713   6.624   1.187   3.431
 9938SOL    HW230714   6.488   1.096   3.435
 9939SOL     OW30715   2.588   4.274   1.619
 9939SOL    HW130716   2.670   4.235   1.661
 9939SOL    HW230717   2.613   4.354   1.565
 9940SOL     OW30718   6.730   1.062   3.704
 9940SOL    HW130719   6.698   1.090   3.613
 9940SOL    HW230720   6.715   0.964   3.716
 9941SOL     OW30721   5.735   4.431   1.001
 9941SOL    HW130722   5.813   4.368   0.990
 9941SOL    HW230723   5.739   4.473   1.091
 9942SOL     OW30724   5.686   5.866   3.037
 9942SOL    HW130725   5.719   5.960   3.040
 9942SOL    HW230726   5.735   5.812   3.106
 9943SOL     OW30727   1.558   3.414   5.151
 9943SOL    HW130728   1.501   3.390   5.230
 9943SOL    HW230729   1.506   3.398   5.067
 9944SOL     OW30730   1.701   5.584   6.110
 9944SOL    HW130731   1.606   5.555   6.120
 9944SOL    HW230732   1.737   5.553   6.022
 9945SOL     OW30733   6.776   3.812   6.815
 9945SOL    HW130734   6.685   3.844   6.839
 9945SOL    HW230735   6.780   3.713   6.826
 9946SOL     OW30736   4.904   2.263   1.750
 9946SOL    HW130737   4.862   2.310   1.828
 9946SOL    HW230738   4.894   2.164   1.761
 9947SOL     OW30739   0.658   1.349   2.761
 9947SOL    HW130740   0.702   1.268   2.801
 9947SOL    HW230741   0.728   1.407   2.719
 9948SOL     OW30742   5.733   0.635   5.153
 9948SOL    HW130743   5.802   0.563   5.163
 9948SOL    HW230744   5.715   0.650   5.056
 9949SOL     OW30745   6.891   4.095   3.389
 9949SOL    HW130746   6.844   4.014   3.426
 9949SOL    HW230747   6.913   4.158   3.463
 9950SOL     OW30748   4.598   4.018   5.269
 9950SOL    HW130749   4.673   3.952   5.276
 9950SOL    HW230750   4.626   4.095   5.212
 9951SOL     OW30751   0.198   1.952   3.303
 9951SOL    HW130752   0.206   2.003   3.218
 9951SOL    HW230753   0.143   2.004   3.369
 9952SOL     OW30754   1.376   4.696   1.691
 9952SOL    HW130755   1.436   4.644   1.631
 9952SOL    HW230756   1.431   4.747   1.758
 9953SOL     OW30757   6.014   3.751   3.972
 9953SOL    HW130758   6.098   3.771   3.920
 9953SOL    HW230759   5.937   3.797   3.929
 9954SOL     OW30760   3.398   1.077   1.517
 9954SOL    HW130761   3.494   1.061   1.538
 9954SOL    HW230762   3.360   0.997   1.472
 9955SOL     OW30763   5.140   5.367   1.764
 9955SOL    HW130764   5.084   5.418   1.699
 9955SOL    HW230765   5.237   5.378   1.740
 9956SOL     OW30766   1.830   2.640   3.688
 9956SOL    HW130767   1.813   2.573   3.616
 9956SOL    HW230768   1.745   2.690   3.708
 9957SOL     OW30769   5.510   0.604   0.343
 9957SOL    HW130770   5.605   0.598   0.312
 9957SOL    HW230771   5.490   0.698   0.370
 9958SOL     OW30772   6.195   5.449   6.950
 9958SOL    HW130773   6.269   5.383   6.962
 9958SOL    HW230774   6.176   5.494   0.020
 9959SOL     OW30775   5.768   5.139   0.729
 9959SOL    HW130776   5.744   5.203   0.656
 9959SOL    HW230777   5.732   5.048   0.706
 9960SOL     OW30778   6.194   0.073   0.197
 9960SOL    HW130779   6.287   0.076   0.235
 9960SOL    HW230780   6.199   0.088   0.098
 9961SOL     OW30781   3.473   5.645   0.708
 9961SOL    HW130782   3.374   5.662   0.713
 9961SOL    HW230783   3.513   5.706   0.640
 9962SOL     OW30784   3.325   0.173   1.471
 9962SOL    HW130785   3.307   0.132   1.382
 9962SOL    HW230786   3.239   0.181   1.522
 9963SOL     OW30787   0.748   0.293   5.746
 9963SOL    HW130788   0.711   0.386   5.750
 9963SOL    HW230789   0.717   0.241   5.825
 9964SOL     OW30790   4.556   4.466   5.966
 9964SOL    HW130791   4.556   4.380   5.915
 9964SOL    HW230792   4.473   4.517   5.946
 9965SOL     OW30793   2.815   5.044   3.994
 9965SOL    HW130794   2.872   5.087   3.924
 9965SOL    HW230795   2.857   4.958   4.022
 9966SOL     OW30796   3.640   5.223   3.084
 9966SOL    HW130797   3.708   5.268   3.141
 9966SOL    HW230798   3.553   5.220   3.133
 9967SOL     OW30799   0.169   0.512   2.978
 9967SOL    HW130800   0.149   0.533   2.883
 9967SOL    HW230801   0.165   0.597   3.032
 9968SOL     OW30802   4.226   0.008   0.265
 9968SOL    HW130803   4.307   6.988   0.218
 9968SOL    HW230804   4.186   0.081   0.210
 9969SOL     OW30805   0.142   5.745   3.502
 9969SOL    HW130806   0.130   5.676   3.574
 9969SOL    HW230807   0.237   5.742   3.468
 9970SOL     OW30808   6.777   3.355   2.271
 9970SOL    HW130809   6.859   3.400   2.237
 9970SOL    HW230810   6.760   3.273   2.216
 9971SOL     OW30811   6.822   5.413   4.553
 9971SOL    HW130812   6.810   5.396   4.650
 9971SOL    HW230813   6.848   5.328   4.507
 9972SOL     OW30814   3.367   4.276   5.941
 9972SOL    HW130815   3.300   4.306   6.009
 9972SOL    HW230816   3.319   4.237   5.862
 9973SOL     OW30817   2.510   1.965   3.446
 9973SOL    HW130818   2.456   2.002   3.370
 9973SOL    HW230819   2.602   1.943   3.413
 9974SOL     OW30820   1.464   2.524   3.333
 9974SOL    HW130821   1.461   2.565   3.424
 9974SOL    HW230822   1.508   2.434   3.339
 9975SOL     OW30823   2.549   4.554   6.562
 9975SOL    HW130824   2.606   4.633   6.585
 9975SOL    HW230825   2.607   4.474   6.547
 9976SOL     OW30826   4.113   5.668   5.897
 9976SOL    HW130827   4.023   5.631   5.920
 9976SOL    HW230828   4.154   5.613   5.824
 9977SOL     OW30829   4.233   7.000   5.502
 9977SOL    HW130830   4.201   0.070   5.464
 9977SOL    HW230831   4.325   7.011   5.540
 9978SOL     OW30832   0.866   2.909   0.160
 9978SOL    HW130833   0.799   2.838   0.182
 9978SOL    HW230834   0.827   2.973   0.095
 9979SOL     OW30835   3.532   4.035   5.121
 9979SOL    HW130836   3.437   4.060   5.102
 9979SOL    HW230837   3.571   3.991   5.041
 9980SOL     OW30838   1.516   1.198   1.289
 9980SOL    HW130839   1.547   1.184   1.195
 9980SOL    HW230840   1.594   1.224   1.346
 9981SOL     OW30841   5.856   1.362   0.384
 9981SOL    HW130842   5.926   1.394   0.447
 9981SOL    HW230843   5.898   1.305   0.314
 9982SOL     OW30844   1.813   2.244   4.686
 9982SOL    HW130845   1.729   2.242   4.741
 9982SOL    HW230846   1.892   2.243   4.746
 9983SOL     OW30847   1.091   3.779   2.326
 9983SOL    HW130848   1.017   3.725   2.365
 9983SOL    HW230849   1.137   3.830   2.399
 9984SOL     OW30850   0.387   5.176   0.692
 9984SOL    HW130851   0.343   5.157   0.780
 9984SOL    HW230852   0.449   5.102   0.669
 9985SOL     OW30853   4.977   4.636   6.971
 9985SOL    HW130854   4.988   4.709   6.904
 9985SOL    HW230855   4.935   4.556   6.927
 9986SOL     OW30856   5.835   5.615   0.235
 9986SOL    HW130857   5.803   5.709   0.228
 9986SOL    HW230858   5.792   5.560   0.163
 9987SOL     OW30859   5.696   2.474   1.178
 9987SOL    HW130860   5.733   2.557   1.136
 9987SOL    HW230861   5.729   2.394   1.128
 9988SOL     OW30862   6.057   0.095   3.498
 9988SOL    HW130863   6.036   0.151   3.418
 9988SOL    HW230864   5.977   0.091   3.558
 9989SOL     OW30865   6.783   5.929   2.663
 9989SOL    HW130866   6.769   5.909   2.566
 9989SOL    HW230867   6.830   5.853   2.706
 9990SOL     OW30868   6.804   0.025   3.176
 9990SOL    HW130869   6.883   0.084   3.193
 9990SOL    HW230870   6.812   7.003   3.085
 9991SOL     OW30871   1.676   4.164   2.494
 9991SOL    HW130872   1.759   4.131   2.449
 9991SOL    HW230873   1.675   4.264   2.494
 9992SOL     OW30874   2.446   5.008   0.550
 9992SOL    HW130875   2.392   5.090   0.572
 9992SOL    HW230876   2.385   4.935   0.521
 9993SOL     OW30877   3.940   0.217   4.941
 9993SOL    HW130878   3.878   0.234   4.865
 9993SOL    HW230879   4.028   0.183   4.906
 9994SOL     OW30880   5.930   5.351   5.012
 9994SOL    HW130881   5.991   5.283   5.052
 9994SOL    HW230882   5.984   5.416   4.958
 9995SOL     OW30883   3.497   1.686   6.358
 9995SOL    HW130884   3.488   1.730   6.269
 9995SOL    HW230885   3.447   1.599   6.358
 9996SOL     OW30886   2.888   3.997   0.646
 9996SOL    HW130887   2.851   3.909   0.618
 9996SOL    HW230888   2.829   4.038   0.715
 9997SOL     OW30889   6.647   1.962   3.627
 9997SOL    HW130890   6.723   1.966   3.562
 9997SOL    HW230891   6.602   2.051   3.631
 9998SOL     OW30892   4.831   3.883   2.512
 9998SOL    HW130893   4.890   3.829   2.572
 9998SOL    HW230894   4.853   3.861   2.416
 9999SOL     OW30895   0.614   6.669   4.018
 9999SOL    HW130896   0.547   6.668   4.093
 9999SOL    HW230897   0.641   6.575   3.996
10000SOL     OW30898   4.169   2.475   1.081
10000SOL    HW130899   4.101   2.547   1.093
10000SOL    HW230900   4.160   2.407   1.153
10001SOL     OW30901   3.770   6.413   1.304
10001SOL    HW130902   3.754   6.315   1.314
10001SOL    HW230903   3.743   6.443   1.212
10002SOL     OW30904   3.008   0.635   1.937
10002SOL    HW130905   3.091   0.680   1.904
10002SOL    HW230906   2.968   0.690   2.011
10003SOL     OW30907   1.292   0.955   2.942
10003SOL    HW130908   1.280   0.861   2.909
10003SOL    HW230909   1.262   1.019   2.871
10004SOL     OW30910   6.948   4.821   4.350
10004SOL    HW130911   6.973   4.892   4.284
10004SOL    HW230912   6.946   4.732   4.304
10005SOL     OW30913   2.939   5.093   3.380
10005SOL    HW130914   2.955   4.995   3.391
10005SOL    HW230915   3.000   5.144   3.442
10006SOL     OW30916   5.641   0.987   5.117
10006SOL    HW130917   5.673   1.071   5.073
10006SOL    HW230918   5.719   0.932   5.144
10007SOL     OW30919   1.239   5.317   4.081
10007SOL    HW130920   1.244   5.217   4.073
10007SOL    HW230921   1.217   5.356   3.991
10008SOL     OW30922   3.422   1.445   5.902
10008SOL    HW130923   3.483   1.488   5.835
10008SOL    HW230924   3.369   1.515   5.949
10009SOL     OW30925   0.938   4.054   2.160
10009SOL    HW130926   0.998   4.008   2.225
10009SOL    HW230927   0.978   4.141   2.132
10010SOL     OW30928   2.222   4.361   0.791
10010SOL    HW130929   2.249   4.323   0.703
10010SOL    HW230930   2.294   4.346   0.858
10011SOL     OW30931   2.219   3.073   6.969
10011SOL    HW130932   2.301   3.092   6.915
10011SOL    HW230933   2.215   2.975   6.991
10012SOL     OW30934   5.523   2.297   3.045
10012SOL    HW130935   5.544   2.298   3.143
10012SOL    HW230936   5.579   2.229   2.999
10013SOL     OW30937   0.352   6.185   4.703
10013SOL    HW130938   0.429   6.244   4.680
10013SOL    HW230939   0.286   6.237   4.758
10014SOL     OW30940   0.790   1.045   2.752
10014SOL    HW130941   0.725   1.004   2.816
10014SOL    HW230942   0.864   0.980   2.733
10015SOL     OW30943   4.160   6.229   6.232
10015SOL    HW130944   4.141   6.131   6.227
10015SOL    HW230945   4.133   6.272   6.146
10016SOL     OW30946   2.271   0.649   4.076
10016SOL    HW130947   2.348   0.710   4.092
10016SOL    HW230948   2.213   0.646   4.157
10017SOL     OW30949   2.674   2.312   2.738
10017SOL    HW130950   2.714   2.299   2.829
10017SOL    HW230951   2.744   2.348   2.676
10018SOL     OW30952   6.629   3.955   5.283
10018SOL    HW130953   6.580   3.911   5.358
10018SOL    HW230954   6.716   3.908   5.267
10019SOL     OW30955   0.262   2.548   1.804
10019SOL    HW130956   0.210   2.617   1.855
10019SOL    HW230957   0.239   2.457   1.839
10020SOL     OW30958   6.190   1.285   2.057
10020SOL    HW130959   6.173   1.251   1.964
10020SOL    HW230960   6.284   1.262   2.084
10021SOL     OW30961   0.801   3.454   2.284
10021SOL    HW130962   0.840   3.381   2.227
10021SOL    HW230963   0.703   3.461   2.266
10022SOL     OW30964   1.897   4.868   5.944
10022SOL    HW130965   1.917   4.931   6.019
10022SOL    HW230966   1.820   4.903   5.891
10023SOL     OW30967   1.143   1.082   6.110
10023SOL    HW130968   1.063   1.034   6.146
10023SOL    HW230969   1.176   1.035   6.028
10024SOL     OW30970   1.510   4.737   2.722
10024SOL    HW130971   1.489   4.642   2.700
10024SOL    HW230972   1.587   4.768   2.667
10025SOL     OW30973   1.249   3.718   0.786
10025SOL    HW130974   1.288   3.745   0.698
10025SOL    HW230975   1.282   3.779   0.857
10026SOL     OW30976   5.432   1.823   4.757
10026SOL    HW130977   5.429   1.744   4.696
10026SOL    HW230978   5.395   1.903   4.710
10027SOL     OW30979   2.935   1.856   5.129
10027SOL    HW130980   2.892   1.849   5.040
10027SOL    HW230981   3.012   1.792   5.135
10028SOL     OW30982   4.398   0.066   1.230
10028SOL    HW130983   4.460   0.145   1.224
10028SOL    HW230984   4.327   0.075   1.160
10029SOL     OW30985   0.338   4.404   4.468
10029SOL    HW130986   0.427   4.387   4.426
10029SOL    HW230987   0.266   4.369   4.408
10030SOL     OW30988   2.272   6.909   4.043
10030SOL    HW130989   2.331   6.897   4.123
10030SOL    HW230990   2.327   6.937   3.965
10031SOL     OW30991   3.005   5.319   2.827
10031SOL    HW130992   3.058   5.378   2.766
10031SOL    HW230993   3.049   5.316   2.917
10032SOL     OW30994   2.925   6.406   4.797
10032SOL    HW130995   2.963   6.313   4.795
10032SOL    HW230996   2.998   6.472   4.813
10033SOL     OW30997   3.151   1.066   4.412
10033SOL    HW130998   3.189   1.129   4.479
10033SOL    HW230999   3.223   1.036   4.349
10034SOL     OW31000   2.441   1.040   3.884
10034SOL    HW131001   2.466   1.044   3.788
10034SOL    HW231002   2.355   0.990   3.894
10035SOL     OW31003   6.610   2.498   2.772
10035SOL    HW131004   6.629   2.592   2.744
10035SOL    HW231005   6.567   2.499   2.863
10036SOL     OW31006   0.305   0.736   6.998
10036SOL    HW131007   0.250   0.732   6.914
10036SOL    HW231008   0.266   0.803   0.044
10037SOL     OW31009   5.939   6.515   6.941
10037SOL    HW131010   5.963   6.592   6.882
10037SOL    HW231011   5.873   6.457   6.894
10038SOL     OW31012   4.427   6.292   6.377
10038SOL    HW131013   4.390   6.206   6.341
10038SOL    HW231014   4.369   6.368   6.349
10039SOL     OW31015   6.882   5.677   2.373
10039SOL    HW131016   6.932   5.657   2.458
10039SOL    HW231017   6.842   5.593   2.337
10040SOL     OW31018   2.860   6.995   1.284
10040SOL    HW131019   2.906   6.914   1.247
10040SOL    HW231020   2.812   0.026   1.211
10041SOL     OW31021   6.720   5.529   5.325
10041SOL    HW131022   6.628   5.499   5.300
10041SOL    HW231023   6.788   5.467   5.285
10042SOL     OW31024   0.225   0.385   5.070
10042SOL    HW131025   0.141   0.417   5.114
10042SOL    HW231026   0.246   0.292   5.101
10043SOL     OW31027   0.671   0.632   3.871
10043SOL    HW131028   0.631   0.541   3.883
10043SOL    HW231029   0.643   0.691   3.947
10044SOL     OW31030   2.951   1.669   6.774
10044SOL    HW131031   2.876   1.610   6.803
10044SOL    HW231032   3.026   1.614   6.739
10045SOL     OW31033   3.867   6.443   5.238
10045SOL    HW131034   3.841   6.430   5.142
10045SOL    HW231035   3.835   6.365   5.292
10046SOL     OW31036   0.244   2.813   1.912
10046SOL    HW131037   0.170   2.879   1.897
10046SOL    HW231038   0.313   2.824   1.840
10047SOL     OW31039   0.442   1.678   3.540
10047SOL    HW131040   0.409   1.635   3.624
10047SOL    HW231041   0.535   1.648   3.521
10048SOL     OW31042   3.533   2.419   1.681
10048SOL    HW131043   3.520   2.511   1.718
10048SOL    HW231044   3.596   2.368   1.739
10049SOL     OW31045   1.492   6.730   4.612
10049SOL    HW131046   1.563   6.733   4.682
10049SOL    HW231047   1.516   6.793   4.538
10050SOL     OW31048   5.010   2.711   3.789
10050SOL    HW131049   4.918   2.695   3.755
10050SOL    HW231050   5.077   2.678   3.722
10051SOL     OW31051   6.077   2.749   5.701
10051SOL    HW131052   5.997   2.806   5.682
10051SOL    HW231053   6.056   2.685   5.776
10052SOL     OW31054   1.047   3.767   1.470
10052SOL    HW131055   1.020   3.770   1.373
10052SOL    HW231056   1.056   3.671   1.498
10053SOL     OW31057   3.138   6.009   3.539
10053SOL    HW131058   3.150   6.063   3.455
10053SOL    HW231059   3.120   5.914   3.515
10054SOL     OW31060   3.934   5.457   4.161
10054SOL    HW131061   3.877   5.477   4.081
10054SOL    HW231062   3.971   5.365   4.153
10055SOL     OW31063   6.746   3.154   6.114
10055SOL    HW131064   6.724   3.068   6.068
10055SOL    HW231065   6.744   3.228   6.047
10056SOL     OW31066   6.739   5.016   1.737
10056SOL    HW131067   6.799   5.060   1.670
10056SOL    HW231068   6.763   5.049   1.829
10057SOL     OW31069   2.625   2.170   3.925
10057SOL    HW131070   2.695   2.171   3.852
10057SOL    HW231071   2.628   2.257   3.974
10058SOL     OW31072   0.616   5.312   3.603
10058SOL    HW131073   0.632   5.299   3.505
10058SOL    HW231074   0.520   5.334   3.618
10059SOL     OW31075   5.551   0.083   0.977
10059SOL    HW131076   5.523   7.006   0.956
10059SOL    HW231077   5.637   0.104   0.931
10060SOL     OW31078   1.934   2.916   1.730
10060SOL    HW131079   2.032   2.907   1.716
10060SOL    HW231080   1.910   3.013   1.737
10061SOL     OW31081   5.992   1.996   4.726
10061SOL    HW131082   5.940   2.016   4.809
10061SOL    HW231083   5.930   1.965   4.654
10062SOL     OW31084   6.102   6.072   3.128
10062SOL    HW131085   6.086   6.170   3.143
10062SOL    HW231086   6.189   6.059   3.080
10063SOL     OW31087   0.877   2.928   2.846
10063SOL    HW131088   0.934   2.997   2.803
10063SOL    HW231089   0.901   2.838   2.811
10064SOL     OW31090   5.666   6.772   4.605
10064SOL    HW131091   5.750   6.798   4.653
10064SOL    HW231092   5.597   6.745   4.672
10065SOL     OW31093   0.968   6.312   3.154
10065SOL    HW131094   0.963   6.251   3.234
10065SOL    HW231095   1.055   6.361   3.155
10066SOL     OW31096   0.777   0.323   3.491
10066SOL    HW131097   0.732   0.317   3.402
10066SOL    HW231098   0.742   0.402   3.540
10067SOL     OW31099   3.740   5.192   3.465
10067SOL    HW131100   3.816   5.128   3.474
10067SOL    HW231101   3.691   5.198   3.552
10068SOL     OW31102   5.036   3.862   5.163
10068SOL    HW131103   5.125   3.904   5.181
10068SOL    HW231104   4.999   3.825   5.248
10069SOL     OW31105   3.523   0.825   3.498
10069SOL    HW131106   3.440   0.856   3.451
10069SOL    HW231107   3.511   0.836   3.597
10070SOL     OW31108   0.646   6.654   4.845
10070SOL    HW131109   0.615   6.713   4.920
10070SOL    HW231110   0.621   6.695   4.758
10071SOL     OW31111   4.975   5.815   5.071
10071SOL    HW131112   4.998   5.901   5.117
10071SOL    HW231113   5.034   5.742   5.104
10072SOL     OW31114   0.878   0.078   2.983
10072SOL    HW131115   0.945   0.100   3.054
10072SOL    HW231116   0.890   7.001   2.953
10073SOL     OW31117   0.473   4.831   6.002
10073SOL    HW131118   0.456   4.788   6.090
10073SOL    HW231119   0.420   4.915   5.995
10074SOL     OW31120   2.545   7.003   5.622
10074SOL    HW131121   2.491   0.041   5.685
10074SOL    HW231122   2.539   0.025   5.530
10075SOL     OW31123   1.036   2.742   4.007
10075SOL    HW131124   0.983   2.750   3.923
10075SOL    HW231125   1.118   2.799   3.999
10076SOL     OW31126   5.437   0.345   4.609
10076SOL    HW131127   5.358   0.405   4.597
10076SOL    HW231128   5.514   0.380   4.556
10077SOL     OW31129   3.599   1.363   6.293
10077SOL    HW131130   3.543   1.339   6.214
10077SOL    HW231131   3.693   1.335   6.277
10078SOL     OW31132   5.704   6.346   6.034
10078SOL    HW131133   5.617   6.390   6.054
10078SOL    HW231134   5.750   6.395   5.960
10079SOL     OW31135   0.242   4.235   0.176
10079SOL    HW131136   0.146   4.239   0.151
10079SOL    HW231137   0.251   4.243   0.275
10080SOL     OW31138   1.730   2.950   6.024
10080SOL    HW131139   1.689   2.884   6.088
10080SOL    HW231140   1.780   3.019   6.075
10081SOL     OW31141   6.888   0.739   6.282
10081SOL    HW131142   6.945   0.820   6.291
10081SOL    HW231143   6.939   0.666   6.237
10082SOL     OW31144   6.553   1.122   1.375
10082SOL    HW131145   6.584   1.038   1.331
10082SOL    HW231146   6.597   1.132   1.464
10083SOL     OW31147   4.836   0.792   4.114
10083SOL    HW131148   4.792   0.858   4.054
10083SOL    HW231149   4.906   0.837   4.169
10084SOL     OW31150   2.330   1.101   6.304
10084SOL    HW131151   2.371   1.011   6.293
10084SOL    HW231152   2.361   1.161   6.229
10085SOL     OW31153   0.460   5.329   2.894
10085SOL    HW131154   0.477   5.233   2.873
10085SOL    HW231155   0.493   5.386   2.819
10086SOL     OW31156   6.293   3.585   2.133
10086SOL    HW131157   6.335   3.662   2.180
10086SOL    HW231158   6.196   3.580   2.158
10087SOL     OW31159   1.290   7.010   4.228
10087SOL    HW131160   1.201   6.988   4.188
10087SOL    HW231161   1.323   6.931   4.280
10088SOL     OW31162   0.662   0.191   4.606
10088SOL    HW131163   0.613   0.273   4.578
10088SOL    HW231164   0.675   0.131   4.527
10089SOL     OW31165   1.445   3.360   2.045
10089SOL    HW131166   1.391   3.418   1.983
10089SOL    HW231167   1.453   3.404   2.134
10090SOL     OW31168   0.620   4.741   0.550
10090SOL    HW131169   0.586   4.649   0.534
10090SOL    HW231170   0.656   4.747   0.644
10091SOL     OW31171   0.859   2.600   4.465
10091SOL    HW131172   0.860   2.660   4.385
10091SOL    HW231173   0.777   2.617   4.519
10092SOL     OW31174   2.052   4.290   5.256
10092SOL    HW131175   2.094   4.220   5.198
10092SOL    HW231176   1.954   4.270   5.266
10093SOL     OW31177   6.470   4.484   6.369
10093SOL    HW131178   6.520   4.427   6.305
10093SOL    HW231179   6.439   4.567   6.322
10094SOL     OW31180   1.175   1.528   1.843
10094SOL    HW131181   1.147   1.523   1.939
10094SOL    HW231182   1.260   1.478   1.830
10095SOL     OW31183   6.889   0.961   6.035
10095SOL    HW131184   6.938   0.895   5.979
10095SOL    HW231185   6.904   1.053   5.999
10096SOL     OW31186   0.537   5.002   2.525
10096SOL    HW131187   0.557   5.100   2.533
10096SOL    HW231188   0.509   4.982   2.431
10097SOL     OW31189   1.046   1.323   6.767
10097SOL    HW131190   0.956   1.334   6.809
10097SOL    HW231191   1.112   1.293   6.836
10098SOL     OW31192   2.731   5.039   6.521
10098SOL    HW131193   2.736   4.942   6.542
10098SOL    HW231194   2.813   5.067   6.470
10099SOL     OW31195   6.947   4.493   4.547
10099SOL    HW131196   0.007   4.453   4.597
10099SOL    HW231197   6.871   4.511   4.610
10100SOL     OW31198   5.599   1.471   5.111
10100SOL    HW131199   5.638   1.420   5.187
10100SOL    HW231200   5.544   1.547   5.146
10101SOL     OW31201   0.222   4.507   2.301
10101SOL    HW131202   0.311   4.549   2.315
10101SOL    HW231203   0.156   4.577   2.272
10102SOL     OW31204   2.775   1.381   2.732
10102SOL    HW131205   2.744   1.320   2.805
10102SOL    HW231206   2.861   1.424   2.759
10103SOL     OW31207   3.067   2.373   0.059
10103SOL    HW131208   3.085   2.404   6.983
10103SOL    HW231209   3.042   2.276   0.057
10104SOL     OW31210   1.282   6.203   5.043
10104SOL    HW131211   1.187   6.208   5.076
10104SOL    HW231212   1.329   6.129   5.091
10105SOL     OW31213   2.376   0.593   6.663
10105SOL    HW131214   2.354   0.630   6.753
10105SOL    HW231215   2.297   0.541   6.628
10106SOL     OW31216   5.364   5.673   0.251
10106SOL    HW131217   5.372   5.671   0.151
10106SOL    HW231218   5.401   5.760   0.285
10107SOL     OW31219   5.619   1.390   5.670
10107SOL    HW131220   5.657   1.482   5.679
10107SOL    HW231221   5.616   1.347   5.760
10108SOL     OW31222   6.570   6.719   0.391
10108SOL    HW131223   6.491   6.694   0.335
10108SOL    HW231224   6.559   6.813   0.425
10109SOL     OW31225   4.899   5.069   3.149
10109SOL    HW131226   4.946   5.018   3.222
10109SOL    HW231227   4.920   5.166   3.158
10110SOL     OW31228   3.161   0.660   5.757
10110SOL    HW131229   3.216   0.723   5.812
10110SOL    HW231230   3.141   0.703   5.669
10111SOL     OW31231   0.646   2.236   2.844
10111SOL    HW131232   0.736   2.201   2.820
10111SOL    HW231233   0.577   2.165   2.829
10112SOL     OW31234   4.517   4.203   5.517
10112SOL    HW131235   4.492   4.249   5.432
10112SOL    HW231236   4.539   4.108   5.498
10113SOL     OW31237   3.773   6.448   6.668
10113SOL    HW131238   3.856   6.399   6.642
10113SOL    HW231239   3.718   6.391   6.728
10114SOL     OW31240   4.162   0.859   1.157
10114SOL    HW131241   4.212   0.914   1.090
10114SOL    HW231242   4.208   0.864   1.246
10115SOL     OW31243   1.795   1.987   3.837
10115SOL    HW131244   1.843   2.011   3.922
10115SOL    HW231245   1.713   2.044   3.828
10116SOL     OW31246   1.225   1.125   1.227
10116SOL    HW131247   1.146   1.147   1.284
10116SOL    HW231248   1.295   1.195   1.238
10117SOL     OW31249   4.831   0.878   5.648
10117SOL    HW131250   4.790   0.829   5.725
10117SOL    HW231251   4.883   0.957   5.681
10118SOL     OW31252   6.841   5.103   1.978
10118SOL    HW131253   6.838   5.191   2.027
10118SOL    HW231254   6.896   5.038   2.030
10119SOL     OW31255   2.469   0.851   5.822
10119SOL    HW131256   2.536   0.782   5.797
10119SOL    HW231257   2.388   0.807   5.860
10120SOL     OW31258   6.790   2.847   3.591
10120SOL    HW131259   6.802   2.908   3.670
10120SOL    HW231260   6.700   2.804   3.596
10121SOL     OW31261   6.773   4.585   5.161
10121SOL    HW131262   6.748   4.676   5.192
10121SOL    HW231263   6.734   4.517   5.223
10122SOL     OW31264   5.245   3.585   0.481
10122SOL    HW131265   5.283   3.675   0.501
10122SOL    HW231266   5.319   3.521   0.459
10123SOL     OW31267   0.025   6.519   0.247
10123SOL    HW131268   7.005   6.563   0.166
10123SOL    HW231269   0.077   6.438   0.221
10124SOL     OW31270   3.076   4.359   0.705
10124SOL    HW131271   3.112   4.440   0.658
10124SOL    HW231272   3.080   4.280   0.644
10125SOL     OW31273   1.395   0.199   1.664
10125SOL    HW131274   1.448   0.144   1.728
10125SOL    HW231275   1.361   0.281   1.710
10126SOL     OW31276   6.609   5.566   0.674
10126SOL    HW131277   6.705   5.538   0.678
10126SOL    HW231278   6.573   5.548   0.583
10127SOL     OW31279   3.661   5.110   5.172
10127SOL    HW131280   3.715   5.154   5.243
10127SOL    HW231281   3.570   5.150   5.169
10128SOL     OW31282   0.213   2.353   0.789
10128SOL    HW131283   0.156   2.433   0.805
10128SOL    HW231284   0.253   2.358   0.697
10129SOL     OW31285   5.892   2.393   2.993
10129SOL    HW131286   5.891   2.466   3.061
10129SOL    HW231287   5.891   2.433   2.902
10130SOL     OW31288   6.417   5.202   1.458
10130SOL    HW131289   6.430   5.292   1.416
10130SOL    HW231290   6.381   5.138   1.390
10131SOL     OW31291   0.402   1.346   1.037
10131SOL    HW131292   0.341   1.364   0.960
10131SOL    HW231293   0.391   1.250   1.065
10132SOL     OW31294   3.011   6.835   2.501
10132SOL    HW131295   2.954   6.898   2.448
10132SOL    HW231296   3.081   6.795   2.441
10133SOL     OW31297   4.997   5.447   3.557
10133SOL    HW131298   4.933   5.510   3.514
10133SOL    HW231299   4.954   5.358   3.569
10134SOL     OW31300   6.937   1.383   2.863
10134SOL    HW131301   6.946   1.315   2.790
10134SOL    HW231302   0.009   1.423   2.883
10135SOL     OW31303   4.394   4.890   3.134
10135SOL    HW131304   4.425   4.981   3.104
10135SOL    HW231305   4.451   4.820   3.091
10136SOL     OW31306   5.724   6.526   3.282
10136SOL    HW131307   5.698   6.558   3.373
10136SOL    HW231308   5.642   6.519   3.225
10137SOL     OW31309   6.449   4.902   4.322
10137SOL    HW131310   6.391   4.824   4.299
10137SOL    HW231311   6.429   4.932   4.416
10138SOL     OW31312   5.420   2.366   6.491
10138SOL    HW131313   5.457   2.444   6.440
10138SOL    HW231314   5.486   2.338   6.560
10139SOL     OW31315   3.851   3.014   2.884
10139SOL    HW131316   3.783   2.983   2.950
10139SOL    HW231317   3.847   2.957   2.803
10140SOL     OW31318   0.718   4.846   6.152
10140SOL    HW131319   0.642   4.868   6.091
10140SOL    HW231320   0.721   4.747   6.167
10141SOL     OW31321   1.621   0.718   3.705
10141SOL    HW131322   1.645   0.626   3.735
10141SOL    HW231323   1.558   0.760   3.771
10142SOL     OW31324   4.351   6.263   4.624
10142SOL    HW131325   4.426   6.269   4.558
10142SOL    HW231326   4.338   6.168   4.651
10143SOL     OW31327   4.638   0.017   1.042
10143SOL    HW131328   4.556   0.074   1.054
10143SOL    HW231329   4.621   6.943   1.081
10144SOL     OW31330   3.065   5.278   4.010
10144SOL    HW131331   3.064   5.282   4.110
10144SOL    HW231332   3.115   5.357   3.974
10145SOL     OW31333   2.606   6.392   5.812
10145SOL    HW131334   2.570   6.299   5.802
10145SOL    HW231335   2.596   6.440   5.724
10146SOL     OW31336   4.604   5.336   4.389
10146SOL    HW131337   4.525   5.372   4.339
10146SOL    HW231338   4.603   5.236   4.385
10147SOL     OW31339   4.673   4.844   5.081
10147SOL    HW131340   4.717   4.934   5.079
10147SOL    HW231341   4.701   4.791   5.001
10148SOL     OW31342   5.660   5.904   0.748
10148SOL    HW131343   5.668   5.813   0.709
10148SOL    HW231344   5.586   5.906   0.815
10149SOL     OW31345   4.305   2.616   0.901
10149SOL    HW131346   4.259   2.550   0.960
10149SOL    HW231347   4.238   2.679   0.862
10150SOL     OW31348   4.512   4.562   1.412
10150SOL    HW131349   4.583   4.492   1.417
10150SOL    HW231350   4.481   4.585   1.505
10151SOL     OW31351   2.190   0.032   5.608
10151SOL    HW131352   2.170   6.952   5.614
10151SOL    HW231353   2.267   0.055   5.668
10152SOL     OW31354   0.109   5.538   3.668
10152SOL    HW131355   0.046   5.466   3.696
10152SOL    HW231356   0.159   5.571   3.748
10153SOL     OW31357   5.383   6.248   4.595
10153SOL    HW131358   5.325   6.324   4.624
10153SOL    HW231359   5.339   6.162   4.622
10154SOL     OW31360   6.949   5.098   5.926
10154SOL    HW131361   6.868   5.094   5.985
10154SOL    HW231362   6.952   5.185   5.878
10155SOL     OW31363   3.839   0.791   5.697
10155SOL    HW131364   3.829   0.864   5.629
10155SOL    HW231365   3.888   0.827   5.777
10156SOL     OW31366   5.724   0.709   2.278
10156SOL    HW131367   5.643   0.662   2.243
10156SOL    HW231368   5.718   0.716   2.378
10157SOL     OW31369   5.819   1.160   6.153
10157SOL    HW131370   5.864   1.165   6.064
10157SOL    HW231371   5.835   1.069   6.192
10158SOL     OW31372   4.137   3.650   6.747
10158SOL    HW131373   4.066   3.703   6.793
10158SOL    HW231374   4.109   3.554   6.740
10159SOL     OW31375   1.314   1.457   6.239
10159SOL    HW131376   1.359   1.370   6.262
10159SOL    HW231377   1.379   1.518   6.196
10160SOL     OW31378   0.460   5.625   4.215
10160SOL    HW131379   0.522   5.566   4.163
10160SOL    HW231380   0.511   5.670   4.288
10161SOL     OW31381   3.263   5.532   5.981
10161SOL    HW131382   3.223   5.612   5.937
10161SOL    HW231383   3.249   5.451   5.923
10162SOL     OW31384   3.137   2.112   6.748
10162SOL    HW131385   3.185   2.122   6.835
10162SOL    HW231386   3.200   2.079   6.678
10163SOL     OW31387   5.924   3.571   5.485
10163SOL    HW131388   5.867   3.623   5.423
10163SOL    HW231389   5.999   3.528   5.434
10164SOL     OW31390   6.665   2.774   5.008
10164SOL    HW131391   6.669   2.873   5.024
10164SOL    HW231392   6.592   2.734   5.063
10165SOL     OW31393   0.369   2.122   3.950
10165SOL    HW131394   0.357   2.036   3.902
10165SOL    HW231395   0.293   2.136   4.014
10166SOL     OW31396   2.414   1.171   2.069
10166SOL    HW131397   2.338   1.133   2.016
10166SOL    HW231398   2.387   1.179   2.165
10167SOL     OW31399   4.834   0.255   0.224
10167SOL    HW131400   4.895   0.306   0.284
10167SOL    HW231401   4.885   0.225   0.143
10168SOL     OW31402   0.122   4.246   3.850
10168SOL    HW131403   0.138   4.153   3.816
10168SOL    HW231404   0.208   4.298   3.846
10169SOL     OW31405   6.406   4.087   4.052
10169SOL    HW131406   6.378   4.048   4.140
10169SOL    HW231407   6.325   4.099   3.994
10170SOL     OW31408   1.766   4.543   5.051
10170SOL    HW131409   1.713   4.564   4.969
10170SOL    HW231410   1.853   4.500   5.025
10171SOL     OW31411   6.655   4.329   6.236
10171SOL    HW131412   6.695   4.420   6.242
10171SOL    HW231413   6.716   4.269   6.185
10172SOL     OW31414   5.289   0.792   2.171
10172SOL    HW131415   5.291   0.705   2.121
10172SOL    HW231416   5.206   0.798   2.225
10173SOL     OW31417   2.302   1.510   2.284
10173SOL    HW131418   2.330   1.606   2.285
10173SOL    HW231419   2.266   1.486   2.194
10174SOL     OW31420   6.851   4.840   2.735
10174SOL    HW131421   6.926   4.789   2.692
10174SOL    HW231422   6.885   4.926   2.772
10175SOL     OW31423   6.280   2.411   5.489
10175SOL    HW131424   6.187   2.383   5.469
10175SOL    HW231425   6.322   2.346   5.552
10176SOL     OW31426   2.138   3.733   6.987
10176SOL    HW131427   2.146   3.732   0.070
10176SOL    HW231428   2.220   3.775   6.948
10177SOL     OW31429   2.937   6.484   0.108
10177SOL    HW131430   2.970   6.506   0.016
10177SOL    HW231431   2.910   6.568   0.155
10178SOL     OW31432   5.991   2.809   4.219
10178SOL    HW131433   6.038   2.729   4.256
10178SOL    HW231434   5.937   2.783   4.139
10179SOL     OW31435   1.260   2.667   6.240
10179SOL    HW131436   1.233   2.590   6.183
10179SOL    HW231437   1.220   2.751   6.204
10180SOL     OW31438   2.341   5.816   5.582
10180SOL    HW131439   2.369   5.725   5.612
10180SOL    HW231440   2.414   5.857   5.526
10181SOL     OW31441   5.750   3.542   1.329
10181SOL    HW131442   5.731   3.629   1.375
10181SOL    HW231443   5.826   3.496   1.375
10182SOL     OW31444   5.817   1.799   1.271
10182SOL    HW131445   5.844   1.863   1.344
10182SOL    HW231446   5.879   1.809   1.193
10183SOL     OW31447   1.687   1.775   6.330
10183SOL    HW131448   1.786   1.766   6.334
10183SOL    HW231449   1.654   1.750   6.239
10184SOL     OW31450   4.313   1.091   5.948
10184SOL    HW131451   4.346   1.033   5.873
10184SOL    HW231452   4.263   1.034   6.013
10185SOL     OW31453   4.761   6.841   0.846
10185SOL    HW131454   4.772   6.764   0.910
10185SOL    HW231455   4.709   6.914   0.890
10186SOL     OW31456   4.791   2.421   2.588
10186SOL    HW131457   4.799   2.473   2.503
10186SOL    HW231458   4.854   2.343   2.585
10187SOL     OW31459   0.686   2.498   1.711
10187SOL    HW131460   0.617   2.502   1.784
10187SOL    HW231461   0.659   2.431   1.643
10188SOL     OW31462   4.131   6.112   0.720
10188SOL    HW131463   4.132   6.180   0.647
10188SOL    HW231464   4.204   6.045   0.705
10189SOL     OW31465   1.756   6.610   5.258
10189SOL    HW131466   1.798   6.610   5.167
10189SOL    HW231467   1.699   6.529   5.270
10190SOL     OW31468   4.877   2.304   0.349
10190SOL    HW131469   4.787   2.325   0.309
10190SOL    HW231470   4.864   2.250   0.432
10191SOL     OW31471   6.247   4.673   0.461
10191SOL    HW131472   6.168   4.717   0.418
10191SOL    HW231473   6.322   4.739   0.468
10192SOL     OW31474   3.314   0.867   5.866
10192SOL    HW131475   3.270   0.948   5.827
10192SOL    HW231476   3.403   0.852   5.821
10193SOL     OW31477   5.069   3.910   0.633
10193SOL    HW131478   5.039   3.829   0.582
10193SOL    HW231479   5.129   3.881   0.708
10194SOL     OW31480   5.551   3.890   5.453
10194SOL    HW131481   5.605   3.826   5.400
10194SOL    HW231482   5.603   3.974   5.468
10195SOL     OW31483   6.760   4.491   1.708
10195SOL    HW131484   6.827   4.531   1.645
10195SOL    HW231485   6.806   4.426   1.769
10196SOL     OW31486   0.149   1.715   4.482
10196SOL    HW131487   0.159   1.813   4.462
10196SOL    HW231488   0.209   1.691   4.558
10197SOL     OW31489   5.946   0.620   5.896
10197SOL    HW131490   5.994   0.573   5.821
10197SOL    HW231491   5.855   0.581   5.905
10198SOL     OW31492   3.972   6.848   2.823
10198SOL    HW131493   4.058   6.848   2.873
10198SOL    HW231494   3.953   6.756   2.790
10199SOL     OW31495   1.278   2.810   5.655
10199SOL    HW131496   1.193   2.856   5.633
10199SOL    HW231497   1.354   2.853   5.605
10200SOL     OW31498   6.164   3.522   1.375
10200SOL    HW131499   6.106   3.451   1.413
10200SOL    HW231500   6.135   3.541   1.281
10201SOL     OW31501   1.261   3.313   0.808
10201SOL    HW131502   1.211   3.229   0.832
10201SOL    HW231503   1.355   3.307   0.842
10202SOL     OW31504   3.717   0.562   5.555
10202SOL    HW131505   3.769   0.544   5.638
10202SOL    HW231506   3.635   0.505   5.554
10203SOL     OW31507   6.479   2.720   4.749
10203SOL    HW131508   6.523   2.650   4.806
10203SOL    HW231509   6.544   2.793   4.731
10204SOL     OW31510   5.166   6.560   6.692
10204SOL    HW131511   5.171   6.508   6.777
10204SOL    HW231512   5.202   6.505   6.617
10205SOL     OW31513   1.233   0.552   6.119
10205SOL    HW131514   1.272   0.639   6.087
10205SOL    HW231515   1.246   0.482   6.049
10206SOL     OW31516   1.130   0.814   5.299
10206SOL    HW131517   1.225   0.843   5.286
10206SOL    HW231518   1.128   0.730   5.353
10207SOL     OW31519   1.301   1.668   5.511
10207SOL    HW131520   1.257   1.687   5.599
10207SOL    HW231521   1.248   1.708   5.437
10208SOL     OW31522   6.685   5.096   5.615
10208SOL    HW131523   6.758   5.036   5.649
10208SOL    HW231524   6.634   5.133   5.693
10209SOL     OW31525   6.710   6.905   6.474
10209SOL    HW131526   6.790   6.886   6.417
10209SOL    HW231527   6.627   6.887   6.422
10210SOL     OW31528   3.863   6.228   2.053
10210SOL    HW131529   3.816   6.237   2.141
10210SOL    HW231530   3.886   6.132   2.036
10211SOL     OW31531   4.225   5.947   5.227
10211SOL    HW131532   4.317   5.953   5.187
10211SOL    HW231533   4.231   5.960   5.326
10212SOL     OW31534   0.713   0.498   6.027
10212SOL    HW131535   0.708   0.516   6.125
10212SOL    HW231536   0.696   0.582   5.976
10213SOL     OW31537   5.578   1.463   1.141
10213SOL    HW131538   5.546   1.430   1.052
10213SOL    HW231539   5.656   1.409   1.170
10214SOL     OW31540   0.959   2.379   0.747
10214SOL    HW131541   1.051   2.412   0.722
10214SOL    HW231542   0.896   2.396   0.671
10215SOL     OW31543   3.206   3.371   2.100
10215SOL    HW131544   3.279   3.438   2.109
10215SOL    HW231545   3.120   3.418   2.078
10216SOL     OW31546   6.424   6.657   2.781
10216SOL    HW131547   6.478   6.593   2.837
10216SOL    HW231548   6.361   6.708   2.840
10217SOL     OW31549   3.406   0.700   3.741
10217SOL    HW131550   3.348   0.683   3.662
10217SOL    HW231551   3.420   0.799   3.751
10218SOL     OW31552   1.458   2.482   2.340
10218SOL    HW131553   1.378   2.519   2.292
10218SOL    HW231554   1.504   2.555   2.389
10219SOL     OW31555   0.314   0.012   2.612
10219SOL    HW131556   0.219   0.042   2.616
10219SOL    HW231557   0.364   0.049   2.690
10220SOL     OW31558   3.329   2.761   1.661
10220SOL    HW131559   3.238   2.759   1.702
10220SOL    HW231560   3.330   2.703   1.580
10221SOL     OW31561   0.760   6.113   3.582
10221SOL    HW131562   0.812   6.042   3.629
10221SOL    HW231563   0.818   6.194   3.571
10222SOL     OW31564   3.042   3.819   4.493
10222SOL    HW131565   2.992   3.815   4.579
10222SOL    HW231566   3.078   3.911   4.479
10223SOL     OW31567   0.404   5.696   1.589
10223SOL    HW131568   0.425   5.600   1.608
10223SOL    HW231569   0.369   5.740   1.671
10224SOL     OW31570   5.773   3.954   3.254
10224SOL    HW131571   5.790   3.856   3.260
10224SOL    HW231572   5.674   3.970   3.249
10225SOL     OW31573   2.354   3.814   6.033
10225SOL    HW131574   2.336   3.903   5.991
10225SOL    HW231575   2.285   3.796   6.103
10226SOL     OW31576   4.930   2.297   0.008
10226SOL    HW131577   4.855   2.337   0.062
10226SOL    HW231578   4.972   2.369   6.969
10227SOL     OW31579   5.635   3.915   1.146
10227SOL    HW131580   5.547   3.872   1.169
10227SOL    HW231581   5.632   3.946   1.051
10228SOL     OW31582   5.354   0.553   1.201
10228SOL    HW131583   5.286   0.527   1.134
10228SOL    HW231584   5.377   0.650   1.190
10229SOL     OW31585   6.735   3.438   4.341
10229SOL    HW131586   6.830   3.467   4.326
10229SOL    HW231587   6.694   3.497   4.411
10230SOL     OW31588   0.000   6.232   2.400
10230SOL    HW131589   0.055   6.154   2.430
10230SOL    HW231590   6.958   6.205   2.325
10231SOL     OW31591   1.343   5.229   2.749
10231SOL    HW131592   1.268   5.230   2.683
10231SOL    HW231593   1.325   5.295   2.822
10232SOL     OW31594   5.025   5.169   3.980
10232SOL    HW131595   5.124   5.182   3.970
10232SOL    HW231596   5.006   5.118   4.064
10233SOL     OW31597   3.660   4.216   6.017
10233SOL    HW131598   3.562   4.227   6.025
10233SOL    HW231599   3.680   4.154   5.940
10234SOL     OW31600   0.184   1.363   1.667
10234SOL    HW131601   0.264   1.351   1.725
10234SOL    HW231602   0.155   1.275   1.631
10235SOL     OW31603   1.645   1.054   2.400
10235SOL    HW131604   1.654   1.049   2.499
10235SOL    HW231605   1.705   1.126   2.364
10236SOL     OW31606   2.563   6.879   1.577
10236SOL    HW131607   2.548   6.881   1.478
10236SOL    HW231608   2.583   6.972   1.610
10237SOL     OW31609   0.511   3.434   5.845
10237SOL    HW131610   0.594   3.377   5.841
10237SOL    HW231611   0.436   3.380   5.884
10238SOL     OW31612   3.230   6.575   1.399
10238SOL    HW131613   3.141   6.606   1.433
10238SOL    HW231614   3.291   6.559   1.477
10239SOL     OW31615   1.247   2.807   4.676
10239SOL    HW131616   1.227   2.879   4.610
10239SOL    HW231617   1.182   2.732   4.665
10240SOL     OW31618   2.713   6.817   1.015
10240SOL    HW131619   2.660   6.738   1.043
10240SOL    HW231620   2.810   6.802   1.037
10241SOL     OW31621   3.833   2.604   1.612
10241SOL    HW131622   3.741   2.626   1.646
10241SOL    HW231623   3.851   2.507   1.625
10242SOL     OW31624   0.001   2.612   6.847
10242SOL    HW131625   0.019   2.710   6.835
10242SOL    HW231626   6.923   2.599   6.875
10243SOL     OW31627   2.702   5.051   1.089
10243SOL    HW131628   2.773   5.110   1.128
10243SOL    HW231629   2.673   5.087   1.000
10244SOL     OW31630   2.931   4.725   1.310
10244SOL    HW131631   2.945   4.626   1.315
10244SOL    HW231632   2.893   4.750   1.221
10245SOL     OW31633   4.505   4.027   0.693
10245SOL    HW131634   4.456   4.001   0.776
10245SOL    HW231635   4.534   4.122   0.700
10246SOL     OW31636   2.953   3.704   4.153
10246SOL    HW131637   2.962   3.655   4.239
10246SOL    HW231638   3.036   3.757   4.135
10247SOL     OW31639   0.654   2.575   4.662
10247SOL    HW131640   0.619   2.660   4.700
10247SOL    HW231641   0.579   2.520   4.627
10248SOL     OW31642   1.333   0.449   3.655
10248SOL    HW131643   1.401   0.507   3.611
10248SOL    HW231644   1.326   0.363   3.605
10249SOL     OW31645   2.708   5.452   6.520
10249SOL    HW131646   2.703   5.464   6.421
10249SOL    HW231647   2.789   5.500   6.556
10250SOL     OW31648   4.277   2.290   0.902
10250SOL    HW131649   4.214   2.338   0.962
10250SOL    HW231650   4.365   2.280   0.947
10251SOL     OW31651   1.928   0.428   4.253
10251SOL    HW131652   1.997   0.416   4.325
10251SOL    HW231653   1.883   0.340   4.237
10252SOL     OW31654   6.006   4.301   6.043
10252SOL    HW131655   6.099   4.328   6.069
10252SOL    HW231656   6.008   4.209   6.004
10253SOL     OW31657   3.510   6.145   6.072
10253SOL    HW131658   3.444   6.168   6.001
10253SOL    HW231659   3.468   6.155   6.162
10254SOL     OW31660   5.891   1.213   5.306
10254SOL    HW131661   5.987   1.239   5.310
10254SOL    HW231662   5.882   1.114   5.311
10255SOL     OW31663   4.065   5.016   1.914
10255SOL    HW131664   4.140   4.951   1.921
10255SOL    HW231665   4.046   5.055   2.004
10256SOL     OW31666   4.147   1.198   3.084
10256SOL    HW131667   4.151   1.101   3.107
10256SOL    HW231668   4.065   1.216   3.029
10257SOL     OW31669   3.417   5.187   2.742
10257SOL    HW131670   3.368   5.243   2.675
10257SOL    HW231671   3.504   5.231   2.765
10258SOL     OW31672   1.306   1.150   1.796
10258SOL    HW131673   1.401   1.151   1.764
10258SOL    HW231674   1.305   1.140   1.896
10259SOL     OW31675   1.708   3.952   3.637
10259SOL    HW131676   1.768   4.010   3.581
10259SOL    HW231677   1.728   3.967   3.734
10260SOL     OW31678   1.218   0.629   3.831
10260SOL    HW131679   1.255   0.549   3.784
10260SOL    HW231680   1.242   0.711   3.781
10261SOL     OW31681   6.736   3.675   0.951
10261SOL    HW131682   6.703   3.680   1.045
10261SOL    HW231683   6.784   3.759   0.927
10262SOL     OW31684   4.389   1.227   0.593
10262SOL    HW131685   4.382   1.215   0.494
10262SOL    HW231686   4.456   1.299   0.613
10263SOL     OW31687   6.010   0.793   1.792
10263SOL    HW131688   5.982   0.699   1.775
10263SOL    HW231689   5.950   0.855   1.741
10264SOL     OW31690   0.094   6.197   6.387
10264SOL    HW131691   0.019   6.224   6.328
10264SOL    HW231692   0.116   6.101   6.372
10265SOL     OW31693   2.125   1.801   0.607
10265SOL    HW131694   2.065   1.757   0.674
10265SOL    HW231695   2.071   1.833   0.529
10266SOL     OW31696   3.008   3.677   1.910
10266SOL    HW131697   3.056   3.685   1.823
10266SOL    HW231698   3.040   3.748   1.973
10267SOL     OW31699   5.778   1.065   1.330
10267SOL    HW131700   5.859   1.023   1.289
10267SOL    HW231701   5.760   1.021   1.418
10268SOL     OW31702   4.195   0.096   1.064
10268SOL    HW131703   4.205   0.182   1.013
10268SOL    HW231704   4.149   0.029   1.006
10269SOL     OW31705   2.810   2.649   0.362
10269SOL    HW131706   2.747   2.575   0.337
10269SOL    HW231707   2.761   2.736   0.364
10270SOL     OW31708   2.661   6.929   2.170
10270SOL    HW131709   2.700   6.977   2.091
10270SOL    HW231710   2.601   6.856   2.138
10271SOL     OW31711   1.456   1.854   6.673
10271SOL    HW131712   1.494   1.901   6.594
10271SOL    HW231713   1.403   1.919   6.728
10272SOL     OW31714   6.479   0.356   5.098
10272SOL    HW131715   6.429   0.291   5.041
10272SOL    HW231716   6.561   0.386   5.050
10273SOL     OW31717   2.523   5.146   3.142
10273SOL    HW131718   2.600   5.206   3.163
10273SOL    HW231719   2.473   5.183   3.063
10274SOL     OW31720   0.646   5.103   5.411
10274SOL    HW131721   0.692   5.103   5.499
10274SOL    HW231722   0.704   5.059   5.342
10275SOL     OW31723   6.961   0.271   2.554
10275SOL    HW131724   6.882   0.232   2.507
10275SOL    HW231725   6.994   0.350   2.503
10276SOL     OW31726   3.438   5.722   5.796
10276SOL    HW131727   3.509   5.651   5.798
10276SOL    HW231728   3.466   5.799   5.853
10277SOL     OW31729   0.383   6.364   4.117
10277SOL    HW131730   0.467   6.409   4.086
10277SOL    HW231731   0.318   6.434   4.147
10278SOL     OW31732   6.846   0.689   5.173
10278SOL    HW131733   6.764   0.703   5.117
10278SOL    HW231734   6.819   0.674   5.268
10279SOL     OW31735   2.281   5.712   4.117
10279SOL    HW131736   2.295   5.620   4.154
10279SOL    HW231737   2.369   5.749   4.087
10280SOL     OW31738   5.889   4.210   0.713
10280SOL    HW131739   5.900   4.206   0.813
10280SOL    HW231740   5.970   4.170   0.670
10281SOL     OW31741   6.953   1.657   3.736
10281SOL    HW131742   6.921   1.567   3.766
10281SOL    HW231743   6.895   1.728   3.777
10282SOL     OW31744   5.237   3.537   3.575
10282SOL    HW131745   5.167   3.506   3.639
10282SOL    HW231746   5.327   3.513   3.610
10283SOL     OW31747   0.696   3.203   1.174
10283SOL    HW131748   0.625   3.201   1.244
10283SOL    HW231749   0.738   3.113   1.166
10284SOL     OW31750   0.070   3.198   3.902
10284SOL    HW131751   0.051   3.107   3.937
10284SOL    HW231752   0.165   3.204   3.872
10285SOL     OW31753   5.341   5.771   4.895
10285SOL    HW131754   5.336   5.791   4.993
10285SOL    HW231755   5.262   5.813   4.849
10286SOL     OW31756   2.794   1.238   3.974
10286SOL    HW131757   2.708   1.197   4.005
10286SOL    HW231758   2.791   1.337   3.987
10287SOL     OW31759   2.758   5.579   2.604
10287SOL    HW131760   2.720   5.546   2.690
10287SOL    HW231761   2.686   5.622   2.550
10288SOL     OW31762   3.469   6.913   5.631
10288SOL    HW131763   3.413   6.898   5.549
10288SOL    HW231764   3.562   6.937   5.604
10289SOL     OW31765   2.916   5.656   6.549
10289SOL    HW131766   2.936   5.618   6.458
10289SOL    HW231767   3.001   5.690   6.589
10290SOL     OW31768   3.238   3.123   2.173
10290SOL    HW131769   3.223   3.215   2.137
10290SOL    HW231770   3.333   3.096   2.158
10291SOL     OW31771   1.927   1.657   2.639
10291SOL    HW131772   2.002   1.595   2.616
10291SOL    HW231773   1.941   1.693   2.731
10292SOL     OW31774   6.202   6.514   6.593
10292SOL    HW131775   6.291   6.558   6.587
10292SOL    HW231776   6.214   6.415   6.603
10293SOL     OW31777   1.376   3.810   3.867
10293SOL    HW131778   1.462   3.759   3.872
10293SOL    HW231779   1.303   3.749   3.837
10294SOL     OW31780   4.068   1.450   2.283
10294SOL    HW131781   3.981   1.404   2.268
10294SOL    HW231782   4.099   1.491   2.197
10295SOL     OW31783   0.980   2.121   6.873
10295SOL    HW131784   0.936   2.198   6.828
10295SOL    HW231785   0.916   2.043   6.876
10296SOL     OW31786   5.757   1.444   5.342
10296SOL    HW131787   5.823   1.370   5.329
10296SOL    HW231788   5.676   1.410   5.390
10297SOL     OW31789   3.323   1.404   7.006
10297SOL    HW131790   3.391   1.416   6.934
10297SOL    HW231791   3.278   1.492   0.006
10298SOL     OW31792   0.830   2.436   2.783
10298SOL    HW131793   0.765   2.364   2.807
10298SOL    HW231794   0.881   2.408   2.701
10299SOL     OW31795   4.040   6.271   3.158
10299SOL    HW131796   4.125   6.289   3.110
10299SOL    HW231797   4.053   6.286   3.256
10300SOL     OW31798   0.726   3.731   1.879
10300SOL    HW131799   0.788   3.761   1.807
10300SOL    HW231800   0.703   3.635   1.865
10301SOL     OW31801   4.326   0.334   6.458
10301SOL    HW131802   4.351   0.391   6.536
10301SOL    HW231803   4.409   0.300   6.414
10302SOL     OW31804   2.758   5.975   4.670
10302SOL    HW131805   2.698   5.896   4.658
10302SOL    HW231806   2.778   6.015   4.580
10303SOL     OW31807   0.811   6.087   4.949
10303SOL    HW131808   0.759   6.004   4.930
10303SOL    HW231809   0.809   6.146   4.868
10304SOL     OW31810   6.170   6.451   0.286
10304SOL    HW131811   6.247   6.399   0.323
10304SOL    HW231812   6.114   6.486   0.362
10305SOL     OW31813   2.236   4.534   5.840
10305SOL    HW131814   2.268   4.439   5.845
10305SOL    HW231815   2.301   4.588   5.787
10306SOL     OW31816   4.764   0.543   1.263
10306SOL    HW131817   4.699   0.574   1.192
10306SOL    HW231818   4.782   0.618   1.326
10307SOL     OW31819   2.379   6.996   4.500
10307SOL    HW131820   2.320   6.918   4.523
10307SOL    HW231821   2.393   6.999   4.401
10308SOL     OW31822   2.819   5.051   2.383
10308SOL    HW131823   2.806   5.143   2.421
10308SOL    HW231824   2.904   5.012   2.417
10309SOL     OW31825   6.626   1.485   4.651
10309SOL    HW131826   6.586   1.487   4.560
10309SOL    HW231827   6.587   1.409   4.703
10310SOL     OW31828   2.511   3.996   5.734
10310SOL    HW131829   2.475   4.060   5.666
10310SOL    HW231830   2.546   4.047   5.812
10311SOL     OW31831   5.156   5.867   0.725
10311SOL    HW131832   5.092   5.942   0.741
10311SOL    HW231833   5.107   5.792   0.679
10312SOL     OW31834   4.151   0.472   1.934
10312SOL    HW131835   4.128   0.375   1.941
10312SOL    HW231836   4.143   0.501   1.838
10313SOL     OW31837   4.827   6.306   3.294
10313SOL    HW131838   4.859   6.358   3.373
10313SOL    HW231839   4.881   6.223   3.285
10314SOL     OW31840   0.459   0.599   1.308
10314SOL    HW131841   0.494   0.619   1.399
10314SOL    HW231842   0.424   0.682   1.266
10315SOL     OW31843   5.840   5.813   3.819
10315SOL    HW131844   5.859   5.800   3.916
10315SOL    HW231845   5.774   5.887   3.807
10316SOL     OW31846   0.480   1.699   6.576
10316SOL    HW131847   0.463   1.615   6.525
10316SOL    HW231848   0.395   1.732   6.616
10317SOL     OW31849   3.872   5.536   6.007
10317SOL    HW131850   3.801   5.471   6.032
10317SOL    HW231851   3.923   5.563   6.089
10318SOL     OW31852   6.072   6.851   0.246
10318SOL    HW131853   6.116   6.931   0.206
10318SOL    HW231854   6.061   6.864   0.345
10319SOL     OW31855   0.383   4.882   4.284
10319SOL    HW131856   0.449   4.940   4.235
10319SOL    HW231857   0.309   4.857   4.222
10320SOL     OW31858   0.765   6.880   4.130
10320SOL    HW131859   0.823   6.814   4.178
10320SOL    HW231860   0.707   6.832   4.064
10321SOL     OW31861   5.535   2.321   1.818
10321SOL    HW131862   5.559   2.296   1.912
10321SOL    HW231863   5.462   2.260   1.785
10322SOL     OW31864   4.560   4.503   4.831
10322SOL    HW131865   4.489   4.520   4.900
10322SOL    HW231866   4.529   4.536   4.742
10323SOL     OW31867   0.648   4.305   5.270
10323SOL    HW131868   0.706   4.234   5.311
10323SOL    HW231869   0.623   4.278   5.177
10324SOL     OW31870   3.490   3.070   2.134
10324SOL    HW131871   3.549   3.148   2.112
10324SOL    HW231872   3.505   3.045   2.230
10325SOL     OW31873   0.039   5.911   3.204
10325SOL    HW131874   6.994   5.875   3.274
10325SOL    HW231875   0.111   5.965   3.247
10326SOL     OW31876   5.616   3.338   6.892
10326SOL    HW131877   5.662   3.413   6.845
10326SOL    HW231878   5.518   3.340   6.871
10327SOL     OW31879   2.434   4.258   0.990
10327SOL    HW131880   2.419   4.162   0.965
10327SOL    HW231881   2.389   4.277   1.078
10328SOL     OW31882   6.425   2.560   1.800
10328SOL    HW131883   6.477   2.514   1.873
10328SOL    HW231884   6.448   2.519   1.712
10329SOL     OW31885   4.137   1.237   2.724
10329SOL    HW131886   4.049   1.268   2.761
10329SOL    HW231887   4.174   1.164   2.781
10330SOL     OW31888   4.207   1.036   1.411
10330SOL    HW131889   4.299   1.015   1.443
10330SOL    HW231890   4.145   0.961   1.434
10331SOL     OW31891   6.394   5.847   6.867
10331SOL    HW131892   6.469   5.894   6.914
10331SOL    HW231893   6.373   5.761   6.915
10332SOL     OW31894   1.187   1.006   6.716
10332SOL    HW131895   1.246   1.086   6.716
10332SOL    HW231896   1.134   1.004   6.632
10333SOL     OW31897   0.987   5.441   5.060
10333SOL    HW131898   1.020   5.494   4.982
10333SOL    HW231899   0.972   5.346   5.032
10334SOL     OW31900   3.071   0.190   3.968
10334SOL    HW131901   3.169   0.205   3.952
10334SOL    HW231902   3.037   0.259   4.031
10335SOL     OW31903   0.624   2.573   5.747
10335SOL    HW131904   0.647   2.662   5.786
10335SOL    HW231905   0.704   2.513   5.753
10336SOL     OW31906   5.228   0.069   3.571
10336SOL    HW131907   5.316   0.078   3.524
10336SOL    HW231908   5.154   0.087   3.507
10337SOL     OW31909   6.288   5.582   6.716
10337SOL    HW131910   6.385   5.559   6.716
10337SOL    HW231911   6.244   5.540   6.796
10338SOL     OW31912   1.900   6.229   1.825
10338SOL    HW131913   1.850   6.146   1.802
10338SOL    HW231914   1.972   6.208   1.891
10339SOL     OW31915   6.457   2.279   5.708
10339SOL    HW131916   6.444   2.221   5.788
10339SOL    HW231917   6.527   2.239   5.649
10340SOL     OW31918   2.475   3.799   6.469
10340SOL    HW131919   2.525   3.827   6.386
10340SOL    HW231920   2.406   3.730   6.445
10341SOL     OW31921   2.355   2.760   2.709
10341SOL    HW131922   2.408   2.675   2.710
10341SOL    HW231923   2.369   2.808   2.796
10342SOL     OW31924   0.996   1.157   2.942
10342SOL    HW131925   0.956   1.088   2.882
10342SOL    HW231926   1.083   1.188   2.903
10343SOL     OW31927   2.475   5.161   1.233
10343SOL    HW131928   2.458   5.250   1.275
10343SOL    HW231929   2.566   5.159   1.193
10344SOL     OW31930   4.462   5.065   5.953
10344SOL    HW131931   4.415   5.096   6.036
10344SOL    HW231932   4.555   5.037   5.976
10345SOL     OW31933   1.708   3.538   4.445
10345SOL    HW131934   1.631   3.556   4.507
10345SOL    HW231935   1.790   3.582   4.480
10346SOL     OW31936   0.158   5.698   1.288
10346SOL    HW131937   0.115   5.757   1.220
10346SOL    HW231938   0.099   5.693   1.369
10347SOL     OW31939   4.797   1.562   3.635
10347SOL    HW131940   4.714   1.615   3.654
10347SOL    HW231941   4.788   1.516   3.547
10348SOL     OW31942   6.509   4.121   0.547
10348SOL    HW131943   6.462   4.198   0.503
10348SOL    HW231944   6.445   4.072   0.605
10349SOL     OW31945   0.756   6.922   6.447
10349SOL    HW131946   0.680   6.954   6.504
10349SOL    HW231947   0.737   6.943   6.351
10350SOL     OW31948   3.074   6.761   6.140
10350SOL    HW131949   2.999   6.816   6.103
10350SOL    HW231950   3.066   6.667   6.107
10351SOL     OW31951   4.994   5.291   5.646
10351SOL    HW131952   5.049   5.321   5.724
10351SOL    HW231953   5.050   5.234   5.586
10352SOL     OW31954   3.654   3.091   6.189
10352SOL    HW131955   3.715   3.023   6.230
10352SOL    HW231956   3.691   3.182   6.205
10353SOL     OW31957   0.082   2.388   4.729
10353SOL    HW131958   0.106   2.484   4.717
10353SOL    HW231959   0.103   2.360   4.823
10354SOL     OW31960   5.929   1.948   1.779
10354SOL    HW131961   5.936   2.017   1.852
10354SOL    HW231962   5.839   1.953   1.736
10355SOL     OW31963   2.157   5.658   2.006
10355SOL    HW131964   2.105   5.606   2.074
10355SOL    HW231965   2.102   5.670   1.923
10356SOL     OW31966   0.159   3.575   4.798
10356SOL    HW131967   0.085   3.603   4.736
10356SOL    HW231968   0.242   3.559   4.745
10357SOL     OW31969   2.208   1.593   0.336
10357SOL    HW131970   2.115   1.593   0.374
10357SOL    HW231971   2.208   1.638   0.247
10358SOL     OW31972   0.351   1.629   1.638
10358SOL    HW131973   0.303   1.569   1.574
10358SOL    HW231974   0.316   1.615   1.730
10359SOL     OW31975   0.197   1.235   1.332
10359SOL    HW131976   0.219   1.332   1.342
10359SOL    HW231977   0.118   1.226   1.272
10360SOL     OW31978   5.821   6.126   3.691
10360SOL    HW131979   5.823   6.092   3.597
10360SOL    HW231980   5.753   6.075   3.743
10361SOL     OW31981   2.012   4.832   1.107
10361SOL    HW131982   1.913   4.831   1.100
10361SOL    HW231983   2.041   4.904   1.171
10362SOL     OW31984   1.411   4.496   4.119
10362SOL    HW131985   1.491   4.541   4.159
10362SOL    HW231986   1.437   4.451   4.034
10363SOL     OW31987   5.269   1.087   4.118
10363SOL    HW131988   5.326   1.169   4.117
10363SOL    HW231989   5.280   1.040   4.206
10364SOL     OW31990   1.243   4.285   1.489
10364SOL    HW131991   1.202   4.197   1.465
10364SOL    HW231992   1.207   4.355   1.428
10365SOL     OW31993   4.319   5.710   0.047
10365SOL    HW131994   4.287   5.774   6.994
10365SOL    HW231995   4.378   5.641   0.006
10366SOL     OW31996   3.220   6.645   3.706
10366SOL    HW131997   3.242   6.726   3.653
10366SOL    HW231998   3.160   6.670   3.782
10367SOL     OW31999   6.934   1.952   3.798
10367SOL    HW132000   7.008   2.020   3.801
10367SOL    HW232001   6.857   1.989   3.746
10368SOL     OW32002   2.108   0.595   1.558
10368SOL    HW132003   2.036   0.655   1.523
10368SOL    HW232004   2.186   0.596   1.495
10369SOL     OW32005   3.983   2.803   0.298
10369SOL    HW132006   3.977   2.745   0.217
10369SOL    HW232007   4.075   2.843   0.304
10370SOL     OW32008   3.533   0.485   4.912
10370SOL    HW132009   3.509   0.555   4.979
10370SOL    HW232010   3.592   0.525   4.842
10371SOL     OW32011   5.034   6.515   6.261
10371SOL    HW132012   4.936   6.537   6.264
10371SOL    HW232013   5.064   6.507   6.166
10372SOL     OW32014   1.190   0.696   2.968
10372SOL    HW132015   1.243   0.624   3.011
10372SOL    HW232016   1.122   0.656   2.907
10373SOL     OW32017   1.221   5.984   4.851
10373SOL    HW132018   1.188   6.075   4.826
10373SOL    HW232019   1.285   5.992   4.927
10374SOL     OW32020   3.117   2.114   3.772
10374SOL    HW132021   3.063   2.101   3.689
10374SOL    HW232022   3.060   2.154   3.843
10375SOL     OW32023   6.348   2.174   0.221
10375SOL    HW132024   6.270   2.192   0.281
10375SOL    HW232025   6.392   2.260   0.196
10376SOL     OW32026   0.317   1.433   4.001
10376SOL    HW132027   0.403   1.473   3.970
10376SOL    HW232028   0.330   1.335   4.016
10377SOL     OW32029   1.146   6.797   4.440
10377SOL    HW132030   1.086   6.751   4.374
10377SOL    HW232031   1.241   6.783   4.414
10378SOL     OW32032   6.880   0.071   0.004
10378SOL    HW132033   6.924   7.013   6.971
10378SOL    HW232034   6.944   0.148   0.011
10379SOL     OW32035   5.419   1.697   4.286
10379SOL    HW132036   5.340   1.758   4.281
10379SOL    HW232037   5.446   1.670   4.193
10380SOL     OW32038   4.931   0.588   2.453
10380SOL    HW132039   4.939   0.507   2.511
10380SOL    HW232040   4.838   0.623   2.456
10381SOL     OW32041   4.430   4.975   5.031
10381SOL    HW132042   4.505   4.917   5.064
10381SOL    HW232043   4.343   4.942   5.068
10382SOL     OW32044   2.247   5.554   0.736
10382SOL    HW132045   2.173   5.543   0.669
10382SOL    HW232046   2.244   5.646   0.774
10383SOL     OW32047   6.907   2.678   6.570
10383SOL    HW132048   6.941   2.772   6.571
10383SOL    HW232049   6.811   2.678   6.600
10384SOL     OW32050   6.049   0.297   0.183
10384SOL    HW132051   5.963   0.247   0.175
10384SOL    HW232052   6.124   0.233   0.200
10385SOL     OW32053   5.720   2.262   6.951
10385SOL    HW132054   5.778   2.256   0.015
10385SOL    HW232055   5.654   2.187   6.952
10386SOL     OW32056   5.899   2.727   6.140
10386SOL    HW132057   5.854   2.692   6.222
10386SOL    HW232058   5.905   2.827   6.145
10387SOL     OW32059   2.225   2.624   3.385
10387SOL    HW132060   2.205   2.597   3.479
10387SOL    HW232061   2.201   2.550   3.323
10388SOL     OW32062   1.631   4.748   3.009
10388SOL    HW132063   1.705   4.736   2.943
10388SOL    HW232064   1.624   4.666   3.066
10389SOL     OW32065   0.415   5.629   3.290
10389SOL    HW132066   0.461   5.628   3.379
10389SOL    HW232067   0.416   5.537   3.251
10390SOL     OW32068   1.672   3.087   3.503
10390SOL    HW132069   1.633   3.002   3.468
10390SOL    HW232070   1.763   3.069   3.540
10391SOL     OW32071   3.069   6.606   5.481
10391SOL    HW132072   3.083   6.517   5.525
10391SOL    HW232073   3.039   6.672   5.550
10392SOL     OW32074   6.922   4.645   6.442
10392SOL    HW132075   6.922   4.628   6.540
10392SOL    HW232076   7.016   4.658   6.410
10393SOL     OW32077   1.601   1.055   3.990
10393SOL    HW132078   1.546   0.979   3.955
10393SOL    HW232079   1.561   1.142   3.960
10394SOL     OW32080   2.568   6.790   6.863
10394SOL    HW132081   2.665   6.772   6.850
10394SOL    HW232082   2.517   6.760   6.782
10395SOL     OW32083   1.208   1.455   4.784
10395SOL    HW132084   1.286   1.508   4.751
10395SOL    HW232085   1.241   1.381   4.844
10396SOL     OW32086   0.273   0.184   5.253
10396SOL    HW132087   0.370   0.205   5.262
10396SOL    HW232088   0.230   0.188   5.343
10397SOL     OW32089   4.175   1.636   2.621
10397SOL    HW132090   4.196   1.629   2.719
10397SOL    HW232091   4.167   1.732   2.596
10398SOL     OW32092   6.859   2.816   2.708
10398SOL    HW132093   6.903   2.737   2.751
10398SOL    HW232094   6.765   2.825   2.742
10399SOL     OW32095   6.235   1.988   5.349
10399SOL    HW132096   6.220   1.912   5.285
10399SOL    HW232097   6.208   1.960   5.441
10400SOL     OW32098   2.188   4.360   1.653
10400SOL    HW132099   2.116   4.306   1.695
10400SOL    HW232100   2.264   4.371   1.718
10401SOL     OW32101   0.918   6.178   1.196
10401SOL    HW132102   0.988   6.108   1.204
10401SOL    HW232103   0.937   6.252   1.260
10402SOL     OW32104   0.147   2.886   4.170
10402SOL    HW132105   0.204   2.965   4.148
10402SOL    HW232106   0.085   2.910   4.245
10403SOL     OW32107   5.211   1.712   1.943
10403SOL    HW132108   5.140   1.751   1.884
10403SOL    HW232109   5.197   1.613   1.950
10404SOL     OW32110   0.351   6.636   3.742
10404SOL    HW132111   0.277   6.577   3.710
10404SOL    HW232112   0.438   6.598   3.713
10405SOL     OW32113   1.564   6.993   6.798
10405SOL    HW132114   1.546   6.964   6.704
10405SOL    HW232115   1.485   6.972   6.855
10406SOL     OW32116   2.536   5.201   5.895
10406SOL    HW132117   2.570   5.174   5.805
10406SOL    HW232118   2.589   5.153   5.966
10407SOL     OW32119   1.370   1.170   6.248
10407SOL    HW132120   1.299   1.140   6.185
10407SOL    HW232121   1.455   1.122   6.228
10408SOL     OW32122   3.933   5.115   3.027
10408SOL    HW132123   3.895   5.193   3.077
10408SOL    HW232124   3.917   5.031   3.080
10409SOL     OW32125   6.037   4.873   2.310
10409SOL    HW132126   5.983   4.793   2.338
10409SOL    HW232127   6.066   4.861   2.215
10410SOL     OW32128   5.854   6.898   0.526
10410SOL    HW132129   5.808   6.981   0.494
10410SOL    HW232130   5.952   6.916   0.534
10411SOL     OW32131   1.576   4.479   2.551
10411SOL    HW132132   1.500   4.517   2.498
10411SOL    HW232133   1.660   4.527   2.527
10412SOL     OW32134   0.552   2.153   7.003
10412SOL    HW132135   0.569   2.149   6.904
10412SOL    HW232136   0.567   2.247   0.018
10413SOL     OW32137   6.963   1.929   6.090
10413SOL    HW132138   6.879   1.934   6.037
10413SOL    HW232139   7.012   1.844   6.067
10414SOL     OW32140   5.448   0.238   5.097
10414SOL    HW132141   5.375   0.296   5.062
10414SOL    HW232142   5.503   0.288   5.163
10415SOL     OW32143   0.572   5.639   3.516
10415SOL    HW132144   0.605   5.564   3.572
10415SOL    HW232145   0.521   5.703   3.572
10416SOL     OW32146   4.579   0.528   0.024
10416SOL    HW132147   4.674   0.497   0.033
10416SOL    HW232148   4.540   0.543   0.115
10417SOL     OW32149   4.259   4.692   4.480
10417SOL    HW132150   4.229   4.658   4.569
10417SOL    HW232151   4.251   4.791   4.477
10418SOL     OW32152   6.854   3.512   6.780
10418SOL    HW132153   6.891   3.424   6.809
10418SOL    HW232154   6.794   3.499   6.702
10419SOL     OW32155   2.184   1.758   4.110
10419SOL    HW132156   2.220   1.738   4.019
10419SOL    HW232157   2.260   1.773   4.173
10420SOL     OW32158   5.503   3.408   3.664
10420SOL    HW132159   5.600   3.393   3.684
10420SOL    HW232160   5.452   3.412   3.750
10421SOL     OW32161   1.074   4.823   3.329
10421SOL    HW132162   1.155   4.782   3.372
10421SOL    HW232163   1.044   4.902   3.383
10422SOL     OW32164   6.003   3.361   5.220
10422SOL    HW132165   6.031   3.438   5.162
10422SOL    HW232166   6.070   3.287   5.212
10423SOL     OW32167   2.469   4.964   3.831
10423SOL    HW132168   2.463   5.056   3.869
10423SOL    HW232169   2.540   4.962   3.760
10424SOL     OW32170   3.474   1.753   0.305
10424SOL    HW132171   3.519   1.801   0.230
10424SOL    HW232172   3.443   1.819   0.374
10425SOL     OW32173   2.100   3.387   0.542
10425SOL    HW132174   2.129   3.483   0.544
10425SOL    HW232175   2.181   3.328   0.533
10426SOL     OW32176   6.134   2.227   6.291
10426SOL    HW132177   6.155   2.160   6.363
10426SOL    HW232178   6.199   2.302   6.295
10427SOL     OW32179   5.488   1.200   4.320
10427SOL    HW132180   5.412   1.264   4.321
10427SOL    HW232181   5.569   1.244   4.359
10428SOL     OW32182   1.843   6.859   4.927
10428SOL    HW132183   1.747   6.836   4.938
10428SOL    HW232184   1.865   6.939   4.983
10429SOL     OW32185   1.301   2.657   1.083
10429SOL    HW132186   1.253   2.679   1.168
10429SOL    HW232187   1.323   2.559   1.083
10430SOL     OW32188   3.393   0.934   4.243
10430SOL    HW132189   3.424   0.871   4.314
10430SOL    HW232190   3.337   0.885   4.177
10431SOL     OW32191   3.906   0.802   3.192
10431SOL    HW132192   3.996   0.834   3.163
10431SOL    HW232193   3.905   0.702   3.192
10432SOL     OW32194   0.821   5.130   6.617
10432SOL    HW132195   0.740   5.179   6.649
10432SOL    HW232196   0.900   5.193   6.618
10433SOL     OW32197   3.757   6.398   3.873
10433SOL    HW132198   3.770   6.360   3.781
10433SOL    HW232199   3.826   6.469   3.890
10434SOL     OW32200   4.905   0.882   6.394
10434SOL    HW132201   4.822   0.886   6.339
10434SOL    HW232202   4.882   0.894   6.491
10435SOL     OW32203   2.601   1.570   0.664
10435SOL    HW132204   2.515   1.523   0.645
10435SOL    HW232205   2.587   1.637   0.737
10436SOL     OW32206   0.187   3.774   4.979
10436SOL    HW132207   0.285   3.773   5.000
10436SOL    HW232208   0.166   3.699   4.917
10437SOL     OW32209   6.278   6.412   4.813
10437SOL    HW132210   6.239   6.325   4.843
10437SOL    HW232211   6.230   6.487   4.858
10438SOL     OW32212   6.774   6.108   6.850
10438SOL    HW132213   6.757   6.054   6.768
10438SOL    HW232214   6.813   6.048   6.921
10439SOL     OW32215   6.528   5.114   5.233
10439SOL    HW132216   6.467   5.123   5.312
10439SOL    HW232217   6.621   5.099   5.264
10440SOL     OW32218   5.845   2.733   0.784
10440SOL    HW132219   5.933   2.688   0.799
10440SOL    HW232220   5.852   2.829   0.807
10441SOL     OW32221   4.790   1.982   6.786
10441SOL    HW132222   4.762   1.898   6.739
10441SOL    HW232223   4.714   2.018   6.840
10442SOL     OW32224   1.870   1.518   4.757
10442SOL    HW132225   1.871   1.479   4.665
10442SOL    HW232226   1.926   1.601   4.759
10443SOL     OW32227   1.190   1.018   0.981
10443SOL    HW132228   1.182   1.092   0.914
10443SOL    HW232229   1.227   1.054   1.067
10444SOL     OW32230   4.105   4.917   4.415
10444SOL    HW132231   4.178   4.985   4.428
10444SOL    HW232232   4.036   4.928   4.487
10445SOL     OW32233   0.917   3.255   3.823
10445SOL    HW132234   0.914   3.254   3.723
10445SOL    HW232235   0.904   3.348   3.856
10446SOL     OW32236   2.379   5.049   5.619
10446SOL    HW132237   2.331   5.137   5.615
10446SOL    HW232238   2.476   5.065   5.638
10447SOL     OW32239   0.526   1.743   2.610
10447SOL    HW132240   0.594   1.692   2.663
10447SOL    HW232241   0.452   1.771   2.670
10448SOL     OW32242   2.682   6.525   1.970
10448SOL    HW132243   2.584   6.537   1.984
10448SOL    HW232244   2.718   6.463   2.039
10449SOL     OW32245   4.167   5.096   4.627
10449SOL    HW132246   4.128   5.047   4.705
10449SOL    HW232247   4.246   5.047   4.592
10450SOL     OW32248   6.976   0.798   4.592
10450SOL    HW132249   6.879   0.797   4.566
10450SOL    HW232250   6.999   0.886   4.633
10451SOL     OW32251   3.234   1.651   3.686
10451SOL    HW132252   3.148   1.695   3.714
10451SOL    HW232253   3.292   1.719   3.641
10452SOL     OW32254   6.279   2.913   4.374
10452SOL    HW132255   6.318   2.821   4.382
10452SOL    HW232256   6.199   2.920   4.434
10453SOL     OW32257   4.225   5.976   3.947
10453SOL    HW132258   4.177   5.947   3.864
10453SOL    HW232259   4.163   5.966   4.025
10454SOL     OW32260   6.611   1.328   6.757
10454SOL    HW132261   6.662   1.271   6.693
10454SOL    HW232262   6.596   1.277   6.842
10455SOL     OW32263   0.505   6.043   3.560
10455SOL    HW132264   0.599   6.077   3.565
10455SOL    HW232265   0.497   5.959   3.615
10456SOL     OW32266   1.169   5.527   6.417
10456SOL    HW132267   1.202   5.489   6.331
10456SOL    HW232268   1.188   5.625   6.420
10457SOL     OW32269   4.051   2.153   6.400
10457SOL    HW132270   3.985   2.219   6.436
10457SOL    HW232271   4.017   2.118   6.312
10458SOL     OW32272   0.946   6.041   6.781
10458SOL    HW132273   0.978   6.091   6.701
10458SOL    HW232274   0.913   5.951   6.754
10459SOL     OW32275   5.716   5.567   1.703
10459SOL    HW132276   5.762   5.478   1.703
10459SOL    HW232277   5.762   5.628   1.638
10460SOL     OW32278   6.572   0.705   0.587
10460SOL    HW132279   6.509   0.732   0.660
10460SOL    HW232280   6.565   0.607   0.572
10461SOL     OW32281   0.213   4.414   6.607
10461SOL    HW132282   0.193   4.331   6.659
10461SOL    HW232283   0.202   4.494   6.666
10462SOL     OW32284   3.727   3.362   6.252
10462SOL    HW132285   3.773   3.422   6.186
10462SOL    HW232286   3.737   3.401   6.343
10463SOL     OW32287   5.142   2.521   6.616
10463SOL    HW132288   5.219   2.584   6.623
10463SOL    HW232289   5.129   2.497   6.520
10464SOL     OW32290   6.318   4.583   2.721
10464SOL    HW132291   6.302   4.609   2.626
10464SOL    HW232292   6.327   4.665   2.777
10465SOL     OW32293   5.484   5.043   1.256
10465SOL    HW132294   5.492   4.944   1.252
10465SOL    HW232295   5.401   5.067   1.307
10466SOL     OW32296   6.543   3.979   6.151
10466SOL    HW132297   6.622   4.002   6.208
10466SOL    HW232298   6.538   4.043   6.074
10467SOL     OW32299   0.650   2.734   0.096
10467SOL    HW132300   0.554   2.715   0.080
10467SOL    HW232301   0.699   2.736   0.008
10468SOL     OW32302   1.289   4.584   3.715
10468SOL    HW132303   1.334   4.495   3.720
10468SOL    HW232304   1.249   4.596   3.624
10469SOL     OW32305   1.164   1.489   4.374
10469SOL    HW132306   1.129   1.538   4.294
10469SOL    HW232307   1.254   1.451   4.353
10470SOL     OW32308   2.059   3.669   2.912
10470SOL    HW132309   2.077   3.656   3.009
10470SOL    HW232310   1.964   3.694   2.898
10471SOL     OW32311   2.757   6.059   6.620
10471SOL    HW132312   2.733   6.043   6.716
10471SOL    HW232313   2.750   6.156   6.599
10472SOL     OW32314   3.274   4.695   6.746
10472SOL    HW132315   3.242   4.600   6.744
10472SOL    HW232316   3.196   4.756   6.732
10473SOL     OW32317   5.721   4.728   1.021
10473SOL    HW132318   5.806   4.781   1.024
10473SOL    HW232319   5.743   4.631   1.007
10474SOL     OW32320   6.107   0.249   5.183
10474SOL    HW132321   6.024   0.194   5.168
10474SOL    HW232322   6.175   0.225   5.115
10475SOL     OW32323   1.031   4.996   0.846
10475SOL    HW132324   1.073   5.086   0.835
10475SOL    HW232325   1.002   4.962   0.757
10476SOL     OW32326   4.868   6.746   1.401
10476SOL    HW132327   4.899   6.821   1.342
10476SOL    HW232328   4.784   6.708   1.364
10477SOL     OW32329   6.951   5.883   3.640
10477SOL    HW132330   6.924   5.811   3.704
10477SOL    HW232331   0.021   5.860   3.597
10478SOL     OW32332   6.368   0.962   6.376
10478SOL    HW132333   6.319   0.898   6.436
10478SOL    HW232334   6.384   1.048   6.425
10479SOL     OW32335   1.091   2.730   1.835
10479SOL    HW132336   1.002   2.727   1.789
10479SOL    HW232337   1.106   2.646   1.886
10480SOL     OW32338   2.536   0.589   3.514
10480SOL    HW132339   2.465   0.521   3.535
10480SOL    HW232340   2.550   0.593   3.415
10481SOL     OW32341   6.955   1.314   1.201
10481SOL    HW132342   6.903   1.244   1.152
10481SOL    HW232343   6.926   1.316   1.296
10482SOL     OW32344   5.212   2.870   3.921
10482SOL    HW132345   5.285   2.831   3.978
10482SOL    HW232346   5.135   2.806   3.918
10483SOL     OW32347   6.771   6.281   0.238
10483SOL    HW132348   6.831   6.302   0.315
10483SOL    HW232349   6.731   6.365   0.203
10484SOL     OW32350   6.256   1.008   2.511
10484SOL    HW132351   6.253   1.074   2.586
10484SOL    HW232352   6.165   0.969   2.497
10485SOL     OW32353   5.040   3.475   5.602
10485SOL    HW132354   4.954   3.465   5.554
10485SOL    HW232355   5.037   3.423   5.688
10486SOL     OW32356   5.497   3.109   2.201
10486SOL    HW132357   5.402   3.140   2.212
10486SOL    HW232358   5.517   3.039   2.270
10487SOL     OW32359   5.937   6.869   1.605
10487SOL    HW132360   5.973   6.915   1.686
10487SOL    HW232361   5.871   6.928   1.560
10488SOL     OW32362   2.801   3.190   0.112
10488SOL    HW132363   2.735   3.118   0.132
10488SOL    HW232364   2.754   3.273   0.084
10489SOL     OW32365   1.675   5.587   4.853
10489SOL    HW132366   1.613   5.512   4.876
10489SOL    HW232367   1.713   5.572   4.762
10490SOL     OW32368   7.001   0.285   4.007
10490SOL    HW132369   6.985   0.195   3.967
10490SOL    HW232370   6.920   0.342   3.997
10491SOL     OW32371   0.462   4.536   5.572
10491SOL    HW132372   0.443   4.593   5.652
10491SOL    HW232373   0.425   4.581   5.490
10492SOL     OW32374   3.764   4.046   5.821
10492SOL    HW132375   3.738   4.053   5.724
10492SOL    HW232376   3.804   3.955   5.838
10493SOL     OW32377   3.296   0.979   0.821
10493SOL    HW132378   3.224   0.970   0.753
10493SOL    HW232379   3.354   0.897   0.820
10494SOL     OW32380   5.788   2.516   4.363
10494SOL    HW132381   5.862   2.518   4.296
10494SOL    HW232382   5.785   2.425   4.406
10495SOL     OW32383   1.408   6.719   0.349
10495SOL    HW132384   1.327   6.689   0.298
10495SOL    HW232385   1.453   6.793   0.300
10496SOL     OW32386   6.377   0.665   5.583
10496SOL    HW132387   6.345   0.574   5.559
10496SOL    HW232388   6.417   0.663   5.675
10497SOL     OW32389   0.953   1.412   0.319
10497SOL    HW132390   1.011   1.487   0.285
10497SOL    HW232391   0.988   1.325   0.285
10498SOL     OW32392   2.864   5.276   5.804
10498SOL    HW132393   2.854   5.276   5.705
10498SOL    HW232394   2.800   5.342   5.844
10499SOL     OW32395   3.203   5.091   3.162
10499SOL    HW132396   3.213   5.084   3.063
10499SOL    HW232397   3.140   5.020   3.195
10500SOL     OW32398   1.275   2.321   6.949
10500SOL    HW132399   1.226   2.339   6.863
10500SOL    HW232400   1.333   2.399   6.971
10501SOL     OW32401   1.149   2.382   2.803
10501SOL    HW132402   1.129   2.442   2.880
10501SOL    HW232403   1.083   2.401   2.729
10502SOL     OW32404   3.074   6.378   5.622
10502SOL    HW132405   3.023   6.376   5.708
10502SOL    HW232406   3.121   6.290   5.610
10503SOL     OW32407   2.594   3.529   5.822
10503SOL    HW132408   2.678   3.482   5.793
10503SOL    HW232409   2.615   3.590   5.899
10504SOL     OW32410   3.155   2.952   1.117
10504SOL    HW132411   3.061   2.986   1.124
10504SOL    HW232412   3.155   2.864   1.069
10505SOL     OW32413   0.107   6.845   1.248
10505SOL    HW132414   0.205   6.827   1.254
10505SOL    HW232415   0.093   6.931   1.198
10506SOL     OW32416   0.386   4.247   5.385
10506SOL    HW132417   0.336   4.287   5.307
10506SOL    HW232418   0.482   4.237   5.361
10507SOL     OW32419   1.050   0.346   4.967
10507SOL    HW132420   1.007   0.311   4.884
10507SOL    HW232421   0.980   0.388   5.025
10508SOL     OW32422   4.965   3.933   2.830
10508SOL    HW132423   4.937   3.991   2.753
10508SOL    HW232424   4.935   3.974   2.916
10509SOL     OW32425   1.874   0.109   5.460
10509SOL    HW132426   1.908   0.153   5.543
10509SOL    HW232427   1.812   0.035   5.484
10510SOL     OW32428   6.502   6.000   0.099
10510SOL    HW132429   6.514   6.068   0.026
10510SOL    HW232430   6.584   5.997   0.155
10511SOL     OW32431   6.129   2.365   0.512
10511SOL    HW132432   6.120   2.394   0.417
10511SOL    HW232433   6.052   2.400   0.565
10512SOL     OW32434   3.547   6.040   6.660
10512SOL    HW132435   3.482   6.099   6.613
10512SOL    HW232436   3.595   5.983   6.594
10513SOL     OW32437   6.759   2.620   6.955
10513SOL    HW132438   6.712   2.690   7.009
10513SOL    HW232439   6.701   2.539   6.947
10514SOL     OW32440   6.761   3.750   1.416
10514SOL    HW132441   6.829   3.680   1.438
10514SOL    HW232442   6.720   3.784   1.501
10515SOL     OW32443   6.494   2.242   4.281
10515SOL    HW132444   6.479   2.191   4.366
10515SOL    HW232445   6.414   2.300   4.263
10516SOL     OW32446   3.856   0.353   6.776
10516SOL    HW132447   3.950   0.379   6.799
10516SOL    HW232448   3.845   0.254   6.789
10517SOL     OW32449   0.403   2.184   3.208
10517SOL    HW132450   0.420   2.112   3.275
10517SOL    HW232451   0.364   2.264   3.254
10518SOL     OW32452   0.664   0.016   1.582
10518SOL    HW132453   0.708   0.048   1.666
10518SOL    HW232454   0.729   6.979   1.529
10519SOL     OW32455   3.146   3.846   5.416
10519SOL    HW132456   3.152   3.823   5.513
10519SOL    HW232457   3.155   3.762   5.361
10520SOL     OW32458   3.994   3.763   6.264
10520SOL    HW132459   4.071   3.826   6.270
10520SOL    HW232460   3.917   3.800   6.317
10521SOL     OW32461   6.484   5.334   2.008
10521SOL    HW132462   6.418   5.362   2.079
10521SOL    HW232463   6.442   5.345   1.918
10522SOL     OW32464   6.142   0.410   1.868
10522SOL    HW132465   6.170   0.366   1.953
10522SOL    HW232466   6.207   0.483   1.846
10523SOL     OW32467   0.297   5.666   6.686
10523SOL    HW132468   0.229   5.737   6.705
10523SOL    HW232469   0.324   5.621   6.771
10524SOL     OW32470   4.101   1.271   4.345
10524SOL    HW132471   4.053   1.326   4.413
10524SOL    HW232472   4.172   1.217   4.389
10525SOL     OW32473   2.779   6.123   4.439
10525SOL    HW132474   2.809   6.116   4.344
10525SOL    HW232475   2.719   6.202   4.449
10526SOL     OW32476   5.838   6.796   1.998
10526SOL    HW132477   5.853   6.886   1.957
10526SOL    HW232478   5.912   6.734   1.972
10527SOL     OW32479   1.702   2.486   4.538
10527SOL    HW132480   1.674   2.504   4.444
10527SOL    HW232481   1.787   2.432   4.537
10528SOL     OW32482   6.120   4.955   5.584
10528SOL    HW132483   6.135   4.986   5.491
10528SOL    HW232484   6.039   4.999   5.622
10529SOL     OW32485   5.932   6.316   3.869
10529SOL    HW132486   5.901   6.233   3.823
10529SOL    HW232487   5.993   6.291   3.945
10530SOL     OW32488   1.871   1.670   5.608
10530SOL    HW132489   1.813   1.642   5.684
10530SOL    HW232490   1.819   1.725   5.544
10531SOL     OW32491   2.368   2.522   5.480
10531SOL    HW132492   2.372   2.498   5.577
10531SOL    HW232493   2.331   2.615   5.471
10532SOL     OW32494   3.510   3.185   5.188
10532SOL    HW132495   3.548   3.180   5.095
10532SOL    HW232496   3.448   3.108   5.202
10533SOL     OW32497   2.240   0.765   6.023
10533SOL    HW132498   2.230   0.721   6.112
10533SOL    HW232499   2.151   0.796   5.990
10534SOL     OW32500   5.802   5.593   1.170
10534SOL    HW132501   5.745   5.524   1.125
10534SOL    HW232502   5.749   5.677   1.181
10535SOL     OW32503   0.406   1.405   2.706
10535SOL    HW132504   0.403   1.433   2.610
10535SOL    HW232505   0.499   1.380   2.730
10536SOL     OW32506   4.647   0.023   3.684
10536SOL    HW132507   4.574   0.090   3.671
10536SOL    HW232508   4.656   0.001   3.781
10537SOL     OW32509   0.724   4.938   1.291
10537SOL    HW132510   0.782   4.954   1.212
10537SOL    HW232511   0.644   4.884   1.264
10538SOL     OW32512   4.999   3.714   6.873
10538SOL    HW132513   5.076   3.769   6.839
10538SOL    HW232514   4.971   3.649   6.803
10539SOL     OW32515   0.671   3.198   5.887
10539SOL    HW132516   0.759   3.241   5.910
10539SOL    HW232517   0.631   3.159   5.969
10540SOL     OW32518   2.728   0.400   0.066
10540SOL    HW132519   2.719   0.362   6.991
10540SOL    HW232520   2.789   0.343   0.120
10541SOL     OW32521   4.209   2.334   0.623
10541SOL    HW132522   4.195   2.428   0.593
10541SOL    HW232523   4.205   2.330   0.723
10542SOL     OW32524   1.429   2.552   6.945
10542SOL    HW132525   1.524   2.569   6.973
10542SOL    HW232526   1.412   2.598   6.858
10543SOL     OW32527   2.139   1.033   5.610
10543SOL    HW132528   2.154   1.059   5.705
10543SOL    HW232529   2.227   1.029   5.562
10544SOL     OW32530   0.752   2.519   2.110
10544SOL    HW132531   0.762   2.618   2.114
10544SOL    HW232532   0.674   2.495   2.051
10545SOL     OW32533   5.512   0.840   2.704
10545SOL    HW132534   5.462   0.796   2.628
10545SOL    HW232535   5.460   0.919   2.736
10546SOL     OW32536   3.961   0.659   4.840
10546SOL    HW132537   3.991   0.674   4.935
10546SOL    HW232538   3.911   0.739   4.808
10547SOL     OW32539   4.139   1.441   0.609
10547SOL    HW132540   4.200   1.430   0.688
10547SOL    HW232541   4.068   1.507   0.632
10548SOL     OW32542   4.683   4.189   5.076
10548SOL    HW132543   4.610   4.254   5.096
10548SOL    HW232544   4.732   4.218   4.994
10549SOL     OW32545   1.185   1.023   1.557
10549SOL    HW132546   1.238   1.069   1.628
10549SOL    HW232547   1.109   0.974   1.598
10550SOL     OW32548   4.819   0.000   5.496
10550SOL    HW132549   4.863   6.935   5.530
10550SOL    HW232550   4.887   0.073   5.487
10551SOL     OW32551   1.566   2.625   5.760
10551SOL    HW132552   1.573   2.667   5.670
10551SOL    HW232553   1.499   2.675   5.815
10552SOL     OW32554   2.942   2.124   5.204
10552SOL    HW132555   2.943   2.037   5.154
10552SOL    HW232556   3.008   2.187   5.162
10553SOL     OW32557   2.613   4.449   6.146
10553SOL    HW132558   2.540   4.469   6.210
10553SOL    HW232559   2.661   4.534   6.122
10554SOL     OW32560   6.446   4.561   5.480
10554SOL    HW132561   6.365   4.584   5.534
10554SOL    HW232562   6.468   4.464   5.490
10555SOL     OW32563   3.195   2.091   1.027
10555SOL    HW132564   3.191   2.120   1.123
10555SOL    HW232565   3.138   2.010   1.015
10556SOL     OW32566   2.099   3.093   4.252
10556SOL    HW132567   2.145   3.046   4.328
10556SOL    HW232568   2.111   3.192   4.263
10557SOL     OW32569   6.416   2.138   3.881
10557SOL    HW132570   6.454   2.173   3.795
10557SOL    HW232571   6.491   2.123   3.946
10558SOL     OW32572   5.037   6.242   5.061
10558SOL    HW132573   5.002   6.335   5.051
10558SOL    HW232574   5.136   6.242   5.048
10559SOL     OW32575   4.537   2.554   0.696
10559SOL    HW132576   4.463   2.592   0.751
10559SOL    HW232577   4.569   2.469   0.737
10560SOL     OW32578   0.412   2.724   4.548
10560SOL    HW132579   0.472   2.802   4.528
10560SOL    HW232580   0.335   2.755   4.603
10561SOL     OW32581   2.923   4.221   6.276
10561SOL    HW132582   2.854   4.158   6.311
10561SOL    HW232583   3.009   4.207   6.324
10562SOL     OW32584   3.361   1.412   0.249
10562SOL    HW132585   3.289   1.351   0.283
10562SOL    HW232586   3.369   1.403   0.150
10563SOL     OW32587   1.726   1.561   4.073
10563SOL    HW132588   1.735   1.630   4.145
10563SOL    HW232589   1.761   1.474   4.106
10564SOL     OW32590   6.740   2.344   2.350
10564SOL    HW132591   6.733   2.245   2.341
10564SOL    HW232592   6.658   2.380   2.395
10565SOL     OW32593   5.190   1.928   4.930
10565SOL    HW132594   5.141   2.010   4.898
10565SOL    HW232595   5.282   1.927   4.892
10566SOL     OW32596   3.932   4.290   6.782
10566SOL    HW132597   3.954   4.346   6.862
10566SOL    HW232598   4.017   4.265   6.735
10567SOL     OW32599   1.445   5.242   3.775
10567SOL    HW132600   1.404   5.158   3.811
10567SOL    HW232601   1.507   5.281   3.843
10568SOL     OW32602   4.217   1.589   3.326
10568SOL    HW132603   4.288   1.656   3.347
10568SOL    HW232604   4.249   1.498   3.350
10569SOL     OW32605   6.188   2.946   3.298
10569SOL    HW132606   6.266   2.885   3.310
10569SOL    HW232607   6.205   3.032   3.346
10570SOL     OW32608   1.093   4.253   2.047
10570SOL    HW132609   1.188   4.221   2.058
10570SOL    HW232610   1.089   4.321   1.974
10571SOL     OW32611   6.132   6.870   4.563
10571SOL    HW132612   6.117   6.930   4.485
10571SOL    HW232613   6.043   6.841   4.599
10572SOL     OW32614   6.650   3.134   2.144
10572SOL    HW132615   6.591   3.202   2.101
10572SOL    HW232616   6.653   3.052   2.088
10573SOL     OW32617   6.231   4.730   5.616
10573SOL    HW132618   6.185   4.817   5.603
10573SOL    HW232619   6.168   4.655   5.594
10574SOL     OW32620   0.776   1.845   2.938
10574SOL    HW132621   0.701   1.878   2.995
10574SOL    HW232622   0.744   1.772   2.877
10575SOL     OW32623   1.088   6.897   5.696
10575SOL    HW132624   1.057   6.892   5.791
10575SOL    HW232625   1.052   6.820   5.644
10576SOL     OW32626   1.809   4.594   3.334
10576SOL    HW132627   1.884   4.612   3.269
10576SOL    HW232628   1.723   4.590   3.284
10577SOL     OW32629   0.733   2.896   5.295
10577SOL    HW132630   0.781   2.808   5.300
10577SOL    HW232631   0.639   2.884   5.329
10578SOL     OW32632   5.919   0.897   5.897
10578SOL    HW132633   5.958   0.959   5.829
10578SOL    HW232634   5.915   0.804   5.860
10579SOL     OW32635   5.024   1.052   0.715
10579SOL    HW132636   4.924   1.047   0.720
10579SOL    HW232637   5.052   1.147   0.701
10580SOL     OW32638   6.697   6.026   0.289
10580SOL    HW132639   6.713   6.124   0.274
10580SOL    HW232640   6.771   5.990   0.346
10581SOL     OW32641   4.419   1.660   4.054
10581SOL    HW132642   4.438   1.586   3.990
10581SOL    HW232643   4.360   1.728   4.011
10582SOL     OW32644   3.487   4.627   0.153
10582SOL    HW132645   3.426   4.649   0.229
10582SOL    HW232646   3.578   4.606   0.187
10583SOL     OW32647   4.593   1.787   0.878
10583SOL    HW132648   4.528   1.726   0.832
10583SOL    HW232649   4.586   1.879   0.840
10584SOL     OW32650   6.304   0.685   1.603
10584SOL    HW132651   6.321   0.684   1.702
10584SOL    HW232652   6.241   0.610   1.580
10585SOL     OW32653   1.778   4.332   6.381
10585SOL    HW132654   1.831   4.344   6.465
10585SOL    HW232655   1.770   4.419   6.333
10586SOL     OW32656   4.045   1.045   0.441
10586SOL    HW132657   3.995   1.124   0.475
10586SOL    HW232658   4.071   0.986   0.518
10587SOL     OW32659   5.915   3.310   0.966
10587SOL    HW132660   5.819   3.302   0.993
10587SOL    HW232661   5.921   3.336   0.870
10588SOL     OW32662   0.679   5.513   3.050
10588SOL    HW132663   0.587   5.481   3.072
10588SOL    HW232664   0.743   5.436   3.055
10589SOL     OW32665   6.416   1.717   3.935
10589SOL    HW132666   6.356   1.794   3.916
10589SOL    HW232667   6.497   1.722   3.877
10590SOL     OW32668   1.785   0.848   4.455
10590SOL    HW132669   1.850   0.786   4.413
10590SOL    HW232670   1.734   0.896   4.384
10591SOL     OW32671   1.451   2.520   0.488
10591SOL    HW132672   1.394   2.528   0.406
10591SOL    HW232673   1.399   2.474   0.560
10592SOL     OW32674   6.336   1.951   0.037
10592SOL    HW132675   6.299   2.042   0.057
10592SOL    HW232676   6.328   1.893   0.118
10593SOL     OW32677   2.411   4.785   1.040
10593SOL    HW132678   2.400   4.821   0.947
10593SOL    HW232679   2.407   4.685   1.038
10594SOL     OW32680   1.247   1.832   4.626
10594SOL    HW132681   1.150   1.843   4.606
10594SOL    HW232682   1.267   1.735   4.641
10595SOL     OW32683   2.282   6.305   5.605
10595SOL    HW132684   2.288   6.361   5.688
10595SOL    HW232685   2.344   6.227   5.612
10596SOL     OW32686   3.761   0.927   2.033
10596SOL    HW132687   3.804   0.867   2.101
10596SOL    HW232688   3.665   0.899   2.020
10597SOL     OW32689   1.932   0.047   4.164
10597SOL    HW132690   2.025   0.079   4.177
10597SOL    HW232691   1.911   6.992   4.230
10598SOL     OW32692   1.676   1.910   6.928
10598SOL    HW132693   1.697   2.003   6.957
10598SOL    HW232694   1.594   1.878   6.975
10599SOL     OW32695   4.820   0.972   6.942
10599SOL    HW132696   4.737   0.952   6.995
10599SOL    HW232697   4.899   0.937   6.991
10600SOL     OW32698   1.838   2.699   5.874
10600SOL    HW132699   1.746   2.734   5.892
10600SOL    HW232700   1.906   2.764   5.908
10601SOL     OW32701   3.449   6.140   5.766
10601SOL    HW132702   3.493   6.071   5.824
10601SOL    HW232703   3.512   6.217   5.752
10602SOL     OW32704   4.357   0.870   2.080
10602SOL    HW132705   4.415   0.810   2.024
10602SOL    HW232706   4.302   0.928   2.020
10603SOL     OW32707   1.504   5.534   4.033
10603SOL    HW132708   1.556   5.591   4.096
10603SOL    HW232709   1.551   5.446   4.021
10604SOL     OW32710   0.024   4.525   5.133
10604SOL    HW132711   0.009   4.459   5.060
10604SOL    HW232712   6.953   4.552   5.173
10605SOL     OW32713   2.052   4.795   6.610
10605SOL    HW132714   2.134   4.841   6.643
10605SOL    HW232715   1.971   4.847   6.639
10606SOL     OW32716   0.562   0.707   2.952
10606SOL    HW132717   0.531   0.690   2.858
10606SOL    HW232718   0.584   0.804   2.962
10607SOL     OW32719   5.891   5.086   0.267
10607SOL    HW132720   5.915   5.085   0.170
10607SOL    HW232721   5.960   5.137   0.318
10608SOL     OW32722   5.813   1.036   3.143
10608SOL    HW132723   5.875   1.106   3.107
10608SOL    HW232724   5.820   1.034   3.242
10609SOL     OW32725   3.920   6.562   2.015
10609SOL    HW132726   4.004   6.601   1.976
10609SOL    HW232727   3.920   6.463   2.000
10610SOL     OW32728   1.685   3.341   4.881
10610SOL    HW132729   1.631   3.263   4.915
10610SOL    HW232730   1.782   3.321   4.893
10611SOL     OW32731   5.127   2.368   6.339
10611SOL    HW132732   5.117   2.357   6.241
10611SOL    HW232733   5.219   2.339   6.367
10612SOL     OW32734   1.438   6.932   0.968
10612SOL    HW132735   1.359   6.916   1.027
10612SOL    HW232736   1.409   6.943   0.873
10613SOL     OW32737   0.526   7.003   6.556
10613SOL    HW132738   0.530   0.077   6.513
10613SOL    HW232739   0.442   6.996   6.611
10614SOL     OW32740   6.617   0.771   4.314
10614SOL    HW132741   6.693   0.822   4.275
10614SOL    HW232742   6.530   0.813   4.286
10615SOL     OW32743   6.729   5.770   5.480
10615SOL    HW132744   6.730   5.682   5.435
10615SOL    HW232745   6.810   5.778   5.539
10616SOL     OW32746   2.778   6.166   0.422
10616SOL    HW132747   2.778   6.099   0.348
10616SOL    HW232748   2.866   6.213   0.425
10617SOL     OW32749   0.997   2.191   6.424
10617SOL    HW132750   0.945   2.275   6.405
10617SOL    HW232751   0.934   2.117   6.447
10618SOL     OW32752   6.105   4.206   1.478
10618SOL    HW132753   6.145   4.285   1.524
10618SOL    HW232754   6.178   4.150   1.438
10619SOL     OW32755   0.899   4.752   4.086
10619SOL    HW132756   0.834   4.784   4.017
10619SOL    HW232757   0.964   4.689   4.044
10620SOL     OW32758   1.321   5.891   4.267
10620SOL    HW132759   1.270   5.825   4.323
10620SOL    HW232760   1.388   5.938   4.323
10621SOL     OW32761   2.939   6.104   0.927
10621SOL    HW132762   2.840   6.103   0.916
10621SOL    HW232763   2.979   6.170   0.864
10622SOL     OW32764   4.348   1.626   1.334
10622SOL    HW132765   4.395   1.615   1.422
10622SOL    HW232766   4.274   1.693   1.343
10623SOL     OW32767   6.604   1.319   3.795
10623SOL    HW132768   6.640   1.230   3.765
10623SOL    HW232769   6.590   1.377   3.715
10624SOL     OW32770   2.601   1.394   4.626
10624SOL    HW132771   2.636   1.487   4.625
10624SOL    HW232772   2.606   1.355   4.534
10625SOL     OW32773   0.341   3.267   0.157
10625SOL    HW132774   0.295   3.178   0.157
10625SOL    HW232775   0.275   3.338   0.179
10626SOL     OW32776   6.848   1.712   0.849
10626SOL    HW132777   6.786   1.788   0.870
10626SOL    HW232778   6.927   1.747   0.798
10627SOL     OW32779   6.219   5.431   4.402
10627SOL    HW132780   6.219   5.422   4.303
10627SOL    HW232781   6.162   5.359   4.442
10628SOL     OW32782   6.871   6.126   6.106
10628SOL    HW132783   6.785   6.161   6.070
10628SOL    HW232784   6.868   6.128   6.206
10629SOL     OW32785   2.763   5.849   6.017
10629SOL    HW132786   2.775   5.892   6.107
10629SOL    HW232787   2.666   5.833   6.000
10630SOL     OW32788   6.741   1.262   3.007
10630SOL    HW132789   6.796   1.310   2.938
10630SOL    HW232790   6.676   1.326   3.048
10631SOL     OW32791   1.229   0.161   5.014
10631SOL    HW132792   1.163   0.230   4.985
10631SOL    HW232793   1.296   0.146   4.941
10632SOL     OW32794   0.673   3.004   4.988
10632SOL    HW132795   0.629   3.093   4.981
10632SOL    HW232796   0.689   2.982   5.084
10633SOL     OW32797   0.663   5.348   0.805
10633SOL    HW132798   0.744   5.405   0.816
10633SOL    HW232799   0.674   5.288   0.727
10634SOL     OW32800   4.053   0.005   1.359
10634SOL    HW132801   4.102   7.000   1.443
10634SOL    HW232802   4.036   0.104   1.356
10635SOL     OW32803   1.957   0.791   0.980
10635SOL    HW132804   1.902   0.707   0.985
10635SOL    HW232805   1.999   0.808   1.069
10636SOL     OW32806   6.827   1.588   1.112
10636SOL    HW132807   6.745   1.531   1.101
10636SOL    HW232808   6.864   1.610   1.021
10637SOL     OW32809   4.023   4.684   5.640
10637SOL    HW132810   3.974   4.617   5.696
10637SOL    HW232811   4.069   4.638   5.564
10638SOL     OW32812   6.565   0.422   5.359
10638SOL    HW132813   6.500   0.387   5.292
10638SOL    HW232814   6.551   0.374   5.446
10639SOL     OW32815   3.348   1.367   5.127
10639SOL    HW132816   3.254   1.335   5.141
10639SOL    HW232817   3.404   1.341   5.205
10640SOL     OW32818   3.597   6.789   0.487
10640SOL    HW132819   3.587   6.691   0.470
10640SOL    HW232820   3.554   6.840   0.412
10641SOL     OW32821   4.221   0.649   6.289
10641SOL    HW132822   4.229   0.630   6.191
10641SOL    HW232823   4.302   0.699   6.320
10642SOL     OW32824   6.938   3.597   0.593
10642SOL    HW132825   7.011   3.609   0.660
10642SOL    HW232826   6.974   3.612   0.501
10643SOL     OW32827   3.913   3.486   5.351
10643SOL    HW132828   3.978   3.489   5.276
10643SOL    HW232829   3.962   3.475   5.437
10644SOL     OW32830   3.603   1.670   5.305
10644SOL    HW132831   3.626   1.682   5.401
10644SOL    HW232832   3.633   1.579   5.275
10645SOL     OW32833   2.313   0.029   4.891
10645SOL    HW132834   2.338   0.067   4.980
10645SOL    HW232835   2.330   6.947   4.892
10646SOL     OW32836   0.837   3.820   6.508
10646SOL    HW132837   0.749   3.786   6.542
10646SOL    HW232838   0.895   3.743   6.483
10647SOL     OW32839   0.155   5.035   0.449
10647SOL    HW132840   0.219   5.109   0.468
10647SOL    HW232841   0.204   4.948   0.443
10648SOL     OW32842   5.200   4.668   6.553
10648SOL    HW132843   5.235   4.578   6.581
10648SOL    HW232844   5.272   4.718   6.504
10649SOL     OW32845   0.900   4.274   6.060
10649SOL    HW132846   0.892   4.176   6.042
10649SOL    HW232847   0.851   4.296   6.145
10650SOL     OW32848   2.643   0.157   4.080
10650SOL    HW132849   2.730   0.108   4.088
10650SOL    HW232850   2.646   0.239   4.138
10651SOL     OW32851   3.141   6.972   5.812
10651SOL    HW132852   3.126   0.052   5.828
10651SOL    HW232853   3.226   6.944   5.855
10652SOL     OW32854   3.609   1.200   0.152
10652SOL    HW132855   3.626   1.129   0.084
10652SOL    HW232856   3.648   1.172   0.240
10653SOL     OW32857   5.540   2.967   3.809
10653SOL    HW132858   5.453   2.955   3.762
10653SOL    HW232859   5.523   2.979   3.907
10654SOL     OW32860   4.648   1.026   1.297
10654SOL    HW132861   4.610   1.046   1.206
10654SOL    HW232862   4.576   0.989   1.356
10655SOL     OW32863   3.530   5.761   1.426
10655SOL    HW132864   3.480   5.842   1.457
10655SOL    HW232865   3.476   5.713   1.357
10656SOL     OW32866   6.365   3.199   6.068
10656SOL    HW132867   6.382   3.103   6.045
10656SOL    HW232868   6.342   3.249   5.985
10657SOL     OW32869   5.956   0.525   1.724
10657SOL    HW132870   6.010   0.457   1.773
10657SOL    HW232871   5.859   0.506   1.736
10658SOL     OW32872   0.802   6.288   4.735
10658SOL    HW132873   0.859   6.365   4.764
10658SOL    HW232874   0.706   6.316   4.733
10659SOL     OW32875   5.441   0.978   0.915
10659SOL    HW132876   5.444   1.077   0.922
10659SOL    HW232877   5.532   0.943   0.894
10660SOL     OW32878   5.184   5.125   5.565
10660SOL    HW132879   5.214   5.047   5.620
10660SOL    HW232880   5.202   5.106   5.468
10661SOL     OW32881   0.635   0.380   2.088
10661SOL    HW132882   0.652   0.283   2.104
10661SOL    HW232883   0.711   0.434   2.124
10662SOL     OW32884   5.617   1.418   0.493
10662SOL    HW132885   5.707   1.411   0.449
10662SOL    HW232886   5.615   1.500   0.550
10663SOL     OW32887   0.282   0.645   0.305
10663SOL    HW132888   0.335   0.730   0.309
10663SOL    HW232889   0.341   0.571   0.273
10664SOL     OW32890   2.149   4.545   6.639
10664SOL    HW132891   2.116   4.634   6.610
10664SOL    HW232892   2.213   4.556   6.716
10665SOL     OW32893   6.106   1.058   6.917
10665SOL    HW132894   6.189   1.109   6.895
10665SOL    HW232895   6.037   1.075   6.847
10666SOL     OW32896   1.099   0.513   6.996
10666SOL    HW132897   1.089   0.445   0.051
10666SOL    HW232898   1.016   0.515   6.940
10667SOL     OW32899   3.297   2.262   5.361
10667SOL    HW132900   3.360   2.197   5.317
10667SOL    HW232901   3.267   2.329   5.294
10668SOL     OW32902   2.092   0.862   6.492
10668SOL    HW132903   2.050   0.944   6.531
10668SOL    HW232904   2.078   0.785   6.554
10669SOL     OW32905   0.747   6.840   6.799
10669SOL    HW132906   0.842   6.857   6.823
10669SOL    HW232907   0.743   6.782   6.717
10670SOL     OW32908   0.090   4.899   5.516
10670SOL    HW132909   0.083   4.809   5.472
10670SOL    HW232910   0.152   4.892   5.595
10671SOL     OW32911   1.457   2.046   3.123
10671SOL    HW132912   1.404   2.127   3.096
10671SOL    HW232913   1.538   2.038   3.064
10672SOL     OW32914   0.170   2.642   1.173
10672SOL    HW132915   0.188   2.728   1.126
10672SOL    HW232916   0.220   2.568   1.128
10673SOL     OW32917   3.188   3.253   5.105
10673SOL    HW132918   3.211   3.287   5.014
10673SOL    HW232919   3.238   3.168   5.122
10674SOL     OW32920   4.404   1.879   2.096
10674SOL    HW132921   4.428   1.781   2.098
10674SOL    HW232922   4.376   1.908   2.188
10675SOL     OW32923   0.218   1.171   6.687
10675SOL    HW132924   0.275   1.092   6.707
10675SOL    HW232925   0.134   1.167   6.741
10676SOL     OW32926   6.593   0.322   0.108
10676SOL    HW132927   6.566   0.306   0.012
10676SOL    HW232928   6.643   0.242   0.141
10677SOL     OW32929   6.865   1.116   0.128
10677SOL    HW132930   6.930   1.133   0.054
10677SOL    HW232931   6.914   1.112   0.215
10678SOL     OW32932   2.253   5.843   2.721
10678SOL    HW132933   2.276   5.798   2.635
10678SOL    HW232934   2.155   5.865   2.722
10679SOL     OW32935   5.271   5.223   3.445
10679SOL    HW132936   5.358   5.196   3.403
10679SOL    HW232937   5.285   5.302   3.504
10680SOL     OW32938   1.745   2.275   3.740
10680SOL    HW132939   1.834   2.286   3.785
10680SOL    HW232940   1.758   2.262   3.642
10681SOL     OW32941   0.674   1.838   6.300
10681SOL    HW132942   0.701   1.805   6.390
10681SOL    HW232943   0.726   1.789   6.229
10682SOL     OW32944   6.413   1.686   2.976
10682SOL    HW132945   6.440   1.773   2.935
10682SOL    HW232946   6.313   1.683   2.984
10683SOL     OW32947   1.980   0.866   4.069
10683SOL    HW132948   1.916   0.917   4.011
10683SOL    HW232949   1.952   0.770   4.074
10684SOL     OW32950   6.195   6.134   0.661
10684SOL    HW132951   6.253   6.181   0.595
10684SOL    HW232952   6.216   6.037   0.662
10685SOL     OW32953   6.923   2.239   2.146
10685SOL    HW132954   6.860   2.164   2.126
10685SOL    HW232955   6.882   2.301   2.213
10686SOL     OW32956   4.001   4.476   0.802
10686SOL    HW132957   3.939   4.491   0.724
10686SOL    HW232958   4.083   4.429   0.771
10687SOL     OW32959   0.500   4.919   1.580
10687SOL    HW132960   0.462   5.003   1.541
10687SOL    HW232961   0.547   4.941   1.666
10688SOL     OW32962   6.626   6.056   1.541
10688SOL    HW132963   6.693   5.989   1.573
10688SOL    HW232964   6.536   6.013   1.533
10689SOL     OW32965   0.627   0.905   1.643
10689SOL    HW132966   0.597   1.001   1.638
10689SOL    HW232967   0.658   0.884   1.735
10690SOL     OW32968   4.268   6.135   2.507
10690SOL    HW132969   4.171   6.151   2.524
10690SOL    HW232970   4.288   6.150   2.410
10691SOL     OW32971   6.580   1.488   1.110
10691SOL    HW132972   6.530   1.574   1.102
10691SOL    HW232973   6.528   1.414   1.067
10692SOL     OW32974   5.273   6.019   4.688
10692SOL    HW132975   5.332   5.951   4.644
10692SOL    HW232976   5.205   5.973   4.745
10693SOL     OW32977   4.898   2.655   3.238
10693SOL    HW132978   4.822   2.716   3.260
10693SOL    HW232979   4.869   2.588   3.170
10694SOL     OW32980   3.368   5.939   0.562
10694SOL    HW132981   3.425   6.002   0.615
10694SOL    HW232982   3.357   5.853   0.614
10695SOL     OW32983   6.000   2.830   4.835
10695SOL    HW132984   5.997   2.887   4.917
10695SOL    HW232985   5.907   2.806   4.808
10696SOL     OW32986   6.379   6.958   1.857
10696SOL    HW132987   6.343   6.928   1.945
10696SOL    HW232988   6.427   6.882   1.813
10697SOL     OW32989   2.708   6.075   2.889
10697SOL    HW132990   2.743   6.143   2.825
10697SOL    HW232991   2.662   6.120   2.964
10698SOL     OW32992   2.975   0.825   3.308
10698SOL    HW132993   3.074   0.837   3.299
10698SOL    HW232994   2.935   0.909   3.345
10699SOL     OW32995   1.997   2.233   2.927
10699SOL    HW132996   2.081   2.284   2.947
10699SOL    HW232997   1.946   2.218   3.011
10700SOL     OW32998   6.895   1.091   1.998
10700SOL    HW132999   6.890   1.183   1.960
10700SOL    HW233000   6.918   1.026   1.927
10701SOL     OW33001   3.611   6.623   0.734
10701SOL    HW133002   3.664   6.668   0.806
10701SOL    HW233003   3.610   6.681   0.652
10702SOL     OW33004   5.313   3.378   0.734
10702SOL    HW133005   5.303   3.295   0.788
10702SOL    HW233006   5.230   3.393   0.680
10703SOL     OW33007   3.728   3.358   4.364
10703SOL    HW133008   3.820   3.325   4.385
10703SOL    HW233009   3.721   3.456   4.385
10704SOL     OW33010   5.789   6.377   2.508
10704SOL    HW133011   5.708   6.325   2.535
10704SOL    HW233012   5.761   6.468   2.477
10705SOL     OW33013   1.822   3.229   6.104
10705SOL    HW133014   1.785   3.228   6.197
10705SOL    HW233015   1.813   3.321   6.065
10706SOL     OW33016   3.546   2.048   1.310
10706SOL    HW133017   3.507   2.059   1.402
10706SOL    HW233018   3.507   2.118   1.250
10707SOL     OW33019   6.375   0.055   6.292
10707SOL    HW133020   6.420   0.141   6.315
10707SOL    HW233021   6.292   0.074   6.238
10708SOL     OW33022   4.755   1.218   1.651
10708SOL    HW133023   4.790   1.202   1.559
10708SOL    HW233024   4.810   1.287   1.697
10709SOL     OW33025   0.947   6.702   5.950
10709SOL    HW133026   0.991   6.616   5.975
10709SOL    HW233027   0.855   6.684   5.916
10710SOL     OW33028   6.335   5.727   3.931
10710SOL    HW133029   6.393   5.795   3.975
10710SOL    HW233030   6.258   5.704   3.991
10711SOL     OW33031   2.612   5.717   4.693
10711SOL    HW133032   2.597   5.632   4.643
10711SOL    HW233033   2.637   5.696   4.788
10712SOL     OW33034   4.287   1.280   5.672
10712SOL    HW133035   4.275   1.281   5.573
10712SOL    HW233036   4.235   1.204   5.712
10713SOL     OW33037   1.921   5.920   1.025
10713SOL    HW133038   1.846   5.952   0.967
10713SOL    HW233039   1.950   5.829   0.995
10714SOL     OW33040   6.504   5.639   5.965
10714SOL    HW133041   6.549   5.664   5.879
10714SOL    HW233042   6.413   5.681   5.968
10715SOL     OW33043   5.822   1.111   3.422
10715SOL    HW133044   5.897   1.146   3.477
10715SOL    HW233045   5.758   1.185   3.401
10716SOL     OW33046   6.589   0.820   2.486
10716SOL    HW133047   6.489   0.818   2.479
10716SOL    HW233048   6.617   0.769   2.568
10717SOL     OW33049   6.744   6.287   2.495
10717SOL    HW133050   6.828   6.253   2.452
10717SOL    HW233051   6.760   6.377   2.534
10718SOL     OW33052   0.970   3.793   5.652
10718SOL    HW133053   0.982   3.884   5.690
10718SOL    HW233054   0.906   3.741   5.709
10719SOL     OW33055   4.016   0.029   2.574
10719SOL    HW133056   3.928   0.076   2.567
10719SOL    HW233057   4.085   0.079   2.520
10720SOL     OW33058   0.415   2.756   6.565
10720SOL    HW133059   0.424   2.756   6.665
10720SOL    HW233060   0.342   2.692   6.539
10721SOL     OW33061   4.977   2.211   4.608
10721SOL    HW133062   5.036   2.178   4.535
10721SOL    HW233063   4.975   2.145   4.683
10722SOL     OW33064   0.083   4.626   0.668
10722SOL    HW133065   0.157   4.652   0.730
10722SOL    HW233066   0.041   4.708   0.630
10723SOL     OW33067   6.024   4.803   0.353
10723SOL    HW133068   6.075   4.881   0.317
10723SOL    HW233069   5.957   4.834   0.419
10724SOL     OW33070   3.366   0.194   5.539
10724SOL    HW133071   3.363   0.094   5.541
10724SOL    HW233072   3.273   0.230   5.544
10725SOL     OW33073   6.707   0.199   5.312
10725SOL    HW133074   6.666   0.286   5.339
10725SOL    HW233075   6.773   0.215   5.238
10726SOL     OW33076   5.715   1.262   4.056
10726SOL    HW133077   5.774   1.252   3.976
10726SOL    HW233078   5.682   1.173   4.086
10727SOL     OW33079   3.156   6.729   7.008
10727SOL    HW133080   3.101   6.800   0.034
10727SOL    HW233081   3.236   6.770   6.964
10728SOL     OW33082   5.768   5.744   4.087
10728SOL    HW133083   5.675   5.722   4.060
10728SOL    HW233084   5.783   5.714   4.181
10729SOL     OW33085   5.624   2.986   4.078
10729SOL    HW133086   5.616   3.002   4.176
10729SOL    HW233087   5.716   3.010   4.047
10730SOL     OW33088   1.168   5.491   3.450
10730SOL    HW133089   1.152   5.467   3.354
10730SOL    HW233090   1.086   5.472   3.504
10731SOL     OW33091   4.816   5.785   6.671
10731SOL    HW133092   4.721   5.769   6.644
10731SOL    HW233093   4.874   5.714   6.630
10732SOL     OW33094   6.254   5.833   2.899
10732SOL    HW133095   6.316   5.846   2.976
10732SOL    HW233096   6.211   5.921   2.876
10733SOL     OW33097   0.550   1.714   5.990
10733SOL    HW133098   0.519   1.793   6.043
10733SOL    HW233099   0.488   1.700   5.913
10734SOL     OW33100   1.344   0.530   5.120
10734SOL    HW133101   1.334   0.435   5.148
10734SOL    HW233102   1.255   0.567   5.096
10735SOL     OW33103   0.231   0.132   1.689
10735SOL    HW133104   0.173   0.169   1.617
10735SOL    HW233105   0.240   0.033   1.677
10736SOL     OW33106   5.363   5.610   3.326
10736SOL    HW133107   5.289   5.643   3.386
10736SOL    HW233108   5.392   5.685   3.266
10737SOL     OW33109   6.523   1.017   1.887
10737SOL    HW133110   6.547   0.979   1.977
10737SOL    HW233111   6.464   0.953   1.839
10738SOL     OW33112   2.544   6.859   1.304
10738SOL    HW133113   2.611   6.786   1.291
10738SOL    HW233114   2.564   6.936   1.244
10739SOL     OW33115   5.535   3.287   4.191
10739SOL    HW133116   5.496   3.257   4.104
10739SOL    HW233117   5.539   3.209   4.254
10740SOL     OW33118   3.153   0.518   6.102
10740SOL    HW133119   3.108   0.606   6.087
10740SOL    HW233120   3.208   0.494   6.022
10741SOL     OW33121   1.269   2.217   3.699
10741SOL    HW133122   1.171   2.195   3.694
10741SOL    HW233123   1.303   2.235   3.607
10742SOL     OW33124   6.352   6.521   2.116
10742SOL    HW133125   6.291   6.450   2.082
10742SOL    HW233126   6.429   6.532   2.054
10743SOL     OW33127   3.293   2.040   5.871
10743SOL    HW133128   3.386   2.050   5.836
10743SOL    HW233129   3.229   2.035   5.793
10744SOL     OW33130   2.883   1.487   0.708
10744SOL    HW133131   2.790   1.508   0.680
10744SOL    HW233132   2.889   1.489   0.808
10745SOL     OW33133   2.337   4.505   1.340
10745SOL    HW133134   2.430   4.540   1.350
10745SOL    HW233135   2.301   4.483   1.431
10746SOL     OW33136   2.373   5.661   6.388
10746SOL    HW133137   2.424   5.645   6.303
10746SOL    HW233138   2.317   5.742   6.378
10747SOL     OW33139   6.798   1.205   4.530
10747SOL    HW133140   6.856   1.284   4.551
10747SOL    HW233141   6.716   1.236   4.482
10748SOL     OW33142   3.544   6.769   2.339
10748SOL    HW133143   3.607   6.842   2.367
10748SOL    HW233144   3.579   6.724   2.257
10749SOL     OW33145   6.208   4.441   1.578
10749SOL    HW133146   6.245   4.532   1.596
10749SOL    HW233147   6.243   4.376   1.645
10750SOL     OW33148   4.051   2.016   4.648
10750SOL    HW133149   3.991   1.948   4.606
10750SOL    HW233150   3.997   2.074   4.710
10751SOL     OW33151   6.728   5.946   4.262
10751SOL    HW133152   6.769   5.965   4.173
10751SOL    HW233153   6.638   5.904   4.248
10752SOL     OW33154   6.924   6.299   0.491
10752SOL    HW133155   6.850   6.253   0.541
10752SOL    HW233156   7.008   6.246   0.499
10753SOL     OW33157   4.832   6.833   4.872
10753SOL    HW133158   4.811   6.927   4.899
10753SOL    HW233159   4.928   6.813   4.892
10754SOL     OW33160   1.120   5.090   2.052
10754SOL    HW133161   1.173   5.164   2.012
10754SOL    HW233162   1.180   5.011   2.068
10755SOL     OW33163   0.294   2.271   1.383
10755SOL    HW133164   0.264   2.363   1.408
10755SOL    HW233165   0.295   2.213   1.464
10756SOL     OW33166   1.583   0.726   0.245
10756SOL    HW133167   1.617   0.693   0.157
10756SOL    HW233168   1.576   0.650   0.310
10757SOL     OW33169   0.289   2.534   2.352
10757SOL    HW133170   0.384   2.504   2.354
10757SOL    HW233171   0.277   2.602   2.279
10758SOL     OW33172   0.781   0.751   6.893
10758SOL    HW133173   0.840   0.716   6.966
10758SOL    HW233174   0.702   0.797   6.933
10759SOL     OW33175   3.073   2.972   5.380
10759SOL    HW133176   3.133   2.982   5.300
10759SOL    HW233177   3.009   3.048   5.383
10760SOL     OW33178   0.770   4.704   6.801
10760SOL    HW133179   0.749   4.618   6.755
10760SOL    HW233180   0.821   4.684   6.885
10761SOL     OW33181   1.170   1.738   5.733
10761SOL    HW133182   1.132   1.814   5.786
10761SOL    HW233183   1.140   1.651   5.772
10762SOL     OW33184   2.354   6.262   6.691
10762SOL    HW133185   2.359   6.224   6.784
10762SOL    HW233186   2.353   6.188   6.625
10763SOL     OW33187   4.584   0.743   3.255
10763SOL    HW133188   4.503   0.693   3.225
10763SOL    HW233189   4.635   0.774   3.175
10764SOL     OW33190   5.174   6.415   4.813
10764SOL    HW133191   5.128   6.339   4.768
10764SOL    HW233192   5.255   6.381   4.861
10765SOL     OW33193   0.894   1.948   1.268
10765SOL    HW133194   0.967   2.007   1.303
10765SOL    HW233195   0.842   1.996   1.198
10766SOL     OW33196   2.686   5.244   6.693
10766SOL    HW133197   2.689   5.156   6.645
10766SOL    HW233198   2.687   5.318   6.626
10767SOL     OW33199   1.697   4.607   0.066
10767SOL    HW133200   1.682   4.631   0.162
10767SOL    HW233201   1.776   4.546   0.059
10768SOL     OW33202   5.231   6.208   6.802
10768SOL    HW133203   5.131   6.219   6.807
10768SOL    HW233204   5.255   6.164   6.715
10769SOL     OW33205   2.870   3.455   4.734
10769SOL    HW133206   2.774   3.452   4.707
10769SOL    HW233207   2.885   3.390   4.809
10770SOL     OW33208   5.731   0.135   3.340
10770SOL    HW133209   5.814   0.185   3.316
10770SOL    HW233210   5.745   0.087   3.427
10771SOL     OW33211   4.982   5.995   5.701
10771SOL    HW133212   5.030   6.047   5.630
10771SOL    HW233213   4.888   6.027   5.708
10772SOL     OW33214   5.690   5.278   2.035
10772SOL    HW133215   5.668   5.204   2.099
10772SOL    HW233216   5.685   5.366   2.084
10773SOL     OW33217   0.272   3.598   0.939
10773SOL    HW133218   0.305   3.536   1.010
10773SOL    HW233219   0.172   3.597   0.938
10774SOL     OW33220   1.065   3.138   0.607
10774SOL    HW133221   1.135   3.209   0.616
10774SOL    HW233222   0.989   3.158   0.668
10775SOL     OW33223   1.894   4.118   0.770
10775SOL    HW133224   1.948   4.078   0.844
10775SOL    HW233225   1.797   4.115   0.795
10776SOL     OW33226   0.431   3.091   3.515
10776SOL    HW133227   0.405   3.082   3.419
10776SOL    HW233228   0.360   3.052   3.573
10777SOL     OW33229   1.615   0.149   0.988
10777SOL    HW133230   1.540   0.082   0.983
10777SOL    HW233231   1.598   0.223   0.923
10778SOL     OW33232   4.802   0.177   3.280
10778SOL    HW133233   4.764   0.212   3.194
10778SOL    HW233234   4.749   0.098   3.310
10779SOL     OW33235   5.602   3.454   5.434
10779SOL    HW133236   5.502   3.454   5.433
10779SOL    HW233237   5.634   3.391   5.505
10780SOL     OW33238   2.187   5.268   4.172
10780SOL    HW133239   2.233   5.283   4.085
10780SOL    HW233240   2.146   5.354   4.203
10781SOL     OW33241   5.720   2.131   4.588
10781SOL    HW133242   5.766   2.219   4.574
10781SOL    HW233243   5.772   2.058   4.545
10782SOL     OW33244   1.136   2.339   5.726
10782SOL    HW133245   1.101   2.297   5.810
10782SOL    HW233246   1.234   2.357   5.737
10783SOL     OW33247   1.309   3.026   3.630
10783SOL    HW133248   1.297   2.938   3.675
10783SOL    HW233249   1.324   3.012   3.532
10784SOL     OW33250   4.197   5.547   3.766
10784SOL    HW133251   4.135   5.510   3.697
10784SOL    HW233252   4.144   5.603   3.830
10785SOL     OW33253   1.647   5.534   1.480
10785SOL    HW133254   1.719   5.597   1.509
10785SOL    HW233255   1.672   5.441   1.507
10786SOL     OW33256   4.847   1.951   2.146
10786SOL    HW133257   4.832   1.872   2.206
10786SOL    HW233258   4.782   1.946   2.070
10787SOL     OW33259   3.643   2.097   3.613
10787SOL    HW133260   3.544   2.109   3.622
10787SOL    HW233261   3.689   2.150   3.684
10788SOL     OW33262   2.039   3.974   0.590
10788SOL    HW133263   1.973   4.016   0.653
10788SOL    HW233264   2.067   4.042   0.522
10789SOL     OW33265   6.634   1.280   2.552
10789SOL    HW133266   6.619   1.218   2.629
10789SOL    HW233267   6.551   1.286   2.497
10790SOL     OW33268   6.800   1.959   5.255
10790SOL    HW133269   6.865   2.004   5.194
10790SOL    HW233270   6.741   2.027   5.298
10791SOL     OW33271   1.805   2.128   3.510
10791SOL    HW133272   1.809   2.029   3.526
10791SOL    HW233273   1.807   2.145   3.412
10792SOL     OW33274   3.627   1.760   2.435
10792SOL    HW133275   3.713   1.719   2.466
10792SOL    HW233276   3.592   1.709   2.356
10793SOL     OW33277   3.303   1.738   4.908
10793SOL    HW133278   3.322   1.741   4.810
10793SOL    HW233279   3.370   1.679   4.953
10794SOL     OW33280   5.378   2.244   0.351
10794SOL    HW133281   5.424   2.178   0.292
10794SOL    HW233282   5.295   2.277   0.306
10795SOL     OW33283   0.035   3.781   3.221
10795SOL    HW133284   0.085   3.807   3.138
10795SOL    HW233285   6.961   3.749   3.196
10796SOL     OW33286   0.161   0.718   6.238
10796SOL    HW133287   0.231   0.674   6.294
10796SOL    HW233288   0.120   0.650   6.176
10797SOL     OW33289   4.327   4.495   0.275
10797SOL    HW133290   4.333   4.533   0.367
10797SOL    HW233291   4.413   4.511   0.226
10798SOL     OW33292   2.141   6.391   6.642
10798SOL    HW133293   2.087   6.315   6.606
10798SOL    HW233294   2.234   6.361   6.660
10799SOL     OW33295   3.369   1.276   2.935
10799SOL    HW133296   3.324   1.189   2.912
10799SOL    HW233297   3.347   1.344   2.866
10800SOL     OW33298   2.342   0.033   5.175
10800SOL    HW133299   2.387   0.113   5.214
10800SOL    HW233300   2.251   0.023   5.216
10801SOL     OW33301   3.029   6.394   6.190
10801SOL    HW133302   3.038   6.345   6.277
10801SOL    HW233303   3.119   6.427   6.161
10802SOL     OW33304   0.047   5.360   4.204
10802SOL    HW133305   0.093   5.331   4.120
10802SOL    HW233306   6.969   5.383   4.184
10803SOL     OW33307   0.183   4.817   4.120
10803SOL    HW133308   0.113   4.749   4.139
10803SOL    HW233309   0.141   4.907   4.112
10804SOL     OW33310   4.834   4.347   0.951
10804SOL    HW133311   4.758   4.285   0.970
10804SOL    HW233312   4.920   4.302   0.973
10805SOL     OW33313   3.766   6.483   0.308
10805SOL    HW133314   3.812   6.394   0.314
10805SOL    HW233315   3.677   6.477   0.354
10806SOL     OW33316   5.957   4.251   6.564
10806SOL    HW133317   6.004   4.262   6.476
10806SOL    HW233318   6.025   4.241   6.637
10807SOL     OW33319   4.347   1.755   4.550
10807SOL    HW133320   4.361   1.664   4.590
10807SOL    HW233321   4.249   1.777   4.553
10808SOL     OW33322   0.048   1.914   0.386
10808SOL    HW133323   6.989   1.969   0.352
10808SOL    HW233324   0.121   1.912   0.318
10809SOL     OW33325   2.620   1.325   2.140
10809SOL    HW133326   2.686   1.275   2.196
10809SOL    HW233327   2.544   1.265   2.115
10810SOL     OW33328   1.900   1.072   6.555
10810SOL    HW133329   1.980   1.093   6.499
10810SOL    HW233330   1.817   1.075   6.498
10811SOL     OW33331   4.718   4.806   6.533
10811SOL    HW133332   4.648   4.877   6.543
10811SOL    HW233333   4.674   4.717   6.527
10812SOL     OW33334   6.561   2.821   2.259
10812SOL    HW133335   6.535   2.724   2.258
10812SOL    HW233336   6.574   2.853   2.166
10813SOL     OW33337   3.478   5.676   2.663
10813SOL    HW133338   3.461   5.771   2.689
10813SOL    HW233339   3.547   5.636   2.723
10814SOL     OW33340   2.330   5.537   4.443
10814SOL    HW133341   2.309   5.439   4.444
10814SOL    HW233342   2.285   5.581   4.521
10815SOL     OW33343   4.494   2.016   4.560
10815SOL    HW133344   4.473   1.923   4.528
10815SOL    HW233345   4.562   2.057   4.500
10816SOL     OW33346   2.463   2.174   1.747
10816SOL    HW133347   2.428   2.111   1.679
10816SOL    HW233348   2.467   2.266   1.709
10817SOL     OW33349   4.160   0.613   1.566
10817SOL    HW133350   4.107   0.528   1.561
10817SOL    HW233351   4.252   0.597   1.532
10818SOL     OW33352   4.340   2.711   0.104
10818SOL    HW133353   4.386   2.660   0.177
10818SOL    HW233354   4.291   2.648   0.045
10819SOL     OW33355   0.806   3.669   5.432
10819SOL    HW133356   0.811   3.570   5.419
10819SOL    HW233357   0.865   3.695   5.508
10820SOL     OW33358   0.325   6.881   4.566
10820SOL    HW133359   0.375   6.942   4.627
10820SOL    HW233360   0.226   6.897   4.576
10821SOL     OW33361   0.394   0.156   1.038
10821SOL    HW133362   0.405   0.229   0.971
10821SOL    HW233363   0.390   0.196   1.130
10822SOL     OW33364   0.215   3.976   6.860
10822SOL    HW133365   0.205   3.959   6.959
10822SOL    HW233366   0.300   3.935   6.828
10823SOL     OW33367   2.108   2.132   1.270
10823SOL    HW133368   2.166   2.184   1.333
10823SOL    HW233369   2.162   2.099   1.193
10824SOL     OW33370   5.170   0.598   3.700
10824SOL    HW133371   5.132   0.575   3.789
10824SOL    HW233372   5.171   0.517   3.641
10825SOL     OW33373   3.538   0.742   2.031
10825SOL    HW133374   3.608   0.671   2.028
10825SOL    HW233375   3.498   0.754   1.940
10826SOL     OW33376   6.609   3.011   1.422
10826SOL    HW133377   6.521   2.980   1.387
10826SOL    HW233378   6.601   3.035   1.518
10827SOL     OW33379   1.290   3.329   4.282
10827SOL    HW133380   1.203   3.315   4.234
10827SOL    HW233381   1.363   3.282   4.234
10828SOL     OW33382   1.664   5.648   0.389
10828SOL    HW133383   1.757   5.634   0.354
10828SOL    HW233384   1.650   5.590   0.469
10829SOL     OW33385   2.193   3.410   1.661
10829SOL    HW133386   2.268   3.410   1.727
10829SOL    HW233387   2.110   3.377   1.706
10830SOL     OW33388   5.089   1.001   3.508
10830SOL    HW133389   5.004   1.014   3.457
10830SOL    HW233390   5.165   1.039   3.456
10831SOL     OW33391   5.698   3.326   2.216
10831SOL    HW133392   5.665   3.231   2.223
10831SOL    HW233393   5.622   3.389   2.235
10832SOL     OW33394   0.698   3.834   3.147
10832SOL    HW133395   0.718   3.890   3.228
10832SOL    HW233396   0.645   3.754   3.175
10833SOL     OW33397   2.705   6.836   3.918
10833SOL    HW133398   2.768   6.820   3.842
10833SOL    HW233399   2.616   6.862   3.882
10834SOL     OW33400   6.852   1.058   5.571
10834SOL    HW133401   6.890   1.022   5.485
10834SOL    HW233402   6.790   0.990   5.610
10835SOL     OW33403   0.250   3.126   1.598
10835SOL    HW133404   0.224   3.071   1.519
10835SOL    HW233405   0.206   3.216   1.590
10836SOL     OW33406   2.046   2.823   0.759
10836SOL    HW133407   2.104   2.896   0.724
10836SOL    HW233408   1.982   2.794   0.688
10837SOL     OW33409   0.731   5.994   0.785
10837SOL    HW133410   0.790   5.966   0.861
10837SOL    HW233411   0.737   6.093   0.773
10838SOL     OW33412   6.311   6.692   0.274
10838SOL    HW133413   6.257   6.765   0.233
10838SOL    HW233414   6.256   6.609   0.280
10839SOL     OW33415   1.482   1.459   0.059
10839SOL    HW133416   1.461   1.513   6.994
10839SOL    HW233417   1.572   1.485   0.093
10840SOL     OW33418   3.006   6.353   2.430
10840SOL    HW133419   2.943   6.278   2.447
10840SOL    HW233420   3.086   6.319   2.382
10841SOL     OW33421   5.603   2.928   6.948
10841SOL    HW133422   5.680   2.907   6.888
10841SOL    HW233423   5.523   2.874   6.920
10842SOL     OW33424   6.016   2.847   1.488
10842SOL    HW133425   5.946   2.788   1.448
10842SOL    HW233426   6.017   2.835   1.587
10843SOL     OW33427   0.245   1.495   1.398
10843SOL    HW133428   0.173   1.552   1.358
10843SOL    HW233429   0.329   1.506   1.346
10844SOL     OW33430   3.955   0.331   3.308
10844SOL    HW133431   3.894   0.291   3.377
10844SOL    HW233432   3.902   0.387   3.244
10845SOL     OW33433   2.133   3.080   0.713
10845SOL    HW133434   2.157   3.118   0.802
10845SOL    HW233435   2.184   3.128   0.641
10846SOL     OW33436   3.453   1.639   1.458
10846SOL    HW133437   3.490   1.710   1.517
10846SOL    HW233438   3.449   1.672   1.364
10847SOL     OW33439   4.792   2.800   5.528
10847SOL    HW133440   4.838   2.744   5.459
10847SOL    HW233441   4.794   2.896   5.499
10848SOL     OW33442   1.317   0.785   6.590
10848SOL    HW133443   1.218   0.791   6.590
10848SOL    HW233444   1.353   0.820   6.677
10849SOL     OW33445   2.005   5.311   3.751
10849SOL    HW133446   2.052   5.349   3.671
10849SOL    HW233447   1.908   5.300   3.729
10850SOL     OW33448   5.675   0.539   1.805
10850SOL    HW133449   5.615   0.504   1.877
10850SOL    HW233450   5.652   0.634   1.786
10851SOL     OW33451   4.755   1.960   6.461
10851SOL    HW133452   4.667   1.981   6.503
10851SOL    HW233453   4.811   2.043   6.459
10852SOL     OW33454   6.802   0.601   5.815
10852SOL    HW133455   6.845   0.511   5.821
10852SOL    HW233456   6.872   0.670   5.799
10853SOL     OW33457   2.354   0.503   4.596
10853SOL    HW133458   2.349   0.597   4.562
10853SOL    HW233459   2.345   0.439   4.519
10854SOL     OW33460   0.146   6.884   0.866
10854SOL    HW133461   0.091   6.811   0.906
10854SOL    HW233462   0.143   6.876   0.766
10855SOL     OW33463   0.138   5.304   1.445
10855SOL    HW133464   0.049   5.338   1.477
10855SOL    HW233465   0.163   5.352   1.361
10856SOL     OW33466   5.725   0.337   6.571
10856SOL    HW133467   5.651   0.373   6.513
10856SOL    HW233468   5.702   0.353   6.667
10857SOL     OW33469   6.688   0.519   4.860
10857SOL    HW133470   6.709   0.608   4.899
10857SOL    HW233471   6.639   0.531   4.774
10858SOL     OW33472   1.938   1.970   0.470
10858SOL    HW133473   1.955   2.002   0.376
10858SOL    HW233474   1.864   2.023   0.510
10859SOL     OW33475   1.306   5.657   1.928
10859SOL    HW133476   1.389   5.694   1.888
10859SOL    HW233477   1.260   5.728   1.982
10860SOL     OW33478   6.029   2.839   1.923
10860SOL    HW133479   6.082   2.826   2.007
10860SOL    HW233480   6.078   2.901   1.862
10861SOL     OW33481   1.907   3.685   1.433
10861SOL    HW133482   1.865   3.763   1.479
10861SOL    HW233483   1.895   3.695   1.334
10862SOL     OW33484   3.586   4.443   5.377
10862SOL    HW133485   3.572   4.405   5.469
10862SOL    HW233486   3.591   4.368   5.311
10863SOL     OW33487   2.254   0.681   3.353
10863SOL    HW133488   2.171   0.673   3.298
10863SOL    HW233489   2.264   0.600   3.410
10864SOL     OW33490   2.985   3.995   1.836
10864SOL    HW133491   2.906   3.981   1.776
10864SOL    HW233492   3.048   4.060   1.793
10865SOL     OW33493   3.935   1.536   2.515
10865SOL    HW133494   4.014   1.546   2.575
10865SOL    HW233495   3.966   1.526   2.421
10866SOL     OW33496   0.917   3.499   3.924
10866SOL    HW133497   0.992   3.556   3.892
10866SOL    HW233498   0.921   3.490   4.023
10867SOL     OW33499   4.589   2.619   0.022
10867SOL    HW133500   4.500   2.575   0.010
10867SOL    HW233501   4.618   2.660   6.953
10868SOL     OW33502   1.577   6.841   4.922
10868SOL    HW133503   1.484   6.839   4.886
10868SOL    HW233504   1.574   6.835   5.022
10869NA      NA33505   6.861   1.089   6.236
10870NA      NA33506   4.277   4.614   5.291
10871NA      NA33507   1.419   4.817   2.915
10872NA      NA33508   5.579   3.705   2.904
10873NA      NA33509   3.662   2.778   5.548
10874NA      NA33510   2.379   4.891   0.038
10875NA      NA33511   1.847   5.589   6.719
10876NA      NA33512   4.239   4.931   1.512
10877NA      NA33513   5.156   4.595   0.590
10878NA      NA33514   3.537   1.514   0.406
10879NA      NA33515   5.479   6.678   1.723
10880NA      NA33516   2.329   6.607   5.089
10881NA      NA33517   4.424   4.910   2.627
10882NA      NA33518   4.333   4.040   6.603
   7.01710   7.01710   7.01710
