Generated by trjconv : CNT in water t= 222.00000
33518
    1C        C    1   2.842   2.768   4.746
    1C        C    2   2.902   2.722   4.866
    1C        C    3   2.842   2.769   4.984
    1C        C    4   2.851   2.774   4.259
    1C        C    5   2.905   2.727   4.381
    1C        C    6   2.849   2.771   4.502
    1C        C    7   3.012   2.638   4.621
    1C        C    8   2.900   2.724   4.625
    1C        C    9   3.074   2.600   4.742
    1C        C   10   3.008   2.628   4.864
    1C        C   11   3.177   2.489   4.972
    1C        C   12   3.058   2.561   4.976
    1C        C   13   2.850   2.770   3.772
    1C        C   14   2.898   2.719   3.895
    1C        C   15   2.850   2.772   4.016
    1C        C   16   3.018   2.641   4.134
    1C        C   17   2.902   2.721   4.138
    1C        C   18   3.079   2.608   4.257
    1C        C   19   3.020   2.644   4.380
    1C        C   20   3.208   2.547   4.501
    1C        C   21   3.078   2.602   4.501
    1C        C   22   3.278   2.528   4.623
    1C        C   23   3.205   2.546   4.743
    1C        C   24   3.410   2.479   4.865
    1C        C   25   3.268   2.499   4.862
    1C        C   26   3.489   2.486   4.980
    1C        C   27   2.844   2.763   3.281
    1C        C   28   2.896   2.719   3.405
    1C        C   29   2.849   2.770   3.528
    1C        C   30   3.019   2.640   3.646
    1C        C   31   2.905   2.724   3.650
    1C        C   32   3.074   2.601   3.770
    1C        C   33   3.014   2.638   3.892
    1C        C   34   3.209   2.549   4.012
    1C        C   35   3.078   2.601   4.012
    1C        C   36   3.276   2.529   4.135
    1C        C   37   3.208   2.549   4.257
    1C        C   38   3.415   2.503   4.379
    1C        C   39   3.276   2.530   4.379
    1C        C   40   3.484   2.496   4.502
    1C        C   41   3.416   2.500   4.625
    1C        C   42   3.629   2.479   4.743
    1C        C   43   3.487   2.477   4.745
    1C        C   44   3.704   2.481   4.863
    1C        C   45   3.628   2.473   4.980
    1C        C   46   2.830   2.748   2.792
    1C        C   47   2.890   2.712   2.915
    1C        C   48   2.839   2.759   3.038
    1C        C   49   3.012   2.634   3.159
    1C        C   50   2.895   2.713   3.159
    1C        C   51   3.076   2.605   3.281
    1C        C   52   3.012   2.638   3.403
    1C        C   53   3.206   2.546   3.525
    1C        C   54   3.076   2.600   3.523
    1C        C   55   3.272   2.517   3.647
    1C        C   56   3.203   2.542   3.768
    1C        C   57   3.414   2.505   3.891
    1C        C   58   3.275   2.529   3.888
    1C        C   59   3.484   2.495   4.013
    1C        C   60   3.414   2.499   4.136
    1C        C   61   3.627   2.498   4.257
    1C        C   62   3.486   2.494   4.257
    1C        C   63   3.697   2.502   4.380
    1C        C   64   3.625   2.498   4.501
    1C        C   65   3.834   2.541   4.619
    1C        C   66   3.698   2.502   4.622
    1C        C   67   3.903   2.560   4.741
    1C        C   68   3.839   2.524   4.862
    1C        C   69   4.047   2.584   4.976
    1C        C   70   3.919   2.527   4.977
    1C        C   71   2.818   2.729   2.309
    1C        C   72   2.879   2.687   2.429
    1C        C   73   2.831   2.745   2.549
    1C        C   74   3.005   2.625   2.672
    1C        C   75   2.884   2.699   2.671
    1C        C   76   3.070   2.594   2.794
    1C        C   77   3.008   2.634   2.915
    1C        C   78   3.203   2.545   3.037
    1C        C   79   3.073   2.601   3.035
    1C        C   80   3.274   2.528   3.158
    1C        C   81   3.206   2.549   3.280
    1C        C   82   3.412   2.501   3.400
    1C        C   83   3.273   2.527   3.402
    1C        C   84   3.482   2.497   3.522
    1C        C   85   3.412   2.500   3.645
    1C        C   86   3.623   2.500   3.766
    1C        C   87   3.482   2.496   3.767
    1C        C   88   3.692   2.515   3.888
    1C        C   89   3.625   2.503   4.012
    1C        C   90   3.833   2.546   4.133
    1C        C   91   3.696   2.511   4.134
    1C        C   92   3.900   2.566   4.256
    1C        C   93   3.833   2.540   4.377
    1C        C   94   4.025   2.635   4.497
    1C        C   95   3.901   2.569   4.498
    1C        C   96   4.087   2.670   4.620
    1C        C   97   4.030   2.624   4.741
    1C        C   98   4.189   2.765   4.862
    1C        C   99   4.096   2.656   4.862
    1C        C  100   4.216   2.838   4.979
    1C        C  101   2.818   2.731   2.073
    1C        C  102   2.984   2.586   2.193
    1C        C  103   2.872   2.676   2.189
    1C        C  104   3.063   2.573   2.311
    1C        C  105   3.000   2.616   2.430
    1C        C  106   3.197   2.533   2.549
    1C        C  107   3.068   2.590   2.551
    1C        C  108   3.268   2.514   2.670
    1C        C  109   3.200   2.541   2.792
    1C        C  110   3.409   2.500   2.913
    1C        C  111   3.270   2.527   2.914
    1C        C  112   3.482   2.487   3.033
    1C        C  113   3.412   2.500   3.155
    1C        C  114   3.623   2.499   3.277
    1C        C  115   3.482   2.489   3.278
    1C        C  116   3.692   2.509   3.400
    1C        C  117   3.623   2.500   3.524
    1C        C  118   3.834   2.540   3.643
    1C        C  119   3.696   2.510   3.645
    1C        C  120   3.898   2.566   3.766
    1C        C  121   3.830   2.549   3.888
    1C        C  122   4.021   2.640   4.010
    1C        C  123   3.897   2.571   4.010
    1C        C  124   4.082   2.675   4.132
    1C        C  125   4.025   2.633   4.254
    1C        C  126   4.195   2.761   4.376
    1C        C  127   4.086   2.671   4.375
    1C        C  128   4.247   2.813   4.496
    1C        C  129   4.189   2.767   4.617
    1C        C  130   4.323   2.931   4.741
    1C        C  131   4.235   2.820   4.739
    1C        C  132   4.353   3.002   4.859
    1C        C  133   4.282   2.960   4.972
    1C        C  134   3.169   2.467   2.079
    1C        C  135   3.036   2.511   2.083
    1C        C  136   3.258   2.481   2.186
    1C        C  137   3.194   2.519   2.307
    1C        C  138   3.405   2.484   2.426
    1C        C  139   3.265   2.506   2.428
    1C        C  140   3.479   2.491   2.546
    1C        C  141   3.408   2.497   2.669
    1C        C  142   3.620   2.501   2.787
    1C        C  143   3.479   2.493   2.791
    1C        C  144   3.689   2.507   2.910
    1C        C  145   3.623   2.489   3.033
    1C        C  146   3.831   2.537   3.154
    1C        C  147   3.694   2.502   3.155
    1C        C  148   3.897   2.563   3.276
    1C        C  149   3.829   2.544   3.398
    1C        C  150   4.027   2.621   3.521
    1C        C  151   3.897   2.567   3.519
    1C        C  152   4.085   2.663   3.643
    1C        C  153   4.021   2.635   3.766
    1C        C  154   4.193   2.762   3.888
    1C        C  155   4.080   2.677   3.887
    1C        C  156   4.247   2.809   4.009
    1C        C  157   4.197   2.758   4.131
    1C        C  158   4.339   2.917   4.251
    1C        C  159   4.244   2.812   4.253
    1C        C  160   4.373   2.981   4.372
    1C        C  161   4.327   2.929   4.495
    1C        C  162   4.430   3.114   4.616
    1C        C  163   4.361   2.990   4.618
    1C        C  164   4.463   3.183   4.734
    1C        C  165   4.437   3.116   4.856
    1C        C  166   4.519   3.317   4.973
    1C        C  167   4.482   3.183   4.970
    1C        C  168   3.472   2.438   2.069
    1C        C  169   3.397   2.458   2.185
    1C        C  170   3.615   2.469   2.302
    1C        C  171   3.473   2.464   2.304
    1C        C  172   3.689   2.492   2.420
    1C        C  173   3.620   2.493   2.544
    1C        C  174   3.826   2.549   2.664
    1C        C  175   3.690   2.510   2.665
    1C        C  176   3.890   2.565   2.789
    1C        C  177   3.827   2.537   2.912
    1C        C  178   4.023   2.627   3.029
    1C        C  179   3.899   2.560   3.032
    1C        C  180   4.083   2.660   3.152
    1C        C  181   4.025   2.624   3.275
    1C        C  182   4.195   2.747   3.397
    1C        C  183   4.088   2.655   3.398
    1C        C  184   4.243   2.801   3.518
    1C        C  185   4.196   2.750   3.641
    1C        C  186   4.337   2.911   3.762
    1C        C  187   4.245   2.803   3.763
    1C        C  188   4.379   2.973   3.882
    1C        C  189   4.335   2.920   4.005
    1C        C  190   4.442   3.100   4.127
    1C        C  191   4.378   2.974   4.128
    1C        C  192   4.467   3.170   4.248
    1C        C  193   4.437   3.107   4.370
    1C        C  194   4.504   3.309   4.492
    1C        C  195   4.461   3.175   4.492
    1C        C  196   4.521   3.385   4.610
    1C        C  197   4.507   3.318   4.734
    1C        C  198   4.553   3.532   4.850
    1C        C  199   4.530   3.391   4.854
    1C        C  200   4.588   3.617   4.960
    1C        C  201   3.611   2.416   2.071
    1C        C  202   3.824   2.511   2.181
    1C        C  203   3.690   2.461   2.182
    1C        C  204   3.896   2.539   2.300
    1C        C  205   3.827   2.523   2.422
    1C        C  206   4.024   2.614   2.544
    1C        C  207   3.896   2.554   2.541
    1C        C  208   4.085   2.654   2.665
    1C        C  209   4.018   2.624   2.786
    1C        C  210   4.197   2.746   2.906
    1C        C  211   4.083   2.663   2.906
    1C        C  212   4.251   2.789   3.029
    1C        C  213   4.198   2.743   3.151
    1C        C  214   4.330   2.909   3.271
    1C        C  215   4.244   2.797   3.274
    1C        C  216   4.369   2.968   3.393
    1C        C  217   4.330   2.912   3.516
    1C        C  218   4.431   3.098   3.640
    1C        C  219   4.372   2.969   3.639
    1C        C  220   4.457   3.169   3.759
    1C        C  221   4.437   3.102   3.882
    1C        C  222   4.502   3.302   4.003
    1C        C  223   4.469   3.165   4.004
    1C        C  224   4.512   3.376   4.123
    1C        C  225   4.503   3.307   4.246
    1C        C  226   4.510   3.518   4.365
    1C        C  227   4.511   3.377   4.368
    1C        C  228   4.512   3.594   4.484
    1C        C  229   4.526   3.526   4.607
    1C        C  230   4.497   3.738   4.725
    1C        C  231   4.533   3.600   4.727
    1C        C  232   4.488   3.814   4.844
    1C        C  233   4.543   3.750   4.956
    1C        C  234   4.015   2.612   2.061
    1C        C  235   3.897   2.538   2.064
    1C        C  236   4.082   2.647   2.179
    1C        C  237   4.023   2.603   2.299
    1C        C  238   4.200   2.726   2.416
    1C        C  239   4.084   2.644   2.420
    1C        C  240   4.255   2.776   2.537
    1C        C  241   4.200   2.736   2.661
    1C        C  242   4.338   2.899   2.781
    1C        C  243   4.251   2.788   2.782
    1C        C  244   4.375   2.959   2.903
    1C        C  245   4.335   2.903   3.026
    1C        C  246   4.432   3.093   3.149
    1C        C  247   4.372   2.965   3.148
    1C        C  248   4.451   3.162   3.271
    1C        C  249   4.426   3.098   3.394
    1C        C  250   4.492   3.298   3.513
    1C        C  251   4.455   3.162   3.516
    1C        C  252   4.502   3.371   3.633
    1C        C  253   4.493   3.306   3.758
    1C        C  254   4.516   3.514   3.876
    1C        C  255   4.511   3.373   3.881
    1C        C  256   4.508   3.586   3.997
    1C        C  257   4.512   3.518   4.121
    1C        C  258   4.483   3.728   4.241
    1C        C  259   4.509   3.589   4.243
    1C        C  260   4.465   3.801   4.361
    1C        C  261   4.481   3.732   4.484
    1C        C  262   4.414   3.935   4.602
    1C        C  263   4.463   3.803   4.604
    1C        C  264   4.391   4.008   4.721
    1C        C  265   4.428   3.942   4.840
    1C        C  266   4.321   4.132   4.955
    1C        C  267   4.380   4.007   4.955
    1C        C  268   4.266   2.772   2.064
    1C        C  269   4.195   2.732   2.178
    1C        C  270   4.341   2.893   2.299
    1C        C  271   4.251   2.783   2.297
    1C        C  272   4.379   2.955   2.420
    1C        C  273   4.341   2.888   2.538
    1C        C  274   4.442   3.080   2.661
    1C        C  275   4.377   2.955   2.657
    1C        C  276   4.463   3.150   2.782
    1C        C  277   4.441   3.084   2.904
    1C        C  278   4.503   3.289   3.025
    1C        C  279   4.464   3.153   3.025
    1C        C  280   4.507   3.364   3.145
    1C        C  281   4.487   3.299   3.269
    1C        C  282   4.510   3.509   3.387
    1C        C  283   4.496   3.369   3.391
    1C        C  284   4.507   3.581   3.509
    1C        C  285   4.506   3.513   3.633
    1C        C  286   4.487   3.725   3.752
    1C        C  287   4.508   3.585   3.754
    1C        C  288   4.472   3.794   3.874
    1C        C  289   4.486   3.725   3.997
    1C        C  290   4.424   3.930   4.116
    1C        C  291   4.468   3.796   4.118
    1C        C  292   4.393   3.998   4.236
    1C        C  293   4.421   3.935   4.360
    1C        C  294   4.327   4.128   4.476
    1C        C  295   4.390   4.002   4.480
    1C        C  296   4.284   4.191   4.595
    1C        C  297   4.319   4.130   4.718
    1C        C  298   4.202   4.318   4.834
    1C        C  299   4.280   4.198   4.837
    1C        C  300   4.170   4.404   4.944
    1C        C  301   4.351   2.882   2.060
    1C        C  302   4.464   3.069   2.176
    1C        C  303   4.396   2.943   2.178
    1C        C  304   4.479   3.143   2.297
    1C        C  305   4.448   3.078   2.419
    1C        C  306   4.508   3.283   2.538
    1C        C  307   4.472   3.147   2.540
    1C        C  308   4.510   3.357   2.658
    1C        C  309   4.496   3.288   2.780
    1C        C  310   4.519   3.499   2.898
    1C        C  311   4.509   3.358   2.902
    1C        C  312   4.518   3.572   3.019
    1C        C  313   4.513   3.505   3.143
    1C        C  314   4.482   3.716   3.263
    1C        C  315   4.512   3.578   3.264
    1C        C  316   4.463   3.786   3.384
    1C        C  317   4.486   3.721   3.508
    1C        C  318   4.420   3.924   3.626
    1C        C  319   4.469   3.792   3.629
    1C        C  320   4.392   3.988   3.749
    1C        C  321   4.422   3.925   3.872
    1C        C  322   4.314   4.110   3.989
    1C        C  323   4.394   3.993   3.993
    1C        C  324   4.274   4.171   4.110
    1C        C  325   4.320   4.119   4.233
    1C        C  326   4.188   4.287   4.352
    1C        C  327   4.283   4.183   4.353
    1C        C  328   4.135   4.342   4.470
    1C        C  329   4.189   4.295   4.592
    1C        C  330   4.023   4.433   4.712
    1C        C  331   4.139   4.351   4.711
    1C        C  332   3.967   4.488   4.829
    1C        C  333   4.052   4.479   4.941
    1C        C  334   4.550   3.264   2.063
    1C        C  335   4.533   3.125   2.064
    1C        C  336   4.531   3.348   2.173
    1C        C  337   4.513   3.281   2.296
    1C        C  338   4.520   3.496   2.410
    1C        C  339   4.514   3.355   2.416
    1C        C  340   4.519   3.569   2.531
    1C        C  341   4.519   3.498   2.653
    1C        C  342   4.494   3.709   2.774
    1C        C  343   4.514   3.569   2.775
    1C        C  344   4.480   3.779   2.896
    1C        C  345   4.495   3.712   3.019
    1C        C  346   4.423   3.916   3.136
    1C        C  347   4.472   3.783   3.139
    1C        C  348   4.397   3.984   3.257
    1C        C  349   4.423   3.921   3.381
    1C        C  350   4.320   4.107   3.501
    1C        C  351   4.392   3.986   3.502
    1C        C  352   4.278   4.167   3.621
    1C        C  353   4.319   4.109   3.743
    1C        C  354   4.180   4.270   3.864
    1C        C  355   4.273   4.163   3.865
    1C        C  356   4.125   4.317   3.985
    1C        C  357   4.176   4.273   4.109
    1C        C  358   4.011   4.405   4.228
    1C        C  359   4.132   4.331   4.230
    1C        C  360   3.952   4.449   4.348
    1C        C  361   4.019   4.423   4.470
    1C        C  362   3.825   4.514   4.592
    1C        C  363   3.957   4.462   4.590
    1C        C  364   3.758   4.547   4.712
    1C        C  365   3.836   4.540   4.829
    1C        C  366   3.629   4.596   4.944
    1C        C  367   3.766   4.569   4.947
    1C        C  368   4.511   3.562   2.050
    1C        C  369   4.519   3.489   2.169
    1C        C  370   4.505   3.706   2.286
    1C        C  371   4.520   3.566   2.288
    1C        C  372   4.485   3.777   2.407
    1C        C  373   4.497   3.708   2.530
    1C        C  374   4.428   3.910   2.648
    1C        C  375   4.474   3.777   2.652
    1C        C  376   4.397   3.974   2.770
    1C        C  377   4.426   3.909   2.892
    1C        C  378   4.320   4.098   3.009
    1C        C  379   4.392   3.976   3.012
    1C        C  380   4.279   4.159   3.130
    1C        C  381   4.318   4.101   3.253
    1C        C  382   4.181   4.261   3.375
    1C        C  383   4.277   4.157   3.376
    1C        C  384   4.126   4.310   3.495
    1C        C  385   4.178   4.267   3.619
    1C        C  386   4.010   4.397   3.740
    1C        C  387   4.127   4.316   3.741
    1C        C  388   3.947   4.432   3.861
    1C        C  389   4.007   4.395   3.983
    1C        C  390   3.817   4.488   4.105
    1C        C  391   3.946   4.431   4.106
    1C        C  392   3.750   4.513   4.227
    1C        C  393   3.820   4.500   4.349
    1C        C  394   3.615   4.551   4.471
    1C        C  395   3.754   4.526   4.471
    1C        C  396   3.544   4.561   4.593
    1C        C  397   3.618   4.562   4.713
    1C        C  398   3.407   4.549   4.838
    1C        C  399   3.545   4.580   4.833
    1C        C  400   3.336   4.511   4.953
    1C        C  401   4.501   3.700   2.049
    1C        C  402   4.462   3.917   2.166
    1C        C  403   4.491   3.779   2.165
    1C        C  404   4.421   3.981   2.285
    1C        C  405   4.442   3.911   2.406
    1C        C  406   4.332   4.098   2.523
    1C        C  407   4.402   3.975   2.525
    1C        C  408   4.283   4.151   2.644
    1C        C  409   4.321   4.093   2.767
    1C        C  410   4.179   4.255   2.884
    1C        C  411   4.276   4.153   2.887
    1C        C  412   4.128   4.302   3.007
    1C        C  413   4.181   4.260   3.131
    1C        C  414   4.005   4.381   3.251
    1C        C  415   4.125   4.306   3.253
    1C        C  416   3.945   4.416   3.374
    1C        C  417   4.006   4.385   3.497
    1C        C  418   3.815   4.481   3.616
    1C        C  419   3.944   4.423   3.618
    1C        C  420   3.746   4.500   3.737
    1C        C  421   3.815   4.485   3.859
    1C        C  422   3.611   4.533   3.983
    1C        C  423   3.751   4.511   3.982
    1C        C  424   3.543   4.541   4.106
    1C        C  425   3.611   4.536   4.230
    1C        C  426   3.400   4.541   4.352
    1C        C  427   3.541   4.553   4.351
    1C        C  428   3.331   4.534   4.476
    1C        C  429   3.403   4.549   4.596
    1C        C  430   3.193   4.516   4.719
    1C        C  431   3.333   4.539   4.719
    1C        C  432   3.120   4.498   4.840
    1C        C  433   3.198   4.492   4.956
    1C        C  434   4.387   4.121   2.052
    1C        C  435   4.452   3.996   2.051
    1C        C  436   4.304   4.162   2.161
    1C        C  437   4.340   4.098   2.283
    1C        C  438   4.181   4.246   2.399
    1C        C  439   4.288   4.154   2.401
    1C        C  440   4.125   4.294   2.519
    1C        C  441   4.181   4.249   2.641
    1C        C  442   4.008   4.379   2.762
    1C        C  443   4.123   4.296   2.761
    1C        C  444   3.947   4.411   2.886
    1C        C  445   4.008   4.376   3.008
    1C        C  446   3.813   4.468   3.127
    1C        C  447   3.944   4.414   3.128
    1C        C  448   3.747   4.491   3.250
    1C        C  449   3.814   4.471   3.372
    1C        C  450   3.608   4.521   3.493
    1C        C  451   3.747   4.499   3.493
    1C        C  452   3.539   4.536   3.616
    1C        C  453   3.608   4.530   3.740
    1C        C  454   3.397   4.536   3.862
    1C        C  455   3.538   4.539   3.862
    1C        C  456   3.331   4.530   3.987
    1C        C  457   3.402   4.538   4.108
    1C        C  458   3.194   4.494   4.233
    1C        C  459   3.330   4.533   4.230
    1C        C  460   3.127   4.475   4.356
    1C        C  461   3.194   4.502   4.477
    1C        C  462   2.993   4.434   4.600
    1C        C  463   3.123   4.488   4.599
    1C        C  464   2.928   4.402   4.721
    1C        C  465   2.988   4.444   4.842
    1C        C  466   2.802   4.335   4.957
    1C        C  467   2.908   4.427   4.960
    1C        C  468   4.124   4.287   2.038
    1C        C  469   4.191   4.251   2.155
    1C        C  470   4.006   4.364   2.276
    1C        C  471   4.126   4.288   2.275
    1C        C  472   3.939   4.398   2.396
    1C        C  473   4.006   4.370   2.517
    1C        C  474   3.812   4.455   2.640
    1C        C  475   3.946   4.410   2.639
    1C        C  476   3.746   4.482   2.762
    1C        C  477   3.815   4.462   2.883
    1C        C  478   3.607   4.510   3.005
    1C        C  479   3.746   4.484   3.004
    1C        C  480   3.535   4.520   3.127
    1C        C  481   3.607   4.514   3.248
    1C        C  482   3.396   4.520   3.374
    1C        C  483   3.537   4.524   3.371
    1C        C  484   3.327   4.513   3.497
    1C        C  485   3.398   4.533   3.618
    1C        C  486   3.189   4.495   3.743
    1C        C  487   3.326   4.529   3.740
    1C        C  488   3.128   4.468   3.867
    1C        C  489   3.195   4.490   3.989
    1C        C  490   3.000   4.407   4.114
    1C        C  491   3.127   4.468   4.111
    1C        C  492   2.939   4.378   4.238
    1C        C  493   2.997   4.419   4.359
    1C        C  494   2.816   4.308   4.480
    1C        C  495   2.930   4.391   4.481
    1C        C  496   2.767   4.258   4.603
    1C        C  497   2.816   4.314   4.724
    1C        C  498   2.662   4.164   4.846
    1C        C  499   2.752   4.272   4.843
    1C        C  500   2.593   4.117   4.959
    1C        C  501   3.999   4.348   2.039
    1C        C  502   3.814   4.462   2.155
    1C        C  503   3.939   4.396   2.156
    1C        C  504   3.742   4.484   2.275
    1C        C  505   3.808   4.451   2.395
    1C        C  506   3.605   4.507   2.518
    1C        C  507   3.742   4.471   2.518
    1C        C  508   3.535   4.514   2.641
    1C        C  509   3.607   4.507   2.762
    1C        C  510   3.395   4.517   2.885
    1C        C  511   3.536   4.519   2.884
    1C        C  512   3.322   4.513   3.006
    1C        C  513   3.394   4.523   3.128
    1C        C  514   3.188   4.490   3.254
    1C        C  515   3.326   4.520   3.251
    1C        C  516   3.122   4.460   3.375
    1C        C  517   3.189   4.483   3.498
    1C        C  518   2.996   4.404   3.623
    1C        C  519   3.122   4.468   3.621
    1C        C  520   2.938   4.368   3.746
    1C        C  521   3.001   4.404   3.868
    1C        C  522   2.833   4.280   3.996
    1C        C  523   2.940   4.371   3.991
    1C        C  524   2.784   4.231   4.119
    1C        C  525   2.827   4.292   4.239
    1C        C  526   2.683   4.137   4.365
    1C        C  527   2.770   4.248   4.361
    1C        C  528   2.640   4.084   4.488
    1C        C  529   2.679   4.148   4.608
    1C        C  530   2.583   3.958   4.731
    1C        C  531   2.632   4.092   4.728
    1C        C  532   2.539   3.900   4.853
    1C        C  533   2.523   3.996   4.958
    1C        C  534   3.614   4.552   2.039
    1C        C  535   3.749   4.514   2.043
    1C        C  536   3.531   4.532   2.154
    1C        C  537   3.603   4.512   2.275
    1C        C  538   3.391   4.512   2.399
    1C        C  539   3.532   4.517   2.397
    1C        C  540   3.321   4.503   2.521
    1C        C  541   3.394   4.508   2.642
    1C        C  542   3.184   4.477   2.764
    1C        C  543   3.323   4.504   2.764
    1C        C  544   3.118   4.455   2.887
    1C        C  545   3.185   4.479   3.009
    1C        C  546   2.996   4.395   3.134
    1C        C  547   3.120   4.463   3.133
    1C        C  548   2.936   4.359   3.257
    1C        C  549   2.995   4.399   3.379
    1C        C  550   2.824   4.276   3.503
    1C        C  551   2.933   4.366   3.502
    1C        C  552   2.775   4.231   3.628
    1C        C  553   2.825   4.283   3.749
    1C        C  554   2.693   4.123   3.873
    1C        C  555   2.777   4.237   3.873
    1C        C  556   2.655   4.065   3.996
    1C        C  557   2.693   4.123   4.119
    1C        C  558   2.591   3.944   4.244
    1C        C  559   2.649   4.073   4.243
    1C        C  560   2.567   3.882   4.368
    1C        C  561   2.586   3.953   4.488
    1C        C  562   2.532   3.749   4.613
    1C        C  563   2.565   3.886   4.611
    1C        C  564   2.516   3.680   4.736
    1C        C  565   2.524   3.758   4.854
    1C        C  566   2.539   3.544   4.976
    1C        C  567   2.523   3.682   4.972
    1C        C  568   3.326   4.474   2.038
    1C        C  569   3.391   4.507   2.157
    1C        C  570   3.180   4.467   2.280
    1C        C  571   3.318   4.500   2.279
    1C        C  572   3.111   4.455   2.403
    1C        C  573   3.181   4.482   2.522
    1C        C  574   2.987   4.400   2.645
    1C        C  575   3.111   4.468   2.644
    1C        C  576   2.928   4.360   2.766
    1C        C  577   2.990   4.394   2.888
    1C        C  578   2.823   4.270   3.014
    1C        C  579   2.934   4.358   3.013
    1C        C  580   2.770   4.224   3.137
    1C        C  581   2.824   4.273   3.257
    1C        C  582   2.688   4.115   3.383
    1C        C  583   2.774   4.227   3.381
    1C        C  584   2.653   4.057   3.507
    1C        C  585   2.687   4.121   3.629
    1C        C  586   2.588   3.937   3.753
    1C        C  587   2.649   4.064   3.753
    1C        C  588   2.562   3.873   3.877
    1C        C  589   2.593   3.938   3.998
    1C        C  590   2.537   3.737   4.126
    1C        C  591   2.571   3.874   4.123
    1C        C  592   2.521   3.672   4.250
    1C        C  593   2.529   3.746   4.371
    1C        C  594   2.514   3.535   4.496
    1C        C  595   2.517   3.676   4.493
    1C        C  596   2.526   3.464   4.618
    1C        C  597   2.523   3.538   4.738
    1C        C  598   2.543   3.326   4.862
    1C        C  599   2.533   3.467   4.859
    1C        C  600   2.541   3.248   4.979
    1C        C  601   3.196   4.429   2.046
    1C        C  602   2.978   4.388   2.158
    1C        C  603   3.113   4.438   2.158
    1C        C  604   2.922   4.349   2.283
    1C        C  605   2.986   4.389   2.403
    1C        C  606   2.813   4.271   2.527
    1C        C  607   2.923   4.359   2.525
    1C        C  608   2.765   4.220   2.650
    1C        C  609   2.816   4.273   2.770
    1C        C  610   2.677   4.114   2.893
    1C        C  611   2.768   4.222   2.893
    1C        C  612   2.644   4.052   3.016
    1C        C  613   2.682   4.113   3.138
    1C        C  614   2.583   3.929   3.263
    1C        C  615   2.647   4.056   3.262
    1C        C  616   2.558   3.866   3.387
    1C        C  617   2.592   3.930   3.508
    1C        C  618   2.530   3.731   3.637
    1C        C  619   2.566   3.867   3.632
    1C        C  620   2.519   3.664   3.761
    1C        C  621   2.528   3.736   3.882
    1C        C  622   2.508   3.527   4.010
    1C        C  623   2.516   3.668   4.005
    1C        C  624   2.511   3.456   4.133
    1C        C  625   2.510   3.531   4.252
    1C        C  626   2.542   3.323   4.378
    1C        C  627   2.520   3.462   4.375
    1C        C  628   2.557   3.251   4.499
    1C        C  629   2.546   3.324   4.619
    1C        C  630   2.600   3.118   4.740
    1C        C  631   2.560   3.255   4.741
    1C        C  632   2.621   3.048   4.862
    1C        C  633   2.560   3.109   4.976
    1C        C  634   2.775   4.304   2.050
    1C        C  635   2.884   4.392   2.051
    1C        C  636   2.741   4.229   2.163
    1C        C  637   2.804   4.270   2.283
    1C        C  638   2.674   4.108   2.408
    1C        C  639   2.755   4.224   2.407
    1C        C  640   2.635   4.048   2.529
    1C        C  641   2.679   4.108   2.649
    1C        C  642   2.576   3.925   2.776
    1C        C  643   2.638   4.052   2.772
    1C        C  644   2.554   3.857   2.898
    1C        C  645   2.583   3.925   3.018
    1C        C  646   2.522   3.724   3.147
    1C        C  647   2.560   3.861   3.142
    1C        C  648   2.508   3.656   3.270
    1C        C  649   2.524   3.728   3.391
    1C        C  650   2.512   3.520   3.518
    1C        C  651   2.518   3.661   3.515
    1C        C  652   2.518   3.451   3.641
    1C        C  653   2.515   3.523   3.763
    1C        C  654   2.540   3.318   3.888
    1C        C  655   2.515   3.457   3.888
    1C        C  656   2.554   3.251   4.011
    1C        C  657   2.538   3.317   4.135
    1C        C  658   2.606   3.117   4.255
    1C        C  659   2.559   3.250   4.258
    1C        C  660   2.636   3.054   4.377
    1C        C  661   2.605   3.118   4.499
    1C        C  662   2.708   2.931   4.621
    1C        C  663   2.634   3.052   4.620
    1C        C  664   2.752   2.878   4.744
    1C        C  665   2.702   2.930   4.866
    1C        C  666   2.737   2.859   4.982
    1C        C  667   2.676   4.022   2.051
    1C        C  668   2.675   4.104   2.164
    1C        C  669   2.588   3.911   2.289
    1C        C  670   2.644   4.042   2.287
    1C        C  671   2.555   3.849   2.412
    1C        C  672   2.574   3.920   2.532
    1C        C  673   2.517   3.719   2.656
    1C        C  674   2.554   3.855   2.656
    1C        C  675   2.507   3.650   2.779
    1C        C  676   2.526   3.718   2.901
    1C        C  677   2.513   3.512   3.029
    1C        C  678   2.514   3.653   3.026
    1C        C  679   2.510   3.442   3.151
    1C        C  680   2.504   3.515   3.272
    1C        C  681   2.531   3.308   3.398
    1C        C  682   2.511   3.448   3.396
    1C        C  683   2.549   3.240   3.521
    1C        C  684   2.535   3.311   3.642
    1C        C  685   2.604   3.115   3.770
    1C        C  686   2.555   3.247   3.767
    1C        C  687   2.639   3.052   3.891
    1C        C  688   2.606   3.120   4.011
    1C        C  689   2.713   2.935   4.135
    1C        C  690   2.636   3.053   4.132
    1C        C  691   2.756   2.878   4.257
    1C        C  692   2.714   2.936   4.379
    1C        C  693   2.755   2.876   4.500
    1C        C  694   2.627   3.890   2.053
    1C        C  695   2.526   3.704   2.171
    1C        C  696   2.572   3.837   2.170
    1C        C  697   2.501   3.640   2.295
    1C        C  698   2.513   3.714   2.415
    1C        C  699   2.493   3.503   2.539
    1C        C  700   2.502   3.644   2.537
    1C        C  701   2.504   3.436   2.663
    1C        C  702   2.501   3.509   2.784
    1C        C  703   2.524   3.300   2.909
    1C        C  704   2.506   3.440   2.907
    1C        C  705   2.541   3.232   3.032
    1C        C  706   2.532   3.302   3.154
    1C        C  707   2.598   3.104   3.276
    1C        C  708   2.551   3.237   3.278
    1C        C  709   2.629   3.042   3.400
    1C        C  710   2.603   3.109   3.521
    1C        C  711   2.707   2.930   3.649
    1C        C  712   2.635   3.052   3.647
    1C        C  713   2.751   2.871   3.769
    1C        C  714   2.714   2.932   3.890
    1C        C  715   2.756   2.878   4.013
    1C        C  716   2.449   3.499   2.061
    1C        C  717   2.482   3.635   2.057
    1C        C  718   2.465   3.423   2.181
    1C        C  719   2.478   3.500   2.299
    1C        C  720   2.510   3.288   2.422
    1C        C  721   2.487   3.427   2.420
    1C        C  722   2.533   3.222   2.545
    1C        C  723   2.524   3.296   2.664
    1C        C  724   2.592   3.097   2.789
    1C        C  725   2.541   3.229   2.788
    1C        C  726   2.623   3.033   2.911
    1C        C  727   2.591   3.099   3.032
    1C        C  728   2.704   2.921   3.159
    1C        C  729   2.624   3.038   3.154
    1C        C  730   2.750   2.868   3.281
    1C        C  731   2.709   2.926   3.404
    1C        C  732   2.755   2.875   3.527
    1C        C  733   2.493   3.196   2.070
    1C        C  734   2.484   3.281   2.181
    1C        C  735   2.572   3.082   2.307
    1C        C  736   2.519   3.214   2.301
    1C        C  737   2.598   3.013   2.428
    1C        C  738   2.575   3.087   2.546
    1C        C  739   2.692   2.909   2.668
    1C        C  740   2.616   3.028   2.668
    1C        C  741   2.737   2.854   2.791
    1C        C  742   2.697   2.913   2.913
    1C        C  743   2.743   2.862   3.036
    1C        C  744   2.545   3.067   2.074
    1C        C  745   2.681   2.894   2.188
    1C        C  746   2.602   3.011   2.189
    1C        C  747   2.721   2.833   2.309
    1C        C  748   2.679   2.898   2.428
    1C        C  749   2.731   2.845   2.548
    1C        C  750   2.726   2.835   2.069
    1C        C  751   3.652   2.306   1.981
    1C        O  752   3.745   2.226   2.011
    1C        O  753   3.573   2.248   1.881
    1C        C  754   4.645   3.051   2.000
    1C        O  755   4.632   3.006   1.883
    1C        O  756   4.737   2.966   2.062
    1C        C  757   4.458   4.226   1.976
    1C        O  758   4.563   4.282   2.017
    1C        O  759   4.410   4.270   1.852
    1C        C  760   3.587   4.661   1.943
    1C        O  761   3.606   4.781   1.978
    1C        O  762   3.623   4.636   1.810
    1C        C  763   2.873   4.511   1.963
    1C        O  764   2.902   4.507   1.840
    1C        O  765   2.821   4.631   2.013
    1C        C  766   2.346   3.466   1.959
    1C        O  767   2.379   3.436   1.841
    1C        O  768   2.212   3.506   1.962
    1C        C  769   4.717   3.607   5.032
    1C        O  770   4.746   3.597   5.154
    1C        O  771   4.832   3.641   4.960
    1C        C  772   4.273   4.456   5.036
    1C        O  773   4.293   4.406   5.150
    1C        O  774   4.393   4.503   4.981
    1C        C  775   4.143   2.525   5.071
    1C        O  776   4.260   2.498   5.035
    1C        O  777   4.143   2.574   5.203
    1C        C  778   2.874   4.556   5.025
    1C        O  779   2.849   4.666   4.968
    1C        O  780   2.856   4.566   5.164
    1C        C  781   2.502   3.028   5.085
    1C        O  782   2.385   2.983   5.078
    1C        O  783   2.551   3.020   5.215
    1C        C  784   2.408   4.006   5.050
    1C        O  785   2.295   4.025   4.997
    1C        O  786   2.405   3.949   5.178
    1C        C  787   2.953   2.433   1.989
    1C        O  788   2.979   2.430   1.865
    1C        O  789   2.879   2.322   2.027
    1C        C  790   3.173   2.359   5.043
    1C        O  791   3.220   2.256   4.989
    1C        O  792   3.067   2.334   5.131
    1C        H  793   4.272   3.030   5.053
    1C        H  794   4.221   2.783   5.070
    1C        H  795   4.479   3.131   5.063
    1C        H  796   4.546   3.363   5.066
    1C        H  797   4.535   3.799   5.051
    1C        H  798   4.415   3.970   5.049
    1C        H  799   4.363   4.203   5.023
    1C        H  800   4.040   4.550   5.020
    1C        H  801   3.820   4.605   5.032
    1C        H  802   3.605   4.673   5.014
    1C        H  803   3.388   4.471   5.038
    1C        H  804   3.154   4.509   5.052
    1C        H  805   3.886   2.490   5.071
    1C        H  806   3.674   2.430   5.067
    1C        H  807   2.998   2.558   5.065
    1C        H  808   3.435   2.488   5.072
    1C        H  809   2.886   2.747   5.079
    1C        H  810   2.656   2.834   5.048
    1C        H  811   2.546   3.296   5.074
    1C        H  812   2.578   3.501   5.066
    1C        H  813   2.473   3.734   5.051
    1C        H  814   2.622   4.151   5.056
    1C        H  815   2.776   4.294   5.053
    1C        H  816   2.720   2.890   1.977
    1C        H  817   2.873   2.724   1.981
    1C        H  818   3.199   2.408   1.995
    1C        H  819   3.429   2.456   1.973
    1C        H  820   3.884   2.468   1.984
    1C        H  821   4.031   2.664   1.969
    1C        H  822   4.283   2.702   1.985
    1C        H  823   4.337   2.951   1.980
    1C        H  824   4.579   3.304   1.968
    1C        H  825   4.494   3.510   1.958
    1C        H  826   4.545   3.748   1.964
    1C        H  827   3.804   4.520   1.951
    1C        H  828   3.933   4.340   1.955
    1C        H  829   4.159   4.262   1.940
    1C        H  830   4.505   3.971   1.962
    1C        H  831   2.662   3.822   1.978
    1C        H  832   2.684   4.065   1.953
    1C        H  833   2.695   4.318   1.980
    1C        H  834   3.342   4.535   1.951
    1C        H  835   3.161   4.364   1.968
    1C        H  836   2.516   2.999   1.996
    1C        H  837   2.437   3.218   1.982
    1C        H  838   2.459   3.685   1.965
    2V3OU   H29  839   2.807   3.551   1.982
    2V3OU   C27  840   2.785   3.500   2.078
    2V3OU   H27  841   2.726   3.561   2.151
    2V3OU   H28  842   2.735   3.401   2.065
    2V3OU   O11  843   2.910   3.475   2.145
    2V3OU   C15  844   2.924   3.392   2.254
    2V3OU   C13  845   3.054   3.368   2.305
    2V3OU   C14  846   3.079   3.266   2.397
    2V3OU   C16  847   2.977   3.190   2.454
    2V3OU    H6  848   2.995   3.105   2.521
    2V3OU   C12  849   3.211   3.231   2.453
    2V3OU    O2  850   3.235   3.130   2.522
    2V3OU   C10  851   3.325   3.305   2.395
    2V3OU    C8  852   3.456   3.269   2.425
    2V3OU   O10  853   3.487   3.157   2.495
    2V3OU   H26  854   3.407   3.109   2.522
    2V3OU    C6  855   3.564   3.349   2.379
    2V3OU    C5  856   3.536   3.467   2.311
    2V3OU    C4  857   3.702   3.294   2.363
    2V3OU    H4  858   3.725   3.228   2.452
    2V3OU    H5  859   3.716   3.228   2.273
    2V3OU    C2  860   3.816   3.396   2.372
    2V3OU    O6  861   3.800   3.471   2.492
    2V3OU   H21  862   3.761   3.553   2.458
    2V3OU    C3  863   3.780   3.498   2.263
    2V3OU    H2  864   3.867   3.568   2.258
    2V3OU    H3  865   3.779   3.438   2.169
    2V3OU   C25  866   3.951   3.327   2.354
    2V3OU    O7  867   3.999   3.301   2.243
    2V3OU   C26  868   4.029   3.289   2.479
    2V3OU   H22  869   4.066   3.384   2.526
    2V3OU   H23  870   4.111   3.218   2.452
    2V3OU    O8  871   3.964   3.211   2.576
    2V3OU   H24  872   3.921   3.267   2.643
    2V3OU    C1  873   3.645   3.566   2.279
    2V3OU    H1  874   3.622   3.622   2.184
    2V3OU    O3  875   3.661   3.650   2.393
    2V3OU   C19  876   3.619   3.786   2.383
    2V3OU    H9  877   3.516   3.800   2.338
    2V3OU    O4  878   3.710   3.847   2.293
    2V3OU   C20  879   3.842   3.873   2.341
    2V3OU   H10  880   3.892   3.773   2.359
    2V3OU   C24  881   3.610   3.857   2.518
    2V3OU   H16  882   3.548   3.792   2.584
    2V3OU   H17  883   3.566   3.958   2.496
    2V3OU   C23  884   3.751   3.875   2.575
    2V3OU   H15  885   3.796   3.772   2.592
    2V3OU    N1  886   3.731   3.949   2.697
    2V3OU   H19  887   3.804   3.921   2.760
    2V3OU   H20  888   3.647   3.928   2.747
    2V3OU   C21  889   3.841   3.951   2.472
    2V3OU   H11  890   3.947   3.936   2.508
    2V3OU    O5  891   3.824   4.092   2.471
    2V3OU   H18  892   3.772   4.109   2.551
    2V3OU   C22  893   3.911   3.946   2.227
    2V3OU   H12  894   3.863   4.044   2.204
    2V3OU   H13  895   3.910   3.881   2.136
    2V3OU   H14  896   4.017   3.968   2.256
    2V3OU   C11  897   3.161   3.469   2.297
    2V3OU    O1  898   3.135   3.583   2.252
    2V3OU    C9  899   3.299   3.422   2.319
    2V3OU    C7  900   3.402   3.505   2.276
    2V3OU    O9  901   3.385   3.617   2.198
    2V3OU   H25  902   3.290   3.628   2.177
    2V3OU   C17  903   2.824   3.311   2.312
    2V3OU    H7  904   2.723   3.340   2.282
    2V3OU   C18  905   2.848   3.214   2.408
    2V3OU    H8  906   2.770   3.162   2.465
    3SOL     OW  907   2.954   5.118   0.709
    3SOL    HW1  908   3.001   5.067   0.781
    3SOL    HW2  909   2.991   5.211   0.704
    4SOL     OW  910   6.977   6.446   2.013
    4SOL    HW1  911   6.994   6.509   1.937
    4SOL    HW2  912   0.044   6.411   2.047
    5SOL     OW  913   4.332   1.374   2.827
    5SOL    HW1  914   4.417   1.363   2.878
    5SOL    HW2  915   4.303   1.286   2.791
    6SOL     OW  916   4.093   1.075   0.868
    6SOL    HW1  917   4.101   0.986   0.824
    6SOL    HW2  918   4.040   1.066   0.953
    7SOL     OW  919   6.868   3.402   2.260
    7SOL    HW1  920   6.771   3.388   2.241
    7SOL    HW2  921   6.917   3.316   2.243
    8SOL     OW  922   2.839   0.194   6.881
    8SOL    HW1  923   2.758   0.219   6.828
    8SOL    HW2  924   2.811   0.141   6.961
    9SOL     OW  925   6.200   6.721   6.402
    9SOL    HW1  926   6.203   6.622   6.387
    9SOL    HW2  927   6.224   6.741   6.497
   10SOL     OW  928   1.722   5.353   6.418
   10SOL    HW1  929   1.722   5.365   6.318
   10SOL    HW2  930   1.743   5.258   6.440
   11SOL     OW  931   2.815   0.201   6.003
   11SOL    HW1  932   2.842   0.277   5.944
   11SOL    HW2  933   2.888   0.132   6.004
   12SOL     OW  934   3.923   6.109   3.010
   12SOL    HW1  935   3.964   6.135   3.097
   12SOL    HW2  936   3.847   6.171   2.988
   13SOL     OW  937   4.373   5.754   3.745
   13SOL    HW1  938   4.278   5.781   3.731
   13SOL    HW2  939   4.432   5.834   3.737
   14SOL     OW  940   3.673   5.861   6.064
   14SOL    HW1  941   3.610   5.906   6.001
   14SOL    HW2  942   3.622   5.824   6.142
   15SOL     OW  943   2.048   6.551   1.700
   15SOL    HW1  944   2.145   6.574   1.697
   15SOL    HW2  945   2.037   6.460   1.741
   16SOL     OW  946   5.098   2.860   5.603
   16SOL    HW1  947   5.176   2.836   5.660
   16SOL    HW2  948   5.016   2.865   5.660
   17SOL     OW  949   5.413   5.309   5.667
   17SOL    HW1  950   5.404   5.265   5.578
   17SOL    HW2  951   5.322   5.325   5.706
   18SOL     OW  952   3.143   0.733   6.005
   18SOL    HW1  953   3.117   0.663   5.938
   18SOL    HW2  954   3.238   0.761   5.989
   19SOL     OW  955   0.514   0.381   3.315
   19SOL    HW1  956   0.597   0.389   3.370
   19SOL    HW2  957   0.477   0.472   3.298
   20SOL     OW  958   5.420   2.480   4.928
   20SOL    HW1  959   5.466   2.394   4.952
   20SOL    HW2  960   5.479   2.534   4.869
   21SOL     OW  961   4.091   2.177   2.470
   21SOL    HW1  962   4.167   2.119   2.497
   21SOL    HW2  963   4.030   2.125   2.409
   22SOL     OW  964   1.716   6.136   0.499
   22SOL    HW1  965   1.694   6.157   0.595
   22SOL    HW2  966   1.680   6.046   0.476
   23SOL     OW  967   5.672   6.272   3.420
   23SOL    HW1  968   5.737   6.199   3.442
   23SOL    HW2  969   5.627   6.303   3.504
   24SOL     OW  970   4.563   1.366   3.414
   24SOL    HW1  971   4.560   1.345   3.512
   24SOL    HW2  972   4.473   1.350   3.374
   25SOL     OW  973   3.118   0.346   4.911
   25SOL    HW1  974   3.077   0.254   4.910
   25SOL    HW2  975   3.103   0.388   5.001
   26SOL     OW  976   6.483   0.925   0.482
   26SOL    HW1  977   6.517   1.018   0.466
   26SOL    HW2  978   6.384   0.927   0.490
   27SOL     OW  979   0.969   2.238   2.331
   27SOL    HW1  980   0.987   2.212   2.425
   27SOL    HW2  981   0.951   2.156   2.276
   28SOL     OW  982   2.945   2.026   5.700
   28SOL    HW1  983   2.956   2.124   5.682
   28SOL    HW2  984   2.960   1.975   5.616
   29SOL     OW  985   5.043   2.128   1.991
   29SOL    HW1  986   5.000   2.054   2.042
   29SOL    HW2  987   5.131   2.097   1.954
   30SOL     OW  988   3.576   1.068   4.630
   30SOL    HW1  989   3.590   1.165   4.651
   30SOL    HW2  990   3.658   1.016   4.655
   31SOL     OW  991   1.381   2.520   6.433
   31SOL    HW1  992   1.347   2.602   6.478
   31SOL    HW2  993   1.480   2.526   6.421
   32SOL     OW  994   0.376   1.561   2.705
   32SOL    HW1  995   0.392   1.588   2.610
   32SOL    HW2  996   0.321   1.478   2.707
   33SOL     OW  997   2.039   4.379   6.298
   33SOL    HW1  998   2.013   4.283   6.311
   33SOL    HW2  999   2.042   4.399   6.200
   34SOL     OW 1000   2.632   0.922   4.033
   34SOL    HW1 1001   2.718   0.957   3.997
   34SOL    HW2 1002   2.648   0.876   4.120
   35SOL     OW 1003   3.201   3.678   6.961
   35SOL    HW1 1004   3.287   3.726   6.943
   35SOL    HW2 1005   3.126   3.725   6.914
   36SOL     OW 1006   6.194   0.994   4.796
   36SOL    HW1 1007   6.235   0.999   4.887
   36SOL    HW2 1008   6.267   0.986   4.727
   37SOL     OW 1009   0.777   1.589   0.637
   37SOL    HW1 1010   0.689   1.635   0.650
   37SOL    HW2 1011   0.767   1.518   0.567
   38SOL     OW 1012   6.777   4.416   2.588
   38SOL    HW1 1013   6.844   4.416   2.513
   38SOL    HW2 1014   6.823   4.395   2.674
   39SOL     OW 1015   0.030   4.821   6.900
   39SOL    HW1 1016   0.082   4.905   6.916
   39SOL    HW2 1017   0.023   4.770   6.986
   40SOL     OW 1018   5.335   1.492   0.440
   40SOL    HW1 1019   5.405   1.557   0.466
   40SOL    HW2 1020   5.360   1.400   0.472
   41SOL     OW 1021   0.066   5.843   3.824
   41SOL    HW1 1022   6.991   5.811   3.832
   41SOL    HW2 1023   0.091   5.891   3.908
   42SOL     OW 1024   3.016   5.243   5.302
   42SOL    HW1 1025   3.105   5.284   5.281
   42SOL    HW2 1026   2.961   5.308   5.355
   43SOL     OW 1027   6.242   6.392   5.319
   43SOL    HW1 1028   6.147   6.375   5.346
   43SOL    HW2 1029   6.278   6.470   5.371
   44SOL     OW 1030   4.986   1.964   6.279
   44SOL    HW1 1031   5.049   1.964   6.357
   44SOL    HW2 1032   4.988   1.875   6.234
   45SOL     OW 1033   4.374   5.998   2.939
   45SOL    HW1 1034   4.323   6.071   2.986
   45SOL    HW2 1035   4.419   5.940   3.006
   46SOL     OW 1036   0.948   3.249   3.329
   46SOL    HW1 1037   0.864   3.257   3.275
   46SOL    HW2 1038   1.027   3.239   3.268
   47SOL     OW 1039   4.779   4.395   0.514
   47SOL    HW1 1040   4.737   4.359   0.597
   47SOL    HW2 1041   4.836   4.474   0.537
   48SOL     OW 1042   6.952   2.926   5.910
   48SOL    HW1 1043   7.016   2.983   5.858
   48SOL    HW2 1044   6.993   2.835   5.924
   49SOL     OW 1045   5.324   4.154   1.475
   49SOL    HW1 1046   5.410   4.127   1.518
   49SOL    HW2 1047   5.339   4.170   1.377
   50SOL     OW 1048   5.258   0.755   4.647
   50SOL    HW1 1049   5.274   0.842   4.694
   50SOL    HW2 1050   5.176   0.712   4.685
   51SOL     OW 1051   2.506   6.910   3.100
   51SOL    HW1 1052   2.563   6.963   3.037
   51SOL    HW2 1053   2.419   6.957   3.113
   52SOL     OW 1054   6.118   2.224   3.005
   52SOL    HW1 1055   6.145   2.172   2.924
   52SOL    HW2 1056   6.129   2.167   3.086
   53SOL     OW 1057   3.473   6.495   4.268
   53SOL    HW1 1058   3.508   6.555   4.339
   53SOL    HW2 1059   3.383   6.461   4.294
   54SOL     OW 1060   3.523   5.175   0.906
   54SOL    HW1 1061   3.601   5.206   0.959
   54SOL    HW2 1062   3.466   5.114   0.961
   55SOL     OW 1063   2.768   2.526   6.551
   55SOL    HW1 1064   2.690   2.481   6.508
   55SOL    HW2 1065   2.842   2.536   6.484
   56SOL     OW 1066   0.137   6.988   1.010
   56SOL    HW1 1067   0.225   7.014   0.972
   56SOL    HW2 1068   0.144   6.981   1.110
   57SOL     OW 1069   5.200   1.266   0.785
   57SOL    HW1 1070   5.188   1.170   0.759
   57SOL    HW2 1071   5.225   1.272   0.882
   58SOL     OW 1072   6.554   6.516   5.721
   58SOL    HW1 1073   6.644   6.472   5.727
   58SOL    HW2 1074   6.486   6.457   5.764
   59SOL     OW 1075   1.080   1.719   5.101
   59SOL    HW1 1076   1.048   1.692   5.192
   59SOL    HW2 1077   1.138   1.647   5.064
   60SOL     OW 1078   5.377   2.118   5.549
   60SOL    HW1 1079   5.456   2.169   5.580
   60SOL    HW2 1080   5.293   2.169   5.572
   61SOL     OW 1081   5.584   2.249   4.892
   61SOL    HW1 1082   5.606   2.201   4.977
   61SOL    HW2 1083   5.668   2.270   4.843
   62SOL     OW 1084   0.883   1.104   1.747
   62SOL    HW1 1085   0.855   1.146   1.661
   62SOL    HW2 1086   0.807   1.107   1.811
   63SOL     OW 1087   4.847   1.296   3.389
   63SOL    HW1 1088   4.877   1.268   3.480
   63SOL    HW2 1089   4.749   1.320   3.391
   64SOL     OW 1090   6.742   3.452   5.646
   64SOL    HW1 1091   6.658   3.419   5.691
   64SOL    HW2 1092   6.815   3.459   5.714
   65SOL     OW 1093   0.388   5.243   6.621
   65SOL    HW1 1094   0.347   5.169   6.567
   65SOL    HW2 1095   0.412   5.319   6.560
   66SOL     OW 1096   3.979   1.157   5.621
   66SOL    HW1 1097   3.964   1.112   5.533
   66SOL    HW2 1098   4.054   1.112   5.670
   67SOL     OW 1099   5.264   4.118   5.845
   67SOL    HW1 1100   5.214   4.205   5.844
   67SOL    HW2 1101   5.361   4.136   5.831
   68SOL     OW 1102   5.831   1.297   6.696
   68SOL    HW1 1103   5.856   1.307   6.792
   68SOL    HW2 1104   5.910   1.318   6.638
   69SOL     OW 1105   0.673   3.282   5.840
   69SOL    HW1 1106   0.676   3.382   5.850
   69SOL    HW2 1107   0.597   3.245   5.894
   70SOL     OW 1108   5.483   3.619   4.925
   70SOL    HW1 1109   5.551   3.670   4.873
   70SOL    HW2 1110   5.471   3.528   4.885
   71SOL     OW 1111   4.610   1.650   3.183
   71SOL    HW1 1112   4.536   1.584   3.174
   71SOL    HW2 1113   4.573   1.738   3.211
   72SOL     OW 1114   1.894   6.364   4.258
   72SOL    HW1 1115   1.949   6.316   4.190
   72SOL    HW2 1116   1.802   6.379   4.222
   73SOL     OW 1117   3.795   0.726   1.336
   73SOL    HW1 1118   3.761   0.819   1.354
   73SOL    HW2 1119   3.848   0.725   1.251
   74SOL     OW 1120   4.948   6.850   0.127
   74SOL    HW1 1121   4.961   6.897   0.040
   74SOL    HW2 1122   4.851   6.827   0.137
   75SOL     OW 1123   4.311   0.586   0.786
   75SOL    HW1 1124   4.372   0.660   0.812
   75SOL    HW2 1125   4.362   0.518   0.733
   76SOL     OW 1126   3.332   3.113   1.007
   76SOL    HW1 1127   3.332   3.022   1.048
   76SOL    HW2 1128   3.423   3.154   1.016
   77SOL     OW 1129   7.011   6.884   3.213
   77SOL    HW1 1130   6.911   6.889   3.215
   77SOL    HW2 1131   0.023   6.876   3.119
   78SOL     OW 1132   5.897   1.734   0.040
   78SOL    HW1 1133   5.814   1.784   0.013
   78SOL    HW2 1134   5.974   1.766   7.004
   79SOL     OW 1135   3.466   6.112   0.905
   79SOL    HW1 1136   3.553   6.159   0.886
   79SOL    HW2 1137   3.393   6.180   0.912
   80SOL     OW 1138   5.329   1.101   4.450
   80SOL    HW1 1139   5.287   1.017   4.416
   80SOL    HW2 1140   5.259   1.159   4.491
   81SOL     OW 1141   1.886   6.972   2.558
   81SOL    HW1 1142   1.797   6.996   2.597
   81SOL    HW2 1143   1.958   6.997   2.621
   82SOL     OW 1144   6.174   4.732   1.162
   82SOL    HW1 1145   6.174   4.811   1.102
   82SOL    HW2 1146   6.243   4.666   1.131
   83SOL     OW 1147   0.520   0.832   6.781
   83SOL    HW1 1148   0.525   0.842   6.880
   83SOL    HW2 1149   0.611   0.810   6.745
   84SOL     OW 1150   6.117   2.633   3.240
   84SOL    HW1 1151   6.209   2.661   3.268
   84SOL    HW2 1152   6.115   2.534   3.227
   85SOL     OW 1153   1.608   0.924   4.026
   85SOL    HW1 1154   1.562   0.875   4.100
   85SOL    HW2 1155   1.603   1.022   4.041
   86SOL     OW 1156   6.929   1.093   5.058
   86SOL    HW1 1157   6.900   1.149   4.981
   86SOL    HW2 1158   6.895   1.133   5.143
   87SOL     OW 1159   4.685   3.697   0.792
   87SOL    HW1 1160   4.616   3.659   0.730
   87SOL    HW2 1161   4.760   3.633   0.802
   88SOL     OW 1162   3.527   1.730   5.175
   88SOL    HW1 1163   3.607   1.745   5.117
   88SOL    HW2 1164   3.544   1.769   5.266
   89SOL     OW 1165   1.208   2.590   5.739
   89SOL    HW1 1166   1.232   2.593   5.836
   89SOL    HW2 1167   1.120   2.635   5.725
   90SOL     OW 1168   3.474   4.913   2.437
   90SOL    HW1 1169   3.463   5.010   2.415
   90SOL    HW2 1170   3.385   4.869   2.445
   91SOL     OW 1171   5.331   4.208   5.312
   91SOL    HW1 1172   5.238   4.216   5.348
   91SOL    HW2 1173   5.370   4.120   5.341
   92SOL     OW 1174   3.915   4.916   0.664
   92SOL    HW1 1175   3.861   4.888   0.585
   92SOL    HW2 1176   3.982   4.845   0.686
   93SOL     OW 1177   3.333   4.266   6.933
   93SOL    HW1 1178   3.349   4.186   6.875
   93SOL    HW2 1179   3.268   4.327   6.889
   94SOL     OW 1180   2.065   5.901   6.590
   94SOL    HW1 1181   2.138   5.840   6.560
   94SOL    HW2 1182   2.014   5.858   6.664
   95SOL     OW 1183   1.417   0.303   3.926
   95SOL    HW1 1184   1.488   0.336   3.987
   95SOL    HW2 1185   1.342   0.369   3.922
   96SOL     OW 1186   3.141   0.474   5.236
   96SOL    HW1 1187   3.089   0.443   5.316
   96SOL    HW2 1188   3.156   0.572   5.241
   97SOL     OW 1189   2.449   3.753   6.020
   97SOL    HW1 1190   2.483   3.668   5.979
   97SOL    HW2 1191   2.378   3.792   5.961
   98SOL     OW 1192   0.176   3.613   0.883
   98SOL    HW1 1193   0.156   3.516   0.874
   98SOL    HW2 1194   0.162   3.659   0.796
   99SOL     OW 1195   3.642   2.872   1.004
   99SOL    HW1 1196   3.731   2.848   1.043
   99SOL    HW2 1197   3.572   2.810   1.041
  100SOL     OW 1198   6.773   0.127   4.692
  100SOL    HW1 1199   6.838   0.145   4.766
  100SOL    HW2 1200   6.713   0.051   4.718
  101SOL     OW 1201   1.486   5.038   1.870
  101SOL    HW1 1202   1.543   4.980   1.812
  101SOL    HW2 1203   1.520   5.036   1.964
  102SOL     OW 1204   3.963   5.754   2.332
  102SOL    HW1 1205   3.937   5.690   2.404
  102SOL    HW2 1206   4.041   5.717   2.282
  103SOL     OW 1207   2.155   1.661   1.846
  103SOL    HW1 1208   2.219   1.682   1.920
  103SOL    HW2 1209   2.062   1.661   1.882
  104SOL     OW 1210   0.933   5.416   2.482
  104SOL    HW1 1211   0.913   5.460   2.395
  104SOL    HW2 1212   1.014   5.459   2.524
  105SOL     OW 1213   6.667   2.413   6.363
  105SOL    HW1 1214   6.652   2.419   6.461
  105SOL    HW2 1215   6.646   2.500   6.319
  106SOL     OW 1216   3.534   6.310   4.957
  106SOL    HW1 1217   3.586   6.395   4.963
  106SOL    HW2 1218   3.512   6.291   4.862
  107SOL     OW 1219   1.558   1.389   1.755
  107SOL    HW1 1220   1.561   1.411   1.853
  107SOL    HW2 1221   1.465   1.406   1.720
  108SOL     OW 1222   2.811   5.970   5.486
  108SOL    HW1 1223   2.877   6.032   5.444
  108SOL    HW2 1224   2.752   6.021   5.549
  109SOL     OW 1225   0.183   6.921   1.914
  109SOL    HW1 1226   0.094   6.879   1.899
  109SOL    HW2 1227   0.228   6.938   1.826
  110SOL     OW 1228   3.312   6.038   4.569
  110SOL    HW1 1229   3.224   5.994   4.550
  110SOL    HW2 1230   3.381   5.968   4.586
  111SOL     OW 1231   2.068   0.999   4.344
  111SOL    HW1 1232   2.005   1.075   4.360
  111SOL    HW2 1233   2.067   0.937   4.422
  112SOL     OW 1234   3.575   6.563   6.749
  112SOL    HW1 1235   3.548   6.602   6.837
  112SOL    HW2 1236   3.512   6.592   6.678
  113SOL     OW 1237   0.205   5.462   3.489
  113SOL    HW1 1238   0.302   5.449   3.469
  113SOL    HW2 1239   0.193   5.546   3.542
  114SOL     OW 1240   0.952   0.029   2.287
  114SOL    HW1 1241   0.931   0.028   2.384
  114SOL    HW2 1242   0.949   6.956   2.251
  115SOL     OW 1243   4.610   1.877   2.768
  115SOL    HW1 1244   4.696   1.826   2.769
  115SOL    HW2 1245   4.540   1.824   2.815
  116SOL     OW 1246   5.958   5.444   1.734
  116SOL    HW1 1247   5.983   5.348   1.722
  116SOL    HW2 1248   5.929   5.460   1.828
  117SOL     OW 1249   1.991   2.114   0.557
  117SOL    HW1 1250   1.891   2.112   0.554
  117SOL    HW2 1251   2.026   2.109   0.463
  118SOL     OW 1252   1.824   0.922   2.509
  118SOL    HW1 1253   1.729   0.931   2.536
  118SOL    HW2 1254   1.841   0.830   2.474
  119SOL     OW 1255   0.817   0.369   6.959
  119SOL    HW1 1256   0.887   0.345   6.892
  119SOL    HW2 1257   0.733   0.319   6.937
  120SOL     OW 1258   5.528   6.736   6.797
  120SOL    HW1 1259   5.493   6.816   6.846
  120SOL    HW2 1260   5.570   6.765   6.711
  121SOL     OW 1261   1.037   3.467   5.989
  121SOL    HW1 1262   0.957   3.515   5.954
  121SOL    HW2 1263   1.092   3.434   5.912
  122SOL     OW 1264   1.878   3.565   5.635
  122SOL    HW1 1265   1.820   3.504   5.689
  122SOL    HW2 1266   1.898   3.521   5.547
  123SOL     OW 1267   0.840   1.146   2.898
  123SOL    HW1 1268   0.934   1.172   2.878
  123SOL    HW2 1269   0.798   1.108   2.815
  124SOL     OW 1270   3.484   2.816   0.479
  124SOL    HW1 1271   3.498   2.741   0.544
  124SOL    HW2 1272   3.397   2.803   0.431
  125SOL     OW 1273   2.982   1.795   0.468
  125SOL    HW1 1274   3.071   1.837   0.488
  125SOL    HW2 1275   2.935   1.847   0.397
  126SOL     OW 1276   1.937   4.397   0.726
  126SOL    HW1 1277   1.978   4.475   0.773
  126SOL    HW2 1278   2.009   4.335   0.695
  127SOL     OW 1279   0.723   5.370   0.170
  127SOL    HW1 1280   0.661   5.444   0.195
  127SOL    HW2 1281   0.734   5.368   0.070
  128SOL     OW 1282   5.468   2.164   1.307
  128SOL    HW1 1283   5.407   2.156   1.387
  128SOL    HW2 1284   5.516   2.252   1.311
  129SOL     OW 1285   2.075   3.243   6.336
  129SOL    HW1 1286   2.020   3.310   6.387
  129SOL    HW2 1287   2.097   3.280   6.246
  130SOL     OW 1288   1.440   2.173   4.514
  130SOL    HW1 1289   1.460   2.111   4.438
  130SOL    HW2 1290   1.398   2.121   4.588
  131SOL     OW 1291   5.091   1.217   3.170
  131SOL    HW1 1292   5.108   1.224   3.268
  131SOL    HW2 1293   5.077   1.121   3.145
  132SOL     OW 1294   2.901   3.089   1.467
  132SOL    HW1 1295   2.957   3.171   1.456
  132SOL    HW2 1296   2.914   3.053   1.560
  133SOL     OW 1297   5.086   0.220   4.572
  133SOL    HW1 1298   5.012   0.281   4.543
  133SOL    HW2 1299   5.107   0.156   4.498
  134SOL     OW 1300   6.506   0.577   2.262
  134SOL    HW1 1301   6.438   0.650   2.267
  134SOL    HW2 1302   6.575   0.590   2.334
  135SOL     OW 1303   5.490   3.469   3.416
  135SOL    HW1 1304   5.446   3.558   3.402
  135SOL    HW2 1305   5.421   3.397   3.413
  136SOL     OW 1306   2.585   4.430   5.888
  136SOL    HW1 1307   2.682   4.437   5.911
  136SOL    HW2 1308   2.575   4.389   5.797
  137SOL     OW 1309   5.810   2.384   3.474
  137SOL    HW1 1310   5.814   2.392   3.374
  137SOL    HW2 1311   5.832   2.290   3.500
  138SOL     OW 1312   1.406   4.638   2.340
  138SOL    HW1 1313   1.404   4.694   2.257
  138SOL    HW2 1314   1.483   4.574   2.335
  139SOL     OW 1315   1.715   0.048   4.952
  139SOL    HW1 1316   1.678   7.008   5.023
  139SOL    HW2 1317   1.658   0.130   4.945
  140SOL     OW 1318   1.566   6.119   3.278
  140SOL    HW1 1319   1.632   6.046   3.260
  140SOL    HW2 1320   1.560   6.134   3.376
  141SOL     OW 1321   0.370   2.328   5.312
  141SOL    HW1 1322   0.462   2.331   5.273
  141SOL    HW2 1323   0.332   2.237   5.302
  142SOL     OW 1324   1.236   3.512   1.253
  142SOL    HW1 1325   1.144   3.473   1.257
  142SOL    HW2 1326   1.294   3.454   1.196
  143SOL     OW 1327   6.123   4.371   0.563
  143SOL    HW1 1328   6.076   4.292   0.602
  143SOL    HW2 1329   6.055   4.437   0.530
  144SOL     OW 1330   1.543   4.836   5.937
  144SOL    HW1 1331   1.626   4.889   5.919
  144SOL    HW2 1332   1.567   4.746   5.972
  145SOL     OW 1333   0.088   5.525   0.449
  145SOL    HW1 1334   0.082   5.618   0.485
  145SOL    HW2 1335   0.088   5.460   0.526
  146SOL     OW 1336   4.837   0.354   6.108
  146SOL    HW1 1337   4.850   0.396   6.018
  146SOL    HW2 1338   4.826   0.255   6.098
  147SOL     OW 1339   5.686   3.547   6.987
  147SOL    HW1 1340   5.685   3.460   0.016
  147SOL    HW2 1341   5.777   3.564   6.950
  148SOL     OW 1342   6.775   5.600   0.271
  148SOL    HW1 1343   6.783   5.530   0.200
  148SOL    HW2 1344   6.732   5.561   0.352
  149SOL     OW 1345   3.703   2.145   4.055
  149SOL    HW1 1346   3.671   2.051   4.069
  149SOL    HW2 1347   3.706   2.165   3.957
  150SOL     OW 1348   5.814   6.734   0.775
  150SOL    HW1 1349   5.840   6.638   0.787
  150SOL    HW2 1350   5.833   6.763   0.681
  151SOL     OW 1351   3.101   2.708   1.019
  151SOL    HW1 1352   3.070   2.616   0.992
  151SOL    HW2 1353   3.032   2.775   0.994
  152SOL     OW 1354   0.549   0.886   1.693
  152SOL    HW1 1355   0.614   0.935   1.750
  152SOL    HW2 1356   0.480   0.950   1.659
  153SOL     OW 1357   2.783   1.270   2.642
  153SOL    HW1 1358   2.692   1.285   2.602
  153SOL    HW2 1359   2.844   1.344   2.616
  154SOL     OW 1360   0.301   2.759   2.009
  154SOL    HW1 1361   0.282   2.841   1.955
  154SOL    HW2 1362   0.293   2.678   1.951
  155SOL     OW 1363   0.471   1.458   3.726
  155SOL    HW1 1364   0.506   1.539   3.680
  155SOL    HW2 1365   0.387   1.481   3.775
  156SOL     OW 1366   6.591   1.618   0.412
  156SOL    HW1 1367   6.652   1.693   0.434
  156SOL    HW2 1368   6.513   1.618   0.475
  157SOL     OW 1369   5.424   3.712   2.046
  157SOL    HW1 1370   5.503   3.716   2.106
  157SOL    HW2 1371   5.350   3.660   2.090
  158SOL     OW 1372   2.130   4.481   2.576
  158SOL    HW1 1373   2.204   4.539   2.544
  158SOL    HW2 1374   2.146   4.387   2.546
  159SOL     OW 1375   4.767   4.185   2.433
  159SOL    HW1 1376   4.831   4.231   2.495
  159SOL    HW2 1377   4.675   4.219   2.450
  160SOL     OW 1378   5.260   5.595   0.947
  160SOL    HW1 1379   5.262   5.572   1.044
  160SOL    HW2 1380   5.330   5.664   0.928
  161SOL     OW 1381   1.713   6.080   3.938
  161SOL    HW1 1382   1.706   5.980   3.938
  161SOL    HW2 1383   1.801   6.107   3.900
  162SOL     OW 1384   3.608   6.110   0.222
  162SOL    HW1 1385   3.688   6.169   0.224
  162SOL    HW2 1386   3.584   6.084   0.316
  163SOL     OW 1387   5.993   5.607   0.747
  163SOL    HW1 1388   5.931   5.533   0.722
  163SOL    HW2 1389   5.944   5.675   0.801
  164SOL     OW 1390   0.151   4.348   1.715
  164SOL    HW1 1391   0.072   4.297   1.749
  164SOL    HW2 1392   0.222   4.349   1.786
  165SOL     OW 1393   4.996   3.344   1.484
  165SOL    HW1 1394   5.065   3.404   1.442
  165SOL    HW2 1395   4.972   3.271   1.420
  166SOL     OW 1396   0.715   4.044   2.660
  166SOL    HW1 1397   0.669   4.040   2.749
  166SOL    HW2 1398   0.785   3.973   2.656
  167SOL     OW 1399   5.160   3.070   6.948
  167SOL    HW1 1400   5.256   3.095   6.963
  167SOL    HW2 1401   5.137   2.991   7.005
  168SOL     OW 1402   3.092   3.349   1.358
  168SOL    HW1 1403   3.143   3.268   1.327
  168SOL    HW2 1404   3.007   3.357   1.306
  169SOL     OW 1405   5.257   2.036   1.859
  169SOL    HW1 1406   5.240   1.977   1.780
  169SOL    HW2 1407   5.340   2.007   1.905
  170SOL     OW 1408   0.985   0.517   2.672
  170SOL    HW1 1409   1.057   0.553   2.612
  170SOL    HW2 1410   0.902   0.500   2.619
  171SOL     OW 1411   3.028   4.900   6.469
  171SOL    HW1 1412   2.985   4.913   6.379
  171SOL    HW2 1413   2.970   4.840   6.525
  172SOL     OW 1414   6.603   1.407   3.033
  172SOL    HW1 1415   6.693   1.417   2.991
  172SOL    HW2 1416   6.536   1.461   2.981
  173SOL     OW 1417   5.571   1.447   4.333
  173SOL    HW1 1418   5.548   1.540   4.361
  173SOL    HW2 1419   5.597   1.447   4.236
  174SOL     OW 1420   3.845   5.055   3.643
  174SOL    HW1 1421   3.908   5.016   3.710
  174SOL    HW2 1422   3.843   5.154   3.652
  175SOL     OW 1423   3.050   0.414   1.961
  175SOL    HW1 1424   3.118   0.400   1.889
  175SOL    HW2 1425   3.081   0.372   2.046
  176SOL     OW 1426   0.650   4.445   0.784
  176SOL    HW1 1427   0.727   4.495   0.746
  176SOL    HW2 1428   0.564   4.488   0.755
  177SOL     OW 1429   5.182   2.485   2.699
  177SOL    HW1 1430   5.265   2.488   2.643
  177SOL    HW2 1431   5.104   2.513   2.643
  178SOL     OW 1432   2.248   2.901   6.247
  178SOL    HW1 1433   2.158   2.936   6.270
  178SOL    HW2 1434   2.278   2.938   6.159
  179SOL     OW 1435   3.736   1.598   5.475
  179SOL    HW1 1436   3.671   1.557   5.539
  179SOL    HW2 1437   3.743   1.540   5.394
  180SOL     OW 1438   2.148   6.776   0.095
  180SOL    HW1 1439   2.200   6.830   0.161
  180SOL    HW2 1440   2.053   6.808   0.093
  181SOL     OW 1441   3.242   3.369   6.216
  181SOL    HW1 1442   3.339   3.389   6.227
  181SOL    HW2 1443   3.196   3.374   6.305
  182SOL     OW 1444   3.360   1.931   5.566
  182SOL    HW1 1445   3.343   1.950   5.663
  182SOL    HW2 1446   3.312   1.999   5.510
  183SOL     OW 1447   4.026   2.238   3.490
  183SOL    HW1 1448   3.970   2.246   3.407
  183SOL    HW2 1449   4.121   2.259   3.467
  184SOL     OW 1450   1.001   6.611   4.671
  184SOL    HW1 1451   1.094   6.630   4.639
  184SOL    HW2 1452   0.997   6.621   4.770
  185SOL     OW 1453   0.875   1.088   6.118
  185SOL    HW1 1454   0.788   1.046   6.094
  185SOL    HW2 1455   0.946   1.053   6.057
  186SOL     OW 1456   5.686   0.246   4.111
  186SOL    HW1 1457   5.702   0.330   4.060
  186SOL    HW2 1458   5.629   0.265   4.191
  187SOL     OW 1459   4.806   0.124   2.459
  187SOL    HW1 1460   4.817   0.205   2.401
  187SOL    HW2 1461   4.878   0.122   2.528
  188SOL     OW 1462   0.737   2.027   3.543
  188SOL    HW1 1463   0.815   2.063   3.492
  188SOL    HW2 1464   0.671   1.989   3.478
  189SOL     OW 1465   2.309   5.265   1.626
  189SOL    HW1 1466   2.339   5.284   1.719
  189SOL    HW2 1467   2.209   5.258   1.624
  190SOL     OW 1468   5.123   2.483   4.624
  190SOL    HW1 1469   5.115   2.411   4.693
  190SOL    HW2 1470   5.046   2.546   4.633
  191SOL     OW 1471   5.579   0.276   7.020
  191SOL    HW1 1472   5.525   0.219   6.958
  191SOL    HW2 1473   5.564   0.247   0.094
  192SOL     OW 1474   1.280   5.350   1.628
  192SOL    HW1 1475   1.217   5.410   1.580
  192SOL    HW2 1476   1.236   5.262   1.647
  193SOL     OW 1477   4.360   3.663   5.295
  193SOL    HW1 1478   4.330   3.757   5.311
  193SOL    HW2 1479   4.459   3.657   5.308
  194SOL     OW 1480   4.040   0.859   3.058
  194SOL    HW1 1481   4.131   0.857   3.016
  194SOL    HW2 1482   4.000   0.768   3.054
  195SOL     OW 1483   1.835   0.360   5.315
  195SOL    HW1 1484   1.781   0.440   5.289
  195SOL    HW2 1485   1.812   0.284   5.254
  196SOL     OW 1486   2.327   0.730   0.897
  196SOL    HW1 1487   2.289   0.656   0.953
  196SOL    HW2 1488   2.417   0.755   0.931
  197SOL     OW 1489   2.869   0.391   1.343
  197SOL    HW1 1490   2.785   0.405   1.291
  197SOL    HW2 1491   2.899   0.478   1.382
  198SOL     OW 1492   4.999   0.739   1.561
  198SOL    HW1 1493   4.925   0.750   1.494
  198SOL    HW2 1494   5.069   0.679   1.524
  199SOL     OW 1495   6.868   1.216   3.947
  199SOL    HW1 1496   6.823   1.284   4.005
  199SOL    HW2 1497   6.910   1.262   3.868
  200SOL     OW 1498   1.039   4.099   1.824
  200SOL    HW1 1499   1.118   4.161   1.825
  200SOL    HW2 1500   1.025   4.065   1.731
  201SOL     OW 1501   6.491   6.944   5.679
  201SOL    HW1 1502   6.489   7.016   5.748
  201SOL    HW2 1503   6.445   6.862   5.714
  202SOL     OW 1504   4.756   1.318   6.705
  202SOL    HW1 1505   4.771   1.400   6.759
  202SOL    HW2 1506   4.718   1.246   6.763
  203SOL     OW 1507   5.397   2.237   5.261
  203SOL    HW1 1508   5.352   2.305   5.203
  203SOL    HW2 1509   5.409   2.275   5.353
  204SOL     OW 1510   0.459   0.614   5.613
  204SOL    HW1 1511   0.406   0.598   5.530
  204SOL    HW2 1512   0.551   0.645   5.588
  205SOL     OW 1513   0.776   1.656   2.498
  205SOL    HW1 1514   0.839   1.578   2.500
  205SOL    HW2 1515   0.713   1.646   2.421
  206SOL     OW 1516   0.551   4.360   1.024
  206SOL    HW1 1517   0.588   4.392   0.937
  206SOL    HW2 1518   0.453   4.382   1.029
  207SOL     OW 1519   6.030   1.570   3.339
  207SOL    HW1 1520   5.947   1.534   3.298
  207SOL    HW2 1521   6.008   1.612   3.427
  208SOL     OW 1522   6.167   3.158   4.715
  208SOL    HW1 1523   6.209   3.214   4.787
  208SOL    HW2 1524   6.217   3.170   4.630
  209SOL     OW 1525   0.592   4.794   3.700
  209SOL    HW1 1526   0.561   4.875   3.650
  209SOL    HW2 1527   0.686   4.772   3.673
  210SOL     OW 1528   4.152   2.464   0.756
  210SOL    HW1 1529   4.076   2.438   0.697
  210SOL    HW2 1530   4.122   2.463   0.851
  211SOL     OW 1531   1.837   6.128   2.830
  211SOL    HW1 1532   1.921   6.097   2.788
  211SOL    HW2 1533   1.850   6.135   2.929
  212SOL     OW 1534   1.356   3.937   1.824
  212SOL    HW1 1535   1.281   3.886   1.867
  212SOL    HW2 1536   1.420   3.966   1.895
  213SOL     OW 1537   3.050   0.820   0.570
  213SOL    HW1 1538   3.008   0.814   0.479
  213SOL    HW2 1539   3.057   0.916   0.597
  214SOL     OW 1540   4.405   4.632   1.598
  214SOL    HW1 1541   4.370   4.599   1.685
  214SOL    HW2 1542   4.397   4.732   1.594
  215SOL     OW 1543   2.523   4.050   0.694
  215SOL    HW1 1544   2.613   4.019   0.724
  215SOL    HW2 1545   2.504   4.014   0.603
  216SOL     OW 1546   1.975   6.141   3.878
  216SOL    HW1 1547   2.032   6.192   3.943
  216SOL    HW2 1548   1.986   6.043   3.894
  217SOL     OW 1549   0.818   2.190   3.923
  217SOL    HW1 1550   0.784   2.101   3.953
  217SOL    HW2 1551   0.755   2.262   3.953
  218SOL     OW 1552   0.155   3.705   4.171
  218SOL    HW1 1553   0.227   3.639   4.193
  218SOL    HW2 1554   0.065   3.663   4.186
  219SOL     OW 1555   4.462   7.000   6.492
  219SOL    HW1 1556   4.370   7.011   6.454
  219SOL    HW2 1557   4.456   6.979   6.589
  220SOL     OW 1558   2.872   0.125   1.269
  220SOL    HW1 1559   2.850   0.134   1.172
  220SOL    HW2 1560   2.899   0.214   1.306
  221SOL     OW 1561   0.020   3.363   0.919
  221SOL    HW1 1562   0.115   3.335   0.909
  221SOL    HW2 1563   6.991   3.296   0.975
  222SOL     OW 1564   1.866   5.086   5.593
  222SOL    HW1 1565   1.891   4.995   5.560
  222SOL    HW2 1566   1.799   5.126   5.531
  223SOL     OW 1567   6.166   3.159   6.713
  223SOL    HW1 1568   6.074   3.128   6.688
  223SOL    HW2 1569   6.220   3.173   6.630
  224SOL     OW 1570   1.871   1.309   4.683
  224SOL    HW1 1571   1.842   1.402   4.659
  224SOL    HW2 1572   1.847   1.291   4.778
  225SOL     OW 1573   4.182   3.691   6.188
  225SOL    HW1 1574   4.271   3.675   6.146
  225SOL    HW2 1575   4.152   3.785   6.168
  226SOL     OW 1576   2.117   1.395   5.794
  226SOL    HW1 1577   2.161   1.411   5.706
  226SOL    HW2 1578   2.186   1.376   5.863
  227SOL     OW 1579   1.724   4.006   2.268
  227SOL    HW1 1580   1.744   4.065   2.346
  227SOL    HW2 1581   1.793   3.933   2.264
  228SOL     OW 1582   2.954   6.620   3.661
  228SOL    HW1 1583   2.896   6.699   3.638
  228SOL    HW2 1584   3.020   6.605   3.588
  229SOL     OW 1585   6.097   6.247   0.054
  229SOL    HW1 1586   6.000   6.270   0.048
  229SOL    HW2 1587   6.142   6.309   0.119
  230SOL     OW 1588   3.325   5.208   3.888
  230SOL    HW1 1589   3.255   5.139   3.912
  230SOL    HW2 1590   3.296   5.297   3.923
  231SOL     OW 1591   6.254   2.107   5.755
  231SOL    HW1 1592   6.277   2.200   5.724
  231SOL    HW2 1593   6.338   2.053   5.762
  232SOL     OW 1594   0.910   3.359   6.573
  232SOL    HW1 1595   0.840   3.300   6.533
  232SOL    HW2 1596   0.868   3.444   6.606
  233SOL     OW 1597   3.171   1.697   2.791
  233SOL    HW1 1598   3.211   1.606   2.787
  233SOL    HW2 1599   3.097   1.698   2.859
  234SOL     OW 1600   5.209   0.648   5.371
  234SOL    HW1 1601   5.209   0.611   5.464
  234SOL    HW2 1602   5.116   0.675   5.346
  235SOL     OW 1603   3.288   2.470   1.484
  235SOL    HW1 1604   3.319   2.434   1.572
  235SOL    HW2 1605   3.365   2.513   1.437
  236SOL     OW 1606   5.195   3.130   6.312
  236SOL    HW1 1607   5.194   3.035   6.282
  236SOL    HW2 1608   5.215   3.190   6.235
  237SOL     OW 1609   6.066   4.494   1.587
  237SOL    HW1 1610   6.098   4.500   1.681
  237SOL    HW2 1611   6.144   4.478   1.526
  238SOL     OW 1612   4.796   2.440   0.461
  238SOL    HW1 1613   4.724   2.419   0.526
  238SOL    HW2 1614   4.756   2.464   0.373
  239SOL     OW 1615   0.705   5.334   6.914
  239SOL    HW1 1616   0.706   5.410   6.850
  239SOL    HW2 1617   0.628   5.273   6.893
  240SOL     OW 1618   7.013   2.526   3.421
  240SOL    HW1 1619   0.075   2.579   3.399
  240SOL    HW2 1620   6.963   2.505   3.337
  241SOL     OW 1621   2.570   1.314   5.407
  241SOL    HW1 1622   2.537   1.405   5.381
  241SOL    HW2 1623   2.515   1.244   5.362
  242SOL     OW 1624   3.505   3.272   4.628
  242SOL    HW1 1625   3.461   3.280   4.539
  242SOL    HW2 1626   3.593   3.319   4.627
  243SOL     OW 1627   4.184   0.752   5.686
  243SOL    HW1 1628   4.212   0.733   5.780
  243SOL    HW2 1629   4.219   0.842   5.658
  244SOL     OW 1630   6.092   2.960   4.933
  244SOL    HW1 1631   6.016   2.967   4.998
  244SOL    HW2 1632   6.068   3.009   4.849
  245SOL     OW 1633   5.724   3.838   3.958
  245SOL    HW1 1634   5.822   3.819   3.959
  245SOL    HW2 1635   5.699   3.877   3.869
  246SOL     OW 1636   4.580   2.691   3.572
  246SOL    HW1 1637   4.504   2.649   3.622
  246SOL    HW2 1638   4.556   2.696   3.474
  247SOL     OW 1639   3.189   1.794   1.571
  247SOL    HW1 1640   3.141   1.717   1.529
  247SOL    HW2 1641   3.133   1.877   1.562
  248SOL     OW 1642   3.597   1.494   2.492
  248SOL    HW1 1643   3.691   1.517   2.517
  248SOL    HW2 1644   3.576   1.402   2.524
  249SOL     OW 1645   4.283   0.619   4.926
  249SOL    HW1 1646   4.212   0.665   4.872
  249SOL    HW2 1647   4.263   0.632   5.024
  250SOL     OW 1648   4.947   2.586   0.998
  250SOL    HW1 1649   4.924   2.489   0.992
  250SOL    HW2 1650   4.986   2.606   1.088
  251SOL     OW 1651   4.267   4.197   5.750
  251SOL    HW1 1652   4.298   4.216   5.656
  251SOL    HW2 1653   4.169   4.180   5.750
  252SOL     OW 1654   6.497   6.106   0.119
  252SOL    HW1 1655   6.425   6.046   0.153
  252SOL    HW2 1656   6.559   6.129   0.194
  253SOL     OW 1657   2.658   5.548   6.632
  253SOL    HW1 1658   2.682   5.645   6.620
  253SOL    HW2 1659   2.612   5.536   6.720
  254SOL     OW 1660   5.432   2.953   3.678
  254SOL    HW1 1661   5.348   2.907   3.650
  254SOL    HW2 1662   5.424   2.981   3.773
  255SOL     OW 1663   1.595   3.316   4.934
  255SOL    HW1 1664   1.661   3.341   4.863
  255SOL    HW2 1665   1.540   3.396   4.959
  256SOL     OW 1666   6.324   3.875   6.153
  256SOL    HW1 1667   6.367   3.909   6.070
  256SOL    HW2 1668   6.388   3.816   6.202
  257SOL     OW 1669   4.552   6.995   3.370
  257SOL    HW1 1670   4.642   7.009   3.412
  257SOL    HW2 1671   4.483   6.984   3.441
  258SOL     OW 1672   2.137   5.103   4.732
  258SOL    HW1 1673   2.202   5.034   4.700
  258SOL    HW2 1674   2.106   5.079   4.824
  259SOL     OW 1675   0.653   2.134   1.996
  259SOL    HW1 1676   0.673   2.156   1.901
  259SOL    HW2 1677   0.701   2.198   2.056
  260SOL     OW 1678   4.636   1.025   0.733
  260SOL    HW1 1679   4.694   1.012   0.813
  260SOL    HW2 1680   4.688   1.074   0.662
  261SOL     OW 1681   6.535   3.277   0.829
  261SOL    HW1 1682   6.441   3.305   0.811
  261SOL    HW2 1683   6.550   3.185   0.794
  262SOL     OW 1684   0.004   4.107   0.439
  262SOL    HW1 1685   6.995   4.021   0.482
  262SOL    HW2 1686   0.046   4.165   0.508
  263SOL     OW 1687   1.425   0.776   3.448
  263SOL    HW1 1688   1.366   0.856   3.455
  263SOL    HW2 1689   1.465   0.755   3.538
  264SOL     OW 1690   5.912   3.153   6.615
  264SOL    HW1 1691   5.913   3.152   6.515
  264SOL    HW2 1692   5.819   3.137   6.648
  265SOL     OW 1693   5.144   5.721   2.666
  265SOL    HW1 1694   5.225   5.662   2.671
  265SOL    HW2 1695   5.073   5.684   2.725
  266SOL     OW 1696   3.120   3.039   5.344
  266SOL    HW1 1697   3.220   3.049   5.343
  266SOL    HW2 1698   3.081   3.110   5.403
  267SOL     OW 1699   0.455   1.578   6.716
  267SOL    HW1 1700   0.379   1.573   6.781
  267SOL    HW2 1701   0.487   1.485   6.696
  268SOL     OW 1702   3.618   0.778   5.759
  268SOL    HW1 1703   3.672   0.739   5.834
  268SOL    HW2 1704   3.678   0.833   5.700
  269SOL     OW 1705   0.977   3.564   2.129
  269SOL    HW1 1706   0.887   3.595   2.098
  269SOL    HW2 1707   1.049   3.612   2.078
  270SOL     OW 1708   0.542   0.176   0.462
  270SOL    HW1 1709   0.513   0.127   0.380
  270SOL    HW2 1710   0.608   0.246   0.436
  271SOL     OW 1711   1.015   1.499   6.763
  271SOL    HW1 1712   0.915   1.486   6.762
  271SOL    HW2 1713   1.042   1.541   6.849
  272SOL     OW 1714   3.264   5.277   4.507
  272SOL    HW1 1715   3.180   5.323   4.533
  272SOL    HW2 1716   3.331   5.345   4.475
  273SOL     OW 1717   2.308   4.311   4.536
  273SOL    HW1 1718   2.210   4.316   4.555
  273SOL    HW2 1719   2.358   4.345   4.615
  274SOL     OW 1720   4.193   1.767   3.241
  274SOL    HW1 1721   4.106   1.805   3.210
  274SOL    HW2 1722   4.215   1.686   3.188
  275SOL     OW 1723   5.993   4.529   5.443
  275SOL    HW1 1724   5.901   4.501   5.418
  275SOL    HW2 1725   5.990   4.610   5.502
  276SOL     OW 1726   0.308   6.147   2.523
  276SOL    HW1 1727   0.327   6.245   2.515
  276SOL    HW2 1728   0.234   6.122   2.461
  277SOL     OW 1729   1.207   3.807   0.759
  277SOL    HW1 1730   1.280   3.867   0.725
  277SOL    HW2 1731   1.148   3.780   0.683
  278SOL     OW 1732   5.877   5.069   2.152
  278SOL    HW1 1733   5.881   5.075   2.252
  278SOL    HW2 1734   5.954   5.118   2.113
  279SOL     OW 1735   6.628   2.855   4.250
  279SOL    HW1 1736   6.567   2.807   4.187
  279SOL    HW2 1737   6.634   2.951   4.225
  280SOL     OW 1738   2.893   0.154   3.114
  280SOL    HW1 1739   2.881   0.145   3.015
  280SOL    HW2 1740   2.908   0.251   3.137
  281SOL     OW 1741   2.705   4.625   2.366
  281SOL    HW1 1742   2.668   4.717   2.359
  281SOL    HW2 1743   2.759   4.603   2.285
  282SOL     OW 1744   3.244   1.662   5.622
  282SOL    HW1 1745   3.206   1.650   5.530
  282SOL    HW2 1746   3.288   1.751   5.629
  283SOL     OW 1747   6.507   1.626   6.340
  283SOL    HW1 1748   6.607   1.623   6.335
  283SOL    HW2 1749   6.473   1.693   6.274
  284SOL     OW 1750   1.352   3.784   4.257
  284SOL    HW1 1751   1.449   3.789   4.234
  284SOL    HW2 1752   1.342   3.764   4.354
  285SOL     OW 1753   5.993   4.704   5.625
  285SOL    HW1 1754   5.922   4.675   5.689
  285SOL    HW2 1755   6.080   4.711   5.674
  286SOL     OW 1756   3.909   6.148   5.247
  286SOL    HW1 1757   3.875   6.196   5.327
  286SOL    HW2 1758   3.841   6.081   5.217
  287SOL     OW 1759   0.160   4.575   6.662
  287SOL    HW1 1760   0.196   4.666   6.684
  287SOL    HW2 1761   0.073   4.562   6.710
  288SOL     OW 1762   3.630   1.533   6.043
  288SOL    HW1 1763   3.620   1.627   6.076
  288SOL    HW2 1764   3.617   1.470   6.119
  289SOL     OW 1765   0.274   4.505   4.946
  289SOL    HW1 1766   0.236   4.597   4.952
  289SOL    HW2 1767   0.206   4.443   4.907
  290SOL     OW 1768   6.021   2.058   4.291
  290SOL    HW1 1769   6.077   2.099   4.219
  290SOL    HW2 1770   5.925   2.085   4.277
  291SOL     OW 1771   1.660   2.319   4.467
  291SOL    HW1 1772   1.708   2.233   4.485
  291SOL    HW2 1773   1.563   2.308   4.488
  292SOL     OW 1774   1.279   1.608   3.161
  292SOL    HW1 1775   1.292   1.659   3.076
  292SOL    HW2 1776   1.279   1.672   3.238
  293SOL     OW 1777   4.306   4.928   1.649
  293SOL    HW1 1778   4.341   4.947   1.741
  293SOL    HW2 1779   4.210   4.902   1.654
  294SOL     OW 1780   6.539   5.551   6.537
  294SOL    HW1 1781   6.604   5.617   6.499
  294SOL    HW2 1782   6.553   5.545   6.636
  295SOL     OW 1783   3.040   1.918   4.374
  295SOL    HW1 1784   3.054   1.856   4.452
  295SOL    HW2 1785   3.065   2.011   4.400
  296SOL     OW 1786   4.816   1.712   2.919
  296SOL    HW1 1787   4.796   1.738   3.014
  296SOL    HW2 1788   4.856   1.620   2.919
  297SOL     OW 1789   2.085   4.518   2.832
  297SOL    HW1 1790   2.134   4.452   2.889
  297SOL    HW2 1791   2.095   4.492   2.736
  298SOL     OW 1792   3.731   6.714   0.637
  298SOL    HW1 1793   3.788   6.679   0.712
  298SOL    HW2 1794   3.635   6.709   0.663
  299SOL     OW 1795   4.323   3.901   6.789
  299SOL    HW1 1796   4.238   3.902   6.841
  299SOL    HW2 1797   4.400   3.918   6.850
  300SOL     OW 1798   6.018   1.117   1.511
  300SOL    HW1 1799   5.995   1.023   1.534
  300SOL    HW2 1800   6.095   1.119   1.448
  301SOL     OW 1801   5.210   3.475   1.691
  301SOL    HW1 1802   5.221   3.428   1.603
  301SOL    HW2 1803   5.278   3.548   1.699
  302SOL     OW 1804   0.703   0.431   3.500
  302SOL    HW1 1805   0.799   0.417   3.474
  302SOL    HW2 1806   0.680   0.369   3.575
  303SOL     OW 1807   6.189   6.982   1.476
  303SOL    HW1 1808   6.159   6.887   1.465
  303SOL    HW2 1809   6.228   7.015   1.390
  304SOL     OW 1810   2.316   0.501   4.255
  304SOL    HW1 1811   2.367   0.478   4.338
  304SOL    HW2 1812   2.339   0.594   4.226
  305SOL     OW 1813   0.539   3.069   0.134
  305SOL    HW1 1814   0.508   3.093   0.043
  305SOL    HW2 1815   0.573   3.150   0.181
  306SOL     OW 1816   2.080   0.444   3.851
  306SOL    HW1 1817   2.166   0.489   3.829
  306SOL    HW2 1818   2.006   0.484   3.797
  307SOL     OW 1819   5.104   6.670   0.630
  307SOL    HW1 1820   5.026   6.701   0.685
  307SOL    HW2 1821   5.184   6.658   0.689
  308SOL     OW 1822   5.689   3.473   5.278
  308SOL    HW1 1823   5.771   3.452   5.226
  308SOL    HW2 1824   5.608   3.449   5.225
  309SOL     OW 1825   3.264   5.266   6.787
  309SOL    HW1 1826   3.206   5.196   6.745
  309SOL    HW2 1827   3.209   5.321   6.850
  310SOL     OW 1828   6.165   6.915   5.006
  310SOL    HW1 1829   6.097   6.951   5.069
  310SOL    HW2 1830   6.215   6.840   5.050
  311SOL     OW 1831   5.418   4.477   2.385
  311SOL    HW1 1832   5.442   4.381   2.375
  311SOL    HW2 1833   5.499   4.534   2.369
  312SOL     OW 1834   4.296   1.630   5.477
  312SOL    HW1 1835   4.240   1.696   5.427
  312SOL    HW2 1836   4.246   1.544   5.488
  313SOL     OW 1837   3.293   4.090   1.913
  313SOL    HW1 1838   3.357   4.074   1.988
  313SOL    HW2 1839   3.200   4.067   1.943
  314SOL     OW 1840   3.653   5.160   6.674
  314SOL    HW1 1841   3.603   5.194   6.753
  314SOL    HW2 1842   3.694   5.238   6.625
  315SOL     OW 1843   1.577   2.597   3.440
  315SOL    HW1 1844   1.526   2.520   3.402
  315SOL    HW2 1845   1.514   2.661   3.483
  316SOL     OW 1846   2.872   1.308   3.430
  316SOL    HW1 1847   2.911   1.373   3.495
  316SOL    HW2 1848   2.783   1.341   3.398
  317SOL     OW 1849   0.538   0.730   0.961
  317SOL    HW1 1850   0.541   0.800   0.890
  317SOL    HW2 1851   0.509   0.771   1.048
  318SOL     OW 1852   1.330   6.215   7.009
  318SOL    HW1 1853   1.334   6.157   6.929
  318SOL    HW2 1854   1.265   6.290   6.993
  319SOL     OW 1855   7.018   0.423   3.856
  319SOL    HW1 1856   7.003   0.462   3.947
  319SOL    HW2 1857   0.096   0.424   3.835
  320SOL     OW 1858   5.870   2.172   0.420
  320SOL    HW1 1859   5.892   2.251   0.363
  320SOL    HW2 1860   5.787   2.192   0.473
  321SOL     OW 1861   4.055   1.420   0.463
  321SOL    HW1 1862   4.004   1.491   0.416
  321SOL    HW2 1863   4.148   1.452   0.482
  322SOL     OW 1864   3.811   3.744   4.299
  322SOL    HW1 1865   3.790   3.767   4.204
  322SOL    HW2 1866   3.725   3.733   4.350
  323SOL     OW 1867   1.138   3.207   6.638
  323SOL    HW1 1868   1.046   3.243   6.653
  323SOL    HW2 1869   1.200   3.246   6.706
  324SOL     OW 1870   2.413   2.015   4.213
  324SOL    HW1 1871   2.448   1.927   4.183
  324SOL    HW2 1872   2.469   2.089   4.175
  325SOL     OW 1873   1.018   2.884   1.749
  325SOL    HW1 1874   1.114   2.901   1.726
  325SOL    HW2 1875   0.975   2.834   1.673
  326SOL     OW 1876   0.984   4.943   0.118
  326SOL    HW1 1877   0.985   4.963   0.020
  326SOL    HW2 1878   0.912   4.997   0.161
  327SOL     OW 1879   1.334   5.091   3.572
  327SOL    HW1 1880   1.306   4.995   3.581
  327SOL    HW2 1881   1.405   5.098   3.501
  328SOL     OW 1882   1.503   5.878   1.732
  328SOL    HW1 1883   1.455   5.965   1.745
  328SOL    HW2 1884   1.599   5.889   1.756
  329SOL     OW 1885   3.985   3.927   4.408
  329SOL    HW1 1886   3.946   3.850   4.356
  329SOL    HW2 1887   4.052   3.974   4.351
  330SOL     OW 1888   2.958   0.251   1.009
  330SOL    HW1 1889   3.029   0.270   1.076
  330SOL    HW2 1890   2.889   0.323   1.011
  331SOL     OW 1891   3.631   5.479   0.377
  331SOL    HW1 1892   3.655   5.425   0.458
  331SOL    HW2 1893   3.531   5.483   0.368
  332SOL     OW 1894   2.798   1.818   4.251
  332SOL    HW1 1895   2.872   1.876   4.285
  332SOL    HW2 1896   2.832   1.726   4.234
  333SOL     OW 1897   3.560   6.490   6.458
  333SOL    HW1 1898   3.631   6.545   6.414
  333SOL    HW2 1899   3.591   6.461   6.549
  334SOL     OW 1900   2.916   0.641   1.462
  334SOL    HW1 1901   3.015   0.633   1.461
  334SOL    HW2 1902   2.889   0.721   1.516
  335SOL     OW 1903   3.383   6.851   4.421
  335SOL    HW1 1904   3.391   6.949   4.438
  335SOL    HW2 1905   3.442   6.802   4.486
  336SOL     OW 1906   2.029   0.868   3.953
  336SOL    HW1 1907   2.056   0.820   4.037
  336SOL    HW2 1908   2.109   0.913   3.912
  337SOL     OW 1909   0.051   3.210   0.151
  337SOL    HW1 1910   0.142   3.244   0.126
  337SOL    HW2 1911   0.053   3.174   0.244
  338SOL     OW 1912   3.043   2.798   1.458
  338SOL    HW1 1913   3.022   2.782   1.554
  338SOL    HW2 1914   3.006   2.886   1.429
  339SOL     OW 1915   2.846   6.949   4.381
  339SOL    HW1 1916   2.797   6.961   4.295
  339SOL    HW2 1917   2.902   6.867   4.377
  340SOL     OW 1918   4.902   4.338   5.927
  340SOL    HW1 1919   4.893   4.306   6.021
  340SOL    HW2 1920   4.818   4.318   5.877
  341SOL     OW 1921   6.547   1.164   4.411
  341SOL    HW1 1922   6.501   1.079   4.439
  341SOL    HW2 1923   6.646   1.148   4.407
  342SOL     OW 1924   5.965   3.833   6.945
  342SOL    HW1 1925   5.880   3.862   6.901
  342SOL    HW2 1926   5.977   3.883   0.011
  343SOL     OW 1927   1.883   5.349   1.017
  343SOL    HW1 1928   1.832   5.269   0.986
  343SOL    HW2 1929   1.846   5.431   0.974
  344SOL     OW 1930   0.949   5.063   1.950
  344SOL    HW1 1931   0.928   4.978   1.903
  344SOL    HW2 1932   0.885   5.076   2.026
  345SOL     OW 1933   5.766   0.947   4.034
  345SOL    HW1 1934   5.719   0.908   4.113
  345SOL    HW2 1935   5.811   1.033   4.061
  346SOL     OW 1936   2.026   0.719   2.910
  346SOL    HW1 1937   1.998   0.665   2.990
  346SOL    HW2 1938   1.963   0.795   2.897
  347SOL     OW 1939   3.011   5.510   6.039
  347SOL    HW1 1940   2.946   5.582   6.060
  347SOL    HW2 1941   3.085   5.511   6.106
  348SOL     OW 1942   5.525   4.883   1.599
  348SOL    HW1 1943   5.567   4.816   1.659
  348SOL    HW2 1944   5.595   4.928   1.544
  349SOL     OW 1945   0.098   4.283   0.647
  349SOL    HW1 1946   0.003   4.307   0.670
  349SOL    HW2 1947   0.138   4.232   0.723
  350SOL     OW 1948   3.812   2.708   0.673
  350SOL    HW1 1949   3.726   2.688   0.720
  350SOL    HW2 1950   3.855   2.622   0.644
  351SOL     OW 1951   2.202   2.756   6.872
  351SOL    HW1 1952   2.132   2.718   6.932
  351SOL    HW2 1953   2.252   2.682   6.827
  352SOL     OW 1954   3.366   0.522   4.906
  352SOL    HW1 1955   3.455   0.489   4.939
  352SOL    HW2 1956   3.294   0.460   4.938
  353SOL     OW 1957   2.590   6.785   0.837
  353SOL    HW1 1958   2.536   6.740   0.908
  353SOL    HW2 1959   2.621   6.718   0.770
  354SOL     OW 1960   3.131   2.857   0.158
  354SOL    HW1 1961   3.113   2.883   0.063
  354SOL    HW2 1962   3.069   2.783   0.184
  355SOL     OW 1963   0.273   3.030   3.042
  355SOL    HW1 1964   0.193   3.059   2.989
  355SOL    HW2 1965   0.250   3.028   3.139
  356SOL     OW 1966   3.599   6.076   5.315
  356SOL    HW1 1967   3.666   6.021   5.366
  356SOL    HW2 1968   3.534   6.015   5.269
  357SOL     OW 1969   6.351   6.592   5.467
  357SOL    HW1 1970   6.438   6.635   5.441
  357SOL    HW2 1971   6.339   6.599   5.566
  358SOL     OW 1972   5.218   0.131   1.722
  358SOL    HW1 1973   5.251   0.095   1.810
  358SOL    HW2 1974   5.151   0.203   1.739
  359SOL     OW 1975   1.199   2.341   2.204
  359SOL    HW1 1976   1.123   2.300   2.255
  359SOL    HW2 1977   1.205   2.439   2.226
  360SOL     OW 1978   1.160   5.978   6.566
  360SOL    HW1 1979   1.112   5.893   6.547
  360SOL    HW2 1980   1.236   5.989   6.501
  361SOL     OW 1981   5.804   6.038   3.434
  361SOL    HW1 1982   5.739   5.964   3.451
  361SOL    HW2 1983   5.871   6.009   3.367
  362SOL     OW 1984   3.582   4.021   1.425
  362SOL    HW1 1985   3.547   3.933   1.393
  362SOL    HW2 1986   3.646   4.058   1.358
  363SOL     OW 1987   5.030   4.474   3.730
  363SOL    HW1 1988   5.010   4.396   3.671
  363SOL    HW2 1989   4.950   4.533   3.737
  364SOL     OW 1990   6.302   5.894   6.051
  364SOL    HW1 1991   6.383   5.861   6.098
  364SOL    HW2 1992   6.305   5.865   5.955
  365SOL     OW 1993   5.734   4.943   1.961
  365SOL    HW1 1994   5.712   5.005   1.885
  365SOL    HW2 1995   5.802   4.987   2.021
  366SOL     OW 1996   6.410   0.738   0.012
  366SOL    HW1 1997   6.449   0.668   0.072
  366SOL    HW2 1998   6.369   0.694   6.952
  367SOL     OW 1999   4.898   3.152   1.345
  367SOL    HW1 2000   4.824   3.098   1.386
  367SOL    HW2 2001   4.887   3.155   1.246
  368SOL     OW 2002   7.003   3.805   4.875
  368SOL    HW1 2003   6.954   3.812   4.788
  368SOL    HW2 2004   6.976   3.720   4.922
  369SOL     OW 2005   6.619   5.633   1.807
  369SOL    HW1 2006   6.522   5.654   1.803
  369SOL    HW2 2007   6.650   5.601   1.717
  370SOL     OW 2008   3.013   1.662   5.775
  370SOL    HW1 2009   3.096   1.653   5.720
  370SOL    HW2 2010   2.939   1.698   5.718
  371SOL     OW 2011   2.642   3.347   6.636
  371SOL    HW1 2012   2.663   3.442   6.613
  371SOL    HW2 2013   2.557   3.343   6.688
  372SOL     OW 2014   0.447   6.944   5.373
  372SOL    HW1 2015   0.456   0.004   5.312
  372SOL    HW2 2016   0.416   6.975   5.463
  373SOL     OW 2017   6.277   6.137   5.009
  373SOL    HW1 2018   6.358   6.094   4.969
  373SOL    HW2 2019   6.296   6.234   5.025
  374SOL     OW 2020   2.674   1.739   2.388
  374SOL    HW1 2021   2.591   1.741   2.445
  374SOL    HW2 2022   2.754   1.744   2.447
  375SOL     OW 2023   0.961   4.451   3.375
  375SOL    HW1 2024   0.896   4.521   3.343
  375SOL    HW2 2025   0.947   4.367   3.323
  376SOL     OW 2026   1.867   2.136   4.601
  376SOL    HW1 2027   1.858   2.226   4.644
  376SOL    HW2 2028   1.907   2.147   4.510
  377SOL     OW 2029   0.070   3.145   1.943
  377SOL    HW1 2030   0.101   3.203   1.868
  377SOL    HW2 2031   0.030   3.061   1.907
  378SOL     OW 2032   3.410   3.128   5.327
  378SOL    HW1 2033   3.461   3.070   5.263
  378SOL    HW2 2034   3.379   3.211   5.279
  379SOL     OW 2035   5.989   3.935   1.646
  379SOL    HW1 2036   5.910   3.935   1.706
  379SOL    HW2 2037   6.030   4.026   1.644
  380SOL     OW 2038   3.085   1.511   1.663
  380SOL    HW1 2039   3.124   1.455   1.736
  380SOL    HW2 2040   3.149   1.516   1.586
  381SOL     OW 2041   1.519   4.337   2.583
  381SOL    HW1 2042   1.454   4.405   2.617
  381SOL    HW2 2043   1.534   4.351   2.485
  382SOL     OW 2044   5.615   6.297   5.897
  382SOL    HW1 2045   5.637   6.325   5.991
  382SOL    HW2 2046   5.575   6.375   5.848
  383SOL     OW 2047   5.584   3.074   6.078
  383SOL    HW1 2048   5.629   3.155   6.116
  383SOL    HW2 2049   5.501   3.102   6.029
  384SOL     OW 2050   6.432   4.929   4.336
  384SOL    HW1 2051   6.498   4.861   4.306
  384SOL    HW2 2052   6.481   5.007   4.376
  385SOL     OW 2053   4.527   5.982   5.917
  385SOL    HW1 2054   4.597   5.954   5.852
  385SOL    HW2 2055   4.564   5.981   6.009
  386SOL     OW 2056   3.358   6.100   5.597
  386SOL    HW1 2057   3.324   6.122   5.505
  386SOL    HW2 2058   3.417   6.174   5.629
  387SOL     OW 2059   0.142   6.517   3.077
  387SOL    HW1 2060   0.219   6.580   3.087
  387SOL    HW2 2061   0.135   6.487   2.981
  388SOL     OW 2062   1.656   2.389   3.871
  388SOL    HW1 2063   1.690   2.377   3.778
  388SOL    HW2 2064   1.676   2.306   3.924
  389SOL     OW 2065   4.166   4.077   1.742
  389SOL    HW1 2066   4.163   3.980   1.769
  389SOL    HW2 2067   4.239   4.123   1.791
  390SOL     OW 2068   3.856   1.216   6.999
  390SOL    HW1 2069   3.813   1.261   0.057
  390SOL    HW2 2070   3.882   1.284   6.931
  391SOL     OW 2071   2.334   4.185   5.276
  391SOL    HW1 2072   2.324   4.154   5.371
  391SOL    HW2 2073   2.370   4.110   5.220
  392SOL     OW 2074   1.876   3.605   1.658
  392SOL    HW1 2075   1.875   3.701   1.631
  392SOL    HW2 2076   1.907   3.598   1.753
  393SOL     OW 2077   1.302   5.045   0.500
  393SOL    HW1 2078   1.239   5.123   0.505
  393SOL    HW2 2079   1.366   5.048   0.576
  394SOL     OW 2080   0.861   3.038   0.154
  394SOL    HW1 2081   0.858   3.006   0.059
  394SOL    HW2 2082   0.955   3.056   0.180
  395SOL     OW 2083   5.252   4.777   2.940
  395SOL    HW1 2084   5.340   4.767   2.986
  395SOL    HW2 2085   5.178   4.766   3.007
  396SOL     OW 2086   2.490   2.777   1.787
  396SOL    HW1 2087   2.571   2.722   1.804
  396SOL    HW2 2088   2.410   2.734   1.830
  397SOL     OW 2089   5.522   1.914   6.292
  397SOL    HW1 2090   5.424   1.903   6.276
  397SOL    HW2 2091   5.570   1.920   6.204
  398SOL     OW 2092   1.743   6.291   3.522
  398SOL    HW1 2093   1.827   6.237   3.532
  398SOL    HW2 2094   1.756   6.381   3.562
  399SOL     OW 2095   5.518   6.651   4.405
  399SOL    HW1 2096   5.520   6.751   4.406
  399SOL    HW2 2097   5.485   6.617   4.493
  400SOL     OW 2098   6.071   6.585   5.691
  400SOL    HW1 2099   6.010   6.585   5.770
  400SOL    HW2 2100   6.133   6.664   5.697
  401SOL     OW 2101   5.487   0.041   5.967
  401SOL    HW1 2102   5.410   0.013   5.909
  401SOL    HW2 2103   5.573   0.022   5.919
  402SOL     OW 2104   6.597   0.046   3.241
  402SOL    HW1 2105   6.671   0.113   3.249
  402SOL    HW2 2106   6.544   0.046   3.326
  403SOL     OW 2107   3.942   0.777   5.556
  403SOL    HW1 2108   3.880   0.817   5.623
  403SOL    HW2 2109   4.029   0.754   5.601
  404SOL     OW 2110   1.997   5.070   5.031
  404SOL    HW1 2111   1.897   5.078   5.032
  404SOL    HW2 2112   2.037   5.147   5.081
  405SOL     OW 2113   2.181   3.849   3.018
  405SOL    HW1 2114   2.152   3.760   3.053
  405SOL    HW2 2115   2.256   3.836   2.954
  406SOL     OW 2116   0.554   4.487   4.535
  406SOL    HW1 2117   0.537   4.449   4.626
  406SOL    HW2 2118   0.478   4.548   4.510
  407SOL     OW 2119   2.028   2.279   5.019
  407SOL    HW1 2120   2.055   2.210   4.952
  407SOL    HW2 2121   2.003   2.233   5.105
  408SOL     OW 2122   3.385   2.146   3.084
  408SOL    HW1 2123   3.358   2.223   3.026
  408SOL    HW2 2124   3.362   2.061   3.038
  409SOL     OW 2125   6.477   3.339   1.487
  409SOL    HW1 2126   6.532   3.421   1.475
  409SOL    HW2 2127   6.515   3.265   1.432
  410SOL     OW 2128   1.251   1.951   1.210
  410SOL    HW1 2129   1.272   1.888   1.135
  410SOL    HW2 2130   1.168   1.922   1.256
  411SOL     OW 2131   6.157   0.692   1.578
  411SOL    HW1 2132   6.094   0.767   1.599
  411SOL    HW2 2133   6.119   0.636   1.505
  412SOL     OW 2134   3.263   5.196   3.171
  412SOL    HW1 2135   3.357   5.214   3.199
  412SOL    HW2 2136   3.232   5.269   3.111
  413SOL     OW 2137   4.678   4.316   1.551
  413SOL    HW1 2138   4.750   4.259   1.512
  413SOL    HW2 2139   4.688   4.320   1.650
  414SOL     OW 2140   3.035   6.635   3.933
  414SOL    HW1 2141   3.028   6.734   3.944
  414SOL    HW2 2142   3.015   6.610   3.838
  415SOL     OW 2143   0.365   0.623   6.979
  415SOL    HW1 2144   0.441   0.687   6.981
  415SOL    HW2 2145   0.343   0.593   0.052
  416SOL     OW 2146   5.158   5.059   4.967
  416SOL    HW1 2147   5.227   5.002   5.011
  416SOL    HW2 2148   5.176   5.155   4.990
  417SOL     OW 2149   2.032   1.184   6.481
  417SOL    HW1 2150   2.115   1.241   6.479
  417SOL    HW2 2151   2.016   1.153   6.575
  418SOL     OW 2152   2.534   6.746   5.863
  418SOL    HW1 2153   2.532   6.759   5.764
  418SOL    HW2 2154   2.547   6.834   5.908
  419SOL     OW 2155   0.853   6.840   2.970
  419SOL    HW1 2156   0.952   6.851   2.960
  419SOL    HW2 2157   0.808   6.927   2.949
  420SOL     OW 2158   5.544   1.278   6.183
  420SOL    HW1 2159   5.623   1.217   6.190
  420SOL    HW2 2160   5.476   1.237   6.122
  421SOL     OW 2161   5.931   3.734   5.098
  421SOL    HW1 2162   5.873   3.760   5.175
  421SOL    HW2 2163   5.953   3.637   5.104
  422SOL     OW 2164   5.086   2.986   0.757
  422SOL    HW1 2165   5.109   2.975   0.661
  422SOL    HW2 2166   4.986   2.988   0.768
  423SOL     OW 2167   2.698   1.556   7.017
  423SOL    HW1 2168   2.643   1.633   0.032
  423SOL    HW2 2169   2.782   1.548   0.052
  424SOL     OW 2170   1.699   4.902   3.094
  424SOL    HW1 2171   1.700   4.857   3.184
  424SOL    HW2 2172   1.731   4.996   3.105
  425SOL     OW 2173   4.910   1.426   4.429
  425SOL    HW1 2174   4.938   1.521   4.414
  425SOL    HW2 2175   4.833   1.424   4.493
  426SOL     OW 2176   2.351   2.764   4.976
  426SOL    HW1 2177   2.369   2.858   5.005
  426SOL    HW2 2178   2.437   2.712   4.977
  427SOL     OW 2179   5.657   0.174   3.655
  427SOL    HW1 2180   5.640   0.217   3.566
  427SOL    HW2 2181   5.746   0.203   3.689
  428SOL     OW 2182   3.465   0.389   2.897
  428SOL    HW1 2183   3.386   0.328   2.887
  428SOL    HW2 2184   3.490   0.425   2.807
  429SOL     OW 2185   0.696   5.281   4.089
  429SOL    HW1 2186   0.619   5.274   4.025
  429SOL    HW2 2187   0.663   5.272   4.183
  430SOL     OW 2188   1.563   6.913   3.603
  430SOL    HW1 2189   1.486   6.882   3.659
  430SOL    HW2 2190   1.612   6.834   3.567
  431SOL     OW 2191   2.553   2.122   0.888
  431SOL    HW1 2192   2.519   2.164   0.972
  431SOL    HW2 2193   2.638   2.073   0.908
  432SOL     OW 2194   6.344   2.215   0.669
  432SOL    HW1 2195   6.265   2.166   0.705
  432SOL    HW2 2196   6.388   2.266   0.743
  433SOL     OW 2197   2.456   5.962   6.042
  433SOL    HW1 2198   2.377   5.978   5.983
  433SOL    HW2 2199   2.502   6.049   6.060
  434SOL     OW 2200   4.384   5.816   4.199
  434SOL    HW1 2201   4.327   5.868   4.135
  434SOL    HW2 2202   4.430   5.742   4.149
  435SOL     OW 2203   3.728   1.975   5.266
  435SOL    HW1 2204   3.815   1.926   5.269
  435SOL    HW2 2205   3.671   1.948   5.343
  436SOL     OW 2206   3.322   6.274   2.556
  436SOL    HW1 2207   3.225   6.251   2.545
  436SOL    HW2 2208   3.351   6.251   2.649
  437SOL     OW 2209   0.121   1.191   5.429
  437SOL    HW1 2210   0.117   1.211   5.331
  437SOL    HW2 2211   0.208   1.146   5.450
  438SOL     OW 2212   2.034   3.867   3.422
  438SOL    HW1 2213   2.050   3.880   3.520
  438SOL    HW2 2214   2.103   3.917   3.370
  439SOL     OW 2215   6.209   6.696   2.700
  439SOL    HW1 2216   6.144   6.637   2.652
  439SOL    HW2 2217   6.281   6.725   2.636
  440SOL     OW 2218   3.579   1.376   6.232
  440SOL    HW1 2219   3.648   1.312   6.266
  440SOL    HW2 2220   3.499   1.373   6.292
  441SOL     OW 2221   5.713   4.226   3.170
  441SOL    HW1 2222   5.677   4.143   3.213
  441SOL    HW2 2223   5.781   4.202   3.101
  442SOL     OW 2224   4.453   4.980   5.506
  442SOL    HW1 2225   4.354   4.995   5.498
  442SOL    HW2 2226   4.487   4.938   5.422
  443SOL     OW 2227   5.900   4.206   4.454
  443SOL    HW1 2228   5.832   4.207   4.527
  443SOL    HW2 2229   5.925   4.112   4.432
  444SOL     OW 2230   4.338   1.204   6.704
  444SOL    HW1 2231   4.428   1.181   6.741
  444SOL    HW2 2232   4.294   1.121   6.668
  445SOL     OW 2233   2.164   5.670   3.326
  445SOL    HW1 2234   2.228   5.699   3.397
  445SOL    HW2 2235   2.183   5.575   3.301
  446SOL     OW 2236   3.990   5.485   3.157
  446SOL    HW1 2237   3.947   5.452   3.241
  446SOL    HW2 2238   4.005   5.408   3.095
  447SOL     OW 2239   6.516   3.112   5.127
  447SOL    HW1 2240   6.537   3.209   5.122
  447SOL    HW2 2241   6.570   3.070   5.200
  448SOL     OW 2242   1.711   1.350   2.709
  448SOL    HW1 2243   1.752   1.274   2.658
  448SOL    HW2 2244   1.716   1.433   2.654
  449SOL     OW 2245   2.660   2.129   3.413
  449SOL    HW1 2246   2.738   2.191   3.419
  449SOL    HW2 2247   2.582   2.179   3.374
  450SOL     OW 2248   1.783   4.901   3.794
  450SOL    HW1 2249   1.777   4.801   3.800
  450SOL    HW2 2250   1.771   4.930   3.699
  451SOL     OW 2251   1.292   2.573   4.118
  451SOL    HW1 2252   1.386   2.601   4.140
  451SOL    HW2 2253   1.270   2.489   4.167
  452SOL     OW 2254   3.838   0.563   1.534
  452SOL    HW1 2255   3.829   0.471   1.494
  452SOL    HW2 2256   3.823   0.631   1.463
  453SOL     OW 2257   3.847   6.719   6.769
  453SOL    HW1 2258   3.763   6.671   6.749
  453SOL    HW2 2259   3.826   6.808   6.811
  454SOL     OW 2260   6.847   3.889   6.793
  454SOL    HW1 2261   6.885   3.852   6.709
  454SOL    HW2 2262   6.788   3.967   6.771
  455SOL     OW 2263   6.384   3.632   5.331
  455SOL    HW1 2264   6.449   3.658   5.403
  455SOL    HW2 2265   6.294   3.616   5.372
  456SOL     OW 2266   1.700   0.636   4.554
  456SOL    HW1 2267   1.678   0.661   4.460
  456SOL    HW2 2268   1.654   0.697   4.618
  457SOL     OW 2269   0.988   4.773   4.471
  457SOL    HW1 2270   1.007   4.688   4.521
  457SOL    HW2 2271   0.891   4.777   4.447
  458SOL     OW 2272   3.483   0.688   3.043
  458SOL    HW1 2273   3.554   0.739   2.995
  458SOL    HW2 2274   3.435   0.628   2.979
  459SOL     OW 2275   2.023   0.592   5.557
  459SOL    HW1 2276   1.954   0.521   5.571
  459SOL    HW2 2277   1.989   0.679   5.590
  460SOL     OW 2278   1.425   1.428   5.197
  460SOL    HW1 2279   1.500   1.487   5.227
  460SOL    HW2 2280   1.369   1.403   5.276
  461SOL     OW 2281   6.528   5.173   5.537
  461SOL    HW1 2282   6.451   5.236   5.528
  461SOL    HW2 2283   6.588   5.205   5.610
  462SOL     OW 2284   4.094   3.776   4.797
  462SOL    HW1 2285   4.055   3.867   4.786
  462SOL    HW2 2286   4.157   3.776   4.875
  463SOL     OW 2287   6.531   0.177   2.812
  463SOL    HW1 2288   6.624   0.190   2.847
  463SOL    HW2 2289   6.534   0.132   2.723
  464SOL     OW 2290   3.152   0.130   5.954
  464SOL    HW1 2291   3.073   0.069   5.967
  464SOL    HW2 2292   3.204   0.135   6.039
  465SOL     OW 2293   0.643   2.553   6.904
  465SOL    HW1 2294   0.698   2.564   6.821
  465SOL    HW2 2295   0.651   2.634   6.961
  466SOL     OW 2296   2.673   6.602   4.007
  466SOL    HW1 2297   2.708   6.613   4.100
  466SOL    HW2 2298   2.586   6.552   4.010
  467SOL     OW 2299   0.690   2.054   2.654
  467SOL    HW1 2300   0.650   2.040   2.563
  467SOL    HW2 2301   0.690   2.152   2.675
  468SOL     OW 2302   4.651   6.287   6.406
  468SOL    HW1 2303   4.676   6.319   6.315
  468SOL    HW2 2304   4.584   6.214   6.398
  469SOL     OW 2305   2.918   4.414   5.823
  469SOL    HW1 2306   2.910   4.473   5.742
  469SOL    HW2 2307   2.984   4.341   5.805
  470SOL     OW 2308   3.984   6.241   2.555
  470SOL    HW1 2309   3.990   6.162   2.493
  470SOL    HW2 2310   4.034   6.221   2.640
  471SOL     OW 2311   2.813   2.188   3.941
  471SOL    HW1 2312   2.815   2.117   3.871
  471SOL    HW2 2313   2.898   2.184   3.994
  472SOL     OW 2314   6.094   4.993   6.896
  472SOL    HW1 2315   5.996   5.003   6.911
  472SOL    HW2 2316   6.138   5.083   6.896
  473SOL     OW 2317   6.674   2.156   2.573
  473SOL    HW1 2318   6.686   2.253   2.551
  473SOL    HW2 2319   6.719   2.136   2.660
  474SOL     OW 2320   6.025   4.906   5.470
  474SOL    HW1 2321   6.014   4.825   5.527
  474SOL    HW2 2322   6.044   4.985   5.528
  475SOL     OW 2323   6.335   3.477   0.008
  475SOL    HW1 2324   6.277   3.421   6.969
  475SOL    HW2 2325   6.412   3.422   0.040
  476SOL     OW 2326   0.407   4.218   1.266
  476SOL    HW1 2327   0.473   4.292   1.254
  476SOL    HW2 2328   0.452   4.130   1.247
  477SOL     OW 2329   1.879   5.636   3.383
  477SOL    HW1 2330   1.879   5.663   3.479
  477SOL    HW2 2331   1.973   5.634   3.349
  478SOL     OW 2332   4.551   6.215   3.709
  478SOL    HW1 2333   4.583   6.270   3.632
  478SOL    HW2 2334   4.495   6.272   3.769
  479SOL     OW 2335   3.342   3.495   4.764
  479SOL    HW1 2336   3.273   3.478   4.834
  479SOL    HW2 2337   3.348   3.416   4.703
  480SOL     OW 2338   1.834   0.351   2.598
  480SOL    HW1 2339   1.771   0.345   2.676
  480SOL    HW2 2340   1.905   0.419   2.619
  481SOL     OW 2341   0.843   6.828   1.327
  481SOL    HW1 2342   0.809   6.922   1.320
  481SOL    HW2 2343   0.875   6.810   1.420
  482SOL     OW 2344   4.547   4.688   2.806
  482SOL    HW1 2345   4.536   4.754   2.881
  482SOL    HW2 2346   4.560   4.738   2.720
  483SOL     OW 2347   6.769   2.403   2.684
  483SOL    HW1 2348   6.760   2.325   2.745
  483SOL    HW2 2349   6.730   2.484   2.727
  484SOL     OW 2350   1.617   4.159   5.215
  484SOL    HW1 2351   1.598   4.257   5.219
  484SOL    HW2 2352   1.671   4.132   5.294
  485SOL     OW 2353   5.316   3.438   2.458
  485SOL    HW1 2354   5.346   3.347   2.486
  485SOL    HW2 2355   5.249   3.472   2.523
  486SOL     OW 2356   5.448   0.832   6.285
  486SOL    HW1 2357   5.416   0.827   6.380
  486SOL    HW2 2358   5.526   0.771   6.272
  487SOL     OW 2359   0.835   0.131   3.054
  487SOL    HW1 2360   0.768   0.154   3.125
  487SOL    HW2 2361   0.804   0.165   2.966
  488SOL     OW 2362   1.727   6.701   3.493
  488SOL    HW1 2363   1.670   6.633   3.446
  488SOL    HW2 2364   1.797   6.734   3.430
  489SOL     OW 2365   5.912   5.250   5.228
  489SOL    HW1 2366   5.999   5.288   5.259
  489SOL    HW2 2367   5.926   5.154   5.204
  490SOL     OW 2368   1.752   5.878   4.821
  490SOL    HW1 2369   1.695   5.936   4.763
  490SOL    HW2 2370   1.721   5.783   4.815
  491SOL     OW 2371   0.628   3.369   0.213
  491SOL    HW1 2372   0.629   3.414   0.124
  491SOL    HW2 2373   0.565   3.417   0.274
  492SOL     OW 2374   1.845   1.745   5.951
  492SOL    HW1 2375   1.926   1.763   5.894
  492SOL    HW2 2376   1.867   1.674   6.018
  493SOL     OW 2377   2.551   6.871   5.631
  493SOL    HW1 2378   2.641   6.913   5.626
  493SOL    HW2 2379   2.483   6.933   5.591
  494SOL     OW 2380   2.447   1.683   6.230
  494SOL    HW1 2381   2.397   1.642   6.306
  494SOL    HW2 2382   2.531   1.726   6.265
  495SOL     OW 2383   4.039   6.480   5.527
  495SOL    HW1 2384   4.134   6.448   5.521
  495SOL    HW2 2385   4.034   6.574   5.493
  496SOL     OW 2386   6.258   1.523   2.206
  496SOL    HW1 2387   6.242   1.461   2.283
  496SOL    HW2 2388   6.252   1.471   2.120
  497SOL     OW 2389   3.653   1.123   4.384
  497SOL    HW1 2390   3.619   1.115   4.477
  497SOL    HW2 2391   3.649   1.219   4.356
  498SOL     OW 2392   0.529   4.762   1.802
  498SOL    HW1 2393   0.483   4.675   1.786
  498SOL    HW2 2394   0.511   4.824   1.725
  499SOL     OW 2395   2.401   5.774   5.658
  499SOL    HW1 2396   2.371   5.735   5.571
  499SOL    HW2 2397   2.411   5.700   5.725
  500SOL     OW 2398   5.184   3.108   5.751
  500SOL    HW1 2399   5.091   3.146   5.746
  500SOL    HW2 2400   5.191   3.031   5.687
  501SOL     OW 2401   2.883   0.147   1.922
  501SOL    HW1 2402   2.927   0.203   1.993
  501SOL    HW2 2403   2.810   0.199   1.878
  502SOL     OW 2404   1.196   4.691   6.842
  502SOL    HW1 2405   1.163   4.770   6.789
  502SOL    HW2 2406   1.247   4.630   6.782
  503SOL     OW 2407   1.984   5.153   6.326
  503SOL    HW1 2408   2.018   5.063   6.300
  503SOL    HW2 2409   1.893   5.144   6.366
  504SOL     OW 2410   0.541   5.847   2.317
  504SOL    HW1 2411   0.542   5.916   2.389
  504SOL    HW2 2412   0.487   5.880   2.239
  505SOL     OW 2413   3.648   0.225   4.890
  505SOL    HW1 2414   3.623   0.293   4.958
  505SOL    HW2 2415   3.725   0.171   4.923
  506SOL     OW 2416   3.333   5.736   2.575
  506SOL    HW1 2417   3.404   5.796   2.538
  506SOL    HW2 2418   3.261   5.791   2.618
  507SOL     OW 2419   4.130   0.947   2.445
  507SOL    HW1 2420   4.061   0.929   2.375
  507SOL    HW2 2421   4.084   0.965   2.532
  508SOL     OW 2422   6.631   2.465   3.511
  508SOL    HW1 2423   6.666   2.487   3.602
  508SOL    HW2 2424   6.539   2.503   3.501
  509SOL     OW 2425   4.805   0.606   6.940
  509SOL    HW1 2426   4.769   0.513   6.933
  509SOL    HW2 2427   4.784   0.657   6.857
  510SOL     OW 2428   6.936   5.024   5.872
  510SOL    HW1 2429   0.008   5.059   5.852
  510SOL    HW2 2430   6.921   4.939   5.821
  511SOL     OW 2431   1.385   1.734   6.508
  511SOL    HW1 2432   1.417   1.782   6.589
  511SOL    HW2 2433   1.318   1.664   6.535
  512SOL     OW 2434   5.898   2.473   6.811
  512SOL    HW1 2435   5.867   2.548   6.869
  512SOL    HW2 2436   5.826   2.448   6.747
  513SOL     OW 2437   5.388   6.357   2.564
  513SOL    HW1 2438   5.439   6.350   2.650
  513SOL    HW2 2439   5.337   6.444   2.563
  514SOL     OW 2440   0.434   0.225   4.127
  514SOL    HW1 2441   0.455   0.319   4.152
  514SOL    HW2 2442   0.376   0.184   4.197
  515SOL     OW 2443   2.265   0.500   6.482
  515SOL    HW1 2444   2.303   0.418   6.440
  515SOL    HW2 2445   2.257   0.572   6.413
  516SOL     OW 2446   2.322   4.356   2.033
  516SOL    HW1 2447   2.354   4.364   1.939
  516SOL    HW2 2448   2.337   4.442   2.081
  517SOL     OW 2449   3.194   4.852   2.396
  517SOL    HW1 2450   3.186   4.871   2.298
  517SOL    HW2 2451   3.104   4.855   2.439
  518SOL     OW 2452   2.566   2.203   4.064
  518SOL    HW1 2453   2.648   2.184   4.010
  518SOL    HW2 2454   2.495   2.239   4.004
  519SOL     OW 2455   0.201   6.596   3.430
  519SOL    HW1 2456   0.188   6.695   3.441
  519SOL    HW2 2457   0.186   6.570   3.335
  520SOL     OW 2458   1.117   4.279   6.697
  520SOL    HW1 2459   1.119   4.282   6.597
  520SOL    HW2 2460   1.022   4.273   6.729
  521SOL     OW 2461   4.492   5.521   4.355
  521SOL    HW1 2462   4.476   5.454   4.427
  521SOL    HW2 2463   4.405   5.564   4.329
  522SOL     OW 2464   4.093   3.665   1.915
  522SOL    HW1 2465   4.107   3.566   1.915
  522SOL    HW2 2466   3.996   3.685   1.925
  523SOL     OW 2467   0.237   6.113   1.717
  523SOL    HW1 2468   0.277   6.168   1.790
  523SOL    HW2 2469   0.308   6.057   1.675
  524SOL     OW 2470   0.705   3.173   2.524
  524SOL    HW1 2471   0.696   3.220   2.612
  524SOL    HW2 2472   0.772   3.099   2.532
  525SOL     OW 2473   2.155   4.007   6.463
  525SOL    HW1 2474   2.064   4.021   6.504
  525SOL    HW2 2475   2.225   4.042   6.525
  526SOL     OW 2476   2.734   6.927   4.131
  526SOL    HW1 2477   2.750   0.004   4.109
  526SOL    HW2 2478   2.692   6.882   4.052
  527SOL     OW 2479   0.480   2.287   6.837
  527SOL    HW1 2480   0.456   2.244   6.924
  527SOL    HW2 2481   0.556   2.351   6.852
  528SOL     OW 2482   1.175   2.758   3.913
  528SOL    HW1 2483   1.177   2.722   3.819
  528SOL    HW2 2484   1.215   2.691   3.975
  529SOL     OW 2485   2.470   0.351   5.430
  529SOL    HW1 2486   2.477   0.434   5.485
  529SOL    HW2 2487   2.374   0.334   5.408
  530SOL     OW 2488   3.744   2.914   2.360
  530SOL    HW1 2489   3.776   2.893   2.453
  530SOL    HW2 2490   3.652   2.952   2.365
  531SOL     OW 2491   1.524   0.783   2.612
  531SOL    HW1 2492   1.516   0.686   2.635
  531SOL    HW2 2493   1.443   0.831   2.645
  532SOL     OW 2494   1.591   3.732   0.621
  532SOL    HW1 2495   1.669   3.686   0.664
  532SOL    HW2 2496   1.531   3.664   0.579
  533SOL     OW 2497   4.979   6.540   3.849
  533SOL    HW1 2498   4.890   6.582   3.834
  533SOL    HW2 2499   5.044   6.574   3.780
  534SOL     OW 2500   6.858   6.171   2.324
  534SOL    HW1 2501   6.779   6.137   2.375
  534SOL    HW2 2502   6.837   6.172   2.226
  535SOL     OW 2503   6.963   4.391   2.782
  535SOL    HW1 2504   0.017   4.427   2.725
  535SOL    HW2 2505   6.983   4.297   2.807
  536SOL     OW 2506   6.405   5.225   2.927
  536SOL    HW1 2507   6.402   5.300   2.993
  536SOL    HW2 2508   6.480   5.240   2.863
  537SOL     OW 2509   3.690   6.757   4.121
  537SOL    HW1 2510   3.602   6.712   4.109
  537SOL    HW2 2511   3.699   6.790   4.215
  538SOL     OW 2512   0.878   4.666   4.890
  538SOL    HW1 2513   0.916   4.644   4.800
  538SOL    HW2 2514   0.782   4.639   4.893
  539SOL     OW 2515   1.787   5.807   2.266
  539SOL    HW1 2516   1.756   5.713   2.249
  539SOL    HW2 2517   1.807   5.818   2.363
  540SOL     OW 2518   1.783   0.785   3.869
  540SOL    HW1 2519   1.869   0.830   3.893
  540SOL    HW2 2520   1.707   0.833   3.914
  541SOL     OW 2521   4.834   5.866   3.590
  541SOL    HW1 2522   4.821   5.782   3.642
  541SOL    HW2 2523   4.839   5.844   3.492
  542SOL     OW 2524   3.760   6.086   6.333
  542SOL    HW1 2525   3.760   6.149   6.410
  542SOL    HW2 2526   3.674   6.096   6.282
  543SOL     OW 2527   5.466   3.436   3.706
  543SOL    HW1 2528   5.487   3.513   3.766
  543SOL    HW2 2529   5.444   3.471   3.615
  544SOL     OW 2530   0.376   5.174   0.460
  544SOL    HW1 2531   0.424   5.188   0.547
  544SOL    HW2 2532   0.376   5.076   0.438
  545SOL     OW 2533   4.541   1.457   0.610
  545SOL    HW1 2534   4.533   1.358   0.621
  545SOL    HW2 2535   4.558   1.500   0.699
  546SOL     OW 2536   1.167   3.588   1.844
  546SOL    HW1 2537   1.109   3.523   1.794
  546SOL    HW2 2538   1.110   3.659   1.885
  547SOL     OW 2539   3.066   3.115   0.938
  547SOL    HW1 2540   3.039   3.190   0.877
  547SOL    HW2 2541   3.151   3.139   0.984
  548SOL     OW 2542   3.796   3.822   1.247
  548SOL    HW1 2543   3.783   3.781   1.337
  548SOL    HW2 2544   3.872   3.777   1.200
  549SOL     OW 2545   5.161   2.509   1.808
  549SOL    HW1 2546   5.098   2.553   1.744
  549SOL    HW2 2547   5.176   2.568   1.887
  550SOL     OW 2548   0.860   5.222   3.233
  550SOL    HW1 2549   0.959   5.221   3.225
  550SOL    HW2 2550   0.820   5.189   3.147
  551SOL     OW 2551   6.879   0.041   1.768
  551SOL    HW1 2552   6.953   0.103   1.797
  551SOL    HW2 2553   6.882   6.979   1.824
  552SOL     OW 2554   5.216   4.402   5.160
  552SOL    HW1 2555   5.281   4.329   5.182
  552SOL    HW2 2556   5.187   4.393   5.065
  553SOL     OW 2557   3.141   6.847   3.502
  553SOL    HW1 2558   3.229   6.806   3.478
  553SOL    HW2 2559   3.149   6.947   3.502
  554SOL     OW 2560   5.779   6.354   0.229
  554SOL    HW1 2561   5.709   6.422   0.252
  554SOL    HW2 2562   5.867   6.384   0.267
  555SOL     OW 2563   3.004   5.303   4.897
  555SOL    HW1 2564   3.028   5.206   4.899
  555SOL    HW2 2565   2.958   5.327   4.983
  556SOL     OW 2566   4.884   1.186   3.968
  556SOL    HW1 2567   4.855   1.096   3.934
  556SOL    HW2 2568   4.828   1.257   3.927
  557SOL     OW 2569   6.728   5.000   6.368
  557SOL    HW1 2570   6.659   4.929   6.373
  557SOL    HW2 2571   6.778   4.992   6.282
  558SOL     OW 2572   3.154   3.040   4.458
  558SOL    HW1 2573   3.176   3.136   4.472
  558SOL    HW2 2574   3.130   3.026   4.361
  559SOL     OW 2575   6.855   5.646   5.842
  559SOL    HW1 2576   6.843   5.642   5.743
  559SOL    HW2 2577   6.882   5.555   5.876
  560SOL     OW 2578   6.388   3.803   2.928
  560SOL    HW1 2579   6.438   3.756   3.000
  560SOL    HW2 2580   6.301   3.837   2.964
  561SOL     OW 2581   0.393   2.467   0.146
  561SOL    HW1 2582   0.459   2.483   0.074
  561SOL    HW2 2583   0.308   2.516   0.125
  562SOL     OW 2584   4.135   1.074   6.093
  562SOL    HW1 2585   4.189   1.149   6.054
  562SOL    HW2 2586   4.039   1.103   6.099
  563SOL     OW 2587   2.132   1.604   3.533
  563SOL    HW1 2588   2.180   1.523   3.501
  563SOL    HW2 2589   2.153   1.681   3.473
  564SOL     OW 2590   1.094   2.422   0.273
  564SOL    HW1 2591   1.108   2.419   0.175
  564SOL    HW2 2592   1.068   2.515   0.301
  565SOL     OW 2593   3.233   3.454   3.004
  565SOL    HW1 2594   3.153   3.417   3.051
  565SOL    HW2 2595   3.209   3.542   2.962
  566SOL     OW 2596   1.853   3.462   3.357
  566SOL    HW1 2597   1.792   3.527   3.402
  566SOL    HW2 2598   1.938   3.508   3.332
  567SOL     OW 2599   3.096   2.572   1.315
  567SOL    HW1 2600   3.165   2.547   1.383
  567SOL    HW2 2601   3.060   2.663   1.335
  568SOL     OW 2602   5.304   6.762   0.108
  568SOL    HW1 2603   5.383   6.759   0.171
  568SOL    HW2 2604   5.222   6.735   0.158
  569SOL     OW 2605   0.974   2.759   0.860
  569SOL    HW1 2606   0.915   2.809   0.923
  569SOL    HW2 2607   0.920   2.690   0.812
  570SOL     OW 2608   3.373   0.149   6.584
  570SOL    HW1 2609   3.292   0.207   6.597
  570SOL    HW2 2610   3.343   0.055   6.566
  571SOL     OW 2611   2.722   4.946   3.865
  571SOL    HW1 2612   2.690   5.019   3.925
  571SOL    HW2 2613   2.795   4.980   3.806
  572SOL     OW 2614   1.733   5.049   5.197
  572SOL    HW1 2615   1.732   5.033   5.098
  572SOL    HW2 2616   1.794   4.984   5.241
  573SOL     OW 2617   6.015   1.127   5.896
  573SOL    HW1 2618   6.015   1.213   5.946
  573SOL    HW2 2619   5.961   1.137   5.812
  574SOL     OW 2620   3.631   0.388   5.363
  574SOL    HW1 2621   3.546   0.396   5.415
  574SOL    HW2 2622   3.697   0.334   5.415
  575SOL     OW 2623   4.331   2.706   1.700
  575SOL    HW1 2624   4.357   2.622   1.747
  575SOL    HW2 2625   4.258   2.687   1.635
  576SOL     OW 2626   1.061   3.476   3.043
  576SOL    HW1 2627   1.065   3.488   3.143
  576SOL    HW2 2628   1.150   3.443   3.010
  577SOL     OW 2629   1.583   0.823   2.228
  577SOL    HW1 2630   1.493   0.868   2.225
  577SOL    HW2 2631   1.614   0.818   2.323
  578SOL     OW 2632   0.569   4.964   5.004
  578SOL    HW1 2633   0.576   5.036   4.936
  578SOL    HW2 2634   0.618   4.882   4.972
  579SOL     OW 2635   1.668   4.244   3.247
  579SOL    HW1 2636   1.636   4.167   3.303
  579SOL    HW2 2637   1.755   4.278   3.284
  580SOL     OW 2638   3.878   5.325   5.608
  580SOL    HW1 2639   3.893   5.246   5.547
  580SOL    HW2 2640   3.879   5.294   5.703
  581SOL     OW 2641   2.101   3.342   2.257
  581SOL    HW1 2642   2.157   3.425   2.259
  581SOL    HW2 2643   2.160   3.262   2.245
  582SOL     OW 2644   4.488   5.709   2.666
  582SOL    HW1 2645   4.543   5.718   2.749
  582SOL    HW2 2646   4.544   5.733   2.587
  583SOL     OW 2647   3.003   6.110   5.374
  583SOL    HW1 2648   3.012   6.188   5.437
  583SOL    HW2 2649   3.084   6.105   5.316
  584SOL     OW 2650   2.998   6.923   6.278
  584SOL    HW1 2651   3.043   6.984   6.343
  584SOL    HW2 2652   2.901   6.917   6.301
  585SOL     OW 2653   4.260   1.063   0.400
  585SOL    HW1 2654   4.177   1.115   0.380
  585SOL    HW2 2655   4.334   1.093   0.340
  586SOL     OW 2656   3.329   0.826   0.519
  586SOL    HW1 2657   3.235   0.796   0.507
  586SOL    HW2 2658   3.383   0.754   0.562
  587SOL     OW 2659   4.726   2.419   3.148
  587SOL    HW1 2660   4.779   2.503   3.160
  587SOL    HW2 2661   4.788   2.343   3.128
  588SOL     OW 2662   2.202   5.093   1.181
  588SOL    HW1 2663   2.247   5.089   1.271
  588SOL    HW2 2664   2.103   5.094   1.194
  589SOL     OW 2665   3.493   5.543   1.789
  589SOL    HW1 2666   3.410   5.530   1.843
  589SOL    HW2 2667   3.530   5.634   1.806
  590SOL     OW 2668   5.532   1.392   1.199
  590SOL    HW1 2669   5.479   1.451   1.259
  590SOL    HW2 2670   5.584   1.326   1.254
  591SOL     OW 2671   3.586   6.177   3.469
  591SOL    HW1 2672   3.667   6.148   3.419
  591SOL    HW2 2673   3.590   6.275   3.486
  592SOL     OW 2674   4.359   0.813   2.492
  592SOL    HW1 2675   4.328   0.906   2.473
  592SOL    HW2 2676   4.354   0.759   2.408
  593SOL     OW 2677   4.955   1.991   3.872
  593SOL    HW1 2678   4.958   2.062   3.941
  593SOL    HW2 2679   5.024   2.010   3.802
  594SOL     OW 2680   5.846   0.218   1.059
  594SOL    HW1 2681   5.756   0.261   1.050
  594SOL    HW2 2682   5.915   0.288   1.074
  595SOL     OW 2683   5.231   6.338   3.898
  595SOL    HW1 2684   5.235   6.418   3.838
  595SOL    HW2 2685   5.150   6.344   3.956
  596SOL     OW 2686   0.517   4.855   3.061
  596SOL    HW1 2687   0.435   4.912   3.071
  596SOL    HW2 2688   0.490   4.759   3.051
  597SOL     OW 2689   2.929   6.375   6.770
  597SOL    HW1 2690   3.014   6.327   6.790
  597SOL    HW2 2691   2.866   6.313   6.723
  598SOL     OW 2692   3.868   3.986   4.646
  598SOL    HW1 2693   3.918   3.961   4.563
  598SOL    HW2 2694   3.777   4.021   4.622
  599SOL     OW 2695   2.156   5.634   2.718
  599SOL    HW1 2696   2.178   5.538   2.735
  599SOL    HW2 2697   2.146   5.681   2.806
  600SOL     OW 2698   6.028   2.500   6.220
  600SOL    HW1 2699   6.081   2.416   6.209
  600SOL    HW2 2700   6.079   2.577   6.182
  601SOL     OW 2701   1.381   0.873   4.169
  601SOL    HW1 2702   1.433   0.802   4.216
  601SOL    HW2 2703   1.390   0.959   4.220
  602SOL     OW 2704   2.284   0.723   6.308
  602SOL    HW1 2705   2.266   0.821   6.313
  602SOL    HW2 2706   2.257   0.689   6.218
  603SOL     OW 2707   2.730   2.588   5.371
  603SOL    HW1 2708   2.725   2.687   5.389
  603SOL    HW2 2709   2.805   2.570   5.308
  604SOL     OW 2710   1.041   1.735   1.254
  604SOL    HW1 2711   0.984   1.749   1.336
  604SOL    HW2 2712   0.989   1.681   1.188
  605SOL     OW 2713   6.530   4.756   1.178
  605SOL    HW1 2714   6.481   4.669   1.181
  605SOL    HW2 2715   6.616   4.744   1.129
  606SOL     OW 2716   4.806   6.754   5.555
  606SOL    HW1 2717   4.824   6.658   5.534
  606SOL    HW2 2718   4.892   6.804   5.560
  607SOL     OW 2719   6.948   4.825   4.852
  607SOL    HW1 2720   6.976   4.882   4.775
  607SOL    HW2 2721   6.868   4.770   4.826
  608SOL     OW 2722   4.261   6.154   6.729
  608SOL    HW1 2723   4.336   6.099   6.693
  608SOL    HW2 2724   4.240   6.127   6.823
  609SOL     OW 2725   3.577   2.828   2.159
  609SOL    HW1 2726   3.661   2.827   2.212
  609SOL    HW2 2727   3.595   2.793   2.067
  610SOL     OW 2728   5.617   3.345   0.162
  610SOL    HW1 2729   5.533   3.393   0.138
  610SOL    HW2 2730   5.607   3.304   0.253
  611SOL     OW 2731   4.734   0.458   1.691
  611SOL    HW1 2732   4.748   0.415   1.781
  611SOL    HW2 2733   4.669   0.533   1.700
  612SOL     OW 2734   3.211   5.689   4.407
  612SOL    HW1 2735   3.153   5.761   4.444
  612SOL    HW2 2736   3.280   5.730   4.347
  613SOL     OW 2737   4.754   4.690   5.479
  613SOL    HW1 2738   4.843   4.721   5.514
  613SOL    HW2 2739   4.699   4.770   5.455
  614SOL     OW 2740   5.012   4.768   5.600
  614SOL    HW1 2741   5.001   4.759   5.699
  614SOL    HW2 2742   5.083   4.705   5.568
  615SOL     OW 2743   6.558   2.588   0.979
  615SOL    HW1 2744   6.498   2.555   0.906
  615SOL    HW2 2745   6.542   2.535   1.062
  616SOL     OW 2746   0.270   2.103   2.443
  616SOL    HW1 2747   0.336   2.148   2.503
  616SOL    HW2 2748   0.211   2.172   2.400
  617SOL     OW 2749   0.530   4.662   5.723
  617SOL    HW1 2750   0.561   4.700   5.635
  617SOL    HW2 2751   0.486   4.574   5.708
  618SOL     OW 2752   1.171   2.213   0.637
  618SOL    HW1 2753   1.154   2.161   0.553
  618SOL    HW2 2754   1.112   2.293   0.639
  619SOL     OW 2755   2.855   1.734   1.000
  619SOL    HW1 2756   2.801   1.777   1.071
  619SOL    HW2 2757   2.800   1.665   0.952
  620SOL     OW 2758   4.583   2.317   0.618
  620SOL    HW1 2759   4.485   2.329   0.607
  620SOL    HW2 2760   4.602   2.232   0.667
  621SOL     OW 2761   3.187   5.684   6.894
  621SOL    HW1 2762   3.248   5.717   6.822
  621SOL    HW2 2763   3.092   5.699   6.867
  622SOL     OW 2764   1.084   0.817   6.389
  622SOL    HW1 2765   1.176   0.786   6.415
  622SOL    HW2 2766   1.022   0.805   6.465
  623SOL     OW 2767   0.973   5.920   6.012
  623SOL    HW1 2768   0.939   5.831   5.980
  623SOL    HW2 2769   0.920   5.993   5.968
  624SOL     OW 2770   0.052   2.324   1.282
  624SOL    HW1 2771   7.007   2.274   1.224
  624SOL    HW2 2772   0.121   2.367   1.225
  625SOL     OW 2773   2.470   1.869   1.457
  625SOL    HW1 2774   2.517   1.831   1.537
  625SOL    HW2 2775   2.509   1.959   1.436
  626SOL     OW 2776   2.508   5.695   3.820
  626SOL    HW1 2777   2.550   5.616   3.777
  626SOL    HW2 2778   2.564   5.722   3.899
  627SOL     OW 2779   5.143   0.498   0.810
  627SOL    HW1 2780   5.050   0.532   0.798
  627SOL    HW2 2781   5.167   0.439   0.733
  628SOL     OW 2782   5.623   5.295   5.972
  628SOL    HW1 2783   5.529   5.267   5.991
  628SOL    HW2 2784   5.641   5.383   6.015
  629SOL     OW 2785   6.761   6.510   0.897
  629SOL    HW1 2786   6.719   6.519   0.987
  629SOL    HW2 2787   6.850   6.557   0.898
  630SOL     OW 2788   6.301   1.259   2.340
  630SOL    HW1 2789   6.249   1.173   2.336
  630SOL    HW2 2790   6.375   1.256   2.273
  631SOL     OW 2791   3.687   6.848   4.867
  631SOL    HW1 2792   3.708   6.855   4.965
  631SOL    HW2 2793   3.724   6.928   4.819
  632SOL     OW 2794   2.420   1.812   0.620
  632SOL    HW1 2795   2.385   1.885   0.679
  632SOL    HW2 2796   2.451   1.852   0.533
  633SOL     OW 2797   4.472   5.081   0.360
  633SOL    HW1 2798   4.460   5.040   0.450
  633SOL    HW2 2799   4.543   5.032   0.310
  634SOL     OW 2800   4.812   4.568   1.728
  634SOL    HW1 2801   4.789   4.606   1.639
  634SOL    HW2 2802   4.729   4.561   1.783
  635SOL     OW 2803   4.446   5.601   1.928
  635SOL    HW1 2804   4.403   5.567   1.844
  635SOL    HW2 2805   4.405   5.688   1.954
  636SOL     OW 2806   5.265   5.829   6.875
  636SOL    HW1 2807   5.204   5.864   6.947
  636SOL    HW2 2808   5.219   5.756   6.825
  637SOL     OW 2809   6.314   3.880   1.834
  637SOL    HW1 2810   6.348   3.944   1.766
  637SOL    HW2 2811   6.254   3.814   1.790
  638SOL     OW 2812   5.016   1.899   2.143
  638SOL    HW1 2813   4.945   1.911   2.213
  638SOL    HW2 2814   5.105   1.922   2.181
  639SOL     OW 2815   5.306   3.893   2.520
  639SOL    HW1 2816   5.273   3.886   2.426
  639SOL    HW2 2817   5.390   3.839   2.530
  640SOL     OW 2818   0.957   4.627   5.146
  640SOL    HW1 2819   0.878   4.577   5.180
  640SOL    HW2 2820   0.941   4.656   5.052
  641SOL     OW 2821   0.050   5.346   4.474
  641SOL    HW1 2822   6.984   5.313   4.436
  641SOL    HW2 2823   0.053   5.446   4.469
  642SOL     OW 2824   6.669   4.129   4.333
  642SOL    HW1 2825   6.685   4.151   4.430
  642SOL    HW2 2826   6.751   4.150   4.281
  643SOL     OW 2827   5.610   4.732   5.345
  643SOL    HW1 2828   5.516   4.764   5.338
  643SOL    HW2 2829   5.673   4.808   5.327
  644SOL     OW 2830   1.507   6.180   3.550
  644SOL    HW1 2831   1.456   6.266   3.561
  644SOL    HW2 2832   1.604   6.200   3.538
  645SOL     OW 2833   5.679   1.950   4.564
  645SOL    HW1 2834   5.686   1.933   4.662
  645SOL    HW2 2835   5.584   1.970   4.541
  646SOL     OW 2836   2.791   1.727   3.421
  646SOL    HW1 2837   2.861   1.742   3.491
  646SOL    HW2 2838   2.800   1.796   3.349
  647SOL     OW 2839   5.956   2.803   5.799
  647SOL    HW1 2840   5.898   2.827   5.877
  647SOL    HW2 2841   5.902   2.801   5.716
  648SOL     OW 2842   0.030   3.947   3.258
  648SOL    HW1 2843   0.010   3.867   3.314
  648SOL    HW2 2844   6.964   3.987   3.224
  649SOL     OW 2845   4.142   3.717   0.909
  649SOL    HW1 2846   4.217   3.653   0.890
  649SOL    HW2 2847   4.162   3.806   0.867
  650SOL     OW 2848   5.134   4.369   0.726
  650SOL    HW1 2849   5.153   4.453   0.674
  650SOL    HW2 2850   5.206   4.356   0.794
  651SOL     OW 2851   0.302   6.671   6.725
  651SOL    HW1 2852   0.270   6.622   6.806
  651SOL    HW2 2853   0.300   6.610   6.646
  652SOL     OW 2854   5.867   6.126   3.697
  652SOL    HW1 2855   5.850   6.082   3.609
  652SOL    HW2 2856   5.955   6.174   3.694
  653SOL     OW 2857   3.553   6.029   5.018
  653SOL    HW1 2858   3.545   6.129   5.012
  653SOL    HW2 2859   3.468   5.991   5.055
  654SOL     OW 2860   0.176   4.145   5.869
  654SOL    HW1 2861   0.206   4.119   5.961
  654SOL    HW2 2862   0.256   4.154   5.810
  655SOL     OW 2863   0.724   6.764   2.067
  655SOL    HW1 2864   0.767   6.691   2.120
  655SOL    HW2 2865   0.779   6.783   1.986
  656SOL     OW 2866   1.899   5.732   1.584
  656SOL    HW1 2867   1.946   5.810   1.544
  656SOL    HW2 2868   1.800   5.746   1.578
  657SOL     OW 2869   1.770   2.148   1.883
  657SOL    HW1 2870   1.794   2.192   1.797
  657SOL    HW2 2871   1.843   2.086   1.910
  658SOL     OW 2872   2.853   3.768   6.179
  658SOL    HW1 2873   2.804   3.692   6.222
  658SOL    HW2 2874   2.948   3.741   6.162
  659SOL     OW 2875   2.625   6.629   6.309
  659SOL    HW1 2876   2.695   6.565   6.277
  659SOL    HW2 2877   2.549   6.629   6.245
  660SOL     OW 2878   5.100   4.010   1.549
  660SOL    HW1 2879   5.096   3.982   1.645
  660SOL    HW2 2880   5.190   4.049   1.529
  661SOL     OW 2881   4.142   6.443   3.711
  661SOL    HW1 2882   4.102   6.371   3.654
  661SOL    HW2 2883   4.101   6.531   3.686
  662SOL     OW 2884   4.219   1.178   5.146
  662SOL    HW1 2885   4.247   1.220   5.060
  662SOL    HW2 2886   4.262   1.225   5.222
  663SOL     OW 2887   2.517   3.933   6.222
  663SOL    HW1 2888   2.478   3.869   6.155
  663SOL    HW2 2889   2.605   3.966   6.188
  664SOL     OW 2890   0.274   6.540   6.497
  664SOL    HW1 2891   0.301   6.446   6.478
  664SOL    HW2 2892   0.177   6.552   6.476
  665SOL     OW 2893   4.263   5.314   1.956
  665SOL    HW1 2894   4.333   5.281   2.020
  665SOL    HW2 2895   4.177   5.327   2.006
  666SOL     OW 2896   5.069   1.324   1.973
  666SOL    HW1 2897   5.109   1.413   1.995
  666SOL    HW2 2898   5.084   1.261   2.050
  667SOL     OW 2899   1.364   5.021   2.472
  667SOL    HW1 2900   1.279   5.013   2.525
  667SOL    HW2 2901   1.406   4.931   2.465
  668SOL     OW 2902   4.922   6.038   6.250
  668SOL    HW1 2903   4.968   6.126   6.258
  668SOL    HW2 2904   4.983   5.972   6.206
  669SOL     OW 2905   5.050   0.067   3.366
  669SOL    HW1 2906   5.077   0.021   3.282
  669SOL    HW2 2907   5.121   0.132   3.394
  670SOL     OW 2908   3.039   2.565   1.647
  670SOL    HW1 2909   3.083   2.508   1.577
  670SOL    HW2 2910   3.022   2.509   1.728
  671SOL     OW 2911   3.247   6.307   0.921
  671SOL    HW1 2912   3.252   6.349   1.012
  671SOL    HW2 2913   3.188   6.362   0.862
  672SOL     OW 2914   6.428   5.692   1.502
  672SOL    HW1 2915   6.440   5.781   1.458
  672SOL    HW2 2916   6.384   5.704   1.591
  673SOL     OW 2917   6.596   0.291   1.422
  673SOL    HW1 2918   6.643   0.268   1.507
  673SOL    HW2 2919   6.624   0.381   1.391
  674SOL     OW 2920   0.474   1.382   5.069
  674SOL    HW1 2921   0.502   1.468   5.112
  674SOL    HW2 2922   0.522   1.306   5.112
  675SOL     OW 2923   0.193   2.397   2.534
  675SOL    HW1 2924   0.263   2.454   2.492
  675SOL    HW2 2925   0.160   2.440   2.618
  676SOL     OW 2926   3.295   5.547   3.692
  676SOL    HW1 2927   3.330   5.456   3.716
  676SOL    HW2 2928   3.204   5.559   3.731
  677SOL     OW 2929   5.331   1.276   0.067
  677SOL    HW1 2930   5.420   1.240   0.038
  677SOL    HW2 2931   5.290   1.213   0.133
  678SOL     OW 2932   2.721   6.430   4.951
  678SOL    HW1 2933   2.771   6.397   5.031
  678SOL    HW2 2934   2.623   6.428   4.970
  679SOL     OW 2935   4.701   2.096   4.079
  679SOL    HW1 2936   4.758   2.033   4.132
  679SOL    HW2 2937   4.649   2.044   4.011
  680SOL     OW 2938   5.106   5.794   4.842
  680SOL    HW1 2939   5.174   5.771   4.772
  680SOL    HW2 2940   5.153   5.825   4.925
  681SOL     OW 2941   4.380   5.342   1.692
  681SOL    HW1 2942   4.322   5.338   1.773
  681SOL    HW2 2943   4.362   5.262   1.634
  682SOL     OW 2944   6.258   0.905   1.846
  682SOL    HW1 2945   6.231   0.809   1.851
  682SOL    HW2 2946   6.357   0.911   1.829
  683SOL     OW 2947   5.357   2.664   0.736
  683SOL    HW1 2948   5.415   2.597   0.783
  683SOL    HW2 2949   5.290   2.701   0.800
  684SOL     OW 2950   6.556   1.183   0.710
  684SOL    HW1 2951   6.655   1.178   0.718
  684SOL    HW2 2952   6.532   1.202   0.615
  685SOL     OW 2953   3.145   1.791   3.869
  685SOL    HW1 2954   3.095   1.865   3.915
  685SOL    HW2 2955   3.241   1.815   3.861
  686SOL     OW 2956   4.570   2.612   4.019
  686SOL    HW1 2957   4.610   2.611   4.111
  686SOL    HW2 2958   4.614   2.682   3.964
  687SOL     OW 2959   0.680   1.991   4.030
  687SOL    HW1 2960   0.723   1.903   4.009
  687SOL    HW2 2961   0.657   1.994   4.128
  688SOL     OW 2962   0.591   1.969   6.530
  688SOL    HW1 2963   0.564   1.990   6.436
  688SOL    HW2 2964   0.644   1.884   6.532
  689SOL     OW 2965   0.860   5.012   6.403
  689SOL    HW1 2966   0.953   5.049   6.408
  689SOL    HW2 2967   0.806   5.047   6.479
  690SOL     OW 2968   6.725   3.103   3.464
  690SOL    HW1 2969   6.801   3.124   3.402
  690SOL    HW2 2970   6.761   3.059   3.547
  691SOL     OW 2971   3.139   1.142   0.299
  691SOL    HW1 2972   3.080   1.204   0.351
  691SOL    HW2 2973   3.096   1.052   0.296
  692SOL     OW 2974   4.046   1.956   4.234
  692SOL    HW1 2975   4.041   1.984   4.139
  692SOL    HW2 2976   3.959   1.976   4.280
  693SOL     OW 2977   4.679   6.824   4.179
  693SOL    HW1 2978   4.739   6.890   4.135
  693SOL    HW2 2979   4.659   6.749   4.115
  694SOL     OW 2980   4.304   6.903   4.590
  694SOL    HW1 2981   4.339   6.996   4.582
  694SOL    HW2 2982   4.335   6.849   4.512
  695SOL     OW 2983   4.346   6.778   3.870
  695SOL    HW1 2984   4.284   6.723   3.926
  695SOL    HW2 2985   4.376   6.858   3.922
  696SOL     OW 2986   4.801   4.628   3.688
  696SOL    HW1 2987   4.709   4.589   3.688
  696SOL    HW2 2988   4.799   4.717   3.642
  697SOL     OW 2989   1.536   3.863   2.465
  697SOL    HW1 2990   1.506   3.776   2.504
  697SOL    HW2 2991   1.612   3.848   2.403
  698SOL     OW 2992   5.160   6.662   1.237
  698SOL    HW1 2993   5.143   6.606   1.156
  698SOL    HW2 2994   5.114   6.623   1.316
  699SOL     OW 2995   1.426   3.501   6.936
  699SOL    HW1 2996   1.376   3.470   7.016
  699SOL    HW2 2997   1.369   3.562   6.881
  700SOL     OW 2998   3.845   0.885   2.534
  700SOL    HW1 2999   3.787   0.935   2.598
  700SOL    HW2 3000   3.858   0.938   2.451
  701SOL     OW 3001   6.587   3.651   0.084
  701SOL    HW1 3002   6.495   3.671   0.050
  701SOL    HW2 3003   6.644   3.618   0.009
  702SOL     OW 3004   1.381   6.263   4.993
  702SOL    HW1 3005   1.394   6.254   4.894
  702SOL    HW2 3006   1.296   6.313   5.011
  703SOL     OW 3007   3.560   3.293   5.834
  703SOL    HW1 3008   3.514   3.226   5.892
  703SOL    HW2 3009   3.619   3.351   5.890
  704SOL     OW 3010   1.368   2.866   6.230
  704SOL    HW1 3011   1.357   2.877   6.329
  704SOL    HW2 3012   1.321   2.940   6.183
  705SOL     OW 3013   6.306   5.533   2.533
  705SOL    HW1 3014   6.391   5.492   2.566
  705SOL    HW2 3015   6.243   5.546   2.610
  706SOL     OW 3016   4.117   1.873   4.867
  706SOL    HW1 3017   4.091   1.896   4.774
  706SOL    HW2 3018   4.142   1.956   4.917
  707SOL     OW 3019   4.729   4.669   3.169
  707SOL    HW1 3020   4.653   4.604   3.169
  707SOL    HW2 3021   4.815   4.619   3.168
  708SOL     OW 3022   3.089   0.655   2.685
  708SOL    HW1 3023   3.123   0.707   2.764
  708SOL    HW2 3024   3.079   0.717   2.607
  709SOL     OW 3025   1.051   5.718   0.861
  709SOL    HW1 3026   0.963   5.673   0.872
  709SOL    HW2 3027   1.055   5.798   0.921
  710SOL     OW 3028   4.207   2.438   1.297
  710SOL    HW1 3029   4.159   2.351   1.310
  710SOL    HW2 3030   4.305   2.426   1.316
  711SOL     OW 3031   0.298   2.914   5.907
  711SOL    HW1 3032   0.248   2.877   5.986
  711SOL    HW2 3033   0.233   2.935   5.834
  712SOL     OW 3034   4.797   2.265   1.567
  712SOL    HW1 3035   4.846   2.240   1.650
  712SOL    HW2 3036   4.728   2.196   1.547
  713SOL     OW 3037   3.600   3.622   5.786
  713SOL    HW1 3038   3.647   3.565   5.854
  713SOL    HW2 3039   3.651   3.620   5.700
  714SOL     OW 3040   0.121   5.190   3.545
  714SOL    HW1 3041   0.150   5.231   3.458
  714SOL    HW2 3042   0.035   5.232   3.575
  715SOL     OW 3043   5.588   6.005   6.547
  715SOL    HW1 3044   5.619   5.910   6.549
  715SOL    HW2 3045   5.635   6.057   6.618
  716SOL     OW 3046   0.661   1.117   1.938
  716SOL    HW1 3047   0.673   1.045   2.006
  716SOL    HW2 3048   0.650   1.205   1.984
  717SOL     OW 3049   0.019   4.632   3.857
  717SOL    HW1 3050   0.110   4.650   3.820
  717SOL    HW2 3051   6.970   4.681   3.803
  718SOL     OW 3052   4.694   3.255   5.752
  718SOL    HW1 3053   4.723   3.240   5.846
  718SOL    HW2 3054   4.603   3.216   5.738
  719SOL     OW 3055   5.806   0.144   2.437
  719SOL    HW1 3056   5.871   0.072   2.463
  719SOL    HW2 3057   5.717   0.103   2.418
  720SOL     OW 3058   2.275   0.263   6.336
  720SOL    HW1 3059   2.214   0.228   6.408
  720SOL    HW2 3060   2.357   0.206   6.331
  721SOL     OW 3061   2.331   1.744   2.049
  721SOL    HW1 3062   2.374   1.668   2.098
  721SOL    HW2 3063   2.303   1.815   2.114
  722SOL     OW 3064   2.652   0.789   5.584
  722SOL    HW1 3065   2.715   0.817   5.657
  722SOL    HW2 3066   2.692   0.813   5.495
  723SOL     OW 3067   2.064   4.295   3.371
  723SOL    HW1 3068   1.983   4.291   3.429
  723SOL    HW2 3069   2.041   4.262   3.279
  724SOL     OW 3070   0.699   1.276   3.792
  724SOL    HW1 3071   0.724   1.370   3.770
  724SOL    HW2 3072   0.612   1.253   3.748
  725SOL     OW 3073   1.251   5.190   2.964
  725SOL    HW1 3074   1.209   5.229   2.882
  725SOL    HW2 3075   1.349   5.209   2.964
  726SOL     OW 3076   3.131   5.045   1.613
  726SOL    HW1 3077   3.175   5.049   1.702
  726SOL    HW2 3078   3.136   5.134   1.569
  727SOL     OW 3079   6.006   4.397   6.028
  727SOL    HW1 3080   5.979   4.321   6.088
  727SOL    HW2 3081   5.954   4.479   6.053
  728SOL     OW 3082   6.653   3.313   4.004
  728SOL    HW1 3083   6.688   3.263   3.925
  728SOL    HW2 3084   6.687   3.271   4.088
  729SOL     OW 3085   7.020   2.306   1.017
  729SOL    HW1 3086   0.094   2.303   0.982
  729SOL    HW2 3087   6.972   2.223   0.988
  730SOL     OW 3088   6.783   0.290   4.149
  730SOL    HW1 3089   6.868   0.328   4.113
  730SOL    HW2 3090   6.747   0.349   4.221
  731SOL     OW 3091   4.213   5.307   6.355
  731SOL    HW1 3092   4.301   5.272   6.387
  731SOL    HW2 3093   4.175   5.370   6.423
  732SOL     OW 3094   5.876   3.067   1.811
  732SOL    HW1 3095   5.928   3.128   1.751
  732SOL    HW2 3096   5.846   2.987   1.759
  733SOL     OW 3097   5.378   0.240   5.050
  733SOL    HW1 3098   5.347   0.327   5.013
  733SOL    HW2 3099   5.407   0.180   4.975
  734SOL     OW 3100   6.113   5.330   2.733
  734SOL    HW1 3101   6.209   5.357   2.745
  734SOL    HW2 3102   6.058   5.371   2.806
  735SOL     OW 3103   3.979   1.693   0.440
  735SOL    HW1 3104   4.070   1.657   0.463
  735SOL    HW2 3105   3.988   1.779   0.391
  736SOL     OW 3106   0.779   0.922   3.654
  736SOL    HW1 3107   0.821   0.860   3.588
  736SOL    HW2 3108   0.844   0.940   3.728
  737SOL     OW 3109   5.241   1.919   5.690
  737SOL    HW1 3110   5.302   1.976   5.635
  737SOL    HW2 3111   5.223   1.834   5.642
  738SOL     OW 3112   2.957   3.672   1.465
  738SOL    HW1 3113   2.991   3.670   1.371
  738SOL    HW2 3114   3.004   3.743   1.517
  739SOL     OW 3115   4.825   0.462   4.265
  739SOL    HW1 3116   4.922   0.475   4.245
  739SOL    HW2 3117   4.799   0.369   4.239
  740SOL     OW 3118   5.731   1.147   2.792
  740SOL    HW1 3119   5.719   1.048   2.798
  740SOL    HW2 3120   5.667   1.193   2.854
  741SOL     OW 3121   1.868   0.103   3.592
  741SOL    HW1 3122   1.780   0.129   3.553
  741SOL    HW2 3123   1.884   0.155   3.676
  742SOL     OW 3124   2.318   6.848   1.803
  742SOL    HW1 3125   2.417   6.846   1.790
  742SOL    HW2 3126   2.290   6.768   1.856
  743SOL     OW 3127   0.570   5.253   3.113
  743SOL    HW1 3128   0.636   5.239   3.187
  743SOL    HW2 3129   0.492   5.305   3.148
  744SOL     OW 3130   5.656   0.978   1.018
  744SOL    HW1 3131   5.652   0.878   1.029
  744SOL    HW2 3132   5.708   1.018   1.094
  745SOL     OW 3133   1.836   5.396   5.153
  745SOL    HW1 3134   1.756   5.445   5.118
  745SOL    HW2 3135   1.812   5.302   5.173
  746SOL     OW 3136   6.076   3.892   6.284
  746SOL    HW1 3137   6.075   3.813   6.345
  746SOL    HW2 3138   6.148   3.881   6.215
  747SOL     OW 3139   3.982   6.056   4.915
  747SOL    HW1 3140   3.963   5.983   4.849
  747SOL    HW2 3141   3.908   6.058   4.983
  748SOL     OW 3142   4.453   5.276   2.567
  748SOL    HW1 3143   4.423   5.246   2.657
  748SOL    HW2 3144   4.400   5.229   2.496
  749SOL     OW 3145   5.885   3.646   4.553
  749SOL    HW1 3146   5.946   3.694   4.490
  749SOL    HW2 3147   5.835   3.575   4.504
  750SOL     OW 3148   3.011   1.257   1.209
  750SOL    HW1 3149   3.079   1.234   1.279
  750SOL    HW2 3150   2.925   1.212   1.229
  751SOL     OW 3151   4.423   1.629   0.107
  751SOL    HW1 3152   4.333   1.643   0.067
  751SOL    HW2 3153   4.422   1.549   0.167
  752SOL     OW 3154   2.573   2.993   0.962
  752SOL    HW1 3155   2.484   2.960   0.995
  752SOL    HW2 3156   2.642   2.977   1.033
  753SOL     OW 3157   0.847   3.780   5.692
  753SOL    HW1 3158   0.902   3.725   5.630
  753SOL    HW2 3159   0.881   3.770   5.786
  754SOL     OW 3160   4.882   1.352   6.249
  754SOL    HW1 3161   4.826   1.433   6.267
  754SOL    HW2 3162   4.892   1.339   6.151
  755SOL     OW 3163   2.221   4.639   5.008
  755SOL    HW1 3164   2.284   4.595   5.073
  755SOL    HW2 3165   2.180   4.569   4.949
  756SOL     OW 3166   2.375   5.495   6.925
  756SOL    HW1 3167   2.363   5.545   6.840
  756SOL    HW2 3168   2.316   5.534   6.995
  757SOL     OW 3169   0.661   6.167   4.325
  757SOL    HW1 3170   0.577   6.167   4.270
  757SOL    HW2 3171   0.680   6.260   4.358
  758SOL     OW 3172   4.468   0.925   3.288
  758SOL    HW1 3173   4.559   0.916   3.247
  758SOL    HW2 3174   4.477   0.940   3.387
  759SOL     OW 3175   0.344   2.833   2.848
  759SOL    HW1 3176   0.277   2.813   2.776
  759SOL    HW2 3177   0.300   2.886   2.920
  760SOL     OW 3178   6.086   0.001   3.526
  760SOL    HW1 3179   6.129   6.953   3.585
  760SOL    HW2 3180   6.031   6.974   3.456
  761SOL     OW 3181   5.470   4.102   6.726
  761SOL    HW1 3182   5.504   4.156   6.803
  761SOL    HW2 3183   5.427   4.018   6.760
  762SOL     OW 3184   3.049   0.298   5.465
  762SOL    HW1 3185   3.034   0.232   5.391
  762SOL    HW2 3186   3.140   0.283   5.504
  763SOL     OW 3187   4.213   6.063   6.097
  763SOL    HW1 3188   4.223   6.029   6.004
  763SOL    HW2 3189   4.121   6.100   6.109
  764SOL     OW 3190   5.183   0.973   5.571
  764SOL    HW1 3191   5.197   0.945   5.476
  764SOL    HW2 3192   5.225   1.062   5.586
  765SOL     OW 3193   1.777   5.841   1.040
  765SOL    HW1 3194   1.741   5.755   1.075
  765SOL    HW2 3195   1.820   5.892   1.115
  766SOL     OW 3196   2.711   2.020   5.224
  766SOL    HW1 3197   2.695   2.088   5.295
  766SOL    HW2 3198   2.791   2.046   5.170
  767SOL     OW 3199   6.773   6.167   3.951
  767SOL    HW1 3200   6.691   6.140   3.901
  767SOL    HW2 3201   6.827   6.230   3.895
  768SOL     OW 3202   1.758   5.261   3.357
  768SOL    HW1 3203   1.744   5.356   3.329
  768SOL    HW2 3204   1.672   5.211   3.350
  769SOL     OW 3205   2.854   0.839   5.769
  769SOL    HW1 3206   2.835   0.926   5.813
  769SOL    HW2 3207   2.953   0.829   5.756
  770SOL     OW 3208   1.529   5.334   3.969
  770SOL    HW1 3209   1.602   5.337   4.037
  770SOL    HW2 3210   1.500   5.239   3.955
  771SOL     OW 3211   1.179   4.695   2.880
  771SOL    HW1 3212   1.169   4.794   2.892
  771SOL    HW2 3213   1.217   4.655   2.964
  772SOL     OW 3214   6.091   4.329   0.119
  772SOL    HW1 3215   6.185   4.362   0.106
  772SOL    HW2 3216   6.027   4.406   0.113
  773SOL     OW 3217   0.845   4.238   3.240
  773SOL    HW1 3218   0.871   4.154   3.193
  773SOL    HW2 3219   0.839   4.313   3.174
  774SOL     OW 3220   1.621   1.424   2.039
  774SOL    HW1 3221   1.599   1.440   2.135
  774SOL    HW2 3222   1.703   1.369   2.032
  775SOL     OW 3223   2.016   1.580   4.185
  775SOL    HW1 3224   1.959   1.544   4.110
  775SOL    HW2 3225   2.076   1.507   4.218
  776SOL     OW 3226   6.889   0.807   6.165
  776SOL    HW1 3227   6.826   0.780   6.238
  776SOL    HW2 3228   6.913   0.726   6.110
  777SOL     OW 3229   1.818   4.288   1.602
  777SOL    HW1 3230   1.769   4.202   1.622
  777SOL    HW2 3231   1.916   4.272   1.606
  778SOL     OW 3232   2.569   0.177   1.560
  778SOL    HW1 3233   2.524   0.127   1.634
  778SOL    HW2 3234   2.631   0.115   1.510
  779SOL     OW 3235   6.913   2.329   2.130
  779SOL    HW1 3236   6.886   2.234   2.146
  779SOL    HW2 3237   6.936   2.372   2.218
  780SOL     OW 3238   0.739   2.287   4.534
  780SOL    HW1 3239   0.780   2.310   4.622
  780SOL    HW2 3240   0.807   2.240   4.477
  781SOL     OW 3241   5.601   6.001   1.069
  781SOL    HW1 3242   5.556   6.041   1.149
  781SOL    HW2 3243   5.566   6.044   0.986
  782SOL     OW 3244   1.511   3.381   5.602
  782SOL    HW1 3245   1.534   3.406   5.508
  782SOL    HW2 3246   1.594   3.377   5.657
  783SOL     OW 3247   5.000   4.674   1.929
  783SOL    HW1 3248   4.941   4.623   1.866
  783SOL    HW2 3249   5.023   4.616   2.007
  784SOL     OW 3250   4.060   4.942   1.869
  784SOL    HW1 3251   4.148   4.938   1.917
  784SOL    HW2 3252   3.997   5.001   1.919
  785SOL     OW 3253   0.624   1.401   3.307
  785SOL    HW1 3254   0.652   1.403   3.211
  785SOL    HW2 3255   0.705   1.393   3.365
  786SOL     OW 3256   6.831   0.576   2.689
  786SOL    HW1 3257   6.905   0.517   2.720
  786SOL    HW2 3258   6.843   0.668   2.727
  787SOL     OW 3259   1.521   0.605   0.094
  787SOL    HW1 3260   1.433   0.597   0.140
  787SOL    HW2 3261   1.588   0.547   0.140
  788SOL     OW 3262   4.512   2.116   1.242
  788SOL    HW1 3263   4.582   2.120   1.170
  788SOL    HW2 3264   4.465   2.028   1.238
  789SOL     OW 3265   4.448   5.003   1.887
  789SOL    HW1 3266   4.383   4.963   1.952
  789SOL    HW2 3267   4.502   4.930   1.845
  790SOL     OW 3268   2.560   1.569   2.815
  790SOL    HW1 3269   2.621   1.494   2.839
  790SOL    HW2 3270   2.489   1.579   2.885
  791SOL     OW 3271   2.527   6.261   5.205
  791SOL    HW1 3272   2.586   6.267   5.285
  791SOL    HW2 3273   2.554   6.182   5.150
  792SOL     OW 3274   1.066   0.612   2.027
  792SOL    HW1 3275   0.986   0.661   2.064
  792SOL    HW2 3276   1.063   0.517   2.058
  793SOL     OW 3277   4.915   5.588   4.875
  793SOL    HW1 3278   4.966   5.673   4.882
  793SOL    HW2 3279   4.959   5.518   4.932
  794SOL     OW 3280   2.599   4.125   5.932
  794SOL    HW1 3281   2.564   4.187   5.861
  794SOL    HW2 3282   2.569   4.156   6.022
  795SOL     OW 3283   4.109   0.445   5.383
  795SOL    HW1 3284   4.085   0.399   5.468
  795SOL    HW2 3285   4.031   0.501   5.352
  796SOL     OW 3286   1.008   2.749   6.828
  796SOL    HW1 3287   0.923   2.712   6.789
  796SOL    HW2 3288   1.086   2.710   6.779
  797SOL     OW 3289   4.758   0.657   0.891
  797SOL    HW1 3290   4.681   0.715   0.917
  797SOL    HW2 3291   4.748   0.629   0.796
  798SOL     OW 3292   3.599   0.095   2.440
  798SOL    HW1 3293   3.599   0.138   2.530
  798SOL    HW2 3294   3.571   7.019   2.449
  799SOL     OW 3295   0.356   0.688   6.468
  799SOL    HW1 3296   0.310   0.746   6.535
  799SOL    HW2 3297   0.376   0.741   6.386
  800SOL     OW 3298   6.794   0.810   2.808
  800SOL    HW1 3299   6.741   0.843   2.730
  800SOL    HW2 3300   6.762   0.855   2.892
  801SOL     OW 3301   2.369   4.435   5.105
  801SOL    HW1 3302   2.359   4.343   5.144
  801SOL    HW2 3303   2.458   4.472   5.129
  802SOL     OW 3304   3.326   2.602   6.731
  802SOL    HW1 3305   3.366   2.690   6.706
  802SOL    HW2 3306   3.326   2.541   6.651
  803SOL     OW 3307   1.367   0.409   5.642
  803SOL    HW1 3308   1.280   0.458   5.635
  803SOL    HW2 3309   1.399   0.412   5.736
  804SOL     OW 3310   6.779   6.572   1.401
  804SOL    HW1 3311   6.868   6.610   1.375
  804SOL    HW2 3312   6.707   6.613   1.345
  805SOL     OW 3313   2.326   1.077   4.266
  805SOL    HW1 3314   2.379   1.081   4.351
  805SOL    HW2 3315   2.231   1.052   4.287
  806SOL     OW 3316   5.756   0.436   5.965
  806SOL    HW1 3317   5.667   0.447   6.010
  806SOL    HW2 3318   5.789   0.525   5.935
  807SOL     OW 3319   0.658   0.003   4.402
  807SOL    HW1 3320   0.669   6.980   4.493
  807SOL    HW2 3321   0.575   6.988   4.359
  808SOL     OW 3322   4.530   3.082   6.966
  808SOL    HW1 3323   4.472   3.129   0.013
  808SOL    HW2 3324   4.621   3.124   6.966
  809SOL     OW 3325   0.916   4.759   0.812
  809SOL    HW1 3326   0.831   4.765   0.865
  809SOL    HW2 3327   0.947   4.664   0.808
  810SOL     OW 3328   3.641   4.547   0.056
  810SOL    HW1 3329   3.605   4.553   0.149
  810SOL    HW2 3330   3.568   4.567   7.010
  811SOL     OW 3331   5.407   5.349   4.072
  811SOL    HW1 3332   5.429   5.413   3.999
  811SOL    HW2 3333   5.460   5.371   4.154
  812SOL     OW 3334   0.053   1.740   2.132
  812SOL    HW1 3335   0.114   1.776   2.203
  812SOL    HW2 3336   6.984   1.784   2.140
  813SOL     OW 3337   3.047   0.453   4.353
  813SOL    HW1 3338   3.094   0.457   4.265
  813SOL    HW2 3339   3.036   0.357   4.379
  814SOL     OW 3340   6.559   5.367   2.612
  814SOL    HW1 3341   6.599   5.366   2.703
  814SOL    HW2 3342   6.630   5.387   2.545
  815SOL     OW 3343   5.964   2.904   3.696
  815SOL    HW1 3344   5.890   2.864   3.750
  815SOL    HW2 3345   5.926   2.948   3.615
  816SOL     OW 3346   5.659   5.229   0.469
  816SOL    HW1 3347   5.601   5.243   0.549
  816SOL    HW2 3348   5.614   5.269   0.389
  817SOL     OW 3349   1.061   5.392   1.428
  817SOL    HW1 3350   1.090   5.482   1.394
  817SOL    HW2 3351   0.968   5.399   1.463
  818SOL     OW 3352   6.060   3.195   3.704
  818SOL    HW1 3353   5.999   3.149   3.640
  818SOL    HW2 3354   6.153   3.159   3.693
  819SOL     OW 3355   6.097   3.043   1.205
  819SOL    HW1 3356   6.120   2.988   1.285
  819SOL    HW2 3357   6.020   3.001   1.157
  820SOL     OW 3358   3.231   2.197   4.722
  820SOL    HW1 3359   3.255   2.257   4.799
  820SOL    HW2 3360   3.137   2.217   4.693
  821SOL     OW 3361   6.223   4.649   6.225
  821SOL    HW1 3362   6.264   4.642   6.135
  821SOL    HW2 3363   6.175   4.564   6.247
  822SOL     OW 3364   0.040   3.561   3.303
  822SOL    HW1 3365   0.027   3.640   3.364
  822SOL    HW2 3366   0.050   3.478   3.358
  823SOL     OW 3367   6.158   4.390   6.321
  823SOL    HW1 3368   6.114   4.300   6.328
  823SOL    HW2 3369   6.124   4.450   6.394
  824SOL     OW 3370   4.598   1.269   6.094
  824SOL    HW1 3371   4.642   1.343   6.043
  824SOL    HW2 3372   4.666   1.225   6.153
  825SOL     OW 3373   6.228   5.488   0.896
  825SOL    HW1 3374   6.305   5.509   0.957
  825SOL    HW2 3375   6.172   5.570   0.883
  826SOL     OW 3376   3.811   2.749   5.619
  826SOL    HW1 3377   3.837   2.732   5.524
  826SOL    HW2 3378   3.892   2.745   5.677
  827SOL     OW 3379   2.648   4.232   5.355
  827SOL    HW1 3380   2.601   4.144   5.349
  827SOL    HW2 3381   2.583   4.306   5.337
  828SOL     OW 3382   5.861   6.512   6.207
  828SOL    HW1 3383   5.955   6.504   6.242
  828SOL    HW2 3384   5.833   6.608   6.210
  829SOL     OW 3385   3.745   3.420   1.899
  829SOL    HW1 3386   3.703   3.337   1.935
  829SOL    HW2 3387   3.720   3.431   1.803
  830SOL     OW 3388   5.785   4.743   6.743
  830SOL    HW1 3389   5.870   4.786   6.712
  830SOL    HW2 3390   5.801   4.645   6.758
  831SOL     OW 3391   5.854   7.005   1.190
  831SOL    HW1 3392   5.855   0.078   1.153
  831SOL    HW2 3393   5.787   6.950   1.140
  832SOL     OW 3394   4.221   2.200   4.238
  832SOL    HW1 3395   4.156   2.234   4.170
  832SOL    HW2 3396   4.197   2.107   4.264
  833SOL     OW 3397   1.966   3.481   6.460
  833SOL    HW1 3398   1.990   3.566   6.414
  833SOL    HW2 3399   1.893   3.435   6.408
  834SOL     OW 3400   5.367   3.626   1.001
  834SOL    HW1 3401   5.276   3.666   1.011
  834SOL    HW2 3402   5.363   3.528   1.023
  835SOL     OW 3403   2.570   0.024   4.984
  835SOL    HW1 3404   2.562   0.103   5.044
  835SOL    HW2 3405   2.480   7.001   4.972
  836SOL     OW 3406   3.824   0.562   5.051
  836SOL    HW1 3407   3.886   0.500   5.003
  836SOL    HW2 3408   3.868   0.595   5.135
  837SOL     OW 3409   0.148   0.620   1.055
  837SOL    HW1 3410   0.085   0.650   1.128
  837SOL    HW2 3411   0.163   0.695   0.991
  838SOL     OW 3412   2.574   6.489   4.595
  838SOL    HW1 3413   2.512   6.542   4.653
  838SOL    HW2 3414   2.668   6.505   4.622
  839SOL     OW 3415   2.176   1.337   1.972
  839SOL    HW1 3416   2.141   1.260   2.024
  839SOL    HW2 3417   2.139   1.335   1.879
  840SOL     OW 3418   6.272   5.938   0.152
  840SOL    HW1 3419   6.214   5.878   0.207
  840SOL    HW2 3420   6.217   5.987   0.085
  841SOL     OW 3421   3.447   5.645   6.013
  841SOL    HW1 3422   3.525   5.622   5.954
  841SOL    HW2 3423   3.386   5.708   5.964
  842SOL     OW 3424   3.663   0.176   5.964
  842SOL    HW1 3425   3.624   0.268   5.959
  842SOL    HW2 3426   3.622   0.126   6.040
  843SOL     OW 3427   0.912   1.753   1.494
  843SOL    HW1 3428   0.844   1.817   1.458
  843SOL    HW2 3429   0.869   1.665   1.512
  844SOL     OW 3430   6.954   6.776   1.036
  844SOL    HW1 3431   7.015   6.841   0.991
  844SOL    HW2 3432   6.883   6.825   1.086
  845SOL     OW 3433   5.221   3.877   3.384
  845SOL    HW1 3434   5.194   3.954   3.441
  845SOL    HW2 3435   5.319   3.881   3.366
  846SOL     OW 3436   2.124   0.537   5.961
  846SOL    HW1 3437   2.173   0.620   5.986
  846SOL    HW2 3438   2.149   0.511   5.867
  847SOL     OW 3439   1.033   3.367   1.697
  847SOL    HW1 3440   0.938   3.345   1.676
  847SOL    HW2 3441   1.093   3.329   1.627
  848SOL     OW 3442   6.644   6.756   5.521
  848SOL    HW1 3443   6.603   6.831   5.573
  848SOL    HW2 3444   6.616   6.669   5.561
  849SOL     OW 3445   6.044   4.158   6.329
  849SOL    HW1 3446   6.059   4.065   6.295
  849SOL    HW2 3447   5.987   4.154   6.411
  850SOL     OW 3448   6.099   0.120   4.845
  850SOL    HW1 3449   6.182   0.132   4.791
  850SOL    HW2 3450   6.120   0.068   4.928
  851SOL     OW 3451   0.196   2.857   0.240
  851SOL    HW1 3452   0.150   2.934   0.285
  851SOL    HW2 3453   0.141   2.775   0.250
  852SOL     OW 3454   1.066   4.043   0.259
  852SOL    HW1 3455   1.043   4.099   0.338
  852SOL    HW2 3456   1.166   4.030   0.256
  853SOL     OW 3457   0.724   4.623   0.046
  853SOL    HW1 3458   0.686   4.714   0.067
  853SOL    HW2 3459   0.817   4.617   0.081
  854SOL     OW 3460   4.702   5.902   0.391
  854SOL    HW1 3461   4.660   5.993   0.397
  854SOL    HW2 3462   4.684   5.853   0.476
  855SOL     OW 3463   6.432   0.183   0.715
  855SOL    HW1 3464   6.481   0.269   0.728
  855SOL    HW2 3465   6.359   0.196   0.648
  856SOL     OW 3466   1.449   1.203   6.770
  856SOL    HW1 3467   1.548   1.203   6.753
  856SOL    HW2 3468   1.432   1.175   6.864
  857SOL     OW 3469   6.216   5.133   2.206
  857SOL    HW1 3470   6.186   5.137   2.111
  857SOL    HW2 3471   6.256   5.043   2.224
  858SOL     OW 3472   3.266   4.808   1.450
  858SOL    HW1 3473   3.343   4.827   1.511
  858SOL    HW2 3474   3.271   4.713   1.419
  859SOL     OW 3475   5.988   6.187   4.906
  859SOL    HW1 3476   6.082   6.154   4.899
  859SOL    HW2 3477   5.925   6.109   4.907
  860SOL     OW 3478   6.604   2.413   6.636
  860SOL    HW1 3479   6.518   2.452   6.669
  860SOL    HW2 3480   6.680   2.470   6.667
  861SOL     OW 3481   2.257   4.918   3.706
  861SOL    HW1 3482   2.325   4.968   3.759
  861SOL    HW2 3483   2.187   4.982   3.673
  862SOL     OW 3484   2.144   4.110   2.661
  862SOL    HW1 3485   2.092   4.118   2.746
  862SOL    HW2 3486   2.130   4.019   2.623
  863SOL     OW 3487   6.280   0.818   6.181
  863SOL    HW1 3488   6.285   0.762   6.098
  863SOL    HW2 3489   6.187   0.814   6.217
  864SOL     OW 3490   3.772   6.054   4.347
  864SOL    HW1 3491   3.720   6.104   4.417
  864SOL    HW2 3492   3.833   6.117   4.299
  865SOL     OW 3493   1.830   6.915   5.797
  865SOL    HW1 3494   1.786   6.997   5.760
  865SOL    HW2 3495   1.760   6.849   5.826
  866SOL     OW 3496   2.814   0.856   0.782
  866SOL    HW1 3497   2.758   0.916   0.725
  866SOL    HW2 3498   2.871   0.912   0.843
  867SOL     OW 3499   4.973   3.541   0.881
  867SOL    HW1 3500   5.050   3.589   0.923
  867SOL    HW2 3501   4.924   3.490   0.952
  868SOL     OW 3502   6.665   0.944   1.585
  868SOL    HW1 3503   6.588   0.960   1.523
  868SOL    HW2 3504   6.689   1.030   1.631
  869SOL     OW 3505   0.134   4.175   2.874
  869SOL    HW1 3506   0.145   4.089   2.923
  869SOL    HW2 3507   0.197   4.178   2.797
  870SOL     OW 3508   3.961   3.882   0.716
  870SOL    HW1 3509   4.010   3.970   0.721
  870SOL    HW2 3510   4.027   3.808   0.706
  871SOL     OW 3511   5.099   2.263   3.573
  871SOL    HW1 3512   5.085   2.250   3.474
  871SOL    HW2 3513   5.071   2.355   3.599
  872SOL     OW 3514   5.806   2.717   3.844
  872SOL    HW1 3515   5.766   2.686   3.758
  872SOL    HW2 3516   5.894   2.671   3.858
  873SOL     OW 3517   5.244   5.292   5.101
  873SOL    HW1 3518   5.340   5.269   5.115
  873SOL    HW2 3519   5.195   5.283   5.188
  874SOL     OW 3520   6.565   3.508   6.530
  874SOL    HW1 3521   6.639   3.443   6.547
  874SOL    HW2 3522   6.584   3.594   6.577
  875SOL     OW 3523   4.899   5.003   1.257
  875SOL    HW1 3524   4.900   5.103   1.261
  875SOL    HW2 3525   4.880   4.974   1.163
  876SOL     OW 3526   0.222   5.290   2.141
  876SOL    HW1 3527   0.206   5.370   2.082
  876SOL    HW2 3528   0.272   5.318   2.223
  877SOL     OW 3529   3.419   4.474   5.890
  877SOL    HW1 3530   3.456   4.382   5.872
  877SOL    HW2 3531   3.484   4.526   5.946
  878SOL     OW 3532   4.623   6.553   4.414
  878SOL    HW1 3533   4.669   6.508   4.337
  878SOL    HW2 3534   4.677   6.631   4.445
  879SOL     OW 3535   4.367   0.949   1.575
  879SOL    HW1 3536   4.341   0.867   1.524
  879SOL    HW2 3537   4.357   0.931   1.673
  880SOL     OW 3538   2.938   3.736   3.953
  880SOL    HW1 3539   2.946   3.821   3.901
  880SOL    HW2 3540   3.029   3.696   3.963
  881SOL     OW 3541   5.028   3.967   5.641
  881SOL    HW1 3542   4.967   3.985   5.719
  881SOL    HW2 3543   5.075   3.880   5.656
  882SOL     OW 3544   1.201   2.090   3.799
  882SOL    HW1 3545   1.189   2.188   3.785
  882SOL    HW2 3546   1.276   2.074   3.862
  883SOL     OW 3547   3.057   0.574   0.712
  883SOL    HW1 3548   3.045   0.669   0.682
  883SOL    HW2 3549   3.022   0.564   0.805
  884SOL     OW 3550   6.648   4.147   6.332
  884SOL    HW1 3551   6.698   4.216   6.384
  884SOL    HW2 3552   6.612   4.077   6.394
  885SOL     OW 3553   4.068   0.755   4.829
  885SOL    HW1 3554   4.051   0.831   4.892
  885SOL    HW2 3555   4.041   0.782   4.737
  886SOL     OW 3556   3.348   7.006   0.596
  886SOL    HW1 3557   3.351   0.078   0.558
  886SOL    HW2 3558   3.258   6.989   0.636
  887SOL     OW 3559   3.600   6.477   3.575
  887SOL    HW1 3560   3.668   6.476   3.649
  887SOL    HW2 3561   3.627   6.544   3.506
  888SOL     OW 3562   0.408   5.974   3.294
  888SOL    HW1 3563   0.397   6.073   3.293
  888SOL    HW2 3564   0.451   5.946   3.380
  889SOL     OW 3565   0.043   1.769   6.603
  889SOL    HW1 3566   0.143   1.771   6.607
  889SOL    HW2 3567   0.014   1.693   6.545
  890SOL     OW 3568   2.151   4.976   3.341
  890SOL    HW1 3569   2.154   5.032   3.424
  890SOL    HW2 3570   2.124   4.883   3.364
  891SOL     OW 3571   6.801   3.941   0.950
  891SOL    HW1 3572   6.866   3.878   0.993
  891SOL    HW2 3573   6.834   4.035   0.958
  892SOL     OW 3574   3.265   4.022   4.568
  892SOL    HW1 3575   3.246   3.956   4.495
  892SOL    HW2 3576   3.190   4.020   4.634
  893SOL     OW 3577   2.194   6.433   3.817
  893SOL    HW1 3578   2.172   6.417   3.720
  893SOL    HW2 3579   2.291   6.411   3.833
  894SOL     OW 3580   0.923   3.013   2.620
  894SOL    HW1 3581   0.968   3.013   2.531
  894SOL    HW2 3582   0.989   3.034   2.692
  895SOL     OW 3583   0.968   5.295   4.125
  895SOL    HW1 3584   0.869   5.286   4.113
  895SOL    HW2 3585   0.992   5.391   4.136
  896SOL     OW 3586   5.284   4.696   1.627
  896SOL    HW1 3587   5.290   4.647   1.540
  896SOL    HW2 3588   5.343   4.777   1.624
  897SOL     OW 3589   3.473   1.194   6.908
  897SOL    HW1 3590   3.540   1.267   6.894
  897SOL    HW2 3591   3.507   1.129   6.976
  898SOL     OW 3592   4.113   6.409   2.973
  898SOL    HW1 3593   4.014   6.424   2.972
  898SOL    HW2 3594   4.157   6.469   2.906
  899SOL     OW 3595   0.425   6.553   0.248
  899SOL    HW1 3596   0.375   6.589   0.169
  899SOL    HW2 3597   0.361   6.538   0.324
  900SOL     OW 3598   5.264   0.046   0.312
  900SOL    HW1 3599   5.204   6.993   0.345
  900SOL    HW2 3600   5.215   0.100   0.244
  901SOL     OW 3601   1.339   0.885   3.713
  901SOL    HW1 3602   1.413   0.818   3.707
  901SOL    HW2 3603   1.270   0.854   3.779
  902SOL     OW 3604   1.155   2.630   1.112
  902SOL    HW1 3605   1.199   2.580   1.037
  902SOL    HW2 3606   1.056   2.618   1.105
  903SOL     OW 3607   0.901   3.379   6.889
  903SOL    HW1 3608   0.824   3.325   6.856
  903SOL    HW2 3609   0.883   3.476   6.874
  904SOL     OW 3610   1.781   1.930   2.548
  904SOL    HW1 3611   1.841   1.863   2.503
  904SOL    HW2 3612   1.817   1.952   2.638
  905SOL     OW 3613   5.171   3.549   6.215
  905SOL    HW1 3614   5.255   3.544   6.268
  905SOL    HW2 3615   5.093   3.531   6.275
  906SOL     OW 3616   0.392   2.111   6.342
  906SOL    HW1 3617   0.299   2.147   6.336
  906SOL    HW2 3618   0.451   2.178   6.385
  907SOL     OW 3619   5.102   2.964   0.484
  907SOL    HW1 3620   5.033   3.030   0.453
  907SOL    HW2 3621   5.107   2.889   0.419
  908SOL     OW 3622   2.481   4.479   3.181
  908SOL    HW1 3623   2.435   4.470   3.093
  908SOL    HW2 3624   2.550   4.552   3.175
  909SOL     OW 3625   4.050   6.763   1.684
  909SOL    HW1 3626   3.999   6.779   1.599
  909SOL    HW2 3627   4.117   6.836   1.696
  910SOL     OW 3628   3.278   1.956   1.262
  910SOL    HW1 3629   3.207   1.887   1.278
  910SOL    HW2 3630   3.273   2.025   1.334
  911SOL     OW 3631   1.229   6.379   6.687
  911SOL    HW1 3632   1.305   6.315   6.698
  911SOL    HW2 3633   1.259   6.471   6.711
  912SOL     OW 3634   6.227   1.139   3.156
  912SOL    HW1 3635   6.295   1.157   3.227
  912SOL    HW2 3636   6.148   1.092   3.195
  913SOL     OW 3637   3.098   0.675   3.961
  913SOL    HW1 3638   3.078   0.613   3.885
  913SOL    HW2 3639   3.048   0.645   4.042
  914SOL     OW 3640   2.262   6.973   5.717
  914SOL    HW1 3641   2.349   6.968   5.766
  914SOL    HW2 3642   2.187   6.977   5.783
  915SOL     OW 3643   6.816   3.245   0.065
  915SOL    HW1 3644   6.785   3.186   7.010
  915SOL    HW2 3645   6.915   3.238   0.074
  916SOL     OW 3646   1.707   3.226   2.666
  916SOL    HW1 3647   1.795   3.182   2.646
  916SOL    HW2 3648   1.702   3.247   2.763
  917SOL     OW 3649   0.891   6.830   1.835
  917SOL    HW1 3650   0.975   6.872   1.869
  917SOL    HW2 3651   0.862   6.877   1.752
  918SOL     OW 3652   3.927   0.528   0.686
  918SOL    HW1 3653   4.002   0.506   0.623
  918SOL    HW2 3654   3.867   0.596   0.644
  919SOL     OW 3655   6.777   6.820   2.665
  919SOL    HW1 3656   6.782   6.902   2.609
  919SOL    HW2 3657   6.785   6.739   2.607
  920SOL     OW 3658   2.384   4.394   2.406
  920SOL    HW1 3659   2.362   4.442   2.321
  920SOL    HW2 3660   2.444   4.452   2.462
  921SOL     OW 3661   3.888   5.497   4.285
  921SOL    HW1 3662   3.860   5.593   4.280
  921SOL    HW2 3663   3.961   5.487   4.352
  922SOL     OW 3664   2.880   3.537   4.218
  922SOL    HW1 3665   2.939   3.600   4.269
  922SOL    HW2 3666   2.857   3.577   4.130
  923SOL     OW 3667   2.456   3.512   6.437
  923SOL    HW1 3668   2.381   3.517   6.371
  923SOL    HW2 3669   2.458   3.421   6.479
  924SOL     OW 3670   6.333   3.631   2.153
  924SOL    HW1 3671   6.326   3.575   2.235
  924SOL    HW2 3672   6.267   3.707   2.158
  925SOL     OW 3673   0.210   2.348   6.592
  925SOL    HW1 3674   0.301   2.357   6.553
  925SOL    HW2 3675   0.218   2.329   6.690
  926SOL     OW 3676   6.539   0.675   1.180
  926SOL    HW1 3677   6.563   0.753   1.122
  926SOL    HW2 3678   6.452   0.692   1.225
  927SOL     OW 3679   5.344   4.217   3.191
  927SOL    HW1 3680   5.363   4.152   3.117
  927SOL    HW2 3681   5.246   4.233   3.198
  928SOL     OW 3682   1.919   5.907   0.464
  928SOL    HW1 3683   1.864   5.932   0.543
  928SOL    HW2 3684   2.015   5.931   0.481
  929SOL     OW 3685   0.527   1.094   6.876
  929SOL    HW1 3686   0.435   1.133   6.886
  929SOL    HW2 3687   0.520   1.006   6.830
  930SOL     OW 3688   5.383   6.668   5.860
  930SOL    HW1 3689   5.445   6.716   5.922
  930SOL    HW2 3690   5.435   6.628   5.785
  931SOL     OW 3691   6.656   1.248   4.969
  931SOL    HW1 3692   6.661   1.225   5.067
  931SOL    HW2 3693   6.749   1.252   4.932
  932SOL     OW 3694   3.232   0.831   3.622
  932SOL    HW1 3695   3.247   0.733   3.640
  932SOL    HW2 3696   3.320   0.876   3.610
  933SOL     OW 3697   1.711   5.854   3.320
  933SOL    HW1 3698   1.674   5.868   3.412
  933SOL    HW2 3699   1.760   5.767   3.317
  934SOL     OW 3700   2.604   6.167   6.701
  934SOL    HW1 3701   2.541   6.214   6.764
  934SOL    HW2 3702   2.621   6.225   6.622
  935SOL     OW 3703   4.855   4.035   4.270
  935SOL    HW1 3704   4.897   3.954   4.311
  935SOL    HW2 3705   4.757   4.019   4.256
  936SOL     OW 3706   6.898   0.638   5.888
  936SOL    HW1 3707   6.872   0.569   5.820
  936SOL    HW2 3708   6.878   0.729   5.852
  937SOL     OW 3709   5.445   1.815   5.916
  937SOL    HW1 3710   5.385   1.858   5.984
  937SOL    HW2 3711   5.395   1.803   5.830
  938SOL     OW 3712   5.730   4.289   6.607
  938SOL    HW1 3713   5.712   4.200   6.648
  938SOL    HW2 3714   5.667   4.357   6.646
  939SOL     OW 3715   0.479   6.740   4.171
  939SOL    HW1 3716   0.405   6.672   4.177
  939SOL    HW2 3717   0.452   6.823   4.219
  940SOL     OW 3718   0.163   3.936   1.055
  940SOL    HW1 3719   0.177   3.865   0.986
  940SOL    HW2 3720   0.218   3.916   1.136
  941SOL     OW 3721   5.667   2.183   6.629
  941SOL    HW1 3722   5.670   2.281   6.647
  941SOL    HW2 3723   5.574   2.149   6.644
  942SOL     OW 3724   6.265   6.750   2.985
  942SOL    HW1 3725   6.265   6.710   2.894
  942SOL    HW2 3726   6.240   6.847   2.980
  943SOL     OW 3727   1.442   4.261   3.007
  943SOL    HW1 3728   1.511   4.200   2.969
  943SOL    HW2 3729   1.487   4.337   3.055
  944SOL     OW 3730   0.157   5.157   5.917
  944SOL    HW1 3731   0.185   5.185   6.009
  944SOL    HW2 3732   0.220   5.087   5.883
  945SOL     OW 3733   0.348   4.154   6.114
  945SOL    HW1 3734   0.392   4.241   6.092
  945SOL    HW2 3735   0.407   4.079   6.086
  946SOL     OW 3736   5.072   4.196   5.457
  946SOL    HW1 3737   5.061   4.100   5.481
  946SOL    HW2 3738   5.101   4.247   5.538
  947SOL     OW 3739   3.716   3.321   3.376
  947SOL    HW1 3740   3.784   3.253   3.350
  947SOL    HW2 3741   3.691   3.375   3.295
  948SOL     OW 3742   5.315   1.004   2.825
  948SOL    HW1 3743   5.215   1.001   2.825
  948SOL    HW2 3744   5.351   0.913   2.849
  949SOL     OW 3745   2.334   5.750   0.622
  949SOL    HW1 3746   2.355   5.657   0.592
  949SOL    HW2 3747   2.418   5.794   0.655
  950SOL     OW 3748   5.937   5.880   2.084
  950SOL    HW1 3749   5.938   5.852   2.180
  950SOL    HW2 3750   5.917   5.977   2.078
  951SOL     OW 3751   1.406   6.984   4.022
  951SOL    HW1 3752   1.406   6.943   3.931
  951SOL    HW2 3753   1.500   7.000   4.052
  952SOL     OW 3754   4.408   2.403   3.183
  952SOL    HW1 3755   4.338   2.411   3.112
  952SOL    HW2 3756   4.469   2.326   3.163
  953SOL     OW 3757   5.659   5.499   4.854
  953SOL    HW1 3758   5.564   5.530   4.865
  953SOL    HW2 3759   5.665   5.402   4.879
  954SOL     OW 3760   3.756   6.101   2.164
  954SOL    HW1 3761   3.678   6.143   2.117
  954SOL    HW2 3762   3.741   6.002   2.172
  955SOL     OW 3763   0.651   3.515   1.064
  955SOL    HW1 3764   0.732   3.493   1.009
  955SOL    HW2 3765   0.681   3.564   1.147
  956SOL     OW 3766   6.337   0.411   1.382
  956SOL    HW1 3767   6.353   0.482   1.450
  956SOL    HW2 3768   6.413   0.346   1.382
  957SOL     OW 3769   5.457   2.863   2.638
  957SOL    HW1 3770   5.383   2.931   2.638
  957SOL    HW2 3771   5.504   2.864   2.549
  958SOL     OW 3772   4.697   0.911   1.431
  958SOL    HW1 3773   4.749   0.993   1.455
  958SOL    HW2 3774   4.636   0.932   1.355
  959SOL     OW 3775   3.237   6.419   4.334
  959SOL    HW1 3776   3.228   6.320   4.345
  959SOL    HW2 3777   3.146   6.461   4.334
  960SOL     OW 3778   0.800   0.031   2.056
  960SOL    HW1 3779   0.830   0.048   2.150
  960SOL    HW2 3780   0.702   0.008   2.056
  961SOL     OW 3781   4.146   6.401   3.388
  961SOL    HW1 3782   4.239   6.435   3.401
  961SOL    HW2 3783   4.081   6.477   3.398
  962SOL     OW 3784   6.645   0.737   4.723
  962SOL    HW1 3785   6.559   0.747   4.772
  962SOL    HW2 3786   6.676   0.642   4.728
  963SOL     OW 3787   5.443   1.325   6.447
  963SOL    HW1 3788   5.467   1.266   6.371
  963SOL    HW2 3789   5.429   1.419   6.414
  964SOL     OW 3790   5.118   4.873   0.047
  964SOL    HW1 3791   5.196   4.887   7.005
  964SOL    HW2 3792   5.142   4.904   0.139
  965SOL     OW 3793   6.095   1.767   2.059
  965SOL    HW1 3794   6.047   1.753   1.972
  965SOL    HW2 3795   6.047   1.718   2.132
  966SOL     OW 3796   5.642   2.783   3.172
  966SOL    HW1 3797   5.657   2.877   3.140
  966SOL    HW2 3798   5.546   2.771   3.196
  967SOL     OW 3799   2.796   4.550   1.232
  967SOL    HW1 3800   2.745   4.582   1.152
  967SOL    HW2 3801   2.734   4.535   1.308
  968SOL     OW 3802   4.329   0.838   1.852
  968SOL    HW1 3803   4.333   0.739   1.846
  968SOL    HW2 3804   4.333   0.866   1.949
  969SOL     OW 3805   2.559   4.318   5.649
  969SOL    HW1 3806   2.538   4.396   5.590
  969SOL    HW2 3807   2.585   4.240   5.592
  970SOL     OW 3808   5.180   0.591   6.470
  970SOL    HW1 3809   5.118   0.611   6.394
  970SOL    HW2 3810   5.252   0.660   6.474
  971SOL     OW 3811   0.163   2.808   2.643
  971SOL    HW1 3812   0.168   2.796   2.544
  971SOL    HW2 3813   0.112   2.892   2.664
  972SOL     OW 3814   5.578   1.556   2.042
  972SOL    HW1 3815   5.650   1.570   1.974
  972SOL    HW2 3816   5.614   1.574   2.133
  973SOL     OW 3817   0.835   5.495   6.730
  973SOL    HW1 3818   0.846   5.426   6.658
  973SOL    HW2 3819   0.923   5.539   6.747
  974SOL     OW 3820   6.087   5.607   1.525
  974SOL    HW1 3821   6.095   5.691   1.579
  974SOL    HW2 3822   6.064   5.530   1.585
  975SOL     OW 3823   2.253   0.148   0.399
  975SOL    HW1 3824   2.189   0.171   0.472
  975SOL    HW2 3825   2.320   0.221   0.388
  976SOL     OW 3826   0.271   3.864   1.301
  976SOL    HW1 3827   0.262   3.870   1.400
  976SOL    HW2 3828   0.263   3.768   1.273
  977SOL     OW 3829   0.380   0.502   1.805
  977SOL    HW1 3830   0.314   0.461   1.743
  977SOL    HW2 3831   0.403   0.437   1.877
  978SOL     OW 3832   5.357   2.290   6.996
  978SOL    HW1 3833   5.433   2.267   0.037
  978SOL    HW2 3834   5.351   2.221   6.924
  979SOL     OW 3835   0.730   3.170   6.762
  979SOL    HW1 3836   0.659   3.231   6.797
  979SOL    HW2 3837   0.750   3.192   6.667
  980SOL     OW 3838   5.501   1.957   3.887
  980SOL    HW1 3839   5.502   2.030   3.818
  980SOL    HW2 3840   5.434   1.887   3.860
  981SOL     OW 3841   6.878   1.264   4.813
  981SOL    HW1 3842   6.854   1.230   4.722
  981SOL    HW2 3843   6.957   1.325   4.807
  982SOL     OW 3844   0.792   1.254   4.759
  982SOL    HW1 3845   0.696   1.270   4.784
  982SOL    HW2 3846   0.808   1.288   4.667
  983SOL     OW 3847   6.656   2.814   3.425
  983SOL    HW1 3848   6.741   2.814   3.372
  983SOL    HW2 3849   6.579   2.838   3.365
  984SOL     OW 3850   2.483   2.623   4.063
  984SOL    HW1 3851   2.562   2.670   4.101
  984SOL    HW2 3852   2.402   2.641   4.119
  985SOL     OW 3853   6.702   3.386   4.840
  985SOL    HW1 3854   6.747   3.469   4.870
  985SOL    HW2 3855   6.744   3.306   4.884
  986SOL     OW 3856   4.359   4.513   1.019
  986SOL    HW1 3857   4.366   4.613   1.028
  986SOL    HW2 3858   4.276   4.481   1.065
  987SOL     OW 3859   4.826   6.625   2.751
  987SOL    HW1 3860   4.845   6.714   2.792
  987SOL    HW2 3861   4.822   6.635   2.651
  988SOL     OW 3862   3.510   4.333   0.970
  988SOL    HW1 3863   3.526   4.389   1.051
  988SOL    HW2 3864   3.479   4.242   0.998
  989SOL     OW 3865   6.703   2.091   6.316
  989SOL    HW1 3866   6.700   2.062   6.221
  989SOL    HW2 3867   6.701   2.191   6.320
  990SOL     OW 3868   3.495   1.036   2.102
  990SOL    HW1 3869   3.576   0.977   2.098
  990SOL    HW2 3870   3.495   1.087   2.188
  991SOL     OW 3871   0.708   3.584   3.799
  991SOL    HW1 3872   0.677   3.559   3.890
  991SOL    HW2 3873   0.807   3.601   3.801
  992SOL     OW 3874   0.380   3.131   2.126
  992SOL    HW1 3875   0.435   3.172   2.198
  992SOL    HW2 3876   0.333   3.203   2.074
  993SOL     OW 3877   6.918   4.688   0.783
  993SOL    HW1 3878   6.943   4.686   0.687
  993SOL    HW2 3879   6.837   4.746   0.795
  994SOL     OW 3880   4.238   4.960   2.075
  994SOL    HW1 3881   4.225   5.057   2.054
  994SOL    HW2 3882   4.161   4.927   2.129
  995SOL     OW 3883   4.115   3.532   5.886
  995SOL    HW1 3884   4.067   3.592   5.950
  995SOL    HW2 3885   4.152   3.586   5.810
  996SOL     OW 3886   3.578   5.006   4.808
  996SOL    HW1 3887   3.488   4.963   4.818
  996SOL    HW2 3888   3.646   4.956   4.862
  997SOL     OW 3889   1.130   7.016   2.904
  997SOL    HW1 3890   1.122   6.932   2.849
  997SOL    HW2 3891   1.173   6.994   2.991
  998SOL     OW 3892   6.013   0.322   6.073
  998SOL    HW1 3893   6.011   0.411   6.118
  998SOL    HW2 3894   5.946   0.322   5.999
  999SOL     OW 3895   5.282   4.175   2.145
  999SOL    HW1 3896   5.203   4.213   2.192
  999SOL    HW2 3897   5.256   4.093   2.096
 1000SOL     OW 3898   3.940   1.539   1.398
 1000SOL    HW1 3899   3.932   1.633   1.365
 1000SOL    HW2 3900   3.872   1.482   1.352
 1001SOL     OW 3901   4.262   5.855   2.045
 1001SOL    HW1 3902   4.245   5.952   2.032
 1001SOL    HW2 3903   4.200   5.802   1.986
 1002SOL     OW 3904   5.644   1.859   0.880
 1002SOL    HW1 3905   5.708   1.886   0.808
 1002SOL    HW2 3906   5.686   1.873   0.970
 1003SOL     OW 3907   1.957   5.487   3.044
 1003SOL    HW1 3908   1.983   5.583   3.040
 1003SOL    HW2 3909   1.955   5.457   3.140
 1004SOL     OW 3910   0.938   1.269   2.163
 1004SOL    HW1 3911   0.935   1.278   2.064
 1004SOL    HW2 3912   0.851   1.232   2.196
 1005SOL     OW 3913   1.924   2.618   4.291
 1005SOL    HW1 3914   1.878   2.574   4.213
 1005SOL    HW2 3915   1.905   2.716   4.290
 1006SOL     OW 3916   1.405   4.204   0.514
 1006SOL    HW1 3917   1.483   4.204   0.451
 1006SOL    HW2 3918   1.407   4.121   0.569
 1007SOL     OW 3919   4.256   1.029   5.604
 1007SOL    HW1 3920   4.240   1.002   5.510
 1007SOL    HW2 3921   4.354   1.044   5.619
 1008SOL     OW 3922   0.538   2.220   5.701
 1008SOL    HW1 3923   0.509   2.295   5.640
 1008SOL    HW2 3924   0.511   2.241   5.795
 1009SOL     OW 3925   0.120   5.419   5.776
 1009SOL    HW1 3926   0.158   5.327   5.784
 1009SOL    HW2 3927   0.193   5.485   5.765
 1010SOL     OW 3928   2.497   2.216   1.133
 1010SOL    HW1 3929   2.569   2.281   1.155
 1010SOL    HW2 3930   2.486   2.152   1.209
 1011SOL     OW 3931   1.160   5.292   3.458
 1011SOL    HW1 3932   1.141   5.312   3.362
 1011SOL    HW2 3933   1.205   5.203   3.466
 1012SOL     OW 3934   0.272   6.778   2.133
 1012SOL    HW1 3935   0.243   6.812   2.044
 1012SOL    HW2 3936   0.200   6.793   2.200
 1013SOL     OW 3937   0.463   1.002   6.277
 1013SOL    HW1 3938   0.435   0.906   6.266
 1013SOL    HW2 3939   0.467   1.046   6.188
 1014SOL     OW 3940   0.418   3.955   5.186
 1014SOL    HW1 3941   0.423   4.054   5.202
 1014SOL    HW2 3942   0.325   3.930   5.162
 1015SOL     OW 3943   2.193   0.026   6.162
 1015SOL    HW1 3944   2.199   6.985   6.082
 1015SOL    HW2 3945   2.185   0.121   6.131
 1016SOL     OW 3946   4.195   3.793   0.461
 1016SOL    HW1 3947   4.295   3.783   0.462
 1016SOL    HW2 3948   4.155   3.722   0.403
 1017SOL     OW 3949   4.110   2.188   1.354
 1017SOL    HW1 3950   4.162   2.159   1.435
 1017SOL    HW2 3951   4.047   2.115   1.328
 1018SOL     OW 3952   0.826   4.197   4.160
 1018SOL    HW1 3953   0.752   4.134   4.184
 1018SOL    HW2 3954   0.882   4.214   4.241
 1019SOL     OW 3955   0.015   5.921   0.970
 1019SOL    HW1 3956   6.999   5.828   0.983
 1019SOL    HW2 3957   0.010   5.946   0.874
 1020SOL     OW 3958   6.322   1.346   1.747
 1020SOL    HW1 3959   6.243   1.321   1.691
 1020SOL    HW2 3960   6.376   1.416   1.699
 1021SOL     OW 3961   5.508   6.736   1.862
 1021SOL    HW1 3962   5.432   6.795   1.889
 1021SOL    HW2 3963   5.506   6.722   1.763
 1022SOL     OW 3964   2.785   4.794   5.289
 1022SOL    HW1 3965   2.822   4.711   5.247
 1022SOL    HW2 3966   2.687   4.784   5.304
 1023SOL     OW 3967   0.574   1.141   2.610
 1023SOL    HW1 3968   0.527   1.180   2.690
 1023SOL    HW2 3969   0.663   1.183   2.600
 1024SOL     OW 3970   0.111   1.997   4.110
 1024SOL    HW1 3971   0.149   2.027   4.198
 1024SOL    HW2 3972   0.106   2.074   4.048
 1025SOL     OW 3973   3.730   3.124   0.921
 1025SOL    HW1 3974   3.724   3.035   0.966
 1025SOL    HW2 3975   3.646   3.176   0.936
 1026SOL     OW 3976   2.432   3.214   1.488
 1026SOL    HW1 3977   2.413   3.309   1.511
 1026SOL    HW2 3978   2.471   3.167   1.567
 1027SOL     OW 3979   2.887   0.130   2.248
 1027SOL    HW1 3980   2.919   0.045   2.288
 1027SOL    HW2 3981   2.787   0.133   2.250
 1028SOL     OW 3982   1.667   6.759   2.634
 1028SOL    HW1 3983   1.670   6.688   2.563
 1028SOL    HW2 3984   1.624   6.841   2.596
 1029SOL     OW 3985   1.293   1.456   6.110
 1029SOL    HW1 3986   1.283   1.390   6.185
 1029SOL    HW2 3987   1.266   1.547   6.142
 1030SOL     OW 3988   3.543   3.086   1.728
 1030SOL    HW1 3989   3.600   3.126   1.800
 1030SOL    HW2 3990   3.447   3.088   1.756
 1031SOL     OW 3991   4.825   3.465   1.884
 1031SOL    HW1 3992   4.725   3.463   1.875
 1031SOL    HW2 3993   4.862   3.377   1.854
 1032SOL     OW 3994   0.857   1.050   4.995
 1032SOL    HW1 3995   0.811   1.103   4.924
 1032SOL    HW2 3996   0.913   1.111   5.051
 1033SOL     OW 3997   1.800   5.295   1.353
 1033SOL    HW1 3998   1.878   5.357   1.362
 1033SOL    HW2 3999   1.716   5.343   1.378
 1034SOL     OW 4000   1.485   5.516   4.347
 1034SOL    HW1 4001   1.559   5.543   4.408
 1034SOL    HW2 4002   1.522   5.463   4.271
 1035SOL     OW 4003   6.699   1.835   6.496
 1035SOL    HW1 4004   6.711   1.934   6.488
 1035SOL    HW2 4005   6.607   1.811   6.465
 1036SOL     OW 4006   4.026   0.898   1.884
 1036SOL    HW1 4007   4.032   0.816   1.826
 1036SOL    HW2 4008   4.117   0.933   1.902
 1037SOL     OW 4009   1.692   1.594   2.575
 1037SOL    HW1 4010   1.615   1.608   2.512
 1037SOL    HW2 4011   1.775   1.574   2.522
 1038SOL     OW 4012   1.846   1.437   5.354
 1038SOL    HW1 4013   1.844   1.338   5.370
 1038SOL    HW2 4014   1.903   1.481   5.424
 1039SOL     OW 4015   4.021   3.859   4.012
 1039SOL    HW1 4016   3.955   3.921   4.055
 1039SOL    HW2 4017   4.009   3.862   3.912
 1040SOL     OW 4018   5.001   0.964   2.028
 1040SOL    HW1 4019   4.965   1.050   2.064
 1040SOL    HW2 4020   4.986   0.961   1.929
 1041SOL     OW 4021   0.189   6.164   3.090
 1041SOL    HW1 4022   0.168   6.067   3.093
 1041SOL    HW2 4023   0.170   6.200   2.998
 1042SOL     OW 4024   4.161   5.140   2.873
 1042SOL    HW1 4025   4.112   5.096   2.798
 1042SOL    HW2 4026   4.115   5.226   2.896
 1043SOL     OW 4027   3.649   2.113   3.135
 1043SOL    HW1 4028   3.555   2.148   3.133
 1043SOL    HW2 4029   3.687   2.112   3.043
 1044SOL     OW 4030   5.988   5.506   2.225
 1044SOL    HW1 4031   5.934   5.472   2.148
 1044SOL    HW2 4032   6.029   5.428   2.273
 1045SOL     OW 4033   4.218   0.743   2.704
 1045SOL    HW1 4034   4.284   0.777   2.637
 1045SOL    HW2 4035   4.131   0.723   2.658
 1046SOL     OW 4036   1.562   1.332   0.198
 1046SOL    HW1 4037   1.499   1.320   0.275
 1046SOL    HW2 4038   1.555   1.425   0.163
 1047SOL     OW 4039   2.379   6.919   4.143
 1047SOL    HW1 4040   2.415   6.919   4.050
 1047SOL    HW2 4041   2.379   6.826   4.179
 1048SOL     OW 4042   3.493   6.563   2.401
 1048SOL    HW1 4043   3.523   6.468   2.400
 1048SOL    HW2 4044   3.395   6.567   2.379
 1049SOL     OW 4045   6.020   6.455   4.095
 1049SOL    HW1 4046   6.108   6.427   4.057
 1049SOL    HW2 4047   5.996   6.546   4.062
 1050SOL     OW 4048   3.704   4.889   2.613
 1050SOL    HW1 4049   3.758   4.955   2.561
 1050SOL    HW2 4050   3.619   4.870   2.563
 1051SOL     OW 4051   0.461   5.242   0.748
 1051SOL    HW1 4052   0.449   5.151   0.787
 1051SOL    HW2 4053   0.528   5.239   0.674
 1052SOL     OW 4054   4.521   1.126   5.643
 1052SOL    HW1 4055   4.531   1.225   5.632
 1052SOL    HW2 4056   4.532   1.102   5.739
 1053SOL     OW 4057   6.057   3.859   2.477
 1053SOL    HW1 4058   6.018   3.775   2.515
 1053SOL    HW2 4059   5.984   3.926   2.462
 1054SOL     OW 4060   2.796   3.664   0.899
 1054SOL    HW1 4061   2.831   3.711   0.819
 1054SOL    HW2 4062   2.757   3.731   0.963
 1055SOL     OW 4063   4.025   6.735   5.457
 1055SOL    HW1 4064   4.042   6.805   5.526
 1055SOL    HW2 4065   4.085   6.751   5.378
 1056SOL     OW 4066   1.427   3.133   0.099
 1056SOL    HW1 4067   1.467   3.117   0.008
 1056SOL    HW2 4068   1.476   3.077   0.167
 1057SOL     OW 4069   3.535   3.287   1.083
 1057SOL    HW1 4070   3.606   3.230   1.125
 1057SOL    HW2 4071   3.523   3.370   1.138
 1058SOL     OW 4072   5.040   2.257   3.937
 1058SOL    HW1 4073   5.111   2.290   3.875
 1058SOL    HW2 4074   4.954   2.306   3.920
 1059SOL     OW 4075   1.821   0.659   2.436
 1059SOL    HW1 4076   1.878   0.629   2.512
 1059SOL    HW2 4077   1.748   0.592   2.421
 1060SOL     OW 4078   0.471   4.584   3.852
 1060SOL    HW1 4079   0.526   4.656   3.808
 1060SOL    HW2 4080   0.497   4.495   3.814
 1061SOL     OW 4081   6.642   3.161   6.201
 1061SOL    HW1 4082   6.704   3.240   6.202
 1061SOL    HW2 4083   6.673   3.094   6.269
 1062SOL     OW 4084   5.151   5.120   5.617
 1062SOL    HW1 4085   5.062   5.164   5.627
 1062SOL    HW2 4086   5.178   5.079   5.705
 1063SOL     OW 4087   0.803   5.738   0.277
 1063SOL    HW1 4088   0.782   5.708   0.184
 1063SOL    HW2 4089   0.899   5.766   0.282
 1064SOL     OW 4090   1.277   4.512   2.709
 1064SOL    HW1 4091   1.227   4.519   2.623
 1064SOL    HW2 4092   1.234   4.569   2.778
 1065SOL     OW 4093   4.618   0.850   2.606
 1065SOL    HW1 4094   4.534   0.800   2.626
 1065SOL    HW2 4095   4.677   0.794   2.548
 1066SOL     OW 4096   4.563   6.813   2.926
 1066SOL    HW1 4097   4.545   6.797   2.829
 1066SOL    HW2 4098   4.613   6.735   2.963
 1067SOL     OW 4099   1.347   2.536   0.041
 1067SOL    HW1 4100   1.366   2.527   0.139
 1067SOL    HW2 4101   1.376   2.626   0.009
 1068SOL     OW 4102   0.010   4.349   1.423
 1068SOL    HW1 4103   7.019   4.258   1.463
 1068SOL    HW2 4104   0.008   4.418   1.495
 1069SOL     OW 4105   5.234   6.045   0.931
 1069SOL    HW1 4106   5.171   6.038   0.854
 1069SOL    HW2 4107   5.182   6.042   1.017
 1070SOL     OW 4108   1.468   0.202   1.460
 1070SOL    HW1 4109   1.407   0.208   1.539
 1070SOL    HW2 4110   1.452   0.281   1.400
 1071SOL     OW 4111   2.336   1.642   3.719
 1071SOL    HW1 4112   2.386   1.556   3.721
 1071SOL    HW2 4113   2.242   1.625   3.687
 1072SOL     OW 4114   2.374   0.988   1.150
 1072SOL    HW1 4115   2.423   0.988   1.237
 1072SOL    HW2 4116   2.321   1.073   1.142
 1073SOL     OW 4117   4.876   0.586   3.668
 1073SOL    HW1 4118   4.971   0.591   3.698
 1073SOL    HW2 4119   4.866   0.636   3.582
 1074SOL     OW 4120   2.433   5.295   1.881
 1074SOL    HW1 4121   2.504   5.234   1.845
 1074SOL    HW2 4122   2.475   5.360   1.945
 1075SOL     OW 4123   6.012   0.113   3.091
 1075SOL    HW1 4124   6.091   0.057   3.115
 1075SOL    HW2 4125   5.952   0.062   3.030
 1076SOL     OW 4126   0.947   2.268   5.671
 1076SOL    HW1 4127   1.020   2.314   5.723
 1076SOL    HW2 4128   0.864   2.324   5.675
 1077SOL     OW 4129   6.161   6.946   0.610
 1077SOL    HW1 4130   6.168   7.004   0.692
 1077SOL    HW2 4131   6.105   6.993   0.541
 1078SOL     OW 4132   0.256   0.893   2.758
 1078SOL    HW1 4133   0.324   0.963   2.781
 1078SOL    HW2 4134   0.188   0.931   2.695
 1079SOL     OW 4135   1.367   5.892   2.078
 1079SOL    HW1 4136   1.462   5.914   2.058
 1079SOL    HW2 4137   1.325   5.967   2.130
 1080SOL     OW 4138   2.182   5.545   3.771
 1080SOL    HW1 4139   2.221   5.604   3.841
 1080SOL    HW2 4140   2.082   5.545   3.779
 1081SOL     OW 4141   6.756   5.605   5.594
 1081SOL    HW1 4142   6.794   5.535   5.534
 1081SOL    HW2 4143   6.656   5.600   5.593
 1082SOL     OW 4144   5.596   2.259   5.666
 1082SOL    HW1 4145   5.659   2.274   5.742
 1082SOL    HW2 4146   5.647   2.262   5.580
 1083SOL     OW 4147   4.629   4.044   0.427
 1083SOL    HW1 4148   4.661   4.104   0.354
 1083SOL    HW2 4149   4.670   3.953   0.416
 1084SOL     OW 4150   6.644   6.631   6.549
 1084SOL    HW1 4151   6.563   6.581   6.581
 1084SOL    HW2 4152   6.717   6.622   6.616
 1085SOL     OW 4153   1.774   4.007   4.425
 1085SOL    HW1 4154   1.856   3.970   4.468
 1085SOL    HW2 4155   1.699   4.006   4.491
 1086SOL     OW 4156   6.735   4.424   0.168
 1086SOL    HW1 4157   6.678   4.447   0.247
 1086SOL    HW2 4158   6.724   4.327   0.147
 1087SOL     OW 4159   6.812   2.100   5.322
 1087SOL    HW1 4160   6.763   2.066   5.241
 1087SOL    HW2 4161   6.779   2.052   5.403
 1088SOL     OW 4162   6.686   3.708   2.569
 1088SOL    HW1 4163   6.745   3.685   2.491
 1088SOL    HW2 4164   6.659   3.624   2.616
 1089SOL     OW 4165   6.462   5.698   4.627
 1089SOL    HW1 4166   6.436   5.782   4.674
 1089SOL    HW2 4167   6.479   5.625   4.694
 1090SOL     OW 4168   3.446   1.575   3.106
 1090SOL    HW1 4169   3.425   1.577   3.204
 1090SOL    HW2 4170   3.413   1.659   3.064
 1091SOL     OW 4171   2.420   2.489   4.350
 1091SOL    HW1 4172   2.365   2.518   4.272
 1091SOL    HW2 4173   2.363   2.435   4.412
 1092SOL     OW 4174   1.077   4.808   0.471
 1092SOL    HW1 4175   1.078   4.798   0.570
 1092SOL    HW2 4176   1.029   4.893   0.447
 1093SOL     OW 4177   2.926   6.624   1.311
 1093SOL    HW1 4178   2.913   6.540   1.364
 1093SOL    HW2 4179   2.837   6.656   1.278
 1094SOL     OW 4180   1.188   6.363   3.091
 1094SOL    HW1 4181   1.234   6.430   3.150
 1094SOL    HW2 4182   1.091   6.386   3.084
 1095SOL     OW 4183   0.500   2.818   5.771
 1095SOL    HW1 4184   0.497   2.722   5.798
 1095SOL    HW2 4185   0.416   2.864   5.800
 1096SOL     OW 4186   3.546   4.436   1.217
 1096SOL    HW1 4187   3.628   4.493   1.218
 1096SOL    HW2 4188   3.536   4.389   1.304
 1097SOL     OW 4189   2.419   5.075   3.867
 1097SOL    HW1 4190   2.423   5.069   3.966
 1097SOL    HW2 4191   2.397   5.169   3.840
 1098SOL     OW 4192   5.114   3.474   6.555
 1098SOL    HW1 4193   5.097   3.572   6.546
 1098SOL    HW2 4194   5.060   3.424   6.487
 1099SOL     OW 4195   3.811   1.272   6.375
 1099SOL    HW1 4196   3.829   1.363   6.413
 1099SOL    HW2 4197   3.887   1.246   6.315
 1100SOL     OW 4198   4.730   1.762   4.636
 1100SOL    HW1 4199   4.644   1.806   4.611
 1100SOL    HW2 4200   4.713   1.693   4.707
 1101SOL     OW 4201   5.667   3.801   5.718
 1101SOL    HW1 4202   5.569   3.816   5.731
 1101SOL    HW2 4203   5.681   3.739   5.641
 1102SOL     OW 4204   1.127   0.722   4.951
 1102SOL    HW1 4205   1.171   0.645   4.904
 1102SOL    HW2 4206   1.040   0.691   4.991
 1103SOL     OW 4207   3.593   1.260   0.276
 1103SOL    HW1 4208   3.561   1.171   0.245
 1103SOL    HW2 4209   3.581   1.267   0.375
 1104SOL     OW 4210   1.654   2.943   4.414
 1104SOL    HW1 4211   1.561   2.968   4.385
 1104SOL    HW2 4212   1.691   3.015   4.472
 1105SOL     OW 4213   5.770   3.214   5.026
 1105SOL    HW1 4214   5.798   3.302   4.988
 1105SOL    HW2 4215   5.680   3.189   4.989
 1106SOL     OW 4216   0.758   2.538   0.791
 1106SOL    HW1 4217   0.710   2.572   0.711
 1106SOL    HW2 4218   0.691   2.509   0.860
 1107SOL     OW 4219   1.312   0.527   0.268
 1107SOL    HW1 4220   1.356   0.552   0.355
 1107SOL    HW2 4221   1.303   0.427   0.263
 1108SOL     OW 4222   3.363   6.915   5.689
 1108SOL    HW1 4223   3.287   6.862   5.726
 1108SOL    HW2 4224   3.384   6.884   5.596
 1109SOL     OW 4225   5.656   0.913   4.279
 1109SOL    HW1 4226   5.747   0.898   4.318
 1109SOL    HW2 4227   5.617   0.998   4.317
 1110SOL     OW 4228   4.344   2.160   2.990
 1110SOL    HW1 4229   4.413   2.228   2.965
 1110SOL    HW2 4230   4.380   2.102   3.063
 1111SOL     OW 4231   5.803   5.783   6.968
 1111SOL    HW1 4232   5.709   5.812   6.950
 1111SOL    HW2 4233   5.867   5.850   6.931
 1112SOL     OW 4234   5.988   1.196   2.412
 1112SOL    HW1 4235   6.045   1.244   2.479
 1112SOL    HW2 4236   5.967   1.258   2.336
 1113SOL     OW 4237   5.461   4.780   1.311
 1113SOL    HW1 4238   5.402   4.706   1.342
 1113SOL    HW2 4239   5.507   4.822   1.389
 1114SOL     OW 4240   2.672   0.992   6.213
 1114SOL    HW1 4241   2.750   1.045   6.180
 1114SOL    HW2 4242   2.699   0.897   6.224
 1115SOL     OW 4243   3.769   3.356   5.500
 1115SOL    HW1 4244   3.769   3.447   5.542
 1115SOL    HW2 4245   3.783   3.287   5.571
 1116SOL     OW 4246   5.115   6.452   6.585
 1116SOL    HW1 4247   5.205   6.486   6.614
 1116SOL    HW2 4248   5.117   6.352   6.584
 1117SOL     OW 4249   0.745   2.336   2.170
 1117SOL    HW1 4250   0.770   2.396   2.094
 1117SOL    HW2 4251   0.823   2.327   2.232
 1118SOL     OW 4252   2.152   5.139   0.647
 1118SOL    HW1 4253   2.177   5.101   0.736
 1118SOL    HW2 4254   2.124   5.235   0.659
 1119SOL     OW 4255   4.158   4.411   1.663
 1119SOL    HW1 4256   4.191   4.452   1.578
 1119SOL    HW2 4257   4.209   4.448   1.741
 1120SOL     OW 4258   6.148   5.744   0.562
 1120SOL    HW1 4259   6.096   5.677   0.615
 1120SOL    HW2 4260   6.128   5.836   0.596
 1121SOL     OW 4261   7.007   4.356   4.536
 1121SOL    HW1 4262   6.935   4.322   4.475
 1121SOL    HW2 4263   6.980   4.445   4.574
 1122SOL     OW 4264   5.483   3.041   1.882
 1122SOL    HW1 4265   5.505   2.958   1.830
 1122SOL    HW2 4266   5.385   3.042   1.903
 1123SOL     OW 4267   5.371   2.490   3.320
 1123SOL    HW1 4268   5.434   2.524   3.250
 1123SOL    HW2 4269   5.290   2.549   3.324
 1124SOL     OW 4270   0.119   4.012   5.174
 1124SOL    HW1 4271   0.025   4.008   5.140
 1124SOL    HW2 4272   0.118   4.020   5.274
 1125SOL     OW 4273   1.939   1.794   3.783
 1125SOL    HW1 4274   1.963   1.802   3.687
 1125SOL    HW2 4275   1.919   1.885   3.820
 1126SOL     OW 4276   5.973   5.681   6.021
 1126SOL    HW1 4277   5.981   5.765   6.074
 1126SOL    HW2 4278   6.060   5.632   6.023
 1127SOL     OW 4279   5.245   6.323   4.603
 1127SOL    HW1 4280   5.340   6.345   4.624
 1127SOL    HW2 4281   5.207   6.266   4.675
 1128SOL     OW 4282   5.624   1.485   4.075
 1128SOL    HW1 4283   5.619   1.444   3.983
 1128SOL    HW2 4284   5.602   1.582   4.069
 1129SOL     OW 4285   1.850   6.817   0.792
 1129SOL    HW1 4286   1.759   6.786   0.821
 1129SOL    HW2 4287   1.841   6.870   0.707
 1130SOL     OW 4288   2.345   4.799   0.910
 1130SOL    HW1 4289   2.382   4.800   0.818
 1130SOL    HW2 4290   2.420   4.799   0.977
 1131SOL     OW 4291   1.075   6.908   5.628
 1131SOL    HW1 4292   1.128   6.846   5.686
 1131SOL    HW2 4293   1.138   6.966   5.576
 1132SOL     OW 4294   4.543   0.064   2.796
 1132SOL    HW1 4295   4.592   6.998   2.782
 1132SOL    HW2 4296   4.476   0.052   2.869
 1133SOL     OW 4297   1.104   1.190   0.124
 1133SOL    HW1 4298   1.148   1.191   0.034
 1133SOL    HW2 4299   1.174   1.178   0.195
 1134SOL     OW 4300   5.015   0.106   2.668
 1134SOL    HW1 4301   4.972   0.031   2.719
 1134SOL    HW2 4302   5.055   0.172   2.732
 1135SOL     OW 4303   1.978   6.506   4.471
 1135SOL    HW1 4304   2.013   6.493   4.563
 1135SOL    HW2 4305   1.984   6.420   4.420
 1136SOL     OW 4306   4.499   4.494   3.132
 1136SOL    HW1 4307   4.513   4.430   3.208
 1136SOL    HW2 4308   4.558   4.468   3.056
 1137SOL     OW 4309   1.365   6.934   0.223
 1137SOL    HW1 4310   1.378   6.917   0.321
 1137SOL    HW2 4311   1.267   6.937   0.203
 1138SOL     OW 4312   6.818   1.084   6.041
 1138SOL    HW1 4313   6.902   1.038   6.069
 1138SOL    HW2 4314   6.756   1.017   5.998
 1139SOL     OW 4315   2.554   5.080   3.231
 1139SOL    HW1 4316   2.585   5.143   3.159
 1139SOL    HW2 4317   2.506   5.003   3.189
 1140SOL     OW 4318   2.974   0.867   2.223
 1140SOL    HW1 4319   2.900   0.800   2.218
 1140SOL    HW2 4320   2.938   0.959   2.206
 1141SOL     OW 4321   0.483   6.237   0.195
 1141SOL    HW1 4322   0.480   6.336   0.204
 1141SOL    HW2 4323   0.531   6.197   0.273
 1142SOL     OW 4324   3.155   0.249   3.956
 1142SOL    HW1 4325   3.179   0.174   4.018
 1142SOL    HW2 4326   3.200   0.234   3.868
 1143SOL     OW 4327   2.280   2.718   2.792
 1143SOL    HW1 4328   2.366   2.683   2.828
 1143SOL    HW2 4329   2.219   2.741   2.868
 1144SOL     OW 4330   6.303   4.408   3.467
 1144SOL    HW1 4331   6.310   4.318   3.509
 1144SOL    HW2 4332   6.373   4.418   3.397
 1145SOL     OW 4333   6.877   3.056   0.760
 1145SOL    HW1 4334   6.805   2.995   0.727
 1145SOL    HW2 4335   6.964   3.007   0.762
 1146SOL     OW 4336   0.341   1.388   1.986
 1146SOL    HW1 4337   0.294   1.475   1.999
 1146SOL    HW2 4338   0.287   1.329   1.926
 1147SOL     OW 4339   3.032   5.381   1.747
 1147SOL    HW1 4340   3.101   5.310   1.765
 1147SOL    HW2 4341   3.059   5.466   1.793
 1148SOL     OW 4342   4.622   6.384   0.703
 1148SOL    HW1 4343   4.666   6.318   0.642
 1148SOL    HW2 4344   4.692   6.431   0.756
 1149SOL     OW 4345   5.694   2.747   2.712
 1149SOL    HW1 4346   5.598   2.772   2.711
 1149SOL    HW2 4347   5.749   2.821   2.675
 1150SOL     OW 4348   0.852   4.361   6.729
 1150SOL    HW1 4349   0.784   4.426   6.764
 1150SOL    HW2 4350   0.899   4.402   6.651
 1151SOL     OW 4351   5.733   4.491   5.377
 1151SOL    HW1 4352   5.678   4.420   5.333
 1151SOL    HW2 4353   5.694   4.581   5.359
 1152SOL     OW 4354   4.834   5.663   6.388
 1152SOL    HW1 4355   4.926   5.700   6.385
 1152SOL    HW2 4356   4.769   5.729   6.350
 1153SOL     OW 4357   6.915   6.859   1.963
 1153SOL    HW1 4358   6.916   6.760   1.951
 1153SOL    HW2 4359   6.886   6.881   2.056
 1154SOL     OW 4360   0.362   4.889   0.708
 1154SOL    HW1 4361   0.273   4.888   0.754
 1154SOL    HW2 4362   0.433   4.915   0.774
 1155SOL     OW 4363   3.025   4.810   5.777
 1155SOL    HW1 4364   3.078   4.893   5.765
 1155SOL    HW2 4365   3.033   4.753   5.696
 1156SOL     OW 4366   4.340   1.858   5.226
 1156SOL    HW1 4367   4.383   1.896   5.307
 1156SOL    HW2 4368   4.305   1.932   5.168
 1157SOL     OW 4369   5.101   1.141   5.962
 1157SOL    HW1 4370   5.083   1.116   6.057
 1157SOL    HW2 4371   5.130   1.060   5.911
 1158SOL     OW 4372   6.970   5.077   4.966
 1158SOL    HW1 4373   6.891   5.037   5.013
 1158SOL    HW2 4374   7.014   5.007   4.909
 1159SOL     OW 4375   6.396   0.015   3.696
 1159SOL    HW1 4376   6.383   6.937   3.679
 1159SOL    HW2 4377   6.311   0.055   3.732
 1160SOL     OW 4378   4.544   5.177   1.286
 1160SOL    HW1 4379   4.615   5.244   1.309
 1160SOL    HW2 4380   4.478   5.172   1.360
 1161SOL     OW 4381   6.818   5.813   6.135
 1161SOL    HW1 4382   6.916   5.821   6.152
 1161SOL    HW2 4383   6.803   5.767   6.047
 1162SOL     OW 4384   2.176   1.968   6.547
 1162SOL    HW1 4385   2.227   1.949   6.463
 1162SOL    HW2 4386   2.232   1.944   6.627
 1163SOL     OW 4387   6.518   4.221   2.103
 1163SOL    HW1 4388   6.503   4.221   2.004
 1163SOL    HW2 4389   6.493   4.310   2.141
 1164SOL     OW 4390   4.765   2.332   3.976
 1164SOL    HW1 4391   4.689   2.395   3.989
 1164SOL    HW2 4392   4.749   2.249   4.029
 1165SOL     OW 4393   4.600   5.497   3.792
 1165SOL    HW1 4394   4.665   5.573   3.795
 1165SOL    HW2 4395   4.558   5.493   3.701
 1166SOL     OW 4396   2.784   6.553   0.221
 1166SOL    HW1 4397   2.781   6.536   0.122
 1166SOL    HW2 4398   2.691   6.554   0.257
 1167SOL     OW 4399   4.367   6.603   0.454
 1167SOL    HW1 4400   4.292   6.536   0.460
 1167SOL    HW2 4401   4.420   6.601   0.539
 1168SOL     OW 4402   5.838   2.947   1.346
 1168SOL    HW1 4403   5.745   2.918   1.323
 1168SOL    HW2 4404   5.904   2.883   1.307
 1169SOL     OW 4405   4.397   1.681   5.749
 1169SOL    HW1 4406   4.358   1.662   5.659
 1169SOL    HW2 4407   4.344   1.753   5.794
 1170SOL     OW 4408   5.169   6.772   2.791
 1170SOL    HW1 4409   5.262   6.807   2.805
 1170SOL    HW2 4410   5.163   6.679   2.828
 1171SOL     OW 4411   3.185   6.243   6.800
 1171SOL    HW1 4412   3.285   6.245   6.801
 1171SOL    HW2 4413   3.151   6.181   6.870
 1172SOL     OW 4414   4.153   4.097   0.802
 1172SOL    HW1 4415   4.179   4.073   0.708
 1172SOL    HW2 4416   4.079   4.164   0.799
 1173SOL     OW 4417   3.494   1.275   0.976
 1173SOL    HW1 4418   3.509   1.373   0.959
 1173SOL    HW2 4419   3.571   1.223   0.940
 1174SOL     OW 4420   3.047   3.922   1.565
 1174SOL    HW1 4421   3.103   3.982   1.508
 1174SOL    HW2 4422   2.992   3.977   1.628
 1175SOL     OW 4423   4.258   3.957   6.242
 1175SOL    HW1 4424   4.343   3.949   6.190
 1175SOL    HW2 4425   4.276   3.940   6.339
 1176SOL     OW 4426   5.098   3.503   0.487
 1176SOL    HW1 4427   5.102   3.500   0.587
 1176SOL    HW2 4428   5.049   3.585   0.458
 1177SOL     OW 4429   6.566   3.727   4.724
 1177SOL    HW1 4430   6.643   3.766   4.673
 1177SOL    HW2 4431   6.519   3.659   4.667
 1178SOL     OW 4432   3.221   4.211   0.471
 1178SOL    HW1 4433   3.189   4.210   0.566
 1178SOL    HW2 4434   3.319   4.229   0.468
 1179SOL     OW 4435   2.802   5.490   0.904
 1179SOL    HW1 4436   2.724   5.548   0.927
 1179SOL    HW2 4437   2.791   5.457   0.810
 1180SOL     OW 4438   2.521   6.311   4.124
 1180SOL    HW1 4439   2.575   6.360   4.192
 1180SOL    HW2 4440   2.438   6.275   4.166
 1181SOL     OW 4441   0.153   5.473   5.042
 1181SOL    HW1 4442   0.229   5.411   5.063
 1181SOL    HW2 4443   0.162   5.505   4.948
 1182SOL     OW 4444   5.420   5.285   3.639
 1182SOL    HW1 4445   5.365   5.356   3.683
 1182SOL    HW2 4446   5.514   5.318   3.628
 1183SOL     OW 4447   2.452   5.003   0.318
 1183SOL    HW1 4448   2.482   4.930   0.379
 1183SOL    HW2 4449   2.390   5.064   0.368
 1184SOL     OW 4450   0.180   1.371   5.205
 1184SOL    HW1 4451   0.219   1.296   5.151
 1184SOL    HW2 4452   0.226   1.457   5.182
 1185SOL     OW 4453   0.832   0.826   1.062
 1185SOL    HW1 4454   0.821   0.856   0.968
 1185SOL    HW2 4455   0.859   0.903   1.119
 1186SOL     OW 4456   4.904   5.839   5.490
 1186SOL    HW1 4457   4.925   5.937   5.496
 1186SOL    HW2 4458   4.940   5.803   5.403
 1187SOL     OW 4459   4.806   0.210   5.809
 1187SOL    HW1 4460   4.712   0.240   5.793
 1187SOL    HW2 4461   4.863   0.290   5.828
 1188SOL     OW 4462   3.490   6.107   5.962
 1188SOL    HW1 4463   3.523   6.199   5.944
 1188SOL    HW2 4464   3.392   6.103   5.942
 1189SOL     OW 4465   6.226   1.777   1.381
 1189SOL    HW1 4466   6.284   1.792   1.301
 1189SOL    HW2 4467   6.257   1.836   1.456
 1190SOL     OW 4468   3.617   5.786   3.728
 1190SOL    HW1 4469   3.627   5.884   3.713
 1190SOL    HW2 4470   3.696   5.738   3.690
 1191SOL     OW 4471   4.278   5.770   4.580
 1191SOL    HW1 4472   4.353   5.714   4.617
 1191SOL    HW2 4473   4.278   5.765   4.480
 1192SOL     OW 4474   5.201   4.659   2.420
 1192SOL    HW1 4475   5.226   4.695   2.511
 1192SOL    HW2 4476   5.275   4.602   2.386
 1193SOL     OW 4477   6.699   1.988   5.054
 1193SOL    HW1 4478   6.658   1.897   5.063
 1193SOL    HW2 4479   6.794   1.980   5.025
 1194SOL     OW 4480   5.613   7.006   1.474
 1194SOL    HW1 4481   5.712   6.993   1.485
 1194SOL    HW2 4482   5.567   6.917   1.481
 1195SOL     OW 4483   0.556   4.187   0.753
 1195SOL    HW1 4484   0.599   4.277   0.747
 1195SOL    HW2 4485   0.478   4.191   0.814
 1196SOL     OW 4486   6.634   5.109   3.412
 1196SOL    HW1 4487   6.636   5.021   3.365
 1196SOL    HW2 4488   6.680   5.178   3.356
 1197SOL     OW 4489   4.784   0.044   5.112
 1197SOL    HW1 4490   4.718   0.090   5.172
 1197SOL    HW2 4491   4.860   0.009   5.166
 1198SOL     OW 4492   1.436   3.238   3.114
 1198SOL    HW1 4493   1.433   3.300   3.192
 1198SOL    HW2 4494   1.510   3.172   3.127
 1199SOL     OW 4495   3.613   3.930   1.068
 1199SOL    HW1 4496   3.665   3.883   1.139
 1199SOL    HW2 4497   3.647   3.901   0.978
 1200SOL     OW 4498   3.675   4.164   3.831
 1200SOL    HW1 4499   3.771   4.181   3.852
 1200SOL    HW2 4500   3.645   4.080   3.875
 1201SOL     OW 4501   0.844   1.474   4.436
 1201SOL    HW1 4502   0.923   1.418   4.414
 1201SOL    HW2 4503   0.856   1.515   4.526
 1202SOL     OW 4504   0.324   5.608   5.736
 1202SOL    HW1 4505   0.399   5.659   5.777
 1202SOL    HW2 4506   0.330   5.613   5.636
 1203SOL     OW 4507   0.024   6.111   0.145
 1203SOL    HW1 4508   0.019   6.209   0.167
 1203SOL    HW2 4509   0.091   6.097   0.073
 1204SOL     OW 4510   4.471   1.468   1.430
 1204SOL    HW1 4511   4.561   1.459   1.387
 1204SOL    HW2 4512   4.444   1.380   1.470
 1205SOL     OW 4513   4.035   2.877   0.717
 1205SOL    HW1 4514   3.956   2.818   0.701
 1205SOL    HW2 4515   4.003   2.971   0.730
 1206SOL     OW 4516   2.542   2.818   5.390
 1206SOL    HW1 4517   2.633   2.846   5.421
 1206SOL    HW2 4518   2.503   2.890   5.332
 1207SOL     OW 4519   2.305   6.441   1.124
 1207SOL    HW1 4520   2.281   6.362   1.180
 1207SOL    HW2 4521   2.230   6.461   1.061
 1208SOL     OW 4522   3.512   3.512   1.240
 1208SOL    HW1 4523   3.539   3.602   1.274
 1208SOL    HW2 4524   3.428   3.520   1.186
 1209SOL     OW 4525   4.103   0.879   4.261
 1209SOL    HW1 4526   4.080   0.813   4.333
 1209SOL    HW2 4527   4.119   0.969   4.302
 1210SOL     OW 4528   3.391   0.099   3.422
 1210SOL    HW1 4529   3.465   0.153   3.382
 1210SOL    HW2 4530   3.400   0.004   3.394
 1211SOL     OW 4531   0.289   3.603   2.806
 1211SOL    HW1 4532   0.229   3.663   2.860
 1211SOL    HW2 4533   0.239   3.519   2.783
 1212SOL     OW 4534   6.110   0.531   0.332
 1212SOL    HW1 4535   6.127   0.619   0.286
 1212SOL    HW2 4536   6.023   0.535   0.381
 1213SOL     OW 4537   6.177   2.421   0.826
 1213SOL    HW1 4538   6.126   2.391   0.746
 1213SOL    HW2 4539   6.263   2.464   0.796
 1214SOL     OW 4540   1.281   3.018   6.754
 1214SOL    HW1 4541   1.336   3.102   6.756
 1214SOL    HW2 4542   1.190   3.039   6.720
 1215SOL     OW 4543   1.315   4.568   3.084
 1215SOL    HW1 4544   1.406   4.529   3.096
 1215SOL    HW2 4545   1.246   4.495   3.090
 1216SOL     OW 4546   5.070   0.341   1.084
 1216SOL    HW1 4547   5.063   0.289   0.998
 1216SOL    HW2 4548   5.074   0.438   1.063
 1217SOL     OW 4549   2.062   4.693   1.111
 1217SOL    HW1 4550   2.155   4.708   1.146
 1217SOL    HW2 4551   2.019   4.781   1.092
 1218SOL     OW 4552   1.429   3.770   4.844
 1218SOL    HW1 4553   1.523   3.776   4.810
 1218SOL    HW2 4554   1.373   3.841   4.801
 1219SOL     OW 4555   5.197   5.996   1.909
 1219SOL    HW1 4556   5.171   6.086   1.873
 1219SOL    HW2 4557   5.296   5.991   1.918
 1220SOL     OW 4558   0.701   4.584   3.222
 1220SOL    HW1 4559   0.651   4.649   3.165
 1220SOL    HW2 4560   0.658   4.578   3.312
 1221SOL     OW 4561   4.984   4.127   6.363
 1221SOL    HW1 4562   5.070   4.089   6.330
 1221SOL    HW2 4563   4.947   4.068   6.436
 1222SOL     OW 4564   6.848   0.567   0.120
 1222SOL    HW1 4565   6.911   0.632   0.163
 1222SOL    HW2 4566   6.831   0.595   0.026
 1223SOL     OW 4567   4.175   1.801   0.187
 1223SOL    HW1 4568   4.176   1.803   0.087
 1223SOL    HW2 4569   4.144   1.889   0.223
 1224SOL     OW 4570   3.717   5.808   0.874
 1224SOL    HW1 4571   3.698   5.719   0.917
 1224SOL    HW2 4572   3.643   5.830   0.811
 1225SOL     OW 4573   3.052   3.262   6.026
 1225SOL    HW1 4574   3.122   3.291   6.091
 1225SOL    HW2 4575   3.071   3.303   5.936
 1226SOL     OW 4576   2.944   6.138   1.930
 1226SOL    HW1 4577   3.039   6.137   1.898
 1226SOL    HW2 4578   2.900   6.051   1.908
 1227SOL     OW 4579   6.765   4.679   6.007
 1227SOL    HW1 4580   6.860   4.708   6.020
 1227SOL    HW2 4581   6.755   4.584   6.038
 1228SOL     OW 4582   3.260   1.721   6.569
 1228SOL    HW1 4583   3.276   1.758   6.478
 1228SOL    HW2 4584   3.168   1.749   6.600
 1229SOL     OW 4585   3.845   5.085   5.465
 1229SOL    HW1 4586   3.753   5.124   5.458
 1229SOL    HW2 4587   3.841   4.998   5.514
 1230SOL     OW 4588   4.515   6.805   2.673
 1230SOL    HW1 4589   4.538   6.720   2.627
 1230SOL    HW2 4590   4.431   6.842   2.634
 1231SOL     OW 4591   1.821   2.810   4.609
 1231SOL    HW1 4592   1.821   2.880   4.681
 1231SOL    HW2 4593   1.751   2.832   4.541
 1232SOL     OW 4594   0.538   1.703   4.987
 1232SOL    HW1 4595   0.456   1.646   4.995
 1232SOL    HW2 4596   0.561   1.715   4.890
 1233SOL     OW 4597   0.754   4.351   4.996
 1233SOL    HW1 4598   0.693   4.278   4.966
 1233SOL    HW2 4599   0.706   4.411   5.060
 1234SOL     OW 4600   6.469   3.835   5.106
 1234SOL    HW1 4601   6.538   3.773   5.143
 1234SOL    HW2 4602   6.505   3.880   5.024
 1235SOL     OW 4603   0.196   5.782   2.484
 1235SOL    HW1 4604   0.243   5.740   2.562
 1235SOL    HW2 4605   0.253   5.855   2.446
 1236SOL     OW 4606   4.570   1.611   6.810
 1236SOL    HW1 4607   4.567   1.546   6.887
 1236SOL    HW2 4608   4.565   1.704   6.846
 1237SOL     OW 4609   2.249   5.042   5.361
 1237SOL    HW1 4610   2.343   5.075   5.370
 1237SOL    HW2 4611   2.234   4.966   5.424
 1238SOL     OW 4612   2.688   1.347   0.403
 1238SOL    HW1 4613   2.671   1.254   0.436
 1238SOL    HW2 4614   2.782   1.354   0.371
 1239SOL     OW 4615   0.103   6.918   5.797
 1239SOL    HW1 4616   0.034   6.904   5.726
 1239SOL    HW2 4617   0.171   6.984   5.765
 1240SOL     OW 4618   5.377   6.480   1.955
 1240SOL    HW1 4619   5.473   6.452   1.954
 1240SOL    HW2 4620   5.369   6.572   1.917
 1241SOL     OW 4621   5.482   3.790   4.071
 1241SOL    HW1 4622   5.408   3.858   4.072
 1241SOL    HW2 4623   5.564   3.831   4.032
 1242SOL     OW 4624   0.569   3.384   1.908
 1242SOL    HW1 4625   0.563   3.295   1.863
 1242SOL    HW2 4626   0.527   3.453   1.849
 1243SOL     OW 4627   0.013   0.049   4.584
 1243SOL    HW1 4628   6.943   0.078   4.617
 1243SOL    HW2 4629   0.065   0.009   4.660
 1244SOL     OW 4630   6.431   0.123   4.006
 1244SOL    HW1 4631   6.359   0.059   3.979
 1244SOL    HW2 4632   6.511   0.072   4.038
 1245SOL     OW 4633   4.777   5.178   0.418
 1245SOL    HW1 4634   4.789   5.081   0.396
 1245SOL    HW2 4635   4.745   5.187   0.512
 1246SOL     OW 4636   2.452   6.339   1.779
 1246SOL    HW1 4637   2.495   6.269   1.722
 1246SOL    HW2 4638   2.470   6.319   1.876
 1247SOL     OW 4639   2.101   0.390   6.881
 1247SOL    HW1 4640   2.085   0.419   6.975
 1247SOL    HW2 4641   2.029   0.425   6.821
 1248SOL     OW 4642   2.205   0.264   5.028
 1248SOL    HW1 4643   2.235   0.256   4.933
 1248SOL    HW2 4644   2.184   0.360   5.049
 1249SOL     OW 4645   5.886   2.157   2.754
 1249SOL    HW1 4646   5.980   2.123   2.765
 1249SOL    HW2 4647   5.872   2.234   2.817
 1250SOL     OW 4648   6.090   5.002   4.294
 1250SOL    HW1 4649   6.172   5.058   4.302
 1250SOL    HW2 4650   6.106   4.913   4.338
 1251SOL     OW 4651   3.240   0.630   4.431
 1251SOL    HW1 4652   3.173   0.567   4.393
 1251SOL    HW2 4653   3.254   0.706   4.368
 1252SOL     OW 4654   3.788   3.318   4.649
 1252SOL    HW1 4655   3.855   3.279   4.587
 1252SOL    HW2 4656   3.802   3.417   4.655
 1253SOL     OW 4657   3.457   5.574   2.228
 1253SOL    HW1 4658   3.508   5.590   2.312
 1253SOL    HW2 4659   3.398   5.653   2.209
 1254SOL     OW 4660   1.037   2.422   2.723
 1254SOL    HW1 4661   0.979   2.400   2.802
 1254SOL    HW2 4662   1.037   2.521   2.708
 1255SOL     OW 4663   6.426   2.002   4.958
 1255SOL    HW1 4664   6.364   1.924   4.955
 1255SOL    HW2 4665   6.511   1.976   5.005
 1256SOL     OW 4666   6.867   6.394   3.445
 1256SOL    HW1 4667   6.860   6.493   3.451
 1256SOL    HW2 4668   6.935   6.369   3.375
 1257SOL     OW 4669   0.216   6.817   4.466
 1257SOL    HW1 4670   0.181   6.878   4.537
 1257SOL    HW2 4671   0.205   6.722   4.496
 1258SOL     OW 4672   1.458   5.325   3.698
 1258SOL    HW1 4673   1.431   5.233   3.668
 1258SOL    HW2 4674   1.464   5.328   3.798
 1259SOL     OW 4675   3.758   1.407   3.952
 1259SOL    HW1 4676   3.833   1.407   3.886
 1259SOL    HW2 4677   3.795   1.410   4.044
 1260SOL     OW 4678   1.558   1.741   6.884
 1260SOL    HW1 4679   1.586   1.790   6.801
 1260SOL    HW2 4680   1.518   1.806   6.948
 1261SOL     OW 4681   0.300   5.684   6.479
 1261SOL    HW1 4682   0.255   5.658   6.393
 1261SOL    HW2 4683   0.387   5.635   6.488
 1262SOL     OW 4684   4.865   4.124   1.490
 1262SOL    HW1 4685   4.960   4.093   1.492
 1262SOL    HW2 4686   4.811   4.070   1.554
 1263SOL     OW 4687   0.195   1.799   2.397
 1263SOL    HW1 4688   0.163   1.893   2.382
 1263SOL    HW2 4689   0.141   1.757   2.470
 1264SOL     OW 4690   6.647   4.213   0.458
 1264SOL    HW1 4691   6.574   4.281   0.449
 1264SOL    HW2 4692   6.646   4.177   0.551
 1265SOL     OW 4693   5.645   4.821   4.691
 1265SOL    HW1 4694   5.696   4.854   4.612
 1265SOL    HW2 4695   5.709   4.799   4.765
 1266SOL     OW 4696   0.277   1.080   4.074
 1266SOL    HW1 4697   0.323   1.124   3.998
 1266SOL    HW2 4698   0.339   1.015   4.119
 1267SOL     OW 4699   5.969   1.291   0.987
 1267SOL    HW1 4700   5.945   1.284   0.890
 1267SOL    HW2 4701   5.988   1.387   1.010
 1268SOL     OW 4702   2.725   3.021   6.238
 1268SOL    HW1 4703   2.734   3.085   6.314
 1268SOL    HW2 4704   2.721   2.928   6.273
 1269SOL     OW 4705   6.054   3.512   4.287
 1269SOL    HW1 4706   6.046   3.487   4.190
 1269SOL    HW2 4707   5.970   3.487   4.335
 1270SOL     OW 4708   1.630   4.482   2.360
 1270SOL    HW1 4709   1.701   4.493   2.430
 1270SOL    HW2 4710   1.673   4.473   2.271
 1271SOL     OW 4711   3.760   1.800   2.867
 1271SOL    HW1 4712   3.853   1.789   2.829
 1271SOL    HW2 4713   3.736   1.897   2.868
 1272SOL     OW 4714   5.615   4.792   6.937
 1272SOL    HW1 4715   5.642   4.773   6.843
 1272SOL    HW2 4716   5.517   4.814   6.940
 1273SOL     OW 4717   0.992   3.763   5.946
 1273SOL    HW1 4718   0.954   3.855   5.954
 1273SOL    HW2 4719   1.036   3.737   6.032
 1274SOL     OW 4720   0.273   4.413   0.998
 1274SOL    HW1 4721   0.237   4.497   0.958
 1274SOL    HW2 4722   0.205   4.376   1.062
 1275SOL     OW 4723   3.443   1.781   3.480
 1275SOL    HW1 4724   3.512   1.736   3.537
 1275SOL    HW2 4725   3.483   1.859   3.434
 1276SOL     OW 4726   5.907   5.005   5.059
 1276SOL    HW1 4727   5.920   4.908   5.078
 1276SOL    HW2 4728   5.881   5.018   4.964
 1277SOL     OW 4729   2.206   5.320   6.288
 1277SOL    HW1 4730   2.147   5.241   6.273
 1277SOL    HW2 4731   2.262   5.305   6.370
 1278SOL     OW 4732   1.094   0.215   4.928
 1278SOL    HW1 4733   1.001   0.180   4.915
 1278SOL    HW2 4734   1.139   0.164   5.002
 1279SOL     OW 4735   1.888   5.037   6.801
 1279SOL    HW1 4736   1.951   5.066   6.728
 1279SOL    HW2 4737   1.921   4.951   6.841
 1280SOL     OW 4738   4.632   6.570   4.009
 1280SOL    HW1 4739   4.547   6.532   3.972
 1280SOL    HW2 4740   4.664   6.513   4.085
 1281SOL     OW 4741   2.636   6.316   2.941
 1281SOL    HW1 4742   2.572   6.240   2.949
 1281SOL    HW2 4743   2.586   6.402   2.933
 1282SOL     OW 4744   6.544   2.128   6.054
 1282SOL    HW1 4745   6.497   2.217   6.058
 1282SOL    HW2 4746   6.511   2.076   5.975
 1283SOL     OW 4747   6.828   2.938   5.147
 1283SOL    HW1 4748   6.810   2.933   5.245
 1283SOL    HW2 4749   6.755   2.893   5.097
 1284SOL     OW 4750   4.502   1.741   1.860
 1284SOL    HW1 4751   4.431   1.671   1.847
 1284SOL    HW2 4752   4.549   1.758   1.774
 1285SOL     OW 4753   4.793   1.511   5.377
 1285SOL    HW1 4754   4.710   1.567   5.374
 1285SOL    HW2 4755   4.811   1.475   5.285
 1286SOL     OW 4756   4.542   2.979   0.615
 1286SOL    HW1 4757   4.474   2.942   0.678
 1286SOL    HW2 4758   4.622   3.011   0.666
 1287SOL     OW 4759   5.393   4.332   5.604
 1287SOL    HW1 4760   5.387   4.332   5.704
 1287SOL    HW2 4761   5.474   4.280   5.575
 1288SOL     OW 4762   3.805   3.760   6.020
 1288SOL    HW1 4763   3.799   3.669   5.979
 1288SOL    HW2 4764   3.824   3.751   6.118
 1289SOL     OW 4765   0.701   0.028   1.335
 1289SOL    HW1 4766   0.676   0.114   1.379
 1289SOL    HW2 4767   0.628   6.981   1.351
 1290SOL     OW 4768   1.385   6.918   0.486
 1290SOL    HW1 4769   1.482   6.892   0.484
 1290SOL    HW2 4770   1.373   6.999   0.543
 1291SOL     OW 4771   0.422   4.272   3.968
 1291SOL    HW1 4772   0.436   4.295   3.872
 1291SOL    HW2 4773   0.387   4.351   4.017
 1292SOL     OW 4774   0.853   5.900   2.490
 1292SOL    HW1 4775   0.781   5.841   2.526
 1292SOL    HW2 4776   0.940   5.851   2.490
 1293SOL     OW 4777   2.511   2.260   0.001
 1293SOL    HW1 4778   2.418   2.226   7.006
 1293SOL    HW2 4779   2.512   2.323   0.079
 1294SOL     OW 4780   0.138   2.948   5.655
 1294SOL    HW1 4781   0.107   2.891   5.579
 1294SOL    HW2 4782   0.185   3.029   5.619
 1295SOL     OW 4783   0.553   3.812   0.992
 1295SOL    HW1 4784   0.620   3.881   0.963
 1295SOL    HW2 4785   0.583   3.722   0.962
 1296SOL     OW 4786   4.413   6.421   5.358
 1296SOL    HW1 4787   4.378   6.486   5.425
 1296SOL    HW2 4788   4.410   6.462   5.267
 1297SOL     OW 4789   0.859   6.830   1.038
 1297SOL    HW1 4790   0.959   6.837   1.033
 1297SOL    HW2 4791   0.832   6.805   1.131
 1298SOL     OW 4792   4.872   5.790   3.311
 1298SOL    HW1 4793   4.832   5.839   3.234
 1298SOL    HW2 4794   4.827   5.701   3.322
 1299SOL     OW 4795   2.552   2.546   3.790
 1299SOL    HW1 4796   2.553   2.591   3.879
 1299SOL    HW2 4797   2.487   2.593   3.730
 1300SOL     OW 4798   1.894   3.071   0.847
 1300SOL    HW1 4799   1.854   3.127   0.775
 1300SOL    HW2 4800   1.988   3.101   0.864
 1301SOL     OW 4801   0.655   6.326   1.622
 1301SOL    HW1 4802   0.586   6.325   1.550
 1301SOL    HW2 4803   0.636   6.402   1.685
 1302SOL     OW 4804   5.044   7.010   5.318
 1302SOL    HW1 4805   5.050   6.972   5.410
 1302SOL    HW2 4806   5.000   0.080   5.322
 1303SOL     OW 4807   4.279   1.137   1.131
 1303SOL    HW1 4808   4.204   1.118   1.068
 1303SOL    HW2 4809   4.243   1.151   1.223
 1304SOL     OW 4810   2.070   0.144   0.585
 1304SOL    HW1 4811   1.977   0.107   0.593
 1304SOL    HW2 4812   2.078   0.226   0.641
 1305SOL     OW 4813   6.043   3.818   0.605
 1305SOL    HW1 4814   6.119   3.764   0.642
 1305SOL    HW2 4815   5.960   3.798   0.656
 1306SOL     OW 4816   1.070   5.928   4.623
 1306SOL    HW1 4817   1.089   6.012   4.673
 1306SOL    HW2 4818   1.035   5.950   4.532
 1307SOL     OW 4819   2.193   4.068   4.106
 1307SOL    HW1 4820   2.201   4.107   4.197
 1307SOL    HW2 4821   2.240   4.127   4.040
 1308SOL     OW 4822   6.952   6.929   6.148
 1308SOL    HW1 4823   6.887   6.980   6.092
 1308SOL    HW2 4824   6.931   6.832   6.144
 1309SOL     OW 4825   5.848   5.018   5.777
 1309SOL    HW1 4826   5.931   5.011   5.722
 1309SOL    HW2 4827   5.783   5.078   5.732
 1310SOL     OW 4828   0.400   3.853   3.080
 1310SOL    HW1 4829   0.381   3.926   3.145
 1310SOL    HW2 4830   0.405   3.765   3.128
 1311SOL     OW 4831   6.911   6.140   6.125
 1311SOL    HW1 4832   6.998   6.146   6.174
 1311SOL    HW2 4833   6.924   6.088   6.040
 1312SOL     OW 4834   1.491   6.812   0.012
 1312SOL    HW1 4835   1.435   6.746   6.982
 1312SOL    HW2 4836   1.439   6.851   0.088
 1313SOL     OW 4837   0.182   4.980   2.792
 1313SOL    HW1 4838   0.269   4.998   2.745
 1313SOL    HW2 4839   0.125   4.921   2.735
 1314SOL     OW 4840   3.703   1.330   4.638
 1314SOL    HW1 4841   3.718   1.418   4.593
 1314SOL    HW2 4842   3.784   1.307   4.693
 1315SOL     OW 4843   6.810   1.480   2.860
 1315SOL    HW1 4844   6.868   1.399   2.850
 1315SOL    HW2 4845   6.855   1.558   2.816
 1316SOL     OW 4846   3.610   0.051   5.701
 1316SOL    HW1 4847   3.636   0.085   5.792
 1316SOL    HW2 4848   3.524   7.019   5.708
 1317SOL     OW 4849   1.607   4.054   6.217
 1317SOL    HW1 4850   1.599   3.986   6.289
 1317SOL    HW2 4851   1.532   4.042   6.152
 1318SOL     OW 4852   1.292   2.613   0.558
 1318SOL    HW1 4853   1.367   2.652   0.613
 1318SOL    HW2 4854   1.217   2.587   0.619
 1319SOL     OW 4855   7.007   6.094   0.712
 1319SOL    HW1 4856   6.954   6.018   0.671
 1319SOL    HW2 4857   6.948   6.147   0.772
 1320SOL     OW 4858   3.699   4.117   6.852
 1320SOL    HW1 4859   3.695   4.190   6.919
 1320SOL    HW2 4860   3.642   4.141   6.773
 1321SOL     OW 4861   4.954   2.967   6.153
 1321SOL    HW1 4862   4.948   2.901   6.078
 1321SOL    HW2 4863   5.013   2.931   6.225
 1322SOL     OW 4864   3.429   1.567   4.261
 1322SOL    HW1 4865   3.460   1.633   4.330
 1322SOL    HW2 4866   3.344   1.524   4.292
 1323SOL     OW 4867   3.343   6.674   6.566
 1323SOL    HW1 4868   3.273   6.619   6.612
 1323SOL    HW2 4869   3.386   6.618   6.494
 1324SOL     OW 4870   0.286   3.414   6.505
 1324SOL    HW1 4871   0.237   3.469   6.572
 1324SOL    HW2 4872   0.279   3.456   6.415
 1325SOL     OW 4873   3.638   6.562   4.963
 1325SOL    HW1 4874   3.730   6.550   4.925
 1325SOL    HW2 4875   3.606   6.655   4.944
 1326SOL     OW 4876   4.989   3.480   5.202
 1326SOL    HW1 4877   4.901   3.528   5.196
 1326SOL    HW2 4878   5.061   3.536   5.161
 1327SOL     OW 4879   1.285   6.300   0.943
 1327SOL    HW1 4880   1.315   6.364   1.015
 1327SOL    HW2 4881   1.355   6.294   0.872
 1328SOL     OW 4882   2.440   3.348   0.064
 1328SOL    HW1 4883   2.515   3.291   0.031
 1328SOL    HW2 4884   2.454   3.370   0.160
 1329SOL     OW 4885   0.776   2.368   2.912
 1329SOL    HW1 4886   0.759   2.312   2.993
 1329SOL    HW2 4887   0.749   2.462   2.930
 1330SOL     OW 4888   1.562   1.845   1.536
 1330SOL    HW1 4889   1.655   1.858   1.570
 1330SOL    HW2 4890   1.544   1.747   1.525
 1331SOL     OW 4891   4.725   2.902   3.225
 1331SOL    HW1 4892   4.762   2.851   3.148
 1331SOL    HW2 4893   4.661   2.844   3.276
 1332SOL     OW 4894   2.842   0.054   0.879
 1332SOL    HW1 4895   2.894   0.129   0.919
 1332SOL    HW2 4896   2.751   0.050   0.921
 1333SOL     OW 4897   2.881   3.684   3.129
 1333SOL    HW1 4898   2.844   3.603   3.174
 1333SOL    HW2 4899   2.896   3.756   3.197
 1334SOL     OW 4900   6.455   1.720   3.880
 1334SOL    HW1 4901   6.431   1.680   3.969
 1334SOL    HW2 4902   6.544   1.683   3.851
 1335SOL     OW 4903   2.594   2.065   2.404
 1335SOL    HW1 4904   2.530   2.073   2.480
 1335SOL    HW2 4905   2.677   2.018   2.434
 1336SOL     OW 4906   2.750   1.472   4.765
 1336SOL    HW1 4907   2.717   1.434   4.851
 1336SOL    HW2 4908   2.746   1.572   4.769
 1337SOL     OW 4909   1.053   1.773   2.799
 1337SOL    HW1 4910   1.019   1.862   2.769
 1337SOL    HW2 4911   1.017   1.753   2.891
 1338SOL     OW 4912   6.746   3.006   4.779
 1338SOL    HW1 4913   6.762   2.907   4.773
 1338SOL    HW2 4914   6.657   3.022   4.822
 1339SOL     OW 4915   6.407   2.105   0.023
 1339SOL    HW1 4916   6.385   2.047   0.101
 1339SOL    HW2 4917   6.470   2.057   6.981
 1340SOL     OW 4918   5.121   1.335   2.602
 1340SOL    HW1 4919   5.113   1.427   2.641
 1340SOL    HW2 4920   5.108   1.339   2.503
 1341SOL     OW 4921   4.455   6.485   6.529
 1341SOL    HW1 4922   4.422   6.517   6.441
 1341SOL    HW2 4923   4.545   6.444   6.519
 1342SOL     OW 4924   2.984   5.438   6.421
 1342SOL    HW1 4925   2.950   5.403   6.509
 1342SOL    HW2 4926   3.079   5.469   6.433
 1343SOL     OW 4927   5.645   5.799   2.931
 1343SOL    HW1 4928   5.636   5.800   3.031
 1343SOL    HW2 4929   5.568   5.748   2.891
 1344SOL     OW 4930   6.901   5.911   4.594
 1344SOL    HW1 4931   6.996   5.924   4.568
 1344SOL    HW2 4932   6.880   5.965   4.675
 1345SOL     OW 4933   0.906   5.638   2.721
 1345SOL    HW1 4934   0.965   5.575   2.671
 1345SOL    HW2 4935   0.811   5.623   2.695
 1346SOL     OW 4936   2.074   5.437   5.024
 1346SOL    HW1 4937   1.992   5.428   5.080
 1346SOL    HW2 4938   2.152   5.396   5.072
 1347SOL     OW 4939   6.860   0.250   5.533
 1347SOL    HW1 4940   6.776   0.211   5.572
 1347SOL    HW2 4941   6.926   0.177   5.517
 1348SOL     OW 4942   6.117   6.404   4.616
 1348SOL    HW1 4943   6.204   6.426   4.573
 1348SOL    HW2 4944   6.116   6.441   4.709
 1349SOL     OW 4945   5.469   2.799   5.102
 1349SOL    HW1 4946   5.390   2.802   5.041
 1349SOL    HW2 4947   5.441   2.761   5.191
 1350SOL     OW 4948   5.079   5.214   5.347
 1350SOL    HW1 4949   5.005   5.154   5.317
 1350SOL    HW2 4950   5.099   5.197   5.443
 1351SOL     OW 4951   5.534   2.110   3.351
 1351SOL    HW1 4952   5.623   2.138   3.315
 1351SOL    HW2 4953   5.489   2.188   3.394
 1352SOL     OW 4954   6.337   5.672   3.946
 1352SOL    HW1 4955   6.391   5.638   3.869
 1352SOL    HW2 4956   6.304   5.764   3.926
 1353SOL     OW 4957   0.812   2.467   0.156
 1353SOL    HW1 4958   0.790   2.540   0.220
 1353SOL    HW2 4959   0.888   2.496   0.097
 1354SOL     OW 4960   0.369   4.571   1.694
 1354SOL    HW1 4961   0.376   4.505   1.619
 1354SOL    HW2 4962   0.336   4.525   1.776
 1355SOL     OW 4963   6.136   3.595   4.696
 1355SOL    HW1 4964   6.070   3.520   4.685
 1355SOL    HW2 4965   6.107   3.674   4.642
 1356SOL     OW 4966   3.166   2.973   2.204
 1356SOL    HW1 4967   3.072   2.953   2.233
 1356SOL    HW2 4968   3.195   2.905   2.136
 1357SOL     OW 4969   0.006   4.387   6.371
 1357SOL    HW1 4970   0.067   4.466   6.369
 1357SOL    HW2 4971   0.015   4.336   6.286
 1358SOL     OW 4972   5.489   6.378   6.440
 1358SOL    HW1 4973   5.517   6.432   6.361
 1358SOL    HW2 4974   5.570   6.347   6.490
 1359SOL     OW 4975   5.788   4.890   2.808
 1359SOL    HW1 4976   5.836   4.815   2.763
 1359SOL    HW2 4977   5.850   4.968   2.820
 1360SOL     OW 4978   2.721   3.860   0.247
 1360SOL    HW1 4979   2.712   3.791   0.319
 1360SOL    HW2 4980   2.805   3.843   0.196
 1361SOL     OW 4981   6.290   4.793   5.348
 1361SOL    HW1 4982   6.211   4.845   5.381
 1361SOL    HW2 4983   6.270   4.695   5.354
 1362SOL     OW 4984   3.923   3.990   3.355
 1362SOL    HW1 4985   3.922   3.998   3.255
 1362SOL    HW2 4986   3.987   3.918   3.382
 1363SOL     OW 4987   0.278   5.017   4.560
 1363SOL    HW1 4988   0.254   4.963   4.479
 1363SOL    HW2 4989   0.345   4.968   4.615
 1364SOL     OW 4990   4.987   4.224   0.542
 1364SOL    HW1 4991   5.049   4.272   0.604
 1364SOL    HW2 4992   4.904   4.278   0.529
 1365SOL     OW 4993   0.090   4.315   6.090
 1365SOL    HW1 4994   0.116   4.345   5.998
 1365SOL    HW2 4995   0.161   4.255   6.127
 1366SOL     OW 4996   1.670   5.682   6.886
 1366SOL    HW1 4997   1.766   5.704   6.868
 1366SOL    HW2 4998   1.652   5.587   6.862
 1367SOL     OW 4999   2.270   0.076   3.182
 1367SOL    HW1 5000   2.302   0.033   3.267
 1367SOL    HW2 5001   2.173   0.057   3.170
 1368SOL     OW 5002   5.351   6.679   3.813
 1368SOL    HW1 5003   5.291   6.702   3.737
 1368SOL    HW2 5004   5.444   6.711   3.793
 1369SOL     OW 5005   1.938   6.423   2.796
 1369SOL    HW1 5006   1.954   6.475   2.880
 1369SOL    HW2 5007   1.844   6.388   2.795
 1370SOL     OW 5008   3.795   1.280   1.297
 1370SOL    HW1 5009   3.699   1.286   1.322
 1370SOL    HW2 5010   3.817   1.347   1.227
 1371SOL     OW 5011   5.299   1.569   4.134
 1371SOL    HW1 5012   5.371   1.638   4.121
 1371SOL    HW2 5013   5.287   1.517   4.049
 1372SOL     OW 5014   1.789   2.564   0.435
 1372SOL    HW1 5015   1.847   2.492   0.396
 1372SOL    HW2 5016   1.767   2.542   0.530
 1373SOL     OW 5017   6.088   4.051   6.804
 1373SOL    HW1 5018   6.187   4.038   6.803
 1373SOL    HW2 5019   6.044   3.964   6.828
 1374SOL     OW 5020   3.755   2.030   0.537
 1374SOL    HW1 5021   3.727   2.109   0.483
 1374SOL    HW2 5022   3.757   1.949   0.479
 1375SOL     OW 5023   0.275   4.801   6.069
 1375SOL    HW1 5024   0.329   4.720   6.092
 1375SOL    HW2 5025   0.335   4.870   6.027
 1376SOL     OW 5026   5.012   3.585   3.831
 1376SOL    HW1 5027   5.106   3.553   3.824
 1376SOL    HW2 5028   4.960   3.523   3.890
 1377SOL     OW 5029   6.507   4.232   5.405
 1377SOL    HW1 5030   6.494   4.133   5.396
 1377SOL    HW2 5031   6.562   4.266   5.330
 1378SOL     OW 5032   6.405   2.250   4.846
 1378SOL    HW1 5033   6.361   2.233   4.758
 1378SOL    HW2 5034   6.398   2.168   4.903
 1379SOL     OW 5035   3.175   0.292   2.155
 1379SOL    HW1 5036   3.249   0.261   2.214
 1379SOL    HW2 5037   3.113   0.215   2.137
 1380SOL     OW 5038   0.119   0.306   2.117
 1380SOL    HW1 5039   0.046   0.298   2.185
 1380SOL    HW2 5040   0.171   0.390   2.132
 1381SOL     OW 5041   5.139   2.815   0.049
 1381SOL    HW1 5042   5.231   2.795   0.018
 1381SOL    HW2 5043   5.130   2.791   0.146
 1382SOL     OW 5044   5.401   4.349   0.044
 1382SOL    HW1 5045   5.339   4.291   7.011
 1382SOL    HW2 5046   5.450   4.294   0.111
 1383SOL     OW 5047   0.757   1.406   0.428
 1383SOL    HW1 5048   0.757   1.337   0.356
 1383SOL    HW2 5049   0.699   1.483   0.401
 1384SOL     OW 5050   3.971   1.238   2.947
 1384SOL    HW1 5051   3.950   1.325   2.992
 1384SOL    HW2 5052   3.942   1.162   3.006
 1385SOL     OW 5053   0.581   2.853   2.995
 1385SOL    HW1 5054   0.497   2.838   2.942
 1385SOL    HW2 5055   0.628   2.934   2.960
 1386SOL     OW 5056   2.181   1.688   4.433
 1386SOL    HW1 5057   2.202   1.785   4.447
 1386SOL    HW2 5058   2.106   1.680   4.367
 1387SOL     OW 5059   3.838   0.565   3.633
 1387SOL    HW1 5060   3.758   0.505   3.641
 1387SOL    HW2 5061   3.877   0.580   3.723
 1388SOL     OW 5062   6.857   6.492   4.182
 1388SOL    HW1 5063   6.889   6.441   4.103
 1388SOL    HW2 5064   6.807   6.573   4.152
 1389SOL     OW 5065   0.511   1.005   3.684
 1389SOL    HW1 5066   0.595   0.955   3.662
 1389SOL    HW2 5067   0.495   1.076   3.616
 1390SOL     OW 5068   4.800   1.606   6.356
 1390SOL    HW1 5069   4.733   1.634   6.425
 1390SOL    HW2 5070   4.847   1.686   6.320
 1391SOL     OW 5071   5.856   1.744   5.648
 1391SOL    HW1 5072   5.771   1.773   5.604
 1391SOL    HW2 5073   5.855   1.775   5.743
 1392SOL     OW 5074   5.020   5.611   5.582
 1392SOL    HW1 5075   5.023   5.547   5.506
 1392SOL    HW2 5076   4.974   5.696   5.554
 1393SOL     OW 5077   5.964   2.889   6.916
 1393SOL    HW1 5078   5.885   2.828   6.906
 1393SOL    HW2 5079   5.932   2.981   6.937
 1394SOL     OW 5080   3.741   6.405   3.812
 1394SOL    HW1 5081   3.825   6.390   3.864
 1394SOL    HW2 5082   3.664   6.415   3.876
 1395SOL     OW 5083   0.309   4.136   2.667
 1395SOL    HW1 5084   0.402   4.161   2.640
 1395SOL    HW2 5085   0.246   4.153   2.592
 1396SOL     OW 5086   1.758   6.945   4.395
 1396SOL    HW1 5087   1.736   6.922   4.490
 1396SOL    HW2 5088   1.782   6.863   4.345
 1397SOL     OW 5089   0.442   6.163   5.040
 1397SOL    HW1 5090   0.438   6.105   5.122
 1397SOL    HW2 5091   0.429   6.107   4.959
 1398SOL     OW 5092   1.821   1.090   1.482
 1398SOL    HW1 5093   1.765   1.025   1.431
 1398SOL    HW2 5094   1.897   1.121   1.425
 1399SOL     OW 5095   4.074   0.488   0.460
 1399SOL    HW1 5096   4.144   0.542   0.413
 1399SOL    HW2 5097   3.983   0.517   0.430
 1400SOL     OW 5098   6.317   0.891   4.134
 1400SOL    HW1 5099   6.377   0.812   4.135
 1400SOL    HW2 5100   6.243   0.876   4.069
 1401SOL     OW 5101   5.483   0.064   4.087
 1401SOL    HW1 5102   5.566   0.010   4.078
 1401SOL    HW2 5103   5.504   0.161   4.074
 1402SOL     OW 5104   5.949   4.238   6.940
 1402SOL    HW1 5105   6.008   4.249   0.000
 1402SOL    HW2 5106   5.987   4.166   6.881
 1403SOL     OW 5107   2.882   3.174   0.577
 1403SOL    HW1 5108   2.872   3.271   0.553
 1403SOL    HW2 5109   2.826   3.153   0.657
 1404SOL     OW 5110   4.702   0.428   1.037
 1404SOL    HW1 5111   4.722   0.350   0.978
 1404SOL    HW2 5112   4.737   0.511   0.996
 1405SOL     OW 5113   1.554   3.553   0.885
 1405SOL    HW1 5114   1.598   3.585   0.969
 1405SOL    HW2 5115   1.456   3.572   0.889
 1406SOL     OW 5116   2.359   4.044   1.553
 1406SOL    HW1 5117   2.261   4.065   1.542
 1406SOL    HW2 5118   2.377   4.016   1.648
 1407SOL     OW 5119   0.976   3.338   2.504
 1407SOL    HW1 5120   0.941   3.428   2.531
 1407SOL    HW2 5121   0.926   3.267   2.553
 1408SOL     OW 5122   6.249   6.724   6.949
 1408SOL    HW1 5123   6.197   6.676   0.001
 1408SOL    HW2 5124   6.343   6.692   6.949
 1409SOL     OW 5125   6.813   0.976   5.448
 1409SOL    HW1 5126   6.855   0.968   5.357
 1409SOL    HW2 5127   6.823   1.070   5.481
 1410SOL     OW 5128   2.346   3.237   6.443
 1410SOL    HW1 5129   2.414   3.221   6.371
 1410SOL    HW2 5130   2.254   3.231   6.405
 1411SOL     OW 5131   3.438   6.053   6.577
 1411SOL    HW1 5132   3.495   6.029   6.655
 1411SOL    HW2 5133   3.484   6.027   6.492
 1412SOL     OW 5134   0.530   3.421   0.787
 1412SOL    HW1 5135   0.517   3.517   0.814
 1412SOL    HW2 5136   0.623   3.393   0.807
 1413SOL     OW 5137   1.512   1.821   4.645
 1413SOL    HW1 5138   1.533   1.771   4.560
 1413SOL    HW2 5139   1.591   1.877   4.670
 1414SOL     OW 5140   1.222   2.974   1.997
 1414SOL    HW1 5141   1.171   3.060   1.999
 1414SOL    HW2 5142   1.260   2.959   1.906
 1415SOL     OW 5143   2.442   2.037   4.568
 1415SOL    HW1 5144   2.488   1.964   4.518
 1415SOL    HW2 5145   2.511   2.098   4.607
 1416SOL     OW 5146   4.205   0.666   5.193
 1416SOL    HW1 5147   4.200   0.757   5.233
 1416SOL    HW2 5148   4.197   0.597   5.265
 1417SOL     OW 5149   3.382   3.613   5.980
 1417SOL    HW1 5150   3.395   3.545   6.052
 1417SOL    HW2 5151   3.471   3.647   5.950
 1418SOL     OW 5152   3.418   3.929   0.729
 1418SOL    HW1 5153   3.492   3.877   0.771
 1418SOL    HW2 5154   3.449   4.022   0.710
 1419SOL     OW 5155   1.407   4.844   4.155
 1419SOL    HW1 5156   1.431   4.747   4.147
 1419SOL    HW2 5157   1.324   4.862   4.103
 1420SOL     OW 5158   4.055   5.029   3.104
 1420SOL    HW1 5159   4.019   4.936   3.100
 1420SOL    HW2 5160   4.118   5.044   3.027
 1421SOL     OW 5161   0.974   4.317   4.379
 1421SOL    HW1 5162   1.073   4.323   4.394
 1421SOL    HW2 5163   0.940   4.405   4.346
 1422SOL     OW 5164   2.538   4.745   5.867
 1422SOL    HW1 5165   2.539   4.659   5.918
 1422SOL    HW2 5166   2.599   4.811   5.911
 1423SOL     OW 5167   4.157   1.970   4.577
 1423SOL    HW1 5168   4.167   1.877   4.540
 1423SOL    HW2 5169   4.062   1.984   4.605
 1424SOL     OW 5170   6.621   3.731   6.663
 1424SOL    HW1 5171   6.589   3.768   6.750
 1424SOL    HW2 5172   6.651   3.806   6.603
 1425SOL     OW 5173   3.399   6.648   5.204
 1425SOL    HW1 5174   3.412   6.617   5.299
 1425SOL    HW2 5175   3.454   6.729   5.187
 1426SOL     OW 5176   2.250   1.687   6.744
 1426SOL    HW1 5177   2.226   1.679   6.648
 1426SOL    HW2 5178   2.316   1.616   6.768
 1427SOL     OW 5179   0.950   0.357   3.364
 1427SOL    HW1 5180   1.016   0.378   3.436
 1427SOL    HW2 5181   0.996   0.313   3.288
 1428SOL     OW 5182   0.103   2.657   1.290
 1428SOL    HW1 5183   0.173   2.635   1.222
 1428SOL    HW2 5184   0.099   2.584   1.358
 1429SOL     OW 5185   6.379   1.186   6.694
 1429SOL    HW1 5186   6.336   1.106   6.735
 1429SOL    HW2 5187   6.374   1.263   6.758
 1430SOL     OW 5188   2.523   4.696   4.292
 1430SOL    HW1 5189   2.578   4.767   4.247
 1430SOL    HW2 5190   2.564   4.674   4.381
 1431SOL     OW 5191   2.930   1.880   5.434
 1431SOL    HW1 5192   2.904   1.970   5.398
 1431SOL    HW2 5193   2.849   1.823   5.445
 1432SOL     OW 5194   2.134   1.118   0.670
 1432SOL    HW1 5195   2.129   1.024   0.703
 1432SOL    HW2 5196   2.047   1.164   0.687
 1433SOL     OW 5197   3.695   0.199   3.535
 1433SOL    HW1 5198   3.646   0.205   3.621
 1433SOL    HW2 5199   3.793   0.187   3.553
 1434SOL     OW 5200   0.463   2.337   6.477
 1434SOL    HW1 5201   0.536   2.303   6.536
 1434SOL    HW2 5202   0.494   2.419   6.429
 1435SOL     OW 5203   0.635   0.355   3.928
 1435SOL    HW1 5204   0.713   0.413   3.905
 1435SOL    HW2 5205   0.565   0.409   3.975
 1436SOL     OW 5206   5.974   3.751   0.886
 1436SOL    HW1 5207   5.944   3.747   0.981
 1436SOL    HW2 5208   5.913   3.695   0.830
 1437SOL     OW 5209   3.778   1.385   5.868
 1437SOL    HW1 5210   3.713   1.445   5.916
 1437SOL    HW2 5211   3.871   1.418   5.885
 1438SOL     OW 5212   3.184   1.180   1.406
 1438SOL    HW1 5213   3.218   1.111   1.342
 1438SOL    HW2 5214   3.251   1.194   1.479
 1439SOL     OW 5215   0.765   5.952   6.992
 1439SOL    HW1 5216   0.832   6.017   0.008
 1439SOL    HW2 5217   0.790   5.859   0.001
 1440SOL     OW 5218   3.216   3.692   3.929
 1440SOL    HW1 5219   3.243   3.607   3.973
 1440SOL    HW2 5220   3.247   3.769   3.984
 1441SOL     OW 5221   6.641   3.208   3.087
 1441SOL    HW1 5222   6.586   3.164   3.158
 1441SOL    HW2 5223   6.720   3.151   3.065
 1442SOL     OW 5224   5.196   4.858   1.002
 1442SOL    HW1 5225   5.171   4.951   1.030
 1442SOL    HW2 5226   5.272   4.862   0.938
 1443SOL     OW 5227   1.136   0.407   3.982
 1443SOL    HW1 5228   1.135   0.338   4.055
 1443SOL    HW2 5229   1.042   0.441   3.968
 1444SOL     OW 5230   4.067   5.874   3.036
 1444SOL    HW1 5231   4.127   5.881   2.955
 1444SOL    HW2 5232   4.026   5.963   3.055
 1445SOL     OW 5233   0.232   2.885   1.761
 1445SOL    HW1 5234   0.143   2.880   1.807
 1445SOL    HW2 5235   0.236   2.969   1.706
 1446SOL     OW 5236   4.620   2.832   6.936
 1446SOL    HW1 5237   4.581   2.923   6.923
 1446SOL    HW2 5238   4.701   2.839   6.995
 1447SOL     OW 5239   6.631   0.913   5.094
 1447SOL    HW1 5240   6.697   0.934   5.022
 1447SOL    HW2 5241   6.539   0.909   5.055
 1448SOL     OW 5242   5.859   1.841   0.453
 1448SOL    HW1 5243   5.889   1.763   0.398
 1448SOL    HW2 5244   5.787   1.891   0.405
 1449SOL     OW 5245   6.060   6.668   0.530
 1449SOL    HW1 5246   6.113   6.752   0.541
 1449SOL    HW2 5247   5.969   6.689   0.495
 1450SOL     OW 5248   6.937   2.598   2.438
 1450SOL    HW1 5249   7.012   2.617   2.375
 1450SOL    HW2 5250   6.935   2.500   2.459
 1451SOL     OW 5251   3.128   0.410   2.910
 1451SOL    HW1 5252   3.155   0.470   2.985
 1451SOL    HW2 5253   3.111   0.464   2.828
 1452SOL     OW 5254   4.906   1.102   4.632
 1452SOL    HW1 5255   4.970   1.157   4.578
 1452SOL    HW2 5256   4.814   1.141   4.625
 1453SOL     OW 5257   5.854   3.446   4.910
 1453SOL    HW1 5258   5.869   3.382   4.834
 1453SOL    HW2 5259   5.939   3.455   4.963
 1454SOL     OW 5260   5.408   2.447   2.533
 1454SOL    HW1 5261   5.462   2.392   2.597
 1454SOL    HW2 5262   5.465   2.521   2.496
 1455SOL     OW 5263   1.013   0.662   1.754
 1455SOL    HW1 5264   1.040   0.667   1.850
 1455SOL    HW2 5265   0.927   0.710   1.741
 1456SOL     OW 5266   6.744   6.736   5.144
 1456SOL    HW1 5267   6.766   6.762   5.050
 1456SOL    HW2 5268   6.774   6.807   5.207
 1457SOL     OW 5269   1.463   6.957   2.905
 1457SOL    HW1 5270   1.443   6.881   2.967
 1457SOL    HW2 5271   1.533   7.016   2.946
 1458SOL     OW 5272   5.416   6.802   5.099
 1458SOL    HW1 5273   5.376   6.894   5.092
 1458SOL    HW2 5274   5.511   6.805   5.068
 1459SOL     OW 5275   2.833   5.247   6.910
 1459SOL    HW1 5276   2.820   5.286   7.002
 1459SOL    HW2 5277   2.822   5.148   6.914
 1460SOL     OW 5278   0.086   5.853   6.233
 1460SOL    HW1 5279   0.090   5.906   6.318
 1460SOL    HW2 5280   0.171   5.867   6.182
 1461SOL     OW 5281   6.483   4.482   3.683
 1461SOL    HW1 5282   6.510   4.548   3.613
 1461SOL    HW2 5283   6.557   4.473   3.750
 1462SOL     OW 5284   6.675   2.070   0.197
 1462SOL    HW1 5285   6.584   2.099   0.167
 1462SOL    HW2 5286   6.732   2.051   0.117
 1463SOL     OW 5287   0.252   0.151   5.739
 1463SOL    HW1 5288   0.343   0.188   5.727
 1463SOL    HW2 5289   0.199   0.210   5.800
 1464SOL     OW 5290   0.647   6.626   0.602
 1464SOL    HW1 5291   0.678   6.626   0.507
 1464SOL    HW2 5292   0.726   6.638   0.663
 1465SOL     OW 5293   0.956   1.156   3.226
 1465SOL    HW1 5294   0.991   1.240   3.183
 1465SOL    HW2 5295   0.896   1.181   3.302
 1466SOL     OW 5296   0.004   6.492   2.465
 1466SOL    HW1 5297   6.979   6.403   2.473
 1466SOL    HW2 5298   6.961   6.558   2.423
 1467SOL     OW 5299   1.481   0.399   2.154
 1467SOL    HW1 5300   1.440   0.490   2.161
 1467SOL    HW2 5301   1.551   0.388   2.224
 1468SOL     OW 5302   5.592   5.825   3.206
 1468SOL    HW1 5303   5.633   5.809   3.295
 1468SOL    HW2 5304   5.554   5.918   3.203
 1469SOL     OW 5305   0.715   0.495   2.972
 1469SOL    HW1 5306   0.732   0.402   2.939
 1469SOL    HW2 5307   0.705   0.557   2.893
 1470SOL     OW 5308   1.096   1.027   2.186
 1470SOL    HW1 5309   1.104   1.011   2.088
 1470SOL    HW2 5310   1.043   1.110   2.202
 1471SOL     OW 5311   0.112   0.824   6.562
 1471SOL    HW1 5312   0.015   0.817   6.584
 1471SOL    HW2 5313   0.129   0.909   6.513
 1472SOL     OW 5314   4.510   6.370   4.557
 1472SOL    HW1 5315   4.587   6.306   4.557
 1472SOL    HW2 5316   4.537   6.455   4.512
 1473SOL     OW 5317   6.067   5.482   3.300
 1473SOL    HW1 5318   6.121   5.473   3.383
 1473SOL    HW2 5319   6.091   5.410   3.236
 1474SOL     OW 5320   6.362   5.881   3.595
 1474SOL    HW1 5321   6.387   5.952   3.529
 1474SOL    HW2 5322   6.263   5.877   3.604
 1475SOL     OW 5323   0.216   0.332   1.625
 1475SOL    HW1 5324   0.176   0.373   1.543
 1475SOL    HW2 5325   0.152   0.266   1.664
 1476SOL     OW 5326   1.205   1.045   1.272
 1476SOL    HW1 5327   1.300   1.051   1.242
 1476SOL    HW2 5328   1.201   1.008   1.365
 1477SOL     OW 5329   3.096   0.353   6.218
 1477SOL    HW1 5330   3.056   0.263   6.199
 1477SOL    HW2 5331   3.140   0.352   6.308
 1478SOL     OW 5332   5.673   4.858   0.558
 1478SOL    HW1 5333   5.722   4.929   0.609
 1478SOL    HW2 5334   5.576   4.881   0.555
 1479SOL     OW 5335   1.323   4.552   0.397
 1479SOL    HW1 5336   1.282   4.473   0.352
 1479SOL    HW2 5337   1.335   4.532   0.495
 1480SOL     OW 5338   2.739   0.632   0.090
 1480SOL    HW1 5339   2.665   0.597   0.031
 1480SOL    HW2 5340   2.791   0.701   0.039
 1481SOL     OW 5341   5.381   1.815   4.953
 1481SOL    HW1 5342   5.445   1.783   5.023
 1481SOL    HW2 5343   5.289   1.780   4.973
 1482SOL     OW 5344   5.916   1.345   0.705
 1482SOL    HW1 5345   5.866   1.413   0.760
 1482SOL    HW2 5346   5.888   1.352   0.610
 1483SOL     OW 5347   0.170   3.586   6.692
 1483SOL    HW1 5348   0.151   3.619   6.785
 1483SOL    HW2 5349   0.120   3.643   6.626
 1484SOL     OW 5350   6.289   4.162   3.548
 1484SOL    HW1 5351   6.292   4.102   3.628
 1484SOL    HW2 5352   6.194   4.175   3.519
 1485SOL     OW 5353   4.574   2.580   2.443
 1485SOL    HW1 5354   4.650   2.535   2.397
 1485SOL    HW2 5355   4.546   2.661   2.391
 1486SOL     OW 5356   4.865   2.573   3.422
 1486SOL    HW1 5357   4.810   2.650   3.454
 1486SOL    HW2 5358   4.961   2.599   3.419
 1487SOL     OW 5359   6.533   1.857   6.173
 1487SOL    HW1 5360   6.518   1.949   6.137
 1487SOL    HW2 5361   6.617   1.820   6.134
 1488SOL     OW 5362   5.868   2.282   3.102
 1488SOL    HW1 5363   5.968   2.274   3.101
 1488SOL    HW2 5364   5.841   2.355   3.165
 1489SOL     OW 5365   3.712   4.951   4.322
 1489SOL    HW1 5366   3.806   4.950   4.354
 1489SOL    HW2 5367   3.650   4.956   4.401
 1490SOL     OW 5368   1.437   2.285   0.658
 1490SOL    HW1 5369   1.467   2.334   0.576
 1490SOL    HW2 5370   1.340   2.262   0.649
 1491SOL     OW 5371   6.811   3.531   3.188
 1491SOL    HW1 5372   6.857   3.574   3.111
 1491SOL    HW2 5373   6.879   3.492   3.251
 1492SOL     OW 5374   5.391   1.878   2.027
 1492SOL    HW1 5375   5.347   1.909   2.111
 1492SOL    HW2 5376   5.420   1.783   2.038
 1493SOL     OW 5377   4.812   0.688   4.643
 1493SOL    HW1 5378   4.866   0.752   4.587
 1493SOL    HW2 5379   4.741   0.646   4.586
 1494SOL     OW 5380   4.168   2.784   5.528
 1494SOL    HW1 5381   4.161   2.819   5.621
 1494SOL    HW2 5382   4.203   2.857   5.468
 1495SOL     OW 5383   0.480   3.309   3.523
 1495SOL    HW1 5384   0.503   3.267   3.611
 1495SOL    HW2 5385   0.490   3.241   3.450
 1496SOL     OW 5386   0.847   0.288   1.833
 1496SOL    HW1 5387   0.918   0.310   1.766
 1496SOL    HW2 5388   0.814   0.195   1.817
 1497SOL     OW 5389   0.181   4.348   3.638
 1497SOL    HW1 5390   0.242   4.423   3.612
 1497SOL    HW2 5391   0.176   4.281   3.564
 1498SOL     OW 5392   1.752   5.099   6.449
 1498SOL    HW1 5393   1.793   5.057   6.530
 1498SOL    HW2 5394   1.696   5.031   6.402
 1499SOL     OW 5395   1.134   4.019   5.053
 1499SOL    HW1 5396   1.085   4.092   5.100
 1499SOL    HW2 5397   1.090   4.000   4.965
 1500SOL     OW 5398   5.571   0.240   0.760
 1500SOL    HW1 5399   5.600   0.300   0.835
 1500SOL    HW2 5400   5.608   0.148   0.774
 1501SOL     OW 5401   4.051   0.457   6.305
 1501SOL    HW1 5402   4.052   0.510   6.390
 1501SOL    HW2 5403   4.120   0.494   6.243
 1502SOL     OW 5404   6.356   6.835   0.302
 1502SOL    HW1 5405   6.366   6.737   0.286
 1502SOL    HW2 5406   6.380   6.855   0.397
 1503SOL     OW 5407   2.329   2.561   1.339
 1503SOL    HW1 5408   2.329   2.469   1.378
 1503SOL    HW2 5409   2.289   2.557   1.247
 1504SOL     OW 5410   2.839   0.503   5.123
 1504SOL    HW1 5411   2.825   0.423   5.181
 1504SOL    HW2 5412   2.776   0.499   5.045
 1505SOL     OW 5413   5.156   6.911   6.129
 1505SOL    HW1 5414   5.109   6.905   6.041
 1505SOL    HW2 5415   5.155   7.005   6.162
 1506SOL     OW 5416   1.133   4.588   3.609
 1506SOL    HW1 5417   1.154   4.537   3.526
 1506SOL    HW2 5418   1.175   4.543   3.688
 1507SOL     OW 5419   1.566   1.471   4.822
 1507SOL    HW1 5420   1.473   1.488   4.788
 1507SOL    HW2 5421   1.631   1.526   4.769
 1508SOL     OW 5422   4.570   7.016   1.193
 1508SOL    HW1 5423   4.592   0.013   1.289
 1508SOL    HW2 5424   4.474   6.988   1.185
 1509SOL     OW 5425   4.507   2.752   5.936
 1509SOL    HW1 5426   4.517   2.851   5.944
 1509SOL    HW2 5427   4.433   2.721   5.997
 1510SOL     OW 5428   5.520   2.147   4.190
 1510SOL    HW1 5429   5.587   2.200   4.139
 1510SOL    HW2 5430   5.437   2.137   4.135
 1511SOL     OW 5431   2.250   1.950   0.224
 1511SOL    HW1 5432   2.186   1.885   0.184
 1511SOL    HW2 5433   2.308   1.989   0.153
 1512SOL     OW 5434   6.712   6.607   1.712
 1512SOL    HW1 5435   6.734   6.587   1.617
 1512SOL    HW2 5436   6.699   6.706   1.723
 1513SOL     OW 5437   4.892   1.247   3.653
 1513SOL    HW1 5438   4.853   1.160   3.681
 1513SOL    HW2 5439   4.841   1.322   3.695
 1514SOL     OW 5440   5.437   1.709   4.654
 1514SOL    HW1 5441   5.435   1.731   4.751
 1514SOL    HW2 5442   5.518   1.654   4.634
 1515SOL     OW 5443   0.097   2.805   5.431
 1515SOL    HW1 5444   0.069   2.862   5.354
 1515SOL    HW2 5445   0.061   2.712   5.418
 1516SOL     OW 5446   0.510   0.866   0.708
 1516SOL    HW1 5447   0.452   0.945   0.731
 1516SOL    HW2 5448   0.538   0.872   0.612
 1517SOL     OW 5449   4.601   5.250   3.933
 1517SOL    HW1 5450   4.612   5.283   4.027
 1517SOL    HW2 5451   4.597   5.327   3.870
 1518SOL     OW 5452   6.850   3.616   6.876
 1518SOL    HW1 5453   6.943   3.643   6.901
 1518SOL    HW2 5454   6.805   3.693   6.830
 1519SOL     OW 5455   0.038   4.121   1.569
 1519SOL    HW1 5456   0.131   4.085   1.560
 1519SOL    HW2 5457   7.014   4.081   1.649
 1520SOL     OW 5458   1.836   3.341   2.296
 1520SOL    HW1 5459   1.935   3.328   2.287
 1520SOL    HW2 5460   1.792   3.327   2.207
 1521SOL     OW 5461   1.934   3.084   7.000
 1521SOL    HW1 5462   2.023   3.125   6.981
 1521SOL    HW2 5463   1.869   3.109   6.928
 1522SOL     OW 5464   6.918   1.712   5.822
 1522SOL    HW1 5465   6.917   1.711   5.722
 1522SOL    HW2 5466   7.009   1.688   5.855
 1523SOL     OW 5467   4.910   3.952   6.565
 1523SOL    HW1 5468   4.961   3.880   6.611
 1523SOL    HW2 5469   4.847   3.995   6.631
 1524SOL     OW 5470   0.711   2.283   1.739
 1524SOL    HW1 5471   0.651   2.348   1.785
 1524SOL    HW2 5472   0.757   2.329   1.663
 1525SOL     OW 5473   4.888   2.137   5.719
 1525SOL    HW1 5474   4.818   2.067   5.703
 1525SOL    HW2 5475   4.843   2.224   5.741
 1526SOL     OW 5476   0.320   1.046   0.967
 1526SOL    HW1 5477   0.331   1.020   1.063
 1526SOL    HW2 5478   0.231   1.014   0.934
 1527SOL     OW 5479   3.417   1.414   4.614
 1527SOL    HW1 5480   3.516   1.405   4.614
 1527SOL    HW2 5481   3.390   1.489   4.674
 1528SOL     OW 5482   5.018   6.133   2.837
 1528SOL    HW1 5483   5.110   6.112   2.873
 1528SOL    HW2 5484   4.980   6.210   2.887
 1529SOL     OW 5485   4.907   1.329   5.576
 1529SOL    HW1 5486   4.959   1.406   5.614
 1529SOL    HW2 5487   4.841   1.364   5.509
 1530SOL     OW 5488   3.180   0.523   1.531
 1530SOL    HW1 5489   3.145   0.430   1.541
 1530SOL    HW2 5490   3.225   0.551   1.616
 1531SOL     OW 5491   5.712   1.027   5.262
 1531SOL    HW1 5492   5.634   1.024   5.325
 1531SOL    HW2 5493   5.740   0.934   5.239
 1532SOL     OW 5494   2.660   2.187   4.669
 1532SOL    HW1 5495   2.652   2.278   4.710
 1532SOL    HW2 5496   2.753   2.175   4.633
 1533SOL     OW 5497   0.034   3.723   6.488
 1533SOL    HW1 5498   0.118   3.712   6.436
 1533SOL    HW2 5499   6.991   3.783   6.439
 1534SOL     OW 5500   1.562   5.113   0.332
 1534SOL    HW1 5501   1.595   5.030   0.287
 1534SOL    HW2 5502   1.467   5.101   0.359
 1535SOL     OW 5503   5.733   5.297   4.369
 1535SOL    HW1 5504   5.776   5.304   4.459
 1535SOL    HW2 5505   5.759   5.210   4.327
 1536SOL     OW 5506   3.250   5.136   4.274
 1536SOL    HW1 5507   3.211   5.202   4.338
 1536SOL    HW2 5508   3.219   5.044   4.297
 1537SOL     OW 5509   3.741   5.537   3.908
 1537SOL    HW1 5510   3.696   5.621   3.939
 1537SOL    HW2 5511   3.829   5.527   3.955
 1538SOL     OW 5512   3.693   4.931   6.056
 1538SOL    HW1 5513   3.607   4.882   6.063
 1538SOL    HW2 5514   3.769   4.866   6.049
 1539SOL     OW 5515   4.205   4.202   1.388
 1539SOL    HW1 5516   4.299   4.209   1.422
 1539SOL    HW2 5517   4.195   4.258   1.306
 1540SOL     OW 5518   0.715   6.953   4.985
 1540SOL    HW1 5519   0.743   6.876   4.927
 1540SOL    HW2 5520   0.796   6.992   5.030
 1541SOL     OW 5521   3.657   2.352   1.212
 1541SOL    HW1 5522   3.573   2.347   1.157
 1541SOL    HW2 5523   3.640   2.310   1.301
 1542SOL     OW 5524   6.758   6.234   2.036
 1542SOL    HW1 5525   6.827   6.301   2.009
 1542SOL    HW2 5526   6.734   6.178   1.957
 1543SOL     OW 5527   2.937   3.435   3.327
 1543SOL    HW1 5528   3.004   3.509   3.328
 1543SOL    HW2 5529   2.918   3.406   3.421
 1544SOL     OW 5530   2.986   3.808   2.197
 1544SOL    HW1 5531   3.028   3.809   2.288
 1544SOL    HW2 5532   2.993   3.716   2.158
 1545SOL     OW 5533   5.259   0.478   5.192
 1545SOL    HW1 5534   5.248   0.543   5.267
 1545SOL    HW2 5535   5.331   0.511   5.131
 1546SOL     OW 5536   5.278   0.220   5.999
 1546SOL    HW1 5537   5.218   0.201   6.077
 1546SOL    HW2 5538   5.361   0.163   6.006
 1547SOL     OW 5539   2.142   4.245   2.400
 1547SOL    HW1 5540   2.125   4.146   2.403
 1547SOL    HW2 5541   2.240   4.263   2.411
 1548SOL     OW 5542   4.396   4.294   5.530
 1548SOL    HW1 5543   4.395   4.383   5.575
 1548SOL    HW2 5544   4.422   4.305   5.434
 1549SOL     OW 5545   6.502   1.242   2.169
 1549SOL    HW1 5546   6.515   1.213   2.075
 1549SOL    HW2 5547   6.566   1.316   2.191
 1550SOL     OW 5548   2.987   6.762   5.848
 1550SOL    HW1 5549   3.081   6.737   5.825
 1550SOL    HW2 5550   2.925   6.688   5.820
 1551SOL     OW 5551   1.585   3.305   1.391
 1551SOL    HW1 5552   1.627   3.391   1.421
 1551SOL    HW2 5553   1.616   3.231   1.451
 1552SOL     OW 5554   1.450   6.964   1.375
 1552SOL    HW1 5555   1.360   6.967   1.332
 1552SOL    HW2 5556   1.464   0.027   1.429
 1553SOL     OW 5557   6.141   1.982   6.038
 1553SOL    HW1 5558   6.211   1.981   5.966
 1553SOL    HW2 5559   6.059   1.936   6.004
 1554SOL     OW 5560   3.922   2.199   3.217
 1554SOL    HW1 5561   3.828   2.164   3.213
 1554SOL    HW2 5562   3.976   2.158   3.143
 1555SOL     OW 5563   5.037   2.312   5.380
 1555SOL    HW1 5564   5.041   2.273   5.288
 1555SOL    HW2 5565   5.110   2.380   5.391
 1556SOL     OW 5566   3.524   0.630   0.639
 1556SOL    HW1 5567   3.510   0.533   0.654
 1556SOL    HW2 5568   3.511   0.680   0.725
 1557SOL     OW 5569   2.493   2.644   1.072
 1557SOL    HW1 5570   2.557   2.648   0.995
 1557SOL    HW2 5571   2.473   2.736   1.103
 1558SOL     OW 5572   5.859   2.319   4.823
 1558SOL    HW1 5573   5.899   2.381   4.755
 1558SOL    HW2 5574   5.860   2.364   4.912
 1559SOL     OW 5575   0.530   3.966   1.261
 1559SOL    HW1 5576   0.605   3.923   1.211
 1559SOL    HW2 5577   0.443   3.926   1.234
 1560SOL     OW 5578   3.147   1.314   6.591
 1560SOL    HW1 5579   3.180   1.316   6.685
 1560SOL    HW2 5580   3.064   1.369   6.584
 1561SOL     OW 5581   5.262   6.105   2.956
 1561SOL    HW1 5582   5.267   6.086   3.054
 1561SOL    HW2 5583   5.348   6.079   2.912
 1562SOL     OW 5584   3.501   6.180   2.072
 1562SOL    HW1 5585   3.408   6.209   2.095
 1562SOL    HW2 5586   3.552   6.257   2.035
 1563SOL     OW 5587   2.991   2.098   4.952
 1563SOL    HW1 5588   2.910   2.156   4.944
 1563SOL    HW2 5589   3.072   2.155   4.965
 1564SOL     OW 5590   1.106   1.412   2.349
 1564SOL    HW1 5591   1.108   1.508   2.376
 1564SOL    HW2 5592   1.029   1.396   2.287
 1565SOL     OW 5593   4.159   5.633   4.937
 1565SOL    HW1 5594   4.063   5.610   4.922
 1565SOL    HW2 5595   4.165   5.711   4.999
 1566SOL     OW 5596   6.237   4.811   4.005
 1566SOL    HW1 5597   6.298   4.739   3.971
 1566SOL    HW2 5598   6.252   4.824   4.103
 1567SOL     OW 5599   5.893   5.084   6.534
 1567SOL    HW1 5600   5.846   5.135   6.607
 1567SOL    HW2 5601   5.929   4.999   6.571
 1568SOL     OW 5602   2.702   6.008   3.570
 1568SOL    HW1 5603   2.725   5.927   3.624
 1568SOL    HW2 5604   2.606   6.002   3.543
 1569SOL     OW 5605   3.965   0.392   3.468
 1569SOL    HW1 5606   3.932   0.474   3.514
 1569SOL    HW2 5607   4.062   0.404   3.445
 1570SOL     OW 5608   2.548   6.682   6.605
 1570SOL    HW1 5609   2.489   6.763   6.607
 1570SOL    HW2 5610   2.586   6.671   6.513
 1571SOL     OW 5611   0.927   3.419   3.538
 1571SOL    HW1 5612   0.869   3.421   3.619
 1571SOL    HW2 5613   0.883   3.365   3.466
 1572SOL     OW 5614   1.692   5.342   2.051
 1572SOL    HW1 5615   1.599   5.307   2.043
 1572SOL    HW2 5616   1.757   5.266   2.048
 1573SOL     OW 5617   5.566   5.173   2.227
 1573SOL    HW1 5618   5.551   5.074   2.234
 1573SOL    HW2 5619   5.614   5.193   2.141
 1574SOL     OW 5620   6.383   3.037   2.192
 1574SOL    HW1 5621   6.331   2.973   2.135
 1574SOL    HW2 5622   6.320   3.102   2.234
 1575SOL     OW 5623   2.126   0.638   1.972
 1575SOL    HW1 5624   2.175   0.610   1.890
 1575SOL    HW2 5625   2.087   0.729   1.958
 1576SOL     OW 5626   1.402   6.263   2.729
 1576SOL    HW1 5627   1.304   6.272   2.711
 1576SOL    HW2 5628   1.419   6.264   2.827
 1577SOL     OW 5629   2.693   0.732   6.274
 1577SOL    HW1 5630   2.643   0.703   6.355
 1577SOL    HW2 5631   2.673   0.670   6.198
 1578SOL     OW 5632   4.649   1.020   6.339
 1578SOL    HW1 5633   4.666   0.942   6.400
 1578SOL    HW2 5634   4.552   1.041   6.338
 1579SOL     OW 5635   0.442   2.755   1.587
 1579SOL    HW1 5636   0.518   2.720   1.642
 1579SOL    HW2 5637   0.364   2.776   1.646
 1580SOL     OW 5638   3.084   3.907   2.788
 1580SOL    HW1 5639   3.025   3.851   2.730
 1580SOL    HW2 5640   3.152   3.954   2.731
 1581SOL     OW 5641   6.856   4.457   5.523
 1581SOL    HW1 5642   6.807   4.475   5.608
 1581SOL    HW2 5643   6.817   4.514   5.450
 1582SOL     OW 5644   3.794   5.947   5.102
 1582SOL    HW1 5645   3.716   5.991   5.056
 1582SOL    HW2 5646   3.768   5.853   5.125
 1583SOL     OW 5647   0.598   5.573   4.621
 1583SOL    HW1 5648   0.626   5.578   4.525
 1583SOL    HW2 5649   0.647   5.643   4.673
 1584SOL     OW 5650   1.996   4.810   6.866
 1584SOL    HW1 5651   2.080   4.843   6.824
 1584SOL    HW2 5652   2.007   4.805   6.965
 1585SOL     OW 5653   4.357   1.183   3.199
 1585SOL    HW1 5654   4.368   1.084   3.185
 1585SOL    HW2 5655   4.262   1.202   3.225
 1586SOL     OW 5656   2.863   4.755   3.065
 1586SOL    HW1 5657   2.912   4.758   2.978
 1586SOL    HW2 5658   2.928   4.745   3.140
 1587SOL     OW 5659   1.669   5.179   5.434
 1587SOL    HW1 5660   1.572   5.196   5.449
 1587SOL    HW2 5661   1.682   5.127   5.350
 1588SOL     OW 5662   4.507   0.396   2.341
 1588SOL    HW1 5663   4.464   0.311   2.311
 1588SOL    HW2 5664   4.606   0.385   2.342
 1589SOL     OW 5665   6.838   3.377   2.890
 1589SOL    HW1 5666   6.781   3.316   2.945
 1589SOL    HW2 5667   6.836   3.469   2.929
 1590SOL     OW 5668   5.540   1.213   3.701
 1590SOL    HW1 5669   5.487   1.177   3.778
 1590SOL    HW2 5670   5.574   1.137   3.646
 1591SOL     OW 5671   6.701   5.585   1.546
 1591SOL    HW1 5672   6.609   5.558   1.516
 1591SOL    HW2 5673   6.728   5.669   1.499
 1592SOL     OW 5674   1.676   4.131   0.142
 1592SOL    HW1 5675   1.697   4.190   0.220
 1592SOL    HW2 5676   1.701   4.176   0.057
 1593SOL     OW 5677   0.689   0.142   6.365
 1593SOL    HW1 5678   0.613   0.187   6.320
 1593SOL    HW2 5679   0.654   0.076   6.432
 1594SOL     OW 5680   0.152   6.448   1.629
 1594SOL    HW1 5681   0.118   6.356   1.648
 1594SOL    HW2 5682   0.209   6.447   1.547
 1595SOL     OW 5683   1.136   4.305   0.532
 1595SOL    HW1 5684   1.085   4.300   0.446
 1595SOL    HW2 5685   1.223   4.257   0.522
 1596SOL     OW 5686   6.169   2.807   2.562
 1596SOL    HW1 5687   6.161   2.724   2.617
 1596SOL    HW2 5688   6.086   2.861   2.571
 1597SOL     OW 5689   2.759   5.971   1.477
 1597SOL    HW1 5690   2.814   5.948   1.558
 1597SOL    HW2 5691   2.785   5.912   1.401
 1598SOL     OW 5692   1.240   5.567   6.179
 1598SOL    HW1 5693   1.330   5.537   6.212
 1598SOL    HW2 5694   1.173   5.495   6.196
 1599SOL     OW 5695   4.558   4.861   5.271
 1599SOL    HW1 5696   4.654   4.865   5.243
 1599SOL    HW2 5697   4.506   4.807   5.204
 1600SOL     OW 5698   2.930   0.951   1.774
 1600SOL    HW1 5699   2.939   0.980   1.679
 1600SOL    HW2 5700   2.853   0.998   1.817
 1601SOL     OW 5701   0.094   6.686   4.038
 1601SOL    HW1 5702   0.145   6.690   3.952
 1601SOL    HW2 5703   0.029   6.610   4.034
 1602SOL     OW 5704   4.920   5.329   4.338
 1602SOL    HW1 5705   4.912   5.426   4.360
 1602SOL    HW2 5706   4.992   5.287   4.393
 1603SOL     OW 5707   2.660   5.123   4.073
 1603SOL    HW1 5708   2.641   5.092   4.166
 1603SOL    HW2 5709   2.633   5.219   4.065
 1604SOL     OW 5710   3.936   5.130   1.344
 1604SOL    HW1 5711   3.885   5.069   1.283
 1604SOL    HW2 5712   3.889   5.136   1.432
 1605SOL     OW 5713   6.311   5.664   1.136
 1605SOL    HW1 5714   6.280   5.751   1.174
 1605SOL    HW2 5715   6.285   5.590   1.198
 1606SOL     OW 5716   4.137   5.643   5.531
 1606SOL    HW1 5717   4.223   5.695   5.526
 1606SOL    HW2 5718   4.088   5.653   5.444
 1607SOL     OW 5719   4.437   0.292   1.101
 1607SOL    HW1 5720   4.514   0.356   1.104
 1607SOL    HW2 5721   4.470   0.200   1.123
 1608SOL     OW 5722   6.945   1.231   2.825
 1608SOL    HW1 5723   6.885   1.152   2.840
 1608SOL    HW2 5724   0.002   1.228   2.888
 1609SOL     OW 5725   3.339   0.229   0.866
 1609SOL    HW1 5726   3.376   0.149   0.819
 1609SOL    HW2 5727   3.391   0.244   0.951
 1610SOL     OW 5728   5.068   6.280   1.214
 1610SOL    HW1 5729   5.168   6.273   1.217
 1610SOL    HW2 5730   5.030   6.190   1.189
 1611SOL     OW 5731   1.530   3.353   0.706
 1611SOL    HW1 5732   1.499   3.275   0.760
 1611SOL    HW2 5733   1.528   3.436   0.763
 1612SOL     OW 5734   3.254   6.453   1.138
 1612SOL    HW1 5735   3.256   6.552   1.134
 1612SOL    HW2 5736   3.223   6.423   1.229
 1613SOL     OW 5737   0.536   5.598   2.229
 1613SOL    HW1 5738   0.606   5.592   2.158
 1613SOL    HW2 5739   0.546   5.685   2.278
 1614SOL     OW 5740   5.642   1.999   5.947
 1614SOL    HW1 5741   5.595   2.087   5.955
 1614SOL    HW2 5742   5.574   1.926   5.945
 1615SOL     OW 5743   6.550   5.334   6.358
 1615SOL    HW1 5744   6.576   5.378   6.444
 1615SOL    HW2 5745   6.630   5.289   6.319
 1616SOL     OW 5746   4.276   0.398   3.693
 1616SOL    HW1 5747   4.341   0.471   3.716
 1616SOL    HW2 5748   4.191   0.412   3.743
 1617SOL     OW 5749   4.997   6.230   3.236
 1617SOL    HW1 5750   5.031   6.288   3.161
 1617SOL    HW2 5751   5.035   6.138   3.226
 1618SOL     OW 5752   0.994   5.547   2.238
 1618SOL    HW1 5753   1.083   5.518   2.274
 1618SOL    HW2 5754   0.988   5.647   2.240
 1619SOL     OW 5755   0.394   5.432   6.940
 1619SOL    HW1 5756   0.297   5.426   6.964
 1619SOL    HW2 5757   0.436   5.342   6.949
 1620SOL     OW 5758   2.839   4.743   1.549
 1620SOL    HW1 5759   2.798   4.727   1.639
 1620SOL    HW2 5760   2.849   4.655   1.501
 1621SOL     OW 5761   5.610   0.356   1.015
 1621SOL    HW1 5762   5.613   0.455   1.029
 1621SOL    HW2 5763   5.535   0.318   1.069
 1622SOL     OW 5764   0.410   3.868   5.451
 1622SOL    HW1 5765   0.415   3.908   5.359
 1622SOL    HW2 5766   0.434   3.771   5.446
 1623SOL     OW 5767   0.201   2.204   4.695
 1623SOL    HW1 5768   0.289   2.185   4.739
 1623SOL    HW2 5769   0.216   2.225   4.599
 1624SOL     OW 5770   4.283   1.873   6.704
 1624SOL    HW1 5771   4.360   1.895   6.643
 1624SOL    HW2 5772   4.266   1.774   6.700
 1625SOL     OW 5773   1.561   5.350   6.647
 1625SOL    HW1 5774   1.628   5.349   6.572
 1625SOL    HW2 5775   1.485   5.410   6.623
 1626SOL     OW 5776   3.525   1.562   1.824
 1626SOL    HW1 5777   3.610   1.575   1.773
 1626SOL    HW2 5778   3.479   1.650   1.834
 1627SOL     OW 5779   5.658   2.557   3.647
 1627SOL    HW1 5780   5.651   2.636   3.586
 1627SOL    HW2 5781   5.707   2.483   3.600
 1628SOL     OW 5782   4.517   5.304   6.780
 1628SOL    HW1 5783   4.569   5.225   6.813
 1628SOL    HW2 5784   4.573   5.387   6.789
 1629SOL     OW 5785   2.553   1.313   3.448
 1629SOL    HW1 5786   2.602   1.234   3.487
 1629SOL    HW2 5787   2.584   1.396   3.494
 1630SOL     OW 5788   0.260   4.370   5.295
 1630SOL    HW1 5789   0.242   4.388   5.392
 1630SOL    HW2 5790   0.175   4.375   5.243
 1631SOL     OW 5791   0.094   2.880   0.726
 1631SOL    HW1 5792   0.187   2.916   0.725
 1631SOL    HW2 5793   0.089   2.803   0.791
 1632SOL     OW 5794   4.669   4.204   2.721
 1632SOL    HW1 5795   4.580   4.225   2.681
 1632SOL    HW2 5796   4.700   4.283   2.774
 1633SOL     OW 5797   5.104   4.307   4.921
 1633SOL    HW1 5798   5.010   4.329   4.898
 1633SOL    HW2 5799   5.128   4.217   4.885
 1634SOL     OW 5800   4.644   1.023   4.144
 1634SOL    HW1 5801   4.557   1.057   4.108
 1634SOL    HW2 5802   4.629   0.937   4.192
 1635SOL     OW 5803   1.247   5.228   6.585
 1635SOL    HW1 5804   1.345   5.233   6.568
 1635SOL    HW2 5805   1.231   5.198   6.679
 1636SOL     OW 5806   3.397   5.633   1.358
 1636SOL    HW1 5807   3.338   5.615   1.279
 1636SOL    HW2 5808   3.392   5.557   1.423
 1637SOL     OW 5809   6.573   0.213   3.552
 1637SOL    HW1 5810   6.656   0.255   3.587
 1637SOL    HW2 5811   6.538   0.147   3.619
 1638SOL     OW 5812   0.626   3.101   1.971
 1638SOL    HW1 5813   0.539   3.083   2.016
 1638SOL    HW2 5814   0.690   3.139   2.038
 1639SOL     OW 5815   6.116   4.731   2.044
 1639SOL    HW1 5816   6.047   4.749   2.115
 1639SOL    HW2 5817   6.138   4.816   1.997
 1640SOL     OW 5818   6.812   0.256   0.285
 1640SOL    HW1 5819   6.885   0.189   0.280
 1640SOL    HW2 5820   6.775   0.272   0.193
 1641SOL     OW 5821   6.736   2.824   3.937
 1641SOL    HW1 5822   6.658   2.824   4.000
 1641SOL    HW2 5823   6.816   2.785   3.984
 1642SOL     OW 5824   7.003   2.897   6.487
 1642SOL    HW1 5825   6.979   2.930   6.395
 1642SOL    HW2 5826   6.936   2.829   6.516
 1643SOL     OW 5827   2.645   4.686   3.190
 1643SOL    HW1 5828   2.572   4.741   3.150
 1643SOL    HW2 5829   2.731   4.704   3.141
 1644SOL     OW 5830   5.646   3.177   6.678
 1644SOL    HW1 5831   5.586   3.159   6.601
 1644SOL    HW2 5832   5.607   3.250   6.735
 1645SOL     OW 5833   2.934   6.579   6.488
 1645SOL    HW1 5834   2.922   6.674   6.518
 1645SOL    HW2 5835   2.895   6.567   6.397
 1646SOL     OW 5836   1.987   6.249   0.365
 1646SOL    HW1 5837   1.911   6.195   0.400
 1646SOL    HW2 5838   1.988   6.244   0.265
 1647SOL     OW 5839   5.407   2.386   4.299
 1647SOL    HW1 5840   5.438   2.384   4.394
 1647SOL    HW2 5841   5.453   2.314   4.248
 1648SOL     OW 5842   5.391   6.439   0.352
 1648SOL    HW1 5843   5.394   6.339   0.352
 1648SOL    HW2 5844   5.311   6.470   0.402
 1649SOL     OW 5845   3.626   1.383   4.320
 1649SOL    HW1 5846   3.711   1.433   4.305
 1649SOL    HW2 5847   3.548   1.441   4.293
 1650SOL     OW 5848   1.099   5.668   5.544
 1650SOL    HW1 5849   1.097   5.761   5.581
 1650SOL    HW2 5850   1.193   5.645   5.518
 1651SOL     OW 5851   0.411   2.117   2.979
 1651SOL    HW1 5852   0.365   2.034   2.950
 1651SOL    HW2 5853   0.446   2.165   2.898
 1652SOL     OW 5854   1.375   3.687   2.270
 1652SOL    HW1 5855   1.425   3.752   2.212
 1652SOL    HW2 5856   1.412   3.688   2.362
 1653SOL     OW 5857   6.830   5.807   1.392
 1653SOL    HW1 5858   6.819   5.872   1.318
 1653SOL    HW2 5859   6.910   5.832   1.447
 1654SOL     OW 5860   0.120   3.141   1.246
 1654SOL    HW1 5861   0.126   3.053   1.293
 1654SOL    HW2 5862   0.179   3.139   1.165
 1655SOL     OW 5863   6.463   1.252   4.125
 1655SOL    HW1 5864   6.371   1.271   4.091
 1655SOL    HW2 5865   6.458   1.211   4.216
 1656SOL     OW 5866   2.139   5.380   2.888
 1656SOL    HW1 5867   2.076   5.435   2.943
 1656SOL    HW2 5868   2.223   5.363   2.940
 1657SOL     OW 5869   6.232   0.220   4.455
 1657SOL    HW1 5870   6.192   0.131   4.434
 1657SOL    HW2 5871   6.323   0.207   4.495
 1658SOL     OW 5872   6.567   0.446   0.880
 1658SOL    HW1 5873   6.585   0.429   0.783
 1658SOL    HW2 5874   6.631   0.515   0.914
 1659SOL     OW 5875   3.610   7.020   6.963
 1659SOL    HW1 5876   3.633   0.043   0.030
 1659SOL    HW2 5877   3.514   6.991   6.964
 1660SOL     OW 5878   1.889   6.770   2.824
 1660SOL    HW1 5879   1.827   6.768   2.746
 1660SOL    HW2 5880   1.863   6.699   2.890
 1661SOL     OW 5881   2.900   5.834   1.928
 1661SOL    HW1 5882   2.805   5.801   1.927
 1661SOL    HW2 5883   2.935   5.830   2.022
 1662SOL     OW 5884   6.771   0.473   4.756
 1662SOL    HW1 5885   6.783   0.393   4.815
 1662SOL    HW2 5886   6.842   0.472   4.684
 1663SOL     OW 5887   4.946   5.376   2.723
 1663SOL    HW1 5888   4.995   5.289   2.732
 1663SOL    HW2 5889   4.938   5.399   2.626
 1664SOL     OW 5890   2.190   6.230   5.590
 1664SOL    HW1 5891   2.219   6.135   5.598
 1664SOL    HW2 5892   2.229   6.271   5.508
 1665SOL     OW 5893   6.995   3.839   1.694
 1665SOL    HW1 5894   6.905   3.881   1.692
 1665SOL    HW2 5895   7.016   3.799   1.605
 1666SOL     OW 5896   5.653   0.174   0.450
 1666SOL    HW1 5897   5.608   0.251   0.494
 1666SOL    HW2 5898   5.593   0.093   0.455
 1667SOL     OW 5899   6.772   6.126   1.605
 1667SOL    HW1 5900   6.789   6.059   1.532
 1667SOL    HW2 5901   6.723   6.082   1.680
 1668SOL     OW 5902   4.973   4.612   3.316
 1668SOL    HW1 5903   5.037   4.617   3.393
 1668SOL    HW2 5904   4.915   4.531   3.326
 1669SOL     OW 5905   6.720   4.498   5.736
 1669SOL    HW1 5906   6.688   4.426   5.797
 1669SOL    HW2 5907   6.646   4.563   5.718
 1670SOL     OW 5908   0.499   4.397   4.796
 1670SOL    HW1 5909   0.419   4.432   4.843
 1670SOL    HW2 5910   0.521   4.305   4.829
 1671SOL     OW 5911   5.825   0.946   3.102
 1671SOL    HW1 5912   5.758   1.019   3.116
 1671SOL    HW2 5913   5.813   0.909   3.009
 1672SOL     OW 5914   2.182   4.107   6.217
 1672SOL    HW1 5915   2.267   4.160   6.211
 1672SOL    HW2 5916   2.172   4.069   6.309
 1673SOL     OW 5917   1.657   1.597   5.257
 1673SOL    HW1 5918   1.745   1.553   5.277
 1673SOL    HW2 5919   1.673   1.691   5.227
 1674SOL     OW 5920   0.240   2.993   2.344
 1674SOL    HW1 5921   0.301   3.024   2.271
 1674SOL    HW2 5922   0.290   2.994   2.431
 1675SOL     OW 5923   5.056   0.112   0.159
 1675SOL    HW1 5924   5.012   0.028   0.128
 1675SOL    HW2 5925   5.041   0.184   0.091
 1676SOL     OW 5926   2.407   2.092   2.172
 1676SOL    HW1 5927   2.436   2.160   2.104
 1676SOL    HW2 5928   2.480   2.080   2.240
 1677SOL     OW 5929   4.067   3.772   3.410
 1677SOL    HW1 5930   4.011   3.690   3.426
 1677SOL    HW2 5931   4.159   3.744   3.383
 1678SOL     OW 5932   6.967   5.802   2.113
 1678SOL    HW1 5933   6.901   5.749   2.166
 1678SOL    HW2 5934   6.921   5.850   2.038
 1679SOL     OW 5935   1.936   1.551   4.965
 1679SOL    HW1 5936   1.910   1.647   4.960
 1679SOL    HW2 5937   1.985   1.534   5.051
 1680SOL     OW 5938   6.184   3.877   5.465
 1680SOL    HW1 5939   6.096   3.923   5.477
 1680SOL    HW2 5940   6.184   3.825   5.380
 1681SOL     OW 5941   1.521   6.182   5.690
 1681SOL    HW1 5942   1.579   6.230   5.755
 1681SOL    HW2 5943   1.574   6.161   5.607
 1682SOL     OW 5944   2.133   0.856   5.675
 1682SOL    HW1 5945   2.134   0.842   5.774
 1682SOL    HW2 5946   2.124   0.954   5.656
 1683SOL     OW 5947   6.240   5.606   2.797
 1683SOL    HW1 5948   6.145   5.635   2.811
 1683SOL    HW2 5949   6.302   5.677   2.832
 1684SOL     OW 5950   0.244   5.581   2.275
 1684SOL    HW1 5951   0.216   5.641   2.350
 1684SOL    HW2 5952   0.343   5.581   2.267
 1685SOL     OW 5953   2.122   1.684   5.845
 1685SOL    HW1 5954   2.189   1.755   5.828
 1685SOL    HW2 5955   2.163   1.594   5.828
 1686SOL     OW 5956   3.444   5.784   4.297
 1686SOL    HW1 5957   3.503   5.856   4.262
 1686SOL    HW2 5958   3.500   5.706   4.326
 1687SOL     OW 5959   0.404   3.489   1.607
 1687SOL    HW1 5960   0.461   3.505   1.526
 1687SOL    HW2 5961   0.318   3.446   1.581
 1688SOL     OW 5962   1.439   1.343   3.979
 1688SOL    HW1 5963   1.369   1.275   4.004
 1688SOL    HW2 5964   1.398   1.413   3.921
 1689SOL     OW 5965   6.297   0.426   2.360
 1689SOL    HW1 5966   6.201   0.454   2.355
 1689SOL    HW2 5967   6.355   0.507   2.349
 1690SOL     OW 5968   0.746   3.321   4.920
 1690SOL    HW1 5969   0.754   3.417   4.890
 1690SOL    HW2 5970   0.711   3.318   5.013
 1691SOL     OW 5971   5.311   3.010   4.088
 1691SOL    HW1 5972   5.264   3.016   4.000
 1691SOL    HW2 5973   5.246   2.980   4.159
 1692SOL     OW 5974   4.698   5.959   1.724
 1692SOL    HW1 5975   4.649   5.958   1.811
 1692SOL    HW2 5976   4.719   6.054   1.698
 1693SOL     OW 5977   6.830   2.091   4.165
 1693SOL    HW1 5978   6.906   2.039   4.205
 1693SOL    HW2 5979   6.773   2.029   4.111
 1694SOL     OW 5980   6.209   1.362   4.106
 1694SOL    HW1 5981   6.151   1.368   4.025
 1694SOL    HW2 5982   6.163   1.409   4.182
 1695SOL     OW 5983   3.534   0.539   6.785
 1695SOL    HW1 5984   3.574   0.631   6.792
 1695SOL    HW2 5985   3.449   0.544   6.732
 1696SOL     OW 5986   3.689   6.295   0.893
 1696SOL    HW1 5987   3.628   6.366   0.926
 1696SOL    HW2 5988   3.686   6.292   0.793
 1697SOL     OW 5989   6.082   2.592   1.144
 1697SOL    HW1 5990   6.086   2.651   1.063
 1697SOL    HW2 5991   6.118   2.502   1.121
 1698SOL     OW 5992   4.057   0.846   1.229
 1698SOL    HW1 5993   4.153   0.834   1.204
 1698SOL    HW2 5994   4.048   0.840   1.329
 1699SOL     OW 5995   2.333   1.850   5.851
 1699SOL    HW1 5996   2.363   1.773   5.908
 1699SOL    HW2 5997   2.411   1.907   5.830
 1700SOL     OW 5998   6.156   3.918   3.027
 1700SOL    HW1 5999   6.063   3.883   3.033
 1700SOL    HW2 6000   6.179   3.967   3.111
 1701SOL     OW 6001   6.062   5.799   5.206
 1701SOL    HW1 6002   5.975   5.773   5.248
 1701SOL    HW2 6003   6.111   5.862   5.266
 1702SOL     OW 6004   0.435   1.459   0.978
 1702SOL    HW1 6005   0.424   1.471   0.879
 1702SOL    HW2 6006   0.499   1.384   0.995
 1703SOL     OW 6007   3.936   1.615   6.490
 1703SOL    HW1 6008   4.001   1.647   6.560
 1703SOL    HW2 6009   3.845   1.650   6.511
 1704SOL     OW 6010   1.599   2.282   0.357
 1704SOL    HW1 6011   1.638   2.361   0.309
 1704SOL    HW2 6012   1.499   2.290   0.358
 1705SOL     OW 6013   3.388   2.362   1.720
 1705SOL    HW1 6014   3.300   2.320   1.742
 1705SOL    HW2 6015   3.457   2.328   1.783
 1706SOL     OW 6016   4.249   2.077   1.644
 1706SOL    HW1 6017   4.219   2.017   1.717
 1706SOL    HW2 6018   4.270   2.167   1.682
 1707SOL     OW 6019   4.837   2.507   2.840
 1707SOL    HW1 6020   4.874   2.420   2.871
 1707SOL    HW2 6021   4.749   2.492   2.796
 1708SOL     OW 6022   4.132   5.283   1.443
 1708SOL    HW1 6023   4.124   5.292   1.542
 1708SOL    HW2 6024   4.048   5.243   1.406
 1709SOL     OW 6025   3.627   6.868   1.335
 1709SOL    HW1 6026   3.691   6.829   1.269
 1709SOL    HW2 6027   3.570   6.936   1.289
 1710SOL     OW 6028   3.826   5.302   3.803
 1710SOL    HW1 6029   3.791   5.395   3.802
 1710SOL    HW2 6030   3.760   5.241   3.847
 1711SOL     OW 6031   2.239   4.917   5.031
 1711SOL    HW1 6032   2.223   4.820   5.012
 1711SOL    HW2 6033   2.154   4.959   5.062
 1712SOL     OW 6034   7.005   1.669   4.924
 1712SOL    HW1 6035   0.035   1.633   4.845
 1712SOL    HW2 6036   6.921   1.615   4.936
 1713SOL     OW 6037   4.228   1.606   2.637
 1713SOL    HW1 6038   4.180   1.562   2.712
 1713SOL    HW2 6039   4.182   1.587   2.551
 1714SOL     OW 6040   4.325   1.446   6.497
 1714SOL    HW1 6041   4.317   1.357   6.542
 1714SOL    HW2 6042   4.333   1.517   6.567
 1715SOL     OW 6043   2.369   5.524   3.084
 1715SOL    HW1 6044   2.457   5.544   3.042
 1715SOL    HW2 6045   2.303   5.594   3.058
 1716SOL     OW 6046   4.479   0.212   3.730
 1716SOL    HW1 6047   4.400   0.273   3.724
 1716SOL    HW2 6048   4.545   0.237   3.659
 1717SOL     OW 6049   3.712   5.696   5.128
 1717SOL    HW1 6050   3.655   5.713   5.048
 1717SOL    HW2 6051   3.686   5.609   5.170
 1718SOL     OW 6052   2.711   1.332   2.306
 1718SOL    HW1 6053   2.696   1.247   2.255
 1718SOL    HW2 6054   2.781   1.387   2.260
 1719SOL     OW 6055   2.148   3.592   1.026
 1719SOL    HW1 6056   2.159   3.663   0.957
 1719SOL    HW2 6057   2.056   3.554   1.021
 1720SOL     OW 6058   0.113   2.697   5.976
 1720SOL    HW1 6059   0.125   2.634   5.899
 1720SOL    HW2 6060   0.117   2.647   6.062
 1721SOL     OW 6061   1.737   0.138   1.344
 1721SOL    HW1 6062   1.804   0.100   1.408
 1721SOL    HW2 6063   1.653   0.161   1.393
 1722SOL     OW 6064   4.274   1.131   3.511
 1722SOL    HW1 6065   4.305   1.081   3.592
 1722SOL    HW2 6066   4.222   1.070   3.452
 1723SOL     OW 6067   4.241   2.431   0.181
 1723SOL    HW1 6068   4.290   2.514   0.205
 1723SOL    HW2 6069   4.287   2.352   0.222
 1724SOL     OW 6070   6.540   2.595   1.825
 1724SOL    HW1 6071   6.580   2.539   1.898
 1724SOL    HW2 6072   6.514   2.684   1.862
 1725SOL     OW 6073   2.047   5.139   6.630
 1725SOL    HW1 6074   2.073   5.186   6.545
 1725SOL    HW2 6075   2.127   5.131   6.689
 1726SOL     OW 6076   5.402   3.955   4.648
 1726SOL    HW1 6077   5.312   3.936   4.611
 1726SOL    HW2 6078   5.472   3.910   4.592
 1727SOL     OW 6079   3.737   3.660   3.210
 1727SOL    HW1 6080   3.650   3.703   3.233
 1727SOL    HW2 6081   3.806   3.731   3.193
 1728SOL     OW 6082   5.186   4.548   5.544
 1728SOL    HW1 6083   5.271   4.498   5.561
 1728SOL    HW2 6084   5.187   4.585   5.451
 1729SOL     OW 6085   1.358   4.064   3.194
 1729SOL    HW1 6086   1.262   4.062   3.165
 1729SOL    HW2 6087   1.410   4.122   3.132
 1730SOL     OW 6088   3.071   0.107   5.285
 1730SOL    HW1 6089   3.026   0.025   5.249
 1730SOL    HW2 6090   3.164   0.112   5.248
 1731SOL     OW 6091   6.295   4.692   3.510
 1731SOL    HW1 6092   6.384   4.722   3.544
 1731SOL    HW2 6093   6.290   4.592   3.511
 1732SOL     OW 6094   1.699   4.570   6.359
 1732SOL    HW1 6095   1.796   4.573   6.381
 1732SOL    HW2 6096   1.647   4.616   6.432
 1733SOL     OW 6097   2.462   3.786   1.474
 1733SOL    HW1 6098   2.415   3.866   1.511
 1733SOL    HW2 6099   2.561   3.802   1.473
 1734SOL     OW 6100   5.588   2.782   1.556
 1734SOL    HW1 6101   5.511   2.833   1.593
 1734SOL    HW2 6102   5.594   2.797   1.458
 1735SOL     OW 6103   4.581   5.712   5.654
 1735SOL    HW1 6104   4.513   5.727   5.581
 1735SOL    HW2 6105   4.568   5.621   5.693
 1736SOL     OW 6106   3.481   3.700   0.512
 1736SOL    HW1 6107   3.544   3.649   0.454
 1736SOL    HW2 6108   3.506   3.687   0.608
 1737SOL     OW 6109   5.123   6.873   4.858
 1737SOL    HW1 6110   5.158   6.933   4.930
 1737SOL    HW2 6111   5.199   6.837   4.805
 1738SOL     OW 6112   1.833   3.212   4.170
 1738SOL    HW1 6113   1.906   3.208   4.102
 1738SOL    HW2 6114   1.744   3.213   4.125
 1739SOL     OW 6115   6.152   0.539   4.288
 1739SOL    HW1 6116   6.135   0.492   4.374
 1739SOL    HW2 6117   6.113   0.631   4.293
 1740SOL     OW 6118   6.327   1.386   5.273
 1740SOL    HW1 6119   6.331   1.333   5.188
 1740SOL    HW2 6120   6.300   1.480   5.253
 1741SOL     OW 6121   2.923   1.038   4.251
 1741SOL    HW1 6122   3.007   1.092   4.252
 1741SOL    HW2 6123   2.902   1.011   4.157
 1742SOL     OW 6124   5.545   0.949   5.982
 1742SOL    HW1 6125   5.510   0.900   6.062
 1742SOL    HW2 6126   5.641   0.971   5.996
 1743SOL     OW 6127   1.162   0.946   2.470
 1743SOL    HW1 6128   1.166   1.002   2.387
 1743SOL    HW2 6129   1.158   1.006   2.550
 1744SOL     OW 6130   5.772   2.639   2.952
 1744SOL    HW1 6131   5.724   2.687   3.026
 1744SOL    HW2 6132   5.730   2.662   2.865
 1745SOL     OW 6133   6.230   6.441   2.224
 1745SOL    HW1 6134   6.213   6.342   2.216
 1745SOL    HW2 6135   6.324   6.461   2.197
 1746SOL     OW 6136   2.112   3.762   4.047
 1746SOL    HW1 6137   2.129   3.792   3.953
 1746SOL    HW2 6138   2.169   3.816   4.109
 1747SOL     OW 6139   3.578   1.869   2.170
 1747SOL    HW1 6140   3.571   1.774   2.200
 1747SOL    HW2 6141   3.486   1.908   2.161
 1748SOL     OW 6142   6.129   1.485   4.372
 1748SOL    HW1 6143   6.217   1.487   4.420
 1748SOL    HW2 6144   6.072   1.560   4.404
 1749SOL     OW 6145   2.703   6.817   0.104
 1749SOL    HW1 6146   2.767   6.755   0.148
 1749SOL    HW2 6147   2.619   6.768   0.081
 1750SOL     OW 6148   4.859   0.413   3.881
 1750SOL    HW1 6149   4.859   0.477   3.805
 1750SOL    HW2 6150   4.766   0.377   3.895
 1751SOL     OW 6151   5.546   1.958   4.820
 1751SOL    HW1 6152   5.528   2.056   4.813
 1751SOL    HW2 6153   5.476   1.915   4.878
 1752SOL     OW 6154   5.918   0.474   1.555
 1752SOL    HW1 6155   5.832   0.511   1.519
 1752SOL    HW2 6156   5.904   0.379   1.584
 1753SOL     OW 6157   6.760   1.266   1.885
 1753SOL    HW1 6158   6.679   1.208   1.895
 1753SOL    HW2 6159   6.739   1.359   1.915
 1754SOL     OW 6160   1.745   5.662   6.213
 1754SOL    HW1 6161   1.666   5.674   6.273
 1754SOL    HW2 6162   1.822   5.715   6.248
 1755SOL     OW 6163   0.232   6.171   6.241
 1755SOL    HW1 6164   0.222   6.228   6.160
 1755SOL    HW2 6165   0.325   6.180   6.278
 1756SOL     OW 6166   3.773   6.277   6.530
 1756SOL    HW1 6167   3.810   6.229   6.610
 1756SOL    HW2 6168   3.836   6.351   6.505
 1757SOL     OW 6169   3.299   4.972   4.824
 1757SOL    HW1 6170   3.294   4.979   4.724
 1757SOL    HW2 6171   3.218   4.922   4.857
 1758SOL     OW 6172   1.589   0.322   4.592
 1758SOL    HW1 6173   1.608   0.417   4.617
 1758SOL    HW2 6174   1.542   0.277   4.667
 1759SOL     OW 6175   1.179   6.500   5.424
 1759SOL    HW1 6176   1.219   6.469   5.511
 1759SOL    HW2 6177   1.105   6.564   5.442
 1760SOL     OW 6178   5.810   0.603   4.349
 1760SOL    HW1 6179   5.753   0.531   4.389
 1760SOL    HW2 6180   5.877   0.634   4.417
 1761SOL     OW 6181   6.711   0.529   1.348
 1761SOL    HW1 6182   6.719   0.557   1.444
 1761SOL    HW2 6183   6.667   0.603   1.295
 1762SOL     OW 6184   6.728   1.555   4.938
 1762SOL    HW1 6185   6.628   1.551   4.938
 1762SOL    HW2 6186   6.765   1.486   5.001
 1763SOL     OW 6187   1.429   4.699   5.146
 1763SOL    HW1 6188   1.421   4.701   5.047
 1763SOL    HW2 6189   1.347   4.657   5.186
 1764SOL     OW 6190   0.535   3.238   2.340
 1764SOL    HW1 6191   0.583   3.275   2.261
 1764SOL    HW2 6192   0.597   3.182   2.394
 1765SOL     OW 6193   3.892   2.316   1.504
 1765SOL    HW1 6194   3.814   2.378   1.508
 1765SOL    HW2 6195   3.953   2.346   1.430
 1766SOL     OW 6196   5.342   4.756   3.999
 1766SOL    HW1 6197   5.407   4.721   4.067
 1766SOL    HW2 6198   5.385   4.833   3.950
 1767SOL     OW 6199   0.829   4.680   2.845
 1767SOL    HW1 6200   0.892   4.612   2.808
 1767SOL    HW2 6201   0.736   4.644   2.842
 1768SOL     OW 6202   4.272   0.441   6.948
 1768SOL    HW1 6203   4.242   0.347   6.932
 1768SOL    HW2 6204   4.370   0.449   6.930
 1769SOL     OW 6205   5.856   0.792   0.650
 1769SOL    HW1 6206   5.869   0.889   0.626
 1769SOL    HW2 6207   5.851   0.737   0.567
 1770SOL     OW 6208   0.643   3.883   5.059
 1770SOL    HW1 6209   0.563   3.916   5.108
 1770SOL    HW2 6210   0.697   3.823   5.119
 1771SOL     OW 6211   1.998   4.807   0.113
 1771SOL    HW1 6212   1.991   4.871   0.190
 1771SOL    HW2 6213   2.007   4.714   0.147
 1772SOL     OW 6214   4.113   5.413   4.431
 1772SOL    HW1 6215   4.083   5.318   4.428
 1772SOL    HW2 6216   4.182   5.429   4.361
 1773SOL     OW 6217   0.716   1.834   5.320
 1773SOL    HW1 6218   0.663   1.919   5.326
 1773SOL    HW2 6219   0.681   1.768   5.386
 1774SOL     OW 6220   5.412   6.482   2.237
 1774SOL    HW1 6221   5.471   6.489   2.157
 1774SOL    HW2 6222   5.419   6.391   2.278
 1775SOL     OW 6223   1.907   5.713   6.744
 1775SOL    HW1 6224   1.968   5.675   6.814
 1775SOL    HW2 6225   1.905   5.651   6.665
 1776SOL     OW 6226   4.992   0.732   5.869
 1776SOL    HW1 6227   4.963   0.715   5.775
 1776SOL    HW2 6228   5.066   0.800   5.870
 1777SOL     OW 6229   4.232   6.746   6.539
 1777SOL    HW1 6230   4.160   6.790   6.593
 1777SOL    HW2 6231   4.300   6.708   6.601
 1778SOL     OW 6232   4.679   1.235   4.323
 1778SOL    HW1 6233   4.768   1.278   4.310
 1778SOL    HW2 6234   4.668   1.161   4.258
 1779SOL     OW 6235   5.122   6.830   5.501
 1779SOL    HW1 6236   5.216   6.841   5.468
 1779SOL    HW2 6237   5.123   6.810   5.599
 1780SOL     OW 6238   1.811   4.228   4.730
 1780SOL    HW1 6239   1.786   4.297   4.798
 1780SOL    HW2 6240   1.733   4.210   4.671
 1781SOL     OW 6241   4.880   0.011   4.844
 1781SOL    HW1 6242   4.958   6.972   4.823
 1781SOL    HW2 6243   4.851   7.015   4.938
 1782SOL     OW 6244   2.025   1.540   2.858
 1782SOL    HW1 6245   2.093   1.470   2.879
 1782SOL    HW2 6246   2.016   1.550   2.759
 1783SOL     OW 6247   2.290   3.586   6.212
 1783SOL    HW1 6248   2.213   3.621   6.266
 1783SOL    HW2 6249   2.298   3.639   6.128
 1784SOL     OW 6250   2.709   1.296   2.002
 1784SOL    HW1 6251   2.620   1.341   1.998
 1784SOL    HW2 6252   2.764   1.324   1.923
 1785SOL     OW 6253   6.912   6.215   4.332
 1785SOL    HW1 6254   6.965   6.220   4.416
 1785SOL    HW2 6255   6.877   6.306   4.310
 1786SOL     OW 6256   2.010   5.385   0.677
 1786SOL    HW1 6257   2.040   5.476   0.648
 1786SOL    HW2 6258   1.938   5.393   0.746
 1787SOL     OW 6259   2.326   2.305   5.725
 1787SOL    HW1 6260   2.243   2.306   5.781
 1787SOL    HW2 6261   2.307   2.349   5.637
 1788SOL     OW 6262   4.717   3.752   0.472
 1788SOL    HW1 6263   4.712   3.678   0.538
 1788SOL    HW2 6264   4.810   3.757   0.435
 1789SOL     OW 6265   6.318   3.142   1.814
 1789SOL    HW1 6266   6.410   3.104   1.810
 1789SOL    HW2 6267   6.273   3.130   1.726
 1790SOL     OW 6268   3.369   1.209   4.426
 1790SOL    HW1 6269   3.460   1.229   4.391
 1790SOL    HW2 6270   3.365   1.231   4.523
 1791SOL     OW 6271   6.374   1.184   3.390
 1791SOL    HW1 6272   6.410   1.105   3.440
 1791SOL    HW2 6273   6.449   1.244   3.363
 1792SOL     OW 6274   6.367   1.826   4.551
 1792SOL    HW1 6275   6.342   1.885   4.473
 1792SOL    HW2 6276   6.452   1.859   4.591
 1793SOL     OW 6277   6.277   1.385   4.705
 1793SOL    HW1 6278   6.221   1.307   4.677
 1793SOL    HW2 6279   6.370   1.354   4.727
 1794SOL     OW 6280   6.206   0.135   6.050
 1794SOL    HW1 6281   6.121   0.188   6.054
 1794SOL    HW2 6282   6.195   0.050   6.102
 1795SOL     OW 6283   6.120   5.251   0.967
 1795SOL    HW1 6284   6.172   5.329   0.931
 1795SOL    HW2 6285   6.168   5.214   1.047
 1796SOL     OW 6286   1.812   1.150   5.380
 1796SOL    HW1 6287   1.807   1.082   5.452
 1796SOL    HW2 6288   1.799   1.106   5.291
 1797SOL     OW 6289   1.263   0.054   5.089
 1797SOL    HW1 6290   1.339   7.009   5.079
 1797SOL    HW2 6291   1.176   0.005   5.090
 1798SOL     OW 6292   3.383   2.863   4.420
 1798SOL    HW1 6293   3.337   2.781   4.454
 1798SOL    HW2 6294   3.332   2.944   4.450
 1799SOL     OW 6295   4.212   2.085   6.497
 1799SOL    HW1 6296   4.187   2.170   6.543
 1799SOL    HW2 6297   4.131   2.028   6.487
 1800SOL     OW 6298   5.328   4.568   3.771
 1800SOL    HW1 6299   5.299   4.635   3.839
 1800SOL    HW2 6300   5.382   4.613   3.700
 1801SOL     OW 6301   0.638   1.981   1.710
 1801SOL    HW1 6302   0.656   1.905   1.647
 1801SOL    HW2 6303   0.719   1.998   1.765
 1802SOL     OW 6304   6.166   5.524   3.530
 1802SOL    HW1 6305   6.181   5.473   3.614
 1802SOL    HW2 6306   6.147   5.620   3.552
 1803SOL     OW 6307   0.025   6.910   2.224
 1803SOL    HW1 6308   0.070   6.945   2.306
 1803SOL    HW2 6309   0.035   6.976   2.150
 1804SOL     OW 6310   3.287   3.710   5.492
 1804SOL    HW1 6311   3.317   3.716   5.397
 1804SOL    HW2 6312   3.312   3.621   5.530
 1805SOL     OW 6313   1.230   5.880   5.834
 1805SOL    HW1 6314   1.293   5.811   5.871
 1805SOL    HW2 6315   1.148   5.884   5.890
 1806SOL     OW 6316   6.992   2.301   2.419
 1806SOL    HW1 6317   0.055   2.334   2.466
 1806SOL    HW2 6318   6.960   2.218   2.464
 1807SOL     OW 6319   6.227   3.758   0.014
 1807SOL    HW1 6320   6.261   3.673   0.056
 1807SOL    HW2 6321   6.128   3.765   0.029
 1808SOL     OW 6322   5.462   3.345   4.809
 1808SOL    HW1 6323   5.493   3.257   4.845
 1808SOL    HW2 6324   5.367   3.360   4.835
 1809SOL     OW 6325   3.164   1.769   5.298
 1809SOL    HW1 6326   3.106   1.689   5.311
 1809SOL    HW2 6327   3.139   1.840   5.364
 1810SOL     OW 6328   0.253   0.693   4.587
 1810SOL    HW1 6329   0.236   0.772   4.529
 1810SOL    HW2 6330   0.195   0.698   4.669
 1811SOL     OW 6331   4.630   4.569   1.456
 1811SOL    HW1 6332   4.649   4.472   1.474
 1811SOL    HW2 6333   4.542   4.594   1.498
 1812SOL     OW 6334   4.411   0.017   6.019
 1812SOL    HW1 6335   4.438   0.111   6.000
 1812SOL    HW2 6336   4.426   6.980   5.938
 1813SOL     OW 6337   4.561   4.450   2.212
 1813SOL    HW1 6338   4.560   4.384   2.136
 1813SOL    HW2 6339   4.477   4.505   2.209
 1814SOL     OW 6340   6.692   6.900   0.266
 1814SOL    HW1 6341   6.665   6.982   0.217
 1814SOL    HW2 6342   6.614   6.862   0.315
 1815SOL     OW 6343   5.884   5.959   2.832
 1815SOL    HW1 6344   5.931   5.871   2.838
 1815SOL    HW2 6345   5.792   5.950   2.869
 1816SOL     OW 6346   4.285   6.298   5.566
 1816SOL    HW1 6347   4.325   6.242   5.639
 1816SOL    HW2 6348   4.295   6.250   5.479
 1817SOL     OW 6349   3.410   1.827   2.897
 1817SOL    HW1 6350   3.470   1.863   2.826
 1817SOL    HW2 6351   3.328   1.787   2.855
 1818SOL     OW 6352   1.700   6.552   0.440
 1818SOL    HW1 6353   1.800   6.548   0.439
 1818SOL    HW2 6354   1.664   6.462   0.416
 1819SOL     OW 6355   1.423   5.296   1.949
 1819SOL    HW1 6356   1.334   5.333   1.975
 1819SOL    HW2 6357   1.410   5.216   1.891
 1820SOL     OW 6358   4.143   0.525   2.830
 1820SOL    HW1 6359   4.191   0.592   2.773
 1820SOL    HW2 6360   4.170   0.538   2.926
 1821SOL     OW 6361   3.511   1.136   1.809
 1821SOL    HW1 6362   3.591   1.093   1.768
 1821SOL    HW2 6363   3.528   1.153   1.906
 1822SOL     OW 6364   0.938   3.307   2.255
 1822SOL    HW1 6365   0.965   3.388   2.202
 1822SOL    HW2 6366   0.946   3.326   2.352
 1823SOL     OW 6367   3.495   6.243   2.781
 1823SOL    HW1 6368   3.481   6.152   2.819
 1823SOL    HW2 6369   3.573   6.241   2.718
 1824SOL     OW 6370   3.679   3.852   0.821
 1824SOL    HW1 6371   3.760   3.869   0.765
 1824SOL    HW2 6372   3.629   3.773   0.785
 1825SOL     OW 6373   0.368   3.016   4.759
 1825SOL    HW1 6374   0.415   3.103   4.774
 1825SOL    HW2 6375   0.299   3.028   4.687
 1826SOL     OW 6376   3.804   1.642   0.704
 1826SOL    HW1 6377   3.735   1.706   0.739
 1826SOL    HW2 6378   3.886   1.693   0.679
 1827SOL     OW 6379   5.015   5.361   1.031
 1827SOL    HW1 6380   5.021   5.374   1.130
 1827SOL    HW2 6381   5.091   5.303   1.001
 1828SOL     OW 6382   1.640   3.633   6.247
 1828SOL    HW1 6383   1.655   3.544   6.291
 1828SOL    HW2 6384   1.702   3.701   6.285
 1829SOL     OW 6385   3.686   0.735   3.465
 1829SOL    HW1 6386   3.637   0.666   3.412
 1829SOL    HW2 6387   3.739   0.690   3.537
 1830SOL     OW 6388   5.851   6.401   5.026
 1830SOL    HW1 6389   5.885   6.312   4.996
 1830SOL    HW2 6390   5.793   6.440   4.954
 1831SOL     OW 6391   5.128   5.795   3.249
 1831SOL    HW1 6392   5.122   5.810   3.151
 1831SOL    HW2 6393   5.040   5.817   3.291
 1832SOL     OW 6394   3.182   3.957   0.313
 1832SOL    HW1 6395   3.269   3.994   0.281
 1832SOL    HW2 6396   3.129   4.030   0.355
 1833SOL     OW 6397   4.852   0.040   1.245
 1833SOL    HW1 6398   4.780   0.011   1.183
 1833SOL    HW2 6399   4.825   0.126   1.290
 1834SOL     OW 6400   3.306   2.861   1.116
 1834SOL    HW1 6401   3.219   2.815   1.096
 1834SOL    HW2 6402   3.373   2.794   1.147
 1835SOL     OW 6403   1.116   5.439   1.051
 1835SOL    HW1 6404   1.165   5.501   0.990
 1835SOL    HW2 6405   1.177   5.365   1.080
 1836SOL     OW 6406   4.874   1.165   2.130
 1836SOL    HW1 6407   4.911   1.254   2.154
 1836SOL    HW2 6408   4.808   1.136   2.200
 1837SOL     OW 6409   1.817   0.968   5.598
 1837SOL    HW1 6410   1.790   0.939   5.690
 1837SOL    HW2 6411   1.802   0.893   5.533
 1838SOL     OW 6412   6.549   0.882   6.605
 1838SOL    HW1 6413   6.462   0.899   6.652
 1838SOL    HW2 6414   6.532   0.860   6.509
 1839SOL     OW 6415   6.172   1.656   6.309
 1839SOL    HW1 6416   6.208   1.607   6.388
 1839SOL    HW2 6417   6.185   1.754   6.322
 1840SOL     OW 6418   3.645   0.102   3.301
 1840SOL    HW1 6419   3.688   0.149   3.224
 1840SOL    HW2 6420   3.682   0.138   3.387
 1841SOL     OW 6421   2.546   0.370   2.366
 1841SOL    HW1 6422   2.544   0.469   2.352
 1841SOL    HW2 6423   2.455   0.338   2.392
 1842SOL     OW 6424   1.728   5.092   0.604
 1842SOL    HW1 6425   1.667   5.145   0.545
 1842SOL    HW2 6426   1.817   5.082   0.560
 1843SOL     OW 6427   3.995   1.243   4.666
 1843SOL    HW1 6428   3.985   1.280   4.758
 1843SOL    HW2 6429   4.091   1.243   4.640
 1844SOL     OW 6430   4.546   2.217   5.567
 1844SOL    HW1 6431   4.484   2.289   5.537
 1844SOL    HW2 6432   4.630   2.221   5.513
 1845SOL     OW 6433   2.797   0.715   3.624
 1845SOL    HW1 6434   2.747   0.647   3.678
 1845SOL    HW2 6435   2.740   0.745   3.547
 1846SOL     OW 6436   4.842   0.492   3.087
 1846SOL    HW1 6437   4.837   0.406   3.138
 1846SOL    HW2 6438   4.895   0.559   3.140
 1847SOL     OW 6439   1.361   0.529   4.885
 1847SOL    HW1 6440   1.421   0.449   4.881
 1847SOL    HW2 6441   1.406   0.606   4.841
 1848SOL     OW 6442   2.675   6.047   3.940
 1848SOL    HW1 6443   2.651   6.141   3.963
 1848SOL    HW2 6444   2.774   6.041   3.926
 1849SOL     OW 6445   4.920   3.078   2.208
 1849SOL    HW1 6446   4.848   3.018   2.174
 1849SOL    HW2 6447   4.964   3.124   2.131
 1850SOL     OW 6448   5.462   2.026   2.486
 1850SOL    HW1 6449   5.388   2.090   2.507
 1850SOL    HW2 6450   5.433   1.933   2.507
 1851SOL     OW 6451   0.288   3.223   6.160
 1851SOL    HW1 6452   0.247   3.151   6.216
 1851SOL    HW2 6453   0.318   3.298   6.219
 1852SOL     OW 6454   0.329   4.805   1.338
 1852SOL    HW1 6455   0.233   4.788   1.313
 1852SOL    HW2 6456   0.381   4.720   1.327
 1853SOL     OW 6457   6.892   2.612   4.101
 1853SOL    HW1 6458   6.900   2.512   4.107
 1853SOL    HW2 6459   6.983   2.653   4.107
 1854SOL     OW 6460   1.274   5.669   3.385
 1854SOL    HW1 6461   1.357   5.614   3.398
 1854SOL    HW2 6462   1.196   5.621   3.425
 1855SOL     OW 6463   5.736   3.150   4.547
 1855SOL    HW1 6464   5.808   3.110   4.491
 1855SOL    HW2 6465   5.651   3.156   4.494
 1856SOL     OW 6466   4.318   2.899   6.576
 1856SOL    HW1 6467   4.327   2.983   6.523
 1856SOL    HW2 6468   4.294   2.921   6.671
 1857SOL     OW 6469   5.674   0.911   0.307
 1857SOL    HW1 6470   5.620   0.960   0.375
 1857SOL    HW2 6471   5.613   0.873   0.237
 1858SOL     OW 6472   4.868   2.614   3.915
 1858SOL    HW1 6473   4.843   2.525   3.953
 1858SOL    HW2 6474   4.965   2.630   3.928
 1859SOL     OW 6475   5.363   1.972   4.575
 1859SOL    HW1 6476   5.370   1.881   4.616
 1859SOL    HW2 6477   5.311   1.966   4.490
 1860SOL     OW 6478   0.736   1.980   4.827
 1860SOL    HW1 6479   0.773   1.923   4.901
 1860SOL    HW2 6480   0.685   1.923   4.763
 1861SOL     OW 6481   5.672   0.074   3.058
 1861SOL    HW1 6482   5.680   6.994   3.056
 1861SOL    HW2 6483   5.695   0.111   2.968
 1862SOL     OW 6484   1.874   6.898   6.918
 1862SOL    HW1 6485   1.836   6.822   6.865
 1862SOL    HW2 6486   1.881   6.871   7.014
 1863SOL     OW 6487   0.398   2.906   1.315
 1863SOL    HW1 6488   0.431   2.815   1.340
 1863SOL    HW2 6489   0.328   2.936   1.379
 1864SOL     OW 6490   2.758   5.512   4.059
 1864SOL    HW1 6491   2.777   5.522   4.156
 1864SOL    HW2 6492   2.674   5.459   4.048
 1865SOL     OW 6493   4.107   1.544   1.094
 1865SOL    HW1 6494   4.134   1.460   1.141
 1865SOL    HW2 6495   4.113   1.530   0.995
 1866SOL     OW 6496   6.202   4.246   4.383
 1866SOL    HW1 6497   6.120   4.194   4.407
 1866SOL    HW2 6498   6.187   4.343   4.402
 1867SOL     OW 6499   2.451   2.773   1.499
 1867SOL    HW1 6500   2.375   2.716   1.466
 1867SOL    HW2 6501   2.454   2.768   1.599
 1868SOL     OW 6502   4.855   4.059   5.046
 1868SOL    HW1 6503   4.812   3.980   5.089
 1868SOL    HW2 6504   4.900   4.115   5.115
 1869SOL     OW 6505   5.118   2.668   3.972
 1869SOL    HW1 6506   5.118   2.767   3.979
 1869SOL    HW2 6507   5.201   2.631   4.013
 1870SOL     OW 6508   0.911   3.013   4.287
 1870SOL    HW1 6509   0.948   2.954   4.359
 1870SOL    HW2 6510   0.887   2.957   4.207
 1871SOL     OW 6511   6.852   6.374   0.183
 1871SOL    HW1 6512   6.831   6.284   0.221
 1871SOL    HW2 6513   6.771   6.432   0.185
 1872SOL     OW 6514   3.027   2.520   0.700
 1872SOL    HW1 6515   3.097   2.590   0.691
 1872SOL    HW2 6516   3.068   2.436   0.735
 1873SOL     OW 6517   6.301   0.922   6.695
 1873SOL    HW1 6518   6.237   0.944   6.622
 1873SOL    HW2 6519   6.270   0.841   6.744
 1874SOL     OW 6520   0.774   0.729   6.753
 1874SOL    HW1 6521   0.773   0.653   6.819
 1874SOL    HW2 6522   0.864   0.772   6.754
 1875SOL     OW 6523   6.534   6.160   0.609
 1875SOL    HW1 6524   6.577   6.146   0.698
 1875SOL    HW2 6525   6.470   6.237   0.615
 1876SOL     OW 6526   5.741   6.586   5.897
 1876SOL    HW1 6527   5.762   6.627   5.808
 1876SOL    HW2 6528   5.683   6.649   5.949
 1877SOL     OW 6529   6.919   1.289   2.525
 1877SOL    HW1 6530   6.900   1.277   2.622
 1877SOL    HW2 6531   6.914   1.386   2.501
 1878SOL     OW 6532   6.999   4.101   3.487
 1878SOL    HW1 6533   0.032   4.080   3.570
 1878SOL    HW2 6534   7.015   4.030   3.419
 1879SOL     OW 6535   2.664   5.377   4.783
 1879SOL    HW1 6536   2.711   5.369   4.871
 1879SOL    HW2 6537   2.732   5.396   4.712
 1880SOL     OW 6538   0.159   2.269   3.341
 1880SOL    HW1 6539   0.154   2.169   3.339
 1880SOL    HW2 6540   0.199   2.301   3.255
 1881SOL     OW 6541   0.812   2.417   3.573
 1881SOL    HW1 6542   0.781   2.459   3.659
 1881SOL    HW2 6543   0.738   2.362   3.535
 1882SOL     OW 6544   1.098   5.794   0.381
 1882SOL    HW1 6545   1.152   5.873   0.354
 1882SOL    HW2 6546   1.119   5.769   0.476
 1883SOL     OW 6547   1.191   3.562   2.703
 1883SOL    HW1 6548   1.162   3.520   2.789
 1883SOL    HW2 6549   1.184   3.661   2.710
 1884SOL     OW 6550   4.523   0.783   0.786
 1884SOL    HW1 6551   4.540   0.882   0.781
 1884SOL    HW2 6552   4.545   0.741   0.699
 1885SOL     OW 6553   6.553   2.131   0.960
 1885SOL    HW1 6554   6.557   2.050   0.902
 1885SOL    HW2 6555   6.579   2.211   0.906
 1886SOL     OW 6556   1.514   1.876   0.113
 1886SOL    HW1 6557   1.552   1.967   0.130
 1886SOL    HW2 6558   1.493   1.832   0.200
 1887SOL     OW 6559   0.391   4.428   5.782
 1887SOL    HW1 6560   0.430   4.391   5.866
 1887SOL    HW2 6561   0.383   4.355   5.714
 1888SOL     OW 6562   1.854   1.376   5.751
 1888SOL    HW1 6563   1.851   1.464   5.704
 1888SOL    HW2 6564   1.947   1.358   5.784
 1889SOL     OW 6565   4.369   3.415   0.142
 1889SOL    HW1 6566   4.462   3.425   0.105
 1889SOL    HW2 6567   4.373   3.363   0.227
 1890SOL     OW 6568   1.423   5.891   6.203
 1890SOL    HW1 6569   1.328   5.860   6.199
 1890SOL    HW2 6570   1.472   5.861   6.121
 1891SOL     OW 6571   5.389   3.266   5.518
 1891SOL    HW1 6572   5.468   3.244   5.575
 1891SOL    HW2 6573   5.340   3.182   5.495
 1892SOL     OW 6574   3.705   6.598   1.788
 1892SOL    HW1 6575   3.706   6.586   1.689
 1892SOL    HW2 6576   3.623   6.648   1.815
 1893SOL     OW 6577   3.391   2.018   4.584
 1893SOL    HW1 6578   3.358   1.928   4.613
 1893SOL    HW2 6579   3.364   2.087   4.652
 1894SOL     OW 6580   4.315   3.679   1.751
 1894SOL    HW1 6581   4.248   3.669   1.824
 1894SOL    HW2 6582   4.336   3.776   1.737
 1895SOL     OW 6583   6.119   0.649   2.127
 1895SOL    HW1 6584   6.096   0.743   2.154
 1895SOL    HW2 6585   6.089   0.633   2.034
 1896SOL     OW 6586   6.638   0.972   4.051
 1896SOL    HW1 6587   6.716   0.972   3.988
 1896SOL    HW2 6588   6.578   1.049   4.030
 1897SOL     OW 6589   6.915   5.707   3.498
 1897SOL    HW1 6590   6.994   5.764   3.479
 1897SOL    HW2 6591   6.913   5.630   3.434
 1898SOL     OW 6592   4.208   6.094   1.695
 1898SOL    HW1 6593   4.190   6.094   1.597
 1898SOL    HW2 6594   4.177   6.181   1.734
 1899SOL     OW 6595   0.042   3.743   2.741
 1899SOL    HW1 6596   0.086   3.698   2.663
 1899SOL    HW2 6597   6.986   3.800   2.708
 1900SOL     OW 6598   0.974   0.128   6.341
 1900SOL    HW1 6599   0.879   0.155   6.324
 1900SOL    HW2 6600   1.031   0.160   6.266
 1901SOL     OW 6601   2.376   1.359   0.357
 1901SOL    HW1 6602   2.457   1.413   0.335
 1901SOL    HW2 6603   2.353   1.369   0.454
 1902SOL     OW 6604   1.160   2.449   4.802
 1902SOL    HW1 6605   1.118   2.528   4.846
 1902SOL    HW2 6606   1.160   2.463   4.702
 1903SOL     OW 6607   6.592   4.024   3.020
 1903SOL    HW1 6608   6.569   4.046   2.926
 1903SOL    HW2 6609   6.621   3.929   3.027
 1904SOL     OW 6610   6.837   6.941   4.395
 1904SOL    HW1 6611   6.918   6.993   4.424
 1904SOL    HW2 6612   6.859   6.844   4.393
 1905SOL     OW 6613   6.981   2.568   3.704
 1905SOL    HW1 6614   0.014   2.649   3.728
 1905SOL    HW2 6615   6.980   2.556   3.605
 1906SOL     OW 6616   2.810   0.266   5.621
 1906SOL    HW1 6617   2.812   0.357   5.663
 1906SOL    HW2 6618   2.891   0.255   5.563
 1907SOL     OW 6619   2.842   0.213   3.750
 1907SOL    HW1 6620   2.897   0.132   3.770
 1907SOL    HW2 6621   2.761   0.213   3.809
 1908SOL     OW 6622   4.602   1.042   5.889
 1908SOL    HW1 6623   4.605   1.101   5.969
 1908SOL    HW2 6624   4.685   0.986   5.886
 1909SOL     OW 6625   2.314   4.506   4.353
 1909SOL    HW1 6626   2.398   4.541   4.312
 1909SOL    HW2 6627   2.334   4.423   4.405
 1910SOL     OW 6628   5.355   2.686   6.580
 1910SOL    HW1 6629   5.363   2.628   6.661
 1910SOL    HW2 6630   5.322   2.632   6.503
 1911SOL     OW 6631   6.541   1.823   5.442
 1911SOL    HW1 6632   6.591   1.787   5.520
 1911SOL    HW2 6633   6.446   1.793   5.446
 1912SOL     OW 6634   3.685   6.506   2.703
 1912SOL    HW1 6635   3.685   6.573   2.628
 1912SOL    HW2 6636   3.678   6.414   2.664
 1913SOL     OW 6637   1.807   6.456   5.263
 1913SOL    HW1 6638   1.861   6.425   5.341
 1913SOL    HW2 6639   1.791   6.379   5.202
 1914SOL     OW 6640   2.231   2.356   6.584
 1914SOL    HW1 6641   2.238   2.346   6.484
 1914SOL    HW2 6642   2.290   2.288   6.628
 1915SOL     OW 6643   4.147   1.368   5.533
 1915SOL    HW1 6644   4.221   1.357   5.599
 1915SOL    HW2 6645   4.068   1.315   5.562
 1916SOL     OW 6646   4.438   6.156   1.107
 1916SOL    HW1 6647   4.358   6.212   1.128
 1916SOL    HW2 6648   4.452   6.152   1.008
 1917SOL     OW 6649   3.744   3.277   4.310
 1917SOL    HW1 6650   3.733   3.188   4.267
 1917SOL    HW2 6651   3.684   3.284   4.390
 1918SOL     OW 6652   6.345   6.841   5.981
 1918SOL    HW1 6653   6.281   6.837   6.059
 1918SOL    HW2 6654   6.430   6.884   6.010
 1919SOL     OW 6655   1.609   6.366   1.882
 1919SOL    HW1 6656   1.538   6.430   1.913
 1919SOL    HW2 6657   1.678   6.416   1.830
 1920SOL     OW 6658   0.473   4.269   3.333
 1920SOL    HW1 6659   0.496   4.215   3.252
 1920SOL    HW2 6660   0.550   4.269   3.396
 1921SOL     OW 6661   0.167   5.074   6.884
 1921SOL    HW1 6662   0.182   5.173   6.881
 1921SOL    HW2 6663   0.187   5.035   6.795
 1922SOL     OW 6664   4.298   3.137   1.180
 1922SOL    HW1 6665   4.371   3.100   1.239
 1922SOL    HW2 6666   4.231   3.184   1.237
 1923SOL     OW 6667   3.396   1.041   0.322
 1923SOL    HW1 6668   3.402   0.964   0.385
 1923SOL    HW2 6669   3.299   1.063   0.307
 1924SOL     OW 6670   6.140   4.504   1.859
 1924SOL    HW1 6671   6.124   4.587   1.911
 1924SOL    HW2 6672   6.063   4.441   1.871
 1925SOL     OW 6673   2.957   3.573   1.738
 1925SOL    HW1 6674   2.940   3.598   1.643
 1925SOL    HW2 6675   2.951   3.654   1.796
 1926SOL     OW 6676   1.270   0.243   4.691
 1926SOL    HW1 6677   1.220   0.270   4.773
 1926SOL    HW2 6678   1.340   0.176   4.715
 1927SOL     OW 6679   3.265   4.254   6.359
 1927SOL    HW1 6680   3.335   4.182   6.356
 1927SOL    HW2 6681   3.288   4.327   6.295
 1928SOL     OW 6682   6.381   3.132   6.123
 1928SOL    HW1 6683   6.323   3.211   6.145
 1928SOL    HW2 6684   6.476   3.154   6.143
 1929SOL     OW 6685   0.898   5.525   1.713
 1929SOL    HW1 6686   0.854   5.571   1.790
 1929SOL    HW2 6687   0.958   5.590   1.666
 1930SOL     OW 6688   5.863   4.432   0.473
 1930SOL    HW1 6689   5.880   4.340   0.440
 1930SOL    HW2 6690   5.886   4.498   0.400
 1931SOL     OW 6691   0.101   3.397   2.906
 1931SOL    HW1 6692   0.147   3.460   2.968
 1931SOL    HW2 6693   0.002   3.403   2.918
 1932SOL     OW 6694   5.127   3.519   2.616
 1932SOL    HW1 6695   5.141   3.604   2.667
 1932SOL    HW2 6696   5.030   3.493   2.621
 1933SOL     OW 6697   2.784   5.094   0.997
 1933SOL    HW1 6698   2.851   5.031   1.038
 1933SOL    HW2 6699   2.784   5.180   1.048
 1934SOL     OW 6700   0.927   0.013   5.412
 1934SOL    HW1 6701   0.930   0.108   5.443
 1934SOL    HW2 6702   0.955   6.972   5.487
 1935SOL     OW 6703   3.079   0.057   4.913
 1935SOL    HW1 6704   3.127   0.067   5.000
 1935SOL    HW2 6705   3.123   7.006   4.859
 1936SOL     OW 6706   5.841   5.082   4.792
 1936SOL    HW1 6707   5.879   4.998   4.752
 1936SOL    HW2 6708   5.836   5.153   4.722
 1937SOL     OW 6709   4.352   0.339   2.094
 1937SOL    HW1 6710   4.304   0.376   2.173
 1937SOL    HW2 6711   4.309   0.374   2.010
 1938SOL     OW 6712   4.399   1.767   2.935
 1938SOL    HW1 6713   4.412   1.818   3.020
 1938SOL    HW2 6714   4.396   1.669   2.955
 1939SOL     OW 6715   0.982   6.964   4.100
 1939SOL    HW1 6716   0.936   0.028   4.129
 1939SOL    HW2 6717   0.914   6.901   4.061
 1940SOL     OW 6718   5.299   5.319   6.760
 1940SOL    HW1 6719   5.380   5.304   6.703
 1940SOL    HW2 6720   5.324   5.305   6.856
 1941SOL     OW 6721   6.603   4.111   2.765
 1941SOL    HW1 6722   6.684   4.109   2.706
 1941SOL    HW2 6723   6.523   4.079   2.713
 1942SOL     OW 6724   6.471   6.507   2.754
 1942SOL    HW1 6725   6.398   6.572   2.731
 1942SOL    HW2 6726   6.470   6.431   2.689
 1943SOL     OW 6727   3.234   5.816   1.809
 1943SOL    HW1 6728   3.297   5.874   1.861
 1943SOL    HW2 6729   3.266   5.810   1.714
 1944SOL     OW 6730   5.124   2.222   6.234
 1944SOL    HW1 6731   5.195   2.205   6.165
 1944SOL    HW2 6732   5.038   2.180   6.204
 1945SOL     OW 6733   4.462   5.629   3.306
 1945SOL    HW1 6734   4.493   5.616   3.212
 1945SOL    HW2 6735   4.411   5.715   3.312
 1946SOL     OW 6736   0.260   0.786   0.445
 1946SOL    HW1 6737   0.188   0.821   0.504
 1946SOL    HW2 6738   0.253   0.829   0.355
 1947SOL     OW 6739   5.218   6.566   4.219
 1947SOL    HW1 6740   5.159   6.610   4.286
 1947SOL    HW2 6741   5.252   6.479   4.256
 1948SOL     OW 6742   6.716   5.478   3.468
 1948SOL    HW1 6743   6.641   5.539   3.493
 1948SOL    HW2 6744   6.681   5.385   3.460
 1949SOL     OW 6745   4.027   4.544   5.696
 1949SOL    HW1 6746   4.069   4.630   5.669
 1949SOL    HW2 6747   4.077   4.506   5.775
 1950SOL     OW 6748   4.050   3.725   1.168
 1950SOL    HW1 6749   4.092   3.804   1.213
 1950SOL    HW2 6750   4.067   3.730   1.069
 1951SOL     OW 6751   6.804   2.864   0.423
 1951SOL    HW1 6752   6.894   2.821   0.415
 1951SOL    HW2 6753   6.787   2.921   0.342
 1952SOL     OW 6754   3.524   2.439   6.862
 1952SOL    HW1 6755   3.486   2.351   6.890
 1952SOL    HW2 6756   3.455   2.511   6.875
 1953SOL     OW 6757   6.122   2.127   6.290
 1953SOL    HW1 6758   6.190   2.191   6.252
 1953SOL    HW2 6759   6.099   2.058   6.222
 1954SOL     OW 6760   5.570   1.167   4.420
 1954SOL    HW1 6761   5.476   1.134   4.435
 1954SOL    HW2 6762   5.567   1.250   4.364
 1955SOL     OW 6763   1.606   0.090   2.383
 1955SOL    HW1 6764   1.682   0.067   2.442
 1955SOL    HW2 6765   1.547   0.009   2.370
 1956SOL     OW 6766   5.681   6.277   2.988
 1956SOL    HW1 6767   5.717   6.236   2.904
 1956SOL    HW2 6768   5.584   6.299   2.975
 1957SOL     OW 6769   6.554   4.743   4.999
 1957SOL    HW1 6770   6.612   4.824   4.988
 1957SOL    HW2 6771   6.568   4.704   5.090
 1958SOL     OW 6772   6.093   2.687   3.988
 1958SOL    HW1 6773   6.099   2.677   3.889
 1958SOL    HW2 6774   6.165   2.633   4.032
 1959SOL     OW 6775   0.483   2.279   5.963
 1959SOL    HW1 6776   0.572   2.268   6.008
 1959SOL    HW2 6777   0.421   2.206   5.993
 1960SOL     OW 6778   6.251   4.820   1.405
 1960SOL    HW1 6779   6.208   4.778   1.325
 1960SOL    HW2 6780   6.321   4.885   1.375
 1961SOL     OW 6781   5.445   4.607   4.243
 1961SOL    HW1 6782   5.405   4.674   4.305
 1961SOL    HW2 6783   5.536   4.581   4.277
 1962SOL     OW 6784   2.269   5.912   2.908
 1962SOL    HW1 6785   2.351   5.909   2.852
 1962SOL    HW2 6786   2.210   5.987   2.876
 1963SOL     OW 6787   0.647   0.539   1.903
 1963SOL    HW1 6788   0.549   0.529   1.885
 1963SOL    HW2 6789   0.694   0.455   1.875
 1964SOL     OW 6790   4.579   2.748   1.498
 1964SOL    HW1 6791   4.595   2.654   1.526
 1964SOL    HW2 6792   4.494   2.781   1.539
 1965SOL     OW 6793   0.899   3.270   2.936
 1965SOL    HW1 6794   0.945   3.182   2.938
 1965SOL    HW2 6795   0.965   3.343   2.954
 1966SOL     OW 6796   0.034   5.275   5.192
 1966SOL    HW1 6797   0.052   5.367   5.156
 1966SOL    HW2 6798   7.008   5.221   5.122
 1967SOL     OW 6799   4.641   2.016   5.752
 1967SOL    HW1 6800   4.593   2.100   5.728
 1967SOL    HW2 6801   4.669   2.020   5.848
 1968SOL     OW 6802   2.908   5.974   0.331
 1968SOL    HW1 6803   2.913   6.074   0.336
 1968SOL    HW2 6804   2.812   5.946   0.325
 1969SOL     OW 6805   0.429   1.424   1.586
 1969SOL    HW1 6806   0.506   1.458   1.640
 1969SOL    HW2 6807   0.367   1.499   1.564
 1970SOL     OW 6808   2.390   1.126   6.195
 1970SOL    HW1 6809   2.478   1.085   6.219
 1970SOL    HW2 6810   2.316   1.065   6.225
 1971SOL     OW 6811   6.636   6.649   6.276
 1971SOL    HW1 6812   6.635   6.650   6.376
 1971SOL    HW2 6813   6.571   6.580   6.242
 1972SOL     OW 6814   6.944   2.410   3.021
 1972SOL    HW1 6815   6.912   2.456   3.104
 1972SOL    HW2 6816   0.004   2.355   3.042
 1973SOL     OW 6817   2.598   3.364   1.309
 1973SOL    HW1 6818   2.541   3.299   1.358
 1973SOL    HW2 6819   2.574   3.365   1.212
 1974SOL     OW 6820   6.265   6.160   3.791
 1974SOL    HW1 6821   6.196   6.093   3.814
 1974SOL    HW2 6822   6.353   6.133   3.830
 1975SOL     OW 6823   2.543   0.959   3.098
 1975SOL    HW1 6824   2.599   0.926   3.174
 1975SOL    HW2 6825   2.515   1.053   3.117
 1976SOL     OW 6826   1.003   5.484   0.071
 1976SOL    HW1 6827   1.003   5.386   0.093
 1976SOL    HW2 6828   1.066   5.532   0.132
 1977SOL     OW 6829   1.759   2.279   3.350
 1977SOL    HW1 6830   1.765   2.350   3.281
 1977SOL    HW2 6831   1.707   2.202   3.314
 1978SOL     OW 6832   1.216   0.136   4.125
 1978SOL    HW1 6833   1.145   0.065   4.123
 1978SOL    HW2 6834   1.287   0.113   4.059
 1979SOL     OW 6835   6.510   3.991   4.822
 1979SOL    HW1 6836   6.455   4.052   4.765
 1979SOL    HW2 6837   6.487   3.896   4.799
 1980SOL     OW 6838   3.188   0.794   6.896
 1980SOL    HW1 6839   3.156   0.725   6.831
 1980SOL    HW2 6840   3.193   0.753   6.988
 1981SOL     OW 6841   5.803   2.471   2.311
 1981SOL    HW1 6842   5.789   2.394   2.249
 1981SOL    HW2 6843   5.886   2.520   2.284
 1982SOL     OW 6844   6.257   4.341   5.936
 1982SOL    HW1 6845   6.301   4.295   6.013
 1982SOL    HW2 6846   6.163   4.367   5.962
 1983SOL     OW 6847   1.080   2.160   2.603
 1983SOL    HW1 6848   1.083   2.246   2.653
 1983SOL    HW2 6849   1.167   2.144   2.557
 1984SOL     OW 6850   5.554   0.494   5.532
 1984SOL    HW1 6851   5.482   0.457   5.474
 1984SOL    HW2 6852   5.585   0.423   5.596
 1985SOL     OW 6853   1.295   0.631   2.192
 1985SOL    HW1 6854   1.208   0.626   2.143
 1985SOL    HW2 6855   1.338   0.720   2.173
 1986SOL     OW 6856   1.478   0.594   0.498
 1986SOL    HW1 6857   1.487   0.515   0.559
 1986SOL    HW2 6858   1.568   0.636   0.484
 1987SOL     OW 6859   1.778   3.302   2.001
 1987SOL    HW1 6860   1.876   3.292   1.983
 1987SOL    HW2 6861   1.737   3.359   1.930
 1988SOL     OW 6862   4.398   4.847   0.833
 1988SOL    HW1 6863   4.445   4.885   0.913
 1988SOL    HW2 6864   4.434   4.757   0.812
 1989SOL     OW 6865   2.707   6.823   5.156
 1989SOL    HW1 6866   2.805   6.840   5.167
 1989SOL    HW2 6867   2.694   6.745   5.094
 1990SOL     OW 6868   3.455   6.998   1.155
 1990SOL    HW1 6869   3.500   0.066   1.171
 1990SOL    HW2 6870   3.383   6.984   1.224
 1991SOL     OW 6871   3.919   5.261   6.346
 1991SOL    HW1 6872   4.000   5.302   6.305
 1991SOL    HW2 6873   3.879   5.195   6.282
 1992SOL     OW 6874   1.604   0.125   6.629
 1992SOL    HW1 6875   1.535   0.060   6.598
 1992SOL    HW2 6876   1.687   0.116   6.573
 1993SOL     OW 6877   3.952   3.616   5.222
 1993SOL    HW1 6878   3.998   3.698   5.187
 1993SOL    HW2 6879   3.940   3.550   5.148
 1994SOL     OW 6880   1.542   2.206   1.405
 1994SOL    HW1 6881   1.586   2.124   1.368
 1994SOL    HW2 6882   1.583   2.288   1.365
 1995SOL     OW 6883   6.183   2.874   1.439
 1995SOL    HW1 6884   6.262   2.846   1.385
 1995SOL    HW2 6885   6.169   2.809   1.514
 1996SOL     OW 6886   2.956   3.717   0.613
 1996SOL    HW1 6887   2.925   3.811   0.600
 1996SOL    HW2 6888   3.051   3.709   0.583
 1997SOL     OW 6889   5.228   0.433   5.586
 1997SOL    HW1 6890   5.223   0.436   5.686
 1997SOL    HW2 6891   5.239   0.338   5.556
 1998SOL     OW 6892   3.150   3.944   5.573
 1998SOL    HW1 6893   3.054   3.929   5.598
 1998SOL    HW2 6894   3.195   3.856   5.557
 1999SOL     OW 6895   2.664   0.018   2.002
 1999SOL    HW1 6896   2.744   0.065   1.964
 1999SOL    HW2 6897   2.633   0.067   2.083
 2000SOL     OW 6898   3.741   2.012   5.759
 2000SOL    HW1 6899   3.660   1.996   5.815
 2000SOL    HW2 6900   3.715   2.063   5.677
 2001SOL     OW 6901   3.359   2.093   1.922
 2001SOL    HW1 6902   3.448   2.133   1.904
 2001SOL    HW2 6903   3.287   2.159   1.898
 2002SOL     OW 6904   0.832   5.658   6.264
 2002SOL    HW1 6905   0.746   5.617   6.235
 2002SOL    HW2 6906   0.818   5.756   6.283
 2003SOL     OW 6907   5.154   6.921   3.168
 2003SOL    HW1 6908   5.199   6.898   3.254
 2003SOL    HW2 6909   5.065   6.876   3.163
 2004SOL     OW 6910   5.160   1.120   4.940
 2004SOL    HW1 6911   5.150   1.022   4.960
 2004SOL    HW2 6912   5.071   1.165   4.950
 2005SOL     OW 6913   1.129   5.207   0.169
 2005SOL    HW1 6914   1.097   5.114   0.151
 2005SOL    HW2 6915   1.093   5.239   0.256
 2006SOL     OW 6916   5.136   4.180   4.000
 2006SOL    HW1 6917   5.046   4.205   4.036
 2006SOL    HW2 6918   5.141   4.081   3.989
 2007SOL     OW 6919   4.578   5.905   0.844
 2007SOL    HW1 6920   4.526   5.971   0.897
 2007SOL    HW2 6921   4.542   5.902   0.751
 2008SOL     OW 6922   1.002   5.797   2.923
 2008SOL    HW1 6923   0.963   5.788   3.015
 2008SOL    HW2 6924   0.969   5.723   2.865
 2009SOL     OW 6925   6.847   6.939   1.484
 2009SOL    HW1 6926   6.920   6.881   1.519
 2009SOL    HW2 6927   6.880   0.014   1.478
 2010SOL     OW 6928   1.092   1.245   0.787
 2010SOL    HW1 6929   1.131   1.160   0.752
 2010SOL    HW2 6930   1.057   1.300   0.711
 2011SOL     OW 6931   6.697   1.718   4.712
 2011SOL    HW1 6932   6.714   1.666   4.796
 2011SOL    HW2 6933   6.652   1.805   4.735
 2012SOL     OW 6934   0.941   3.167   1.380
 2012SOL    HW1 6935   0.997   3.085   1.393
 2012SOL    HW2 6936   0.877   3.177   1.456
 2013SOL     OW 6937   5.689   0.264   3.400
 2013SOL    HW1 6938   5.788   0.273   3.391
 2013SOL    HW2 6939   5.660   0.176   3.362
 2014SOL     OW 6940   1.483   5.133   3.145
 2014SOL    HW1 6941   1.438   5.058   3.095
 2014SOL    HW2 6942   1.528   5.194   3.080
 2015SOL     OW 6943   2.619   1.279   6.959
 2015SOL    HW1 6944   2.633   1.327   0.025
 2015SOL    HW2 6945   2.684   1.312   6.891
 2016SOL     OW 6946   0.756   5.351   5.467
 2016SOL    HW1 6947   0.765   5.260   5.427
 2016SOL    HW2 6948   0.675   5.353   5.526
 2017SOL     OW 6949   2.989   6.337   4.680
 2017SOL    HW1 6950   3.043   6.315   4.762
 2017SOL    HW2 6951   2.975   6.254   4.626
 2018SOL     OW 6952   5.974   6.056   6.190
 2018SOL    HW1 6953   6.017   5.978   6.236
 2018SOL    HW2 6954   5.917   6.106   6.255
 2019SOL     OW 6955   4.750   2.748   2.176
 2019SOL    HW1 6956   4.738   2.838   2.135
 2019SOL    HW2 6957   4.712   2.678   2.116
 2020SOL     OW 6958   1.221   5.008   4.962
 2020SOL    HW1 6959   1.195   4.928   4.907
 2020SOL    HW2 6960   1.262   5.077   4.903
 2021SOL     OW 6961   2.347   6.548   3.296
 2021SOL    HW1 6962   2.423   6.573   3.356
 2021SOL    HW2 6963   2.327   6.625   3.235
 2022SOL     OW 6964   2.032   3.575   2.479
 2022SOL    HW1 6965   1.932   3.569   2.487
 2022SOL    HW2 6966   2.058   3.574   2.383
 2023SOL     OW 6967   0.215   1.714   0.226
 2023SOL    HW1 6968   0.145   1.665   0.174
 2023SOL    HW2 6969   0.178   1.740   0.316
 2024SOL     OW 6970   0.289   0.507   2.686
 2024SOL    HW1 6971   0.357   0.580   2.681
 2024SOL    HW2 6972   0.205   0.542   2.728
 2025SOL     OW 6973   1.594   2.884   2.213
 2025SOL    HW1 6974   1.599   2.970   2.162
 2025SOL    HW2 6975   1.639   2.812   2.161
 2026SOL     OW 6976   1.663   2.558   6.015
 2026SOL    HW1 6977   1.712   2.493   6.074
 2026SOL    HW2 6978   1.691   2.545   5.920
 2027SOL     OW 6979   1.579   1.584   1.410
 2027SOL    HW1 6980   1.597   1.491   1.442
 2027SOL    HW2 6981   1.495   1.584   1.355
 2028SOL     OW 6982   3.447   1.524   6.635
 2028SOL    HW1 6983   3.364   1.580   6.639
 2028SOL    HW2 6984   3.431   1.446   6.574
 2029SOL     OW 6985   0.155   0.430   0.688
 2029SOL    HW1 6986   0.137   0.332   0.686
 2029SOL    HW2 6987   0.078   0.477   0.732
 2030SOL     OW 6988   2.396   0.974   3.424
 2030SOL    HW1 6989   2.348   0.962   3.337
 2030SOL    HW2 6990   2.357   1.052   3.473
 2031SOL     OW 6991   4.983   6.174   2.440
 2031SOL    HW1 6992   4.890   6.183   2.477
 2031SOL    HW2 6993   5.030   6.099   2.487
 2032SOL     OW 6994   3.952   6.583   1.886
 2032SOL    HW1 6995   3.855   6.578   1.864
 2032SOL    HW2 6996   4.000   6.637   1.817
 2033SOL     OW 6997   3.462   4.999   6.610
 2033SOL    HW1 6998   3.413   4.963   6.690
 2033SOL    HW2 6999   3.533   5.062   6.640
 2034SOL     OW 7000   3.039   0.186   4.361
 2034SOL    HW1 7001   3.015   0.123   4.287
 2034SOL    HW2 7002   3.047   0.136   4.447
 2035SOL     OW 7003   0.603   0.916   2.116
 2035SOL    HW1 7004   0.528   0.866   2.072
 2035SOL    HW2 7005   0.572   0.952   2.204
 2036SOL     OW 7006   0.734   5.849   3.410
 2036SOL    HW1 7007   0.801   5.915   3.375
 2036SOL    HW2 7008   0.650   5.897   3.435
 2037SOL     OW 7009   0.270   2.120   5.992
 2037SOL    HW1 7010   0.250   2.089   6.085
 2037SOL    HW2 7011   0.263   2.043   5.929
 2038SOL     OW 7012   1.191   1.319   6.646
 2038SOL    HW1 7013   1.163   1.379   6.721
 2038SOL    HW2 7014   1.278   1.276   6.670
 2039SOL     OW 7015   0.002   4.982   2.367
 2039SOL    HW1 7016   6.946   5.036   2.404
 2039SOL    HW2 7017   0.002   4.990   2.267
 2040SOL     OW 7018   3.208   2.888   5.019
 2040SOL    HW1 7019   3.264   2.832   5.081
 2040SOL    HW2 7020   3.113   2.857   5.022
 2041SOL     OW 7021   6.650   6.076   6.150
 2041SOL    HW1 7022   6.737   6.103   6.109
 2041SOL    HW2 7023   6.651   5.977   6.168
 2042SOL     OW 7024   5.996   5.612   0.110
 2042SOL    HW1 7025   6.033   5.648   0.025
 2042SOL    HW2 7026   5.923   5.547   0.090
 2043SOL     OW 7027   6.622   4.099   2.308
 2043SOL    HW1 7028   6.587   4.151   2.230
 2043SOL    HW2 7029   6.584   4.007   2.306
 2044SOL     OW 7030   4.982   0.038   2.072
 2044SOL    HW1 7031   5.046   0.113   2.060
 2044SOL    HW2 7032   4.901   0.071   2.122
 2045SOL     OW 7033   1.977   4.419   5.114
 2045SOL    HW1 7034   2.030   4.338   5.089
 2045SOL    HW2 7035   1.964   4.421   5.213
 2046SOL     OW 7036   6.525   0.855   4.412
 2046SOL    HW1 7037   6.560   0.842   4.319
 2046SOL    HW2 7038   6.531   0.768   4.462
 2047SOL     OW 7039   4.184   2.155   0.378
 2047SOL    HW1 7040   4.267   2.149   0.322
 2047SOL    HW2 7041   4.194   2.094   0.457
 2048SOL     OW 7042   2.625   5.515   0.397
 2048SOL    HW1 7043   2.664   5.524   0.305
 2048SOL    HW2 7044   2.634   5.421   0.428
 2049SOL     OW 7045   4.563   1.599   6.207
 2049SOL    HW1 7046   4.658   1.607   6.238
 2049SOL    HW2 7047   4.534   1.686   6.168
 2050SOL     OW 7048   6.220   2.239   3.549
 2050SOL    HW1 7049   6.167   2.260   3.632
 2050SOL    HW2 7050   6.190   2.152   3.512
 2051SOL     OW 7051   7.010   5.146   0.542
 2051SOL    HW1 7052   7.012   5.209   0.464
 2051SOL    HW2 7053   6.918   5.107   0.551
 2052SOL     OW 7054   0.545   4.164   0.468
 2052SOL    HW1 7055   0.557   4.129   0.561
 2052SOL    HW2 7056   0.463   4.221   0.464
 2053SOL     OW 7057   6.115   0.756   0.113
 2053SOL    HW1 7058   6.200   0.786   0.068
 2053SOL    HW2 7059   6.058   0.707   0.047
 2054SOL     OW 7060   4.865   2.960   1.747
 2054SOL    HW1 7061   4.918   2.888   1.790
 2054SOL    HW2 7062   4.788   2.985   1.806
 2055SOL     OW 7063   6.284   2.931   2.970
 2055SOL    HW1 7064   6.186   2.949   2.970
 2055SOL    HW2 7065   6.333   3.016   2.990
 2056SOL     OW 7066   2.655   0.807   2.867
 2056SOL    HW1 7067   2.624   0.889   2.916
 2056SOL    HW2 7068   2.591   0.732   2.882
 2057SOL     OW 7069   5.542   2.138   3.710
 2057SOL    HW1 7070   5.519   2.181   3.623
 2057SOL    HW2 7071   5.639   2.113   3.710
 2058SOL     OW 7072   1.119   1.385   3.137
 2058SOL    HW1 7073   1.179   1.466   3.140
 2058SOL    HW2 7074   1.138   1.332   3.055
 2059SOL     OW 7075   2.829   6.456   6.213
 2059SOL    HW1 7076   2.849   6.370   6.261
 2059SOL    HW2 7077   2.886   6.462   6.131
 2060SOL     OW 7078   6.689   4.033   0.693
 2060SOL    HW1 7079   6.596   4.015   0.724
 2060SOL    HW2 7080   6.754   3.995   0.758
 2061SOL     OW 7081   0.990   1.668   3.064
 2061SOL    HW1 7082   1.038   1.584   3.086
 2061SOL    HW2 7083   0.910   1.677   3.123
 2062SOL     OW 7084   5.708   6.848   3.479
 2062SOL    HW1 7085   5.676   6.774   3.420
 2062SOL    HW2 7086   5.806   6.861   3.465
 2063SOL     OW 7087   1.657   0.693   5.899
 2063SOL    HW1 7088   1.737   0.684   5.958
 2063SOL    HW2 7089   1.633   0.789   5.888
 2064SOL     OW 7090   0.933   1.585   5.878
 2064SOL    HW1 7091   0.918   1.644   5.957
 2064SOL    HW2 7092   0.865   1.511   5.878
 2065SOL     OW 7093   6.595   3.477   2.676
 2065SOL    HW1 7094   6.578   3.419   2.596
 2065SOL    HW2 7095   6.593   3.421   2.759
 2066SOL     OW 7096   0.729   6.174   3.893
 2066SOL    HW1 7097   0.676   6.235   3.951
 2066SOL    HW2 7098   0.687   6.083   3.893
 2067SOL     OW 7099   6.347   5.986   0.473
 2067SOL    HW1 7100   6.395   5.910   0.429
 2067SOL    HW2 7101   6.409   6.034   0.535
 2068SOL     OW 7102   1.240   1.766   5.776
 2068SOL    HW1 7103   1.247   1.667   5.769
 2068SOL    HW2 7104   1.236   1.806   5.685
 2069SOL     OW 7105   1.141   3.072   3.664
 2069SOL    HW1 7106   1.104   3.136   3.597
 2069SOL    HW2 7107   1.141   2.979   3.626
 2070SOL     OW 7108   1.666   0.739   2.865
 2070SOL    HW1 7109   1.685   0.831   2.898
 2070SOL    HW2 7110   1.601   0.743   2.789
 2071SOL     OW 7111   6.834   5.860   5.481
 2071SOL    HW1 7112   6.767   5.793   5.513
 2071SOL    HW2 7113   6.814   5.949   5.521
 2072SOL     OW 7114   4.350   6.542   2.067
 2072SOL    HW1 7115   4.378   6.454   2.106
 2072SOL    HW2 7116   4.314   6.600   2.139
 2073SOL     OW 7117   3.440   0.310   4.266
 2073SOL    HW1 7118   3.413   0.226   4.314
 2073SOL    HW2 7119   3.532   0.336   4.293
 2074SOL     OW 7120   0.818   3.404   0.797
 2074SOL    HW1 7121   0.886   3.395   0.870
 2074SOL    HW2 7122   0.854   3.464   0.725
 2075SOL     OW 7123   5.393   2.936   1.636
 2075SOL    HW1 7124   5.394   2.971   1.542
 2075SOL    HW2 7125   5.305   2.956   1.678
 2076SOL     OW 7126   4.935   6.973   6.917
 2076SOL    HW1 7127   4.847   6.990   6.873
 2076SOL    HW2 7128   4.979   6.894   6.875
 2077SOL     OW 7129   5.000   2.141   2.542
 2077SOL    HW1 7130   5.005   2.097   2.632
 2077SOL    HW2 7131   4.942   2.086   2.482
 2078SOL     OW 7132   1.465   6.447   6.450
 2078SOL    HW1 7133   1.563   6.466   6.451
 2078SOL    HW2 7134   1.449   6.356   6.489
 2079SOL     OW 7135   5.725   1.068   3.382
 2079SOL    HW1 7136   5.804   1.105   3.430
 2079SOL    HW2 7137   5.735   0.969   3.371
 2080SOL     OW 7138   1.314   0.884   4.568
 2080SOL    HW1 7139   1.362   0.811   4.519
 2080SOL    HW2 7140   1.360   0.971   4.552
 2081SOL     OW 7141   2.153   5.369   4.755
 2081SOL    HW1 7142   2.147   5.382   4.854
 2081SOL    HW2 7143   2.163   5.272   4.734
 2082SOL     OW 7144   6.808   0.226   2.941
 2082SOL    HW1 7145   6.802   0.259   3.036
 2082SOL    HW2 7146   6.802   0.126   2.940
 2083SOL     OW 7147   4.689   4.693   6.516
 2083SOL    HW1 7148   4.679   4.785   6.479
 2083SOL    HW2 7149   4.739   4.697   6.602
 2084SOL     OW 7150   6.684   4.192   3.863
 2084SOL    HW1 7151   6.718   4.206   3.770
 2084SOL    HW2 7152   6.621   4.114   3.864
 2085SOL     OW 7153   4.750   0.991   6.609
 2085SOL    HW1 7154   4.727   1.067   6.548
 2085SOL    HW2 7155   4.845   0.964   6.594
 2086SOL     OW 7156   3.458   6.787   5.457
 2086SOL    HW1 7157   3.502   6.701   5.482
 2086SOL    HW2 7158   3.514   6.835   5.390
 2087SOL     OW 7159   5.327   7.016   1.935
 2087SOL    HW1 7160   5.319   0.042   2.023
 2087SOL    HW2 7161   5.287   6.924   1.942
 2088SOL     OW 7162   2.735   6.146   0.576
 2088SOL    HW1 7163   2.650   6.127   0.527
 2088SOL    HW2 7164   2.763   6.065   0.627
 2089SOL     OW 7165   5.212   2.394   6.642
 2089SOL    HW1 7166   5.116   2.420   6.655
 2089SOL    HW2 7167   5.267   2.434   6.716
 2090SOL     OW 7168   3.537   3.862   5.486
 2090SOL    HW1 7169   3.586   3.791   5.435
 2090SOL    HW2 7170   3.449   3.825   5.518
 2091SOL     OW 7171   6.539   5.330   0.029
 2091SOL    HW1 7172   6.481   5.390   0.085
 2091SOL    HW2 7173   6.481   5.278   6.986
 2092SOL     OW 7174   4.284   4.838   6.877
 2092SOL    HW1 7175   4.272   4.865   6.972
 2092SOL    HW2 7176   4.218   4.886   6.819
 2093SOL     OW 7177   2.696   2.575   1.793
 2093SOL    HW1 7178   2.772   2.510   1.788
 2093SOL    HW2 7179   2.610   2.525   1.788
 2094SOL     OW 7180   5.981   1.793   0.996
 2094SOL    HW1 7181   5.965   1.855   1.073
 2094SOL    HW2 7182   5.997   1.847   0.913
 2095SOL     OW 7183   5.077   0.262   5.161
 2095SOL    HW1 7184   5.147   0.334   5.157
 2095SOL    HW2 7185   5.049   0.238   5.068
 2096SOL     OW 7186   4.408   4.556   2.609
 2096SOL    HW1 7187   4.335   4.618   2.577
 2096SOL    HW2 7188   4.450   4.594   2.691
 2097SOL     OW 7189   1.419   3.266   6.780
 2097SOL    HW1 7190   1.409   3.340   6.846
 2097SOL    HW2 7191   1.498   3.284   6.721
 2098SOL     OW 7192   4.166   5.283   3.373
 2098SOL    HW1 7193   4.178   5.258   3.469
 2098SOL    HW2 7194   4.082   5.244   3.338
 2099SOL     OW 7195   2.690   3.112   5.411
 2099SOL    HW1 7196   2.727   3.033   5.460
 2099SOL    HW2 7197   2.638   3.081   5.331
 2100SOL     OW 7198   4.262   3.255   5.542
 2100SOL    HW1 7199   4.184   3.198   5.566
 2100SOL    HW2 7200   4.277   3.252   5.443
 2101SOL     OW 7201   1.720   5.875   3.054
 2101SOL    HW1 7202   1.711   5.864   3.153
 2101SOL    HW2 7203   1.768   5.960   3.034
 2102SOL     OW 7204   6.094   5.188   1.975
 2102SOL    HW1 7205   6.144   5.114   1.930
 2102SOL    HW2 7206   6.110   5.274   1.927
 2103SOL     OW 7207   3.103   3.629   6.108
 2103SOL    HW1 7208   3.145   3.538   6.099
 2103SOL    HW2 7209   3.173   3.699   6.102
 2104SOL     OW 7210   1.098   3.281   0.416
 2104SOL    HW1 7211   1.122   3.362   0.470
 2104SOL    HW2 7212   0.999   3.282   0.398
 2105SOL     OW 7213   4.984   5.588   4.375
 2105SOL    HW1 7214   5.083   5.577   4.388
 2105SOL    HW2 7215   4.948   5.654   4.441
 2106SOL     OW 7216   4.652   4.289   0.736
 2106SOL    HW1 7217   4.639   4.191   0.719
 2106SOL    HW2 7218   4.724   4.302   0.804
 2107SOL     OW 7219   5.212   3.053   5.438
 2107SOL    HW1 7220   5.152   3.094   5.369
 2107SOL    HW2 7221   5.159   2.992   5.497
 2108SOL     OW 7222   0.085   6.410   5.273
 2108SOL    HW1 7223   0.101   6.312   5.283
 2108SOL    HW2 7224   7.009   6.426   5.251
 2109SOL     OW 7225   4.527   6.089   3.371
 2109SOL    HW1 7226   4.511   6.002   3.416
 2109SOL    HW2 7227   4.614   6.128   3.403
 2110SOL     OW 7228   3.012   2.575   6.216
 2110SOL    HW1 7229   3.010   2.514   6.295
 2110SOL    HW2 7230   3.002   2.522   6.132
 2111SOL     OW 7231   1.607   2.137   0.105
 2111SOL    HW1 7232   1.607   2.181   0.196
 2111SOL    HW2 7233   1.643   2.202   0.038
 2112SOL     OW 7234   5.422   2.552   0.492
 2112SOL    HW1 7235   5.406   2.606   0.575
 2112SOL    HW2 7236   5.346   2.565   0.428
 2113SOL     OW 7237   0.932   0.637   5.391
 2113SOL    HW1 7238   0.894   0.545   5.394
 2113SOL    HW2 7239   1.007   0.645   5.456
 2114SOL     OW 7240   1.830   2.872   1.008
 2114SOL    HW1 7241   1.850   2.953   0.955
 2114SOL    HW2 7242   1.834   2.894   1.106
 2115SOL     OW 7243   2.043   3.318   2.687
 2115SOL    HW1 7244   2.021   3.236   2.635
 2115SOL    HW2 7245   2.067   3.392   2.624
 2116SOL     OW 7246   0.319   4.943   3.317
 2116SOL    HW1 7247   0.400   4.972   3.368
 2116SOL    HW2 7248   0.303   5.005   3.240
 2117SOL     OW 7249   6.883   4.495   1.652
 2117SOL    HW1 7250   6.980   4.476   1.667
 2117SOL    HW2 7251   6.860   4.585   1.689
 2118SOL     OW 7252   6.765   3.340   1.703
 2118SOL    HW1 7253   6.745   3.243   1.694
 2118SOL    HW2 7254   6.864   3.354   1.705
 2119SOL     OW 7255   2.457   5.881   1.209
 2119SOL    HW1 7256   2.421   5.961   1.161
 2119SOL    HW2 7257   2.382   5.831   1.252
 2120SOL     OW 7258   0.657   4.839   4.073
 2120SOL    HW1 7259   0.750   4.877   4.074
 2120SOL    HW2 7260   0.660   4.743   4.100
 2121SOL     OW 7261   1.148   4.101   5.655
 2121SOL    HW1 7262   1.098   4.018   5.631
 2121SOL    HW2 7263   1.222   4.116   5.590
 2122SOL     OW 7264   5.330   4.164   6.182
 2122SOL    HW1 7265   5.317   4.218   6.266
 2122SOL    HW2 7266   5.318   4.224   6.103
 2123SOL     OW 7267   6.630   5.685   2.083
 2123SOL    HW1 7268   6.548   5.740   2.094
 2123SOL    HW2 7269   6.644   5.665   1.986
 2124SOL     OW 7270   2.921   1.780   1.777
 2124SOL    HW1 7271   2.945   1.876   1.788
 2124SOL    HW2 7272   2.997   1.731   1.733
 2125SOL     OW 7273   2.031   0.620   1.429
 2125SOL    HW1 7274   2.087   0.702   1.437
 2125SOL    HW2 7275   2.074   0.556   1.365
 2126SOL     OW 7276   3.895   0.941   6.938
 2126SOL    HW1 7277   3.860   1.034   6.954
 2126SOL    HW2 7278   3.886   0.918   6.841
 2127SOL     OW 7279   6.595   3.179   4.480
 2127SOL    HW1 7280   6.593   3.205   4.576
 2127SOL    HW2 7281   6.655   3.241   4.430
 2128SOL     OW 7282   6.453   3.446   3.646
 2128SOL    HW1 7283   6.491   3.511   3.580
 2128SOL    HW2 7284   6.461   3.353   3.609
 2129SOL     OW 7285   4.424   3.427   5.770
 2129SOL    HW1 7286   4.345   3.399   5.715
 2129SOL    HW2 7287   4.441   3.524   5.756
 2130SOL     OW 7288   3.306   0.929   1.908
 2130SOL    HW1 7289   3.378   0.972   1.963
 2130SOL    HW2 7290   3.251   0.870   1.967
 2131SOL     OW 7291   6.415   0.291   0.176
 2131SOL    HW1 7292   6.417   0.240   0.262
 2131SOL    HW2 7293   6.474   0.247   0.109
 2132SOL     OW 7294   3.820   1.969   1.487
 2132SOL    HW1 7295   3.790   2.056   1.524
 2132SOL    HW2 7296   3.855   1.911   1.562
 2133SOL     OW 7297   2.832   3.226   6.373
 2133SOL    HW1 7298   2.921   3.247   6.413
 2133SOL    HW2 7299   2.759   3.247   6.438
 2134SOL     OW 7300   0.340   2.873   0.011
 2134SOL    HW1 7301   0.296   2.895   0.098
 2134SOL    HW2 7302   0.368   2.957   6.985
 2135SOL     OW 7303   0.166   3.991   4.194
 2135SOL    HW1 7304   0.159   3.892   4.208
 2135SOL    HW2 7305   0.109   4.038   4.260
 2136SOL     OW 7306   1.719   4.225   2.735
 2136SOL    HW1 7307   1.649   4.260   2.673
 2136SOL    HW2 7308   1.681   4.150   2.790
 2137SOL     OW 7309   3.076   5.526   5.347
 2137SOL    HW1 7310   3.095   5.619   5.380
 2137SOL    HW2 7311   3.157   5.490   5.301
 2138SOL     OW 7312   6.666   6.603   2.914
 2138SOL    HW1 7313   6.698   6.525   2.967
 2138SOL    HW2 7314   6.594   6.574   2.851
 2139SOL     OW 7315   4.502   0.745   3.543
 2139SOL    HW1 7316   4.506   0.675   3.614
 2139SOL    HW2 7317   4.451   0.710   3.464
 2140SOL     OW 7318   3.229   0.444   4.134
 2140SOL    HW1 7319   3.304   0.402   4.185
 2140SOL    HW2 7320   3.199   0.382   4.062
 2141SOL     OW 7321   6.651   2.927   2.404
 2141SOL    HW1 7322   6.604   2.985   2.337
 2141SOL    HW2 7323   6.729   2.976   2.442
 2142SOL     OW 7324   1.469   1.240   3.443
 2142SOL    HW1 7325   1.437   1.223   3.536
 2142SOL    HW2 7326   1.563   1.271   3.446
 2143SOL     OW 7327   3.312   5.068   1.331
 2143SOL    HW1 7328   3.384   5.113   1.384
 2143SOL    HW2 7329   3.314   4.969   1.349
 2144SOL     OW 7330   0.452   5.618   4.204
 2144SOL    HW1 7331   0.551   5.605   4.214
 2144SOL    HW2 7332   0.405   5.572   4.279
 2145SOL     OW 7333   3.833   6.393   4.289
 2145SOL    HW1 7334   3.753   6.414   4.346
 2145SOL    HW2 7335   3.845   6.465   4.221
 2146SOL     OW 7336   2.270   3.380   0.805
 2146SOL    HW1 7337   2.276   3.480   0.802
 2146SOL    HW2 7338   2.338   3.341   0.743
 2147SOL     OW 7339   5.985   1.597   6.131
 2147SOL    HW1 7340   6.059   1.635   6.187
 2147SOL    HW2 7341   5.897   1.634   6.163
 2148SOL     OW 7342   6.245   3.345   6.243
 2148SOL    HW1 7343   6.279   3.405   6.316
 2148SOL    HW2 7344   6.204   3.400   6.170
 2149SOL     OW 7345   2.442   1.806   1.077
 2149SOL    HW1 7346   2.391   1.802   0.991
 2149SOL    HW2 7347   2.379   1.790   1.153
 2150SOL     OW 7348   2.440   2.550   2.130
 2150SOL    HW1 7349   2.480   2.478   2.074
 2150SOL    HW2 7350   2.447   2.525   2.226
 2151SOL     OW 7351   1.916   6.651   6.462
 2151SOL    HW1 7352   1.875   6.741   6.478
 2151SOL    HW2 7353   2.008   6.649   6.500
 2152SOL     OW 7354   3.715   4.858   2.221
 2152SOL    HW1 7355   3.641   4.852   2.289
 2152SOL    HW2 7356   3.679   4.834   2.131
 2153SOL     OW 7357   4.547   1.527   2.535
 2153SOL    HW1 7358   4.574   1.435   2.561
 2153SOL    HW2 7359   4.477   1.561   2.597
 2154SOL     OW 7360   4.862   0.423   4.535
 2154SOL    HW1 7361   4.902   0.505   4.576
 2154SOL    HW2 7362   4.826   0.445   4.445
 2155SOL     OW 7363   4.059   6.796   1.186
 2155SOL    HW1 7364   4.086   6.707   1.149
 2155SOL    HW2 7365   3.963   6.813   1.164
 2156SOL     OW 7366   0.647   1.170   5.174
 2156SOL    HW1 7367   0.675   1.142   5.082
 2156SOL    HW2 7368   0.725   1.211   5.221
 2157SOL     OW 7369   6.018   6.660   3.039
 2157SOL    HW1 7370   6.006   6.561   3.048
 2157SOL    HW2 7371   6.115   6.681   3.034
 2158SOL     OW 7372   3.874   6.157   1.036
 2158SOL    HW1 7373   3.802   6.207   0.989
 2158SOL    HW2 7374   3.833   6.089   1.097
 2159SOL     OW 7375   1.492   0.710   4.747
 2159SOL    HW1 7376   1.535   0.797   4.771
 2159SOL    HW2 7377   1.405   0.728   4.700
 2160SOL     OW 7378   4.497   4.135   0.037
 2160SOL    HW1 7379   4.433   4.205   0.005
 2160SOL    HW2 7380   4.454   4.045   0.032
 2161SOL     OW 7381   5.874   4.508   2.070
 2161SOL    HW1 7382   5.891   4.457   1.986
 2161SOL    HW2 7383   5.961   4.524   2.117
 2162SOL     OW 7384   3.516   0.413   2.165
 2162SOL    HW1 7385   3.431   0.364   2.148
 2162SOL    HW2 7386   3.525   0.433   2.262
 2163SOL     OW 7387   1.716   4.317   0.342
 2163SOL    HW1 7388   1.733   4.356   0.432
 2163SOL    HW2 7389   1.653   4.375   0.291
 2164SOL     OW 7390   1.895   1.774   6.634
 2164SOL    HW1 7391   1.938   1.855   6.675
 2164SOL    HW2 7392   1.843   1.802   6.553
 2165SOL     OW 7393   6.908   2.226   3.403
 2165SOL    HW1 7394   6.985   2.278   3.366
 2165SOL    HW2 7395   6.885   2.261   3.494
 2166SOL     OW 7396   1.443   2.717   4.624
 2166SOL    HW1 7397   1.413   2.731   4.719
 2166SOL    HW2 7398   1.411   2.793   4.568
 2167SOL     OW 7399   1.915   2.102   3.853
 2167SOL    HW1 7400   1.985   2.083   3.921
 2167SOL    HW2 7401   1.825   2.084   3.892
 2168SOL     OW 7402   0.777   1.846   3.285
 2168SOL    HW1 7403   0.804   1.900   3.205
 2168SOL    HW2 7404   0.695   1.793   3.263
 2169SOL     OW 7405   5.562   2.299   0.181
 2169SOL    HW1 7406   5.623   2.376   0.204
 2169SOL    HW2 7407   5.617   2.221   0.151
 2170SOL     OW 7408   6.650   4.226   4.922
 2170SOL    HW1 7409   6.744   4.213   4.891
 2170SOL    HW2 7410   6.597   4.143   4.904
 2171SOL     OW 7411   0.140   5.529   1.589
 2171SOL    HW1 7412   0.179   5.617   1.614
 2171SOL    HW2 7413   0.095   5.489   1.669
 2172SOL     OW 7414   2.356   1.940   6.753
 2172SOL    HW1 7415   2.309   1.852   6.761
 2172SOL    HW2 7416   2.431   1.932   6.687
 2173SOL     OW 7417   4.298   0.473   5.621
 2173SOL    HW1 7418   4.220   0.411   5.611
 2173SOL    HW2 7419   4.265   0.564   5.647
 2174SOL     OW 7420   6.783   5.598   5.022
 2174SOL    HW1 7421   6.757   5.517   5.075
 2174SOL    HW2 7422   6.871   5.582   4.978
 2175SOL     OW 7423   1.534   2.735   4.160
 2175SOL    HW1 7424   1.568   2.692   4.244
 2175SOL    HW2 7425   1.535   2.834   4.171
 2176SOL     OW 7426   5.719   2.127   0.797
 2176SOL    HW1 7427   5.667   2.143   0.881
 2176SOL    HW2 7428   5.776   2.045   0.809
 2177SOL     OW 7429   6.912   1.568   2.485
 2177SOL    HW1 7430   6.936   1.589   2.580
 2177SOL    HW2 7431   6.845   1.635   2.452
 2178SOL     OW 7432   1.701   1.707   2.274
 2178SOL    HW1 7433   1.663   1.614   2.276
 2178SOL    HW2 7434   1.710   1.737   2.179
 2179SOL     OW 7435   1.815   4.967   5.873
 2179SOL    HW1 7436   1.844   5.028   5.946
 2179SOL    HW2 7437   1.795   5.021   5.791
 2180SOL     OW 7438   1.652   2.447   2.313
 2180SOL    HW1 7439   1.698   2.534   2.293
 2180SOL    HW2 7440   1.705   2.371   2.276
 2181SOL     OW 7441   4.571   4.770   4.353
 2181SOL    HW1 7442   4.619   4.718   4.283
 2181SOL    HW2 7443   4.541   4.708   4.426
 2182SOL     OW 7444   1.958   4.044   3.619
 2182SOL    HW1 7445   1.883   3.991   3.658
 2182SOL    HW2 7446   1.950   4.140   3.645
 2183SOL     OW 7447   2.320   4.493   6.801
 2183SOL    HW1 7448   2.303   4.452   6.891
 2183SOL    HW2 7449   2.346   4.421   6.736
 2184SOL     OW 7450   4.422   0.810   6.117
 2184SOL    HW1 7451   4.512   0.811   6.074
 2184SOL    HW2 7452   4.410   0.893   6.171
 2185SOL     OW 7453   0.753   0.607   0.832
 2185SOL    HW1 7454   0.833   0.600   0.893
 2185SOL    HW2 7455   0.672   0.631   0.885
 2186SOL     OW 7456   6.414   5.551   0.126
 2186SOL    HW1 7457   6.427   5.619   0.055
 2186SOL    HW2 7458   6.351   5.586   0.195
 2187SOL     OW 7459   6.930   5.831   2.464
 2187SOL    HW1 7460   6.916   5.848   2.367
 2187SOL    HW2 7461   0.008   5.820   2.482
 2188SOL     OW 7462   0.128   5.714   5.184
 2188SOL    HW1 7463   0.216   5.759   5.200
 2188SOL    HW2 7464   0.142   5.627   5.138
 2189SOL     OW 7465   2.326   0.102   1.705
 2189SOL    HW1 7466   2.245   0.159   1.689
 2189SOL    HW2 7467   2.308   0.039   1.781
 2190SOL     OW 7468   6.853   3.575   1.936
 2190SOL    HW1 7469   6.817   3.668   1.934
 2190SOL    HW2 7470   6.787   3.515   1.982
 2191SOL     OW 7471   2.671   1.824   6.246
 2191SOL    HW1 7472   2.761   1.833   6.290
 2191SOL    HW2 7473   2.669   1.879   6.162
 2192SOL     OW 7474   4.995   1.037   2.378
 2192SOL    HW1 7475   4.953   1.050   2.468
 2192SOL    HW2 7476   5.029   1.124   2.344
 2193SOL     OW 7477   5.785   7.014   6.807
 2193SOL    HW1 7478   5.741   6.989   6.893
 2193SOL    HW2 7479   5.884   7.005   6.817
 2194SOL     OW 7480   2.049   4.499   6.023
 2194SOL    HW1 7481   2.031   4.495   5.925
 2194SOL    HW2 7482   2.147   4.513   6.038
 2195SOL     OW 7483   6.761   6.997   5.204
 2195SOL    HW1 7484   6.663   6.989   5.223
 2195SOL    HW2 7485   6.777   0.058   5.148
 2196SOL     OW 7486   3.734   0.325   4.643
 2196SOL    HW1 7487   3.780   0.330   4.732
 2196SOL    HW2 7488   3.755   0.238   4.600
 2197SOL     OW 7489   2.946   3.321   6.680
 2197SOL    HW1 7490   2.923   3.351   6.773
 2197SOL    HW2 7491   2.902   3.382   6.614
 2198SOL     OW 7492   5.414   0.225   1.248
 2198SOL    HW1 7493   5.366   0.141   1.223
 2198SOL    HW2 7494   5.449   0.218   1.341
 2199SOL     OW 7495   5.154   6.089   3.789
 2199SOL    HW1 7496   5.183   6.175   3.830
 2199SOL    HW2 7497   5.058   6.094   3.764
 2200SOL     OW 7498   2.112   2.051   4.068
 2200SOL    HW1 7499   2.112   2.151   4.068
 2200SOL    HW2 7500   2.205   2.018   4.082
 2201SOL     OW 7501   6.355   2.940   3.440
 2201SOL    HW1 7502   6.351   2.913   3.536
 2201SOL    HW2 7503   6.416   3.019   3.431
 2202SOL     OW 7504   3.514   5.866   2.397
 2202SOL    HW1 7505   3.442   5.866   2.328
 2202SOL    HW2 7506   3.602   5.849   2.355
 2203SOL     OW 7507   1.891   3.105   1.221
 2203SOL    HW1 7508   1.986   3.105   1.189
 2203SOL    HW2 7509   1.836   3.166   1.163
 2204SOL     OW 7510   5.018   1.743   1.078
 2204SOL    HW1 7511   5.090   1.690   1.033
 2204SOL    HW2 7512   4.950   1.772   1.011
 2205SOL     OW 7513   0.857   6.518   6.646
 2205SOL    HW1 7514   0.940   6.511   6.591
 2205SOL    HW2 7515   0.863   6.598   6.707
 2206SOL     OW 7516   3.551   5.108   5.786
 2206SOL    HW1 7517   3.603   5.189   5.814
 2206SOL    HW2 7518   3.562   5.036   5.854
 2207SOL     OW 7519   2.591   5.150   6.266
 2207SOL    HW1 7520   2.530   5.226   6.289
 2207SOL    HW2 7521   2.682   5.186   6.243
 2208SOL     OW 7522   1.539   5.056   3.403
 2208SOL    HW1 7523   1.565   4.960   3.396
 2208SOL    HW2 7524   1.493   5.084   3.319
 2209SOL     OW 7525   1.576   0.149   5.626
 2209SOL    HW1 7526   1.600   0.076   5.562
 2209SOL    HW2 7527   1.578   0.114   5.719
 2210SOL     OW 7528   0.305   4.254   4.260
 2210SOL    HW1 7529   0.280   4.320   4.190
 2210SOL    HW2 7530   0.310   4.163   4.218
 2211SOL     OW 7531   6.557   0.435   0.604
 2211SOL    HW1 7532   6.635   0.430   0.541
 2211SOL    HW2 7533   6.488   0.498   0.567
 2212SOL     OW 7534   2.817   5.896   0.675
 2212SOL    HW1 7535   2.891   5.901   0.742
 2212SOL    HW2 7536   2.798   5.800   0.653
 2213SOL     OW 7537   3.466   1.432   5.114
 2213SOL    HW1 7538   3.385   1.452   5.060
 2213SOL    HW2 7539   3.494   1.515   5.164
 2214SOL     OW 7540   3.392   4.114   4.773
 2214SOL    HW1 7541   3.361   4.079   4.685
 2214SOL    HW2 7542   3.313   4.143   4.827
 2215SOL     OW 7543   5.687   1.439   0.083
 2215SOL    HW1 7544   5.668   1.473   0.174
 2215SOL    HW2 7545   5.768   1.484   0.045
 2216SOL     OW 7546   1.555   0.877   0.004
 2216SOL    HW1 7547   1.645   0.914   6.999
 2216SOL    HW2 7548   1.566   0.782   0.034
 2217SOL     OW 7549   3.870   6.939   2.431
 2217SOL    HW1 7550   3.850   6.975   2.340
 2217SOL    HW2 7551   3.932   6.860   2.423
 2218SOL     OW 7552   6.631   5.003   6.960
 2218SOL    HW1 7553   6.652   5.094   6.924
 2218SOL    HW2 7554   6.664   4.997   0.034
 2219SOL     OW 7555   5.473   1.278   0.539
 2219SOL    HW1 7556   5.561   1.292   0.494
 2219SOL    HW2 7557   5.487   1.229   0.625
 2220SOL     OW 7558   2.264   6.291   5.326
 2220SOL    HW1 7559   2.231   6.371   5.277
 2220SOL    HW2 7560   2.353   6.264   5.290
 2221SOL     OW 7561   5.903   1.745   5.340
 2221SOL    HW1 7562   5.925   1.719   5.247
 2221SOL    HW2 7563   5.876   1.664   5.392
 2222SOL     OW 7564   5.429   0.784   0.633
 2222SOL    HW1 7565   5.379   0.789   0.720
 2222SOL    HW2 7566   5.497   0.857   0.631
 2223SOL     OW 7567   5.536   1.287   5.789
 2223SOL    HW1 7568   5.564   1.383   5.786
 2223SOL    HW2 7569   5.606   1.230   5.745
 2224SOL     OW 7570   6.846   3.463   0.523
 2224SOL    HW1 7571   6.801   3.525   0.459
 2224SOL    HW2 7572   6.827   3.493   0.617
 2225SOL     OW 7573   6.022   6.774   3.824
 2225SOL    HW1 7574   5.948   6.768   3.892
 2225SOL    HW2 7575   6.048   6.681   3.796
 2226SOL     OW 7576   3.863   6.002   0.749
 2226SOL    HW1 7577   3.882   6.094   0.783
 2226SOL    HW2 7578   3.832   5.945   0.825
 2227SOL     OW 7579   5.553   2.935   6.812
 2227SOL    HW1 7580   5.512   2.990   6.885
 2227SOL    HW2 7581   5.562   2.991   6.730
 2228SOL     OW 7582   4.494   5.536   1.312
 2228SOL    HW1 7583   4.469   5.607   1.378
 2228SOL    HW2 7584   4.411   5.491   1.278
 2229SOL     OW 7585   4.407   2.631   5.436
 2229SOL    HW1 7586   4.470   2.700   5.400
 2229SOL    HW2 7587   4.330   2.676   5.481
 2230SOL     OW 7588   6.032   6.388   0.332
 2230SOL    HW1 7589   6.034   6.297   0.373
 2230SOL    HW2 7590   6.104   6.444   0.373
 2231SOL     OW 7591   0.370   1.083   1.641
 2231SOL    HW1 7592   0.365   1.160   1.578
 2231SOL    HW2 7593   0.342   1.113   1.732
 2232SOL     OW 7594   0.927   2.175   4.397
 2232SOL    HW1 7595   0.885   2.085   4.388
 2232SOL    HW2 7596   0.994   2.187   4.324
 2233SOL     OW 7597   2.257   3.110   0.513
 2233SOL    HW1 7598   2.240   3.069   0.603
 2233SOL    HW2 7599   2.171   3.139   0.472
 2234SOL     OW 7600   4.476   1.614   1.105
 2234SOL    HW1 7601   4.414   1.544   1.068
 2234SOL    HW2 7602   4.449   1.638   1.198
 2235SOL     OW 7603   2.836   0.528   1.689
 2235SOL    HW1 7604   2.868   0.558   1.598
 2235SOL    HW2 7605   2.904   0.553   1.758
 2236SOL     OW 7606   2.354   3.838   6.690
 2236SOL    HW1 7607   2.291   3.760   6.691
 2236SOL    HW2 7608   2.419   3.827   6.615
 2237SOL     OW 7609   6.235   4.337   3.756
 2237SOL    HW1 7610   6.165   4.381   3.700
 2237SOL    HW2 7611   6.325   4.368   3.728
 2238SOL     OW 7612   4.364   5.130   1.482
 2238SOL    HW1 7613   4.344   5.040   1.521
 2238SOL    HW2 7614   4.279   5.180   1.469
 2239SOL     OW 7615   3.794   4.980   4.059
 2239SOL    HW1 7616   3.750   4.947   4.143
 2239SOL    HW2 7617   3.728   5.033   4.005
 2240SOL     OW 7618   3.381   5.900   3.480
 2240SOL    HW1 7619   3.455   5.863   3.424
 2240SOL    HW2 7620   3.401   5.884   3.577
 2241SOL     OW 7621   0.787   5.495   3.625
 2241SOL    HW1 7622   0.805   5.418   3.686
 2241SOL    HW2 7623   0.730   5.562   3.672
 2242SOL     OW 7624   5.584   3.226   2.874
 2242SOL    HW1 7625   5.535   3.311   2.891
 2242SOL    HW2 7626   5.617   3.225   2.780
 2243SOL     OW 7627   1.821   6.571   5.875
 2243SOL    HW1 7628   1.811   6.514   5.793
 2243SOL    HW2 7629   1.911   6.615   5.875
 2244SOL     OW 7630   2.475   6.587   1.359
 2244SOL    HW1 7631   2.509   6.517   1.296
 2244SOL    HW2 7632   2.553   6.628   1.407
 2245SOL     OW 7633   0.421   1.917   1.286
 2245SOL    HW1 7634   0.422   1.825   1.246
 2245SOL    HW2 7635   0.381   1.981   1.221
 2246SOL     OW 7636   1.665   0.976   4.331
 2246SOL    HW1 7637   1.706   0.921   4.259
 2246SOL    HW2 7638   1.720   1.058   4.347
 2247SOL     OW 7639   3.276   3.005   3.405
 2247SOL    HW1 7640   3.327   3.090   3.421
 2247SOL    HW2 7641   3.337   2.927   3.420
 2248SOL     OW 7642   6.420   3.974   5.375
 2248SOL    HW1 7643   6.435   3.913   5.298
 2248SOL    HW2 7644   6.332   3.951   5.419
 2249SOL     OW 7645   5.625   6.397   3.972
 2249SOL    HW1 7646   5.632   6.298   3.976
 2249SOL    HW2 7647   5.653   6.437   4.060
 2250SOL     OW 7648   3.339   3.649   5.246
 2250SOL    HW1 7649   3.338   3.717   5.172
 2250SOL    HW2 7650   3.381   3.565   5.213
 2251SOL     OW 7651   5.319   0.154   6.456
 2251SOL    HW1 7652   5.287   0.238   6.499
 2251SOL    HW2 7653   5.397   0.118   6.507
 2252SOL     OW 7654   4.556   2.240   2.672
 2252SOL    HW1 7655   4.561   2.142   2.690
 2252SOL    HW2 7656   4.526   2.255   2.577
 2253SOL     OW 7657   0.121   3.935   6.954
 2253SOL    HW1 7658   0.034   3.984   6.960
 2253SOL    HW2 7659   0.184   3.987   6.896
 2254SOL     OW 7660   3.500   2.826   4.873
 2254SOL    HW1 7661   3.582   2.869   4.836
 2254SOL    HW2 7662   3.518   2.729   4.892
 2255SOL     OW 7663   4.189   3.309   6.036
 2255SOL    HW1 7664   4.194   3.380   5.965
 2255SOL    HW2 7665   4.185   3.353   6.126
 2256SOL     OW 7666   4.553   6.003   2.423
 2256SOL    HW1 7667   4.597   6.077   2.474
 2256SOL    HW2 7668   4.458   6.029   2.404
 2257SOL     OW 7669   0.250   2.300   4.445
 2257SOL    HW1 7670   0.200   2.364   4.387
 2257SOL    HW2 7671   0.321   2.349   4.496
 2258SOL     OW 7672   1.259   5.285   4.519
 2258SOL    HW1 7673   1.278   5.381   4.498
 2258SOL    HW2 7674   1.204   5.245   4.445
 2259SOL     OW 7675   5.271   3.636   5.973
 2259SOL    HW1 7676   5.226   3.571   6.035
 2259SOL    HW2 7677   5.225   3.725   5.978
 2260SOL     OW 7678   0.426   4.546   1.307
 2260SOL    HW1 7679   0.366   4.490   1.363
 2260SOL    HW2 7680   0.521   4.535   1.338
 2261SOL     OW 7681   5.604   4.894   0.185
 2261SOL    HW1 7682   5.671   4.959   0.220
 2261SOL    HW2 7683   5.636   4.855   0.099
 2262SOL     OW 7684   6.214   0.923   3.505
 2262SOL    HW1 7685   6.260   1.002   3.464
 2262SOL    HW2 7686   6.270   0.887   3.579
 2263SOL     OW 7687   3.083   5.802   6.587
 2263SOL    HW1 7688   3.179   5.819   6.612
 2263SOL    HW2 7689   3.065   5.843   6.498
 2264SOL     OW 7690   2.894   5.289   0.157
 2264SOL    HW1 7691   2.903   5.383   0.190
 2264SOL    HW2 7692   2.985   5.252   0.138
 2265SOL     OW 7693   1.585   0.662   4.193
 2265SOL    HW1 7694   1.684   0.654   4.192
 2265SOL    HW2 7695   1.547   0.592   4.254
 2266SOL     OW 7696   4.859   2.033   0.216
 2266SOL    HW1 7697   4.900   1.956   0.166
 2266SOL    HW2 7698   4.821   2.001   0.302
 2267SOL     OW 7699   4.883   2.449   4.818
 2267SOL    HW1 7700   4.961   2.387   4.810
 2267SOL    HW2 7701   4.916   2.543   4.818
 2268SOL     OW 7702   6.388   3.995   0.121
 2268SOL    HW1 7703   6.470   4.035   0.080
 2268SOL    HW2 7704   6.370   3.906   0.079
 2269SOL     OW 7705   6.940   4.875   5.480
 2269SOL    HW1 7706   6.958   4.972   5.465
 2269SOL    HW2 7707   6.866   4.865   5.546
 2270SOL     OW 7708   2.990   2.854   5.891
 2270SOL    HW1 7709   3.016   2.929   5.952
 2270SOL    HW2 7710   3.067   2.791   5.881
 2271SOL     OW 7711   5.273   4.296   0.360
 2271SOL    HW1 7712   5.283   4.196   0.363
 2271SOL    HW2 7713   5.361   4.336   0.335
 2272SOL     OW 7714   6.006   2.256   6.515
 2272SOL    HW1 7715   5.927   2.306   6.481
 2272SOL    HW2 7716   6.052   2.208   6.440
 2273SOL     OW 7717   1.639   1.994   2.295
 2273SOL    HW1 7718   1.671   1.966   2.385
 2273SOL    HW2 7719   1.641   1.916   2.232
 2274SOL     OW 7720   0.714   2.225   6.101
 2274SOL    HW1 7721   0.772   2.289   6.051
 2274SOL    HW2 7722   0.724   2.242   6.199
 2275SOL     OW 7723   6.305   6.542   4.424
 2275SOL    HW1 7724   6.275   6.568   4.333
 2275SOL    HW2 7725   6.389   6.487   4.418
 2276SOL     OW 7726   2.105   5.882   1.332
 2276SOL    HW1 7727   2.065   5.938   1.404
 2276SOL    HW2 7728   2.186   5.835   1.368
 2277SOL     OW 7729   4.120   3.538   4.310
 2277SOL    HW1 7730   4.111   3.611   4.377
 2277SOL    HW2 7731   4.149   3.454   4.355
 2278SOL     OW 7732   6.307   4.731   4.603
 2278SOL    HW1 7733   6.311   4.784   4.688
 2278SOL    HW2 7734   6.249   4.780   4.536
 2279SOL     OW 7735   5.762   6.810   5.406
 2279SOL    HW1 7736   5.827   6.764   5.346
 2279SOL    HW2 7737   5.707   6.874   5.353
 2280SOL     OW 7738   6.913   6.660   4.410
 2280SOL    HW1 7739   6.911   6.599   4.330
 2280SOL    HW2 7740   6.832   6.644   4.466
 2281SOL     OW 7741   3.280   1.440   1.886
 2281SOL    HW1 7742   3.259   1.472   1.979
 2281SOL    HW2 7743   3.374   1.465   1.863
 2282SOL     OW 7744   5.751   0.084   5.552
 2282SOL    HW1 7745   5.696   0.063   5.471
 2282SOL    HW2 7746   5.845   0.052   5.537
 2283SOL     OW 7747   0.945   5.187   1.225
 2283SOL    HW1 7748   0.848   5.200   1.247
 2283SOL    HW2 7749   1.001   5.236   1.293
 2284SOL     OW 7750   1.172   2.584   6.700
 2284SOL    HW1 7751   1.259   2.625   6.726
 2284SOL    HW2 7752   1.189   2.497   6.653
 2285SOL     OW 7753   1.993   2.518   1.254
 2285SOL    HW1 7754   2.043   2.431   1.261
 2285SOL    HW2 7755   2.017   2.564   1.169
 2286SOL     OW 7756   6.083   0.402   3.584
 2286SOL    HW1 7757   6.183   0.403   3.594
 2286SOL    HW2 7758   6.060   0.396   3.487
 2287SOL     OW 7759   1.969   0.041   3.292
 2287SOL    HW1 7760   1.873   0.062   3.279
 2287SOL    HW2 7761   1.979   6.999   3.370
 2288SOL     OW 7762   6.081   4.759   4.394
 2288SOL    HW1 7763   5.983   4.770   4.379
 2288SOL    HW2 7764   6.107   4.664   4.373
 2289SOL     OW 7765   0.930   4.554   1.291
 2289SOL    HW1 7766   0.887   4.633   1.247
 2289SOL    HW2 7767   1.021   4.540   1.252
 2290SOL     OW 7768   0.728   4.122   0.232
 2290SOL    HW1 7769   0.703   4.144   0.327
 2290SOL    HW2 7770   0.728   4.023   0.220
 2291SOL     OW 7771   2.519   2.301   5.970
 2291SOL    HW1 7772   2.485   2.357   5.895
 2291SOL    HW2 7773   2.585   2.354   6.024
 2292SOL     OW 7774   0.143   2.752   4.621
 2292SOL    HW1 7775   0.139   2.810   4.540
 2292SOL    HW2 7776   0.167   2.808   4.701
 2293SOL     OW 7777   4.714   6.190   2.118
 2293SOL    HW1 7778   4.808   6.222   2.130
 2293SOL    HW2 7779   4.659   6.265   2.080
 2294SOL     OW 7780   3.350   0.016   0.050
 2294SOL    HW1 7781   3.329   0.108   0.085
 2294SOL    HW2 7782   3.354   6.971   0.126
 2295SOL     OW 7783   0.519   2.183   3.229
 2295SOL    HW1 7784   0.473   2.165   3.142
 2295SOL    HW2 7785   0.481   2.266   3.270
 2296SOL     OW 7786   4.604   5.567   0.863
 2296SOL    HW1 7787   4.560   5.624   0.933
 2296SOL    HW2 7788   4.670   5.506   0.907
 2297SOL     OW 7789   3.895   4.317   5.225
 2297SOL    HW1 7790   3.940   4.329   5.314
 2297SOL    HW2 7791   3.920   4.393   5.165
 2298SOL     OW 7792   3.915   2.980   1.352
 2298SOL    HW1 7793   4.010   2.950   1.363
 2298SOL    HW2 7794   3.896   3.054   1.417
 2299SOL     OW 7795   4.808   6.101   5.292
 2299SOL    HW1 7796   4.851   6.064   5.210
 2299SOL    HW2 7797   4.759   6.185   5.269
 2300SOL     OW 7798   2.247   5.497   2.100
 2300SOL    HW1 7799   2.221   5.410   2.143
 2300SOL    HW2 7800   2.346   5.498   2.087
 2301SOL     OW 7801   3.604   2.925   2.750
 2301SOL    HW1 7802   3.521   2.915   2.695
 2301SOL    HW2 7803   3.683   2.930   2.690
 2302SOL     OW 7804   3.570   0.233   1.127
 2302SOL    HW1 7805   3.650   0.241   1.187
 2302SOL    HW2 7806   3.546   0.323   1.091
 2303SOL     OW 7807   2.068   2.795   5.909
 2303SOL    HW1 7808   2.097   2.719   5.968
 2303SOL    HW2 7809   2.136   2.807   5.836
 2304SOL     OW 7810   4.759   6.679   3.807
 2304SOL    HW1 7811   4.704   6.658   3.888
 2304SOL    HW2 7812   4.758   6.777   3.790
 2305SOL     OW 7813   2.458   6.663   3.036
 2305SOL    HW1 7814   2.467   6.760   3.060
 2305SOL    HW2 7815   2.543   6.615   3.055
 2306SOL     OW 7816   2.980   5.279   2.461
 2306SOL    HW1 7817   2.924   5.212   2.511
 2306SOL    HW2 7818   3.029   5.233   2.388
 2307SOL     OW 7819   6.786   4.147   2.535
 2307SOL    HW1 7820   6.742   4.126   2.448
 2307SOL    HW2 7821   6.779   4.245   2.553
 2308SOL     OW 7822   1.216   5.962   0.742
 2308SOL    HW1 7823   1.195   5.887   0.679
 2308SOL    HW2 7824   1.156   5.957   0.822
 2309SOL     OW 7825   1.431   0.392   6.282
 2309SOL    HW1 7826   1.478   0.402   6.370
 2309SOL    HW2 7827   1.334   0.414   6.293
 2310SOL     OW 7828   4.801   6.324   1.408
 2310SOL    HW1 7829   4.819   6.341   1.311
 2310SOL    HW2 7830   4.722   6.264   1.417
 2311SOL     OW 7831   2.170   5.965   2.227
 2311SOL    HW1 7832   2.253   5.963   2.283
 2311SOL    HW2 7833   2.152   5.874   2.190
 2312SOL     OW 7834   3.544   6.490   3.989
 2312SOL    HW1 7835   3.542   6.486   4.089
 2312SOL    HW2 7836   3.455   6.517   3.954
 2313SOL     OW 7837   4.999   5.553   1.825
 2313SOL    HW1 7838   4.900   5.565   1.833
 2313SOL    HW2 7839   5.021   5.456   1.836
 2314SOL     OW 7840   5.657   6.945   5.034
 2314SOL    HW1 7841   5.736   6.885   5.022
 2314SOL    HW2 7842   5.680   0.017   5.003
 2315SOL     OW 7843   4.730   3.170   5.358
 2315SOL    HW1 7844   4.779   3.130   5.280
 2315SOL    HW2 7845   4.721   3.101   5.429
 2316SOL     OW 7846   3.201   0.843   4.258
 2316SOL    HW1 7847   3.113   0.803   4.234
 2316SOL    HW2 7848   3.195   0.943   4.251
 2317SOL     OW 7849   0.358   6.255   3.764
 2317SOL    HW1 7850   0.303   6.323   3.717
 2317SOL    HW2 7851   0.335   6.164   3.729
 2318SOL     OW 7852   2.073   2.909   4.566
 2318SOL    HW1 7853   2.164   2.868   4.571
 2318SOL    HW2 7854   2.004   2.839   4.584
 2319SOL     OW 7855   2.188   5.159   4.274
 2319SOL    HW1 7856   2.159   5.164   4.370
 2319SOL    HW2 7857   2.124   5.103   4.222
 2320SOL     OW 7858   0.319   3.153   5.052
 2320SOL    HW1 7859   0.348   3.168   4.958
 2320SOL    HW2 7860   0.276   3.236   5.088
 2321SOL     OW 7861   2.101   6.486   0.097
 2321SOL    HW1 7862   2.130   6.581   0.089
 2321SOL    HW2 7863   2.001   6.481   0.098
 2322SOL     OW 7864   1.547   2.767   3.892
 2322SOL    HW1 7865   1.539   2.738   3.987
 2322SOL    HW2 7866   1.585   2.859   3.888
 2323SOL     OW 7867   3.269   5.216   1.811
 2323SOL    HW1 7868   3.278   5.279   1.887
 2323SOL    HW2 7869   3.358   5.176   1.789
 2324SOL     OW 7870   6.823   6.243   0.820
 2324SOL    HW1 7871   6.795   6.329   0.863
 2324SOL    HW2 7872   6.751   6.175   0.831
 2325SOL     OW 7873   1.026   4.150   1.293
 2325SOL    HW1 7874   0.962   4.222   1.264
 2325SOL    HW2 7875   1.071   4.112   1.212
 2326SOL     OW 7876   3.751   5.473   6.234
 2326SOL    HW1 7877   3.782   5.379   6.248
 2326SOL    HW2 7878   3.661   5.473   6.190
 2327SOL     OW 7879   6.495   2.172   4.006
 2327SOL    HW1 7880   6.574   2.168   4.066
 2327SOL    HW2 7881   6.525   2.179   3.911
 2328SOL     OW 7882   2.243   1.850   2.975
 2328SOL    HW1 7883   2.176   1.900   3.029
 2328SOL    HW2 7884   2.207   1.833   2.884
 2329SOL     OW 7885   1.251   4.625   4.561
 2329SOL    HW1 7886   1.256   4.575   4.474
 2329SOL    HW2 7887   1.220   4.718   4.543
 2330SOL     OW 7888   1.157   3.662   1.485
 2330SOL    HW1 7889   1.232   3.684   1.547
 2330SOL    HW2 7890   1.181   3.580   1.431
 2331SOL     OW 7891   4.042   5.817   6.684
 2331SOL    HW1 7892   4.007   5.836   6.592
 2331SOL    HW2 7893   4.139   5.793   6.678
 2332SOL     OW 7894   5.159   1.689   5.075
 2332SOL    HW1 7895   5.209   1.603   5.073
 2332SOL    HW2 7896   5.102   1.692   5.157
 2333SOL     OW 7897   6.889   4.703   2.789
 2333SOL    HW1 7898   6.893   4.617   2.840
 2333SOL    HW2 7899   6.966   4.708   2.726
 2334SOL     OW 7900   1.930   0.472   0.269
 2334SOL    HW1 7901   1.936   0.459   0.368
 2334SOL    HW2 7902   1.846   0.431   0.235
 2335SOL     OW 7903   6.830   0.946   3.051
 2335SOL    HW1 7904   6.738   0.977   3.077
 2335SOL    HW2 7905   6.891   1.025   3.048
 2336SOL     OW 7906   4.607   2.768   4.745
 2336SOL    HW1 7907   4.583   2.698   4.813
 2336SOL    HW2 7908   4.561   2.854   4.768
 2337SOL     OW 7909   4.509   1.314   1.901
 2337SOL    HW1 7910   4.449   1.317   1.820
 2337SOL    HW2 7911   4.544   1.222   1.914
 2338SOL     OW 7912   0.883   2.290   5.407
 2338SOL    HW1 7913   0.874   2.200   5.366
 2338SOL    HW2 7914   0.907   2.281   5.504
 2339SOL     OW 7915   3.571   3.768   4.451
 2339SOL    HW1 7916   3.484   3.780   4.402
 2339SOL    HW2 7917   3.565   3.812   4.540
 2340SOL     OW 7918   6.070   4.460   0.911
 2340SOL    HW1 7919   5.976   4.476   0.942
 2340SOL    HW2 7920   6.087   4.362   0.905
 2341SOL     OW 7921   4.276   4.517   1.376
 2341SOL    HW1 7922   4.269   4.597   1.316
 2341SOL    HW2 7923   4.328   4.542   1.458
 2342SOL     OW 7924   6.971   0.023   5.389
 2342SOL    HW1 7925   0.036   0.015   5.337
 2342SOL    HW2 7926   6.894   7.013   5.333
 2343SOL     OW 7927   2.679   5.367   2.759
 2343SOL    HW1 7928   2.777   5.384   2.745
 2343SOL    HW2 7929   2.644   5.311   2.684
 2344SOL     OW 7930   1.873   6.833   0.165
 2344SOL    HW1 7931   1.795   6.781   0.130
 2344SOL    HW2 7932   1.841   6.896   0.236
 2345SOL     OW 7933   3.411   5.495   4.423
 2345SOL    HW1 7934   3.345   5.569   4.414
 2345SOL    HW2 7935   3.476   5.499   4.347
 2346SOL     OW 7936   4.566   2.805   5.319
 2346SOL    HW1 7937   4.630   2.774   5.249
 2346SOL    HW2 7938   4.611   2.870   5.380
 2347SOL     OW 7939   2.547   3.032   1.653
 2347SOL    HW1 7940   2.636   3.067   1.685
 2347SOL    HW2 7941   2.541   2.935   1.673
 2348SOL     OW 7942   2.756   6.812   3.868
 2348SOL    HW1 7943   2.793   6.817   3.775
 2348SOL    HW2 7944   2.743   6.717   3.894
 2349SOL     OW 7945   0.887   3.913   6.166
 2349SOL    HW1 7946   0.891   3.979   6.092
 2349SOL    HW2 7947   0.980   3.896   6.200
 2350SOL     OW 7948   4.746   6.167   6.743
 2350SOL    HW1 7949   4.815   6.179   6.814
 2350SOL    HW2 7950   4.792   6.153   6.655
 2351SOL     OW 7951   2.758   5.236   3.619
 2351SOL    HW1 7952   2.825   5.179   3.668
 2351SOL    HW2 7953   2.678   5.180   3.597
 2352SOL     OW 7954   0.488   5.216   2.019
 2352SOL    HW1 7955   0.483   5.251   2.113
 2352SOL    HW2 7956   0.520   5.288   1.958
 2353SOL     OW 7957   3.203   4.378   5.530
 2353SOL    HW1 7958   3.200   4.349   5.434
 2353SOL    HW2 7959   3.147   4.315   5.585
 2354SOL     OW 7960   2.965   1.413   5.893
 2354SOL    HW1 7961   2.974   1.506   5.857
 2354SOL    HW2 7962   2.870   1.397   5.919
 2355SOL     OW 7963   2.385   5.501   0.521
 2355SOL    HW1 7964   2.474   5.532   0.487
 2355SOL    HW2 7965   2.397   5.415   0.571
 2356SOL     OW 7966   1.184   3.677   0.000
 2356SOL    HW1 7967   1.226   3.668   6.930
 2356SOL    HW2 7968   1.153   3.771   0.013
 2357SOL     OW 7969   4.765   6.173   3.479
 2357SOL    HW1 7970   4.798   6.217   3.562
 2357SOL    HW2 7971   4.821   6.201   3.402
 2358SOL     OW 7972   3.975   5.092   5.202
 2358SOL    HW1 7973   3.900   5.106   5.137
 2358SOL    HW2 7974   3.949   5.129   5.291
 2359SOL     OW 7975   0.070   0.980   6.219
 2359SOL    HW1 7976   0.142   0.967   6.150
 2359SOL    HW2 7977   0.001   0.908   6.209
 2360SOL     OW 7978   5.882   4.720   0.016
 2360SOL    HW1 7979   5.927   4.656   6.973
 2360SOL    HW2 7980   5.800   4.756   6.993
 2361SOL     OW 7981   2.192   0.567   5.050
 2361SOL    HW1 7982   2.206   0.658   5.088
 2361SOL    HW2 7983   2.226   0.564   4.956
 2362SOL     OW 7984   2.468   0.238   5.150
 2362SOL    HW1 7985   2.383   0.241   5.096
 2362SOL    HW2 7986   2.450   0.275   5.241
 2363SOL     OW 7987   4.248   2.257   5.256
 2363SOL    HW1 7988   4.197   2.254   5.342
 2363SOL    HW2 7989   4.229   2.174   5.204
 2364SOL     OW 7990   0.736   1.993   2.344
 2364SOL    HW1 7991   0.816   1.961   2.293
 2364SOL    HW2 7992   0.688   2.063   2.291
 2365SOL     OW 7993   6.563   3.034   6.663
 2365SOL    HW1 7994   6.489   3.101   6.657
 2365SOL    HW2 7995   6.524   2.943   6.671
 2366SOL     OW 7996   1.605   5.169   6.114
 2366SOL    HW1 7997   1.590   5.152   6.016
 2366SOL    HW2 7998   1.680   5.234   6.125
 2367SOL     OW 7999   2.992   4.573   0.725
 2367SOL    HW1 8000   2.967   4.499   0.788
 2367SOL    HW2 8001   3.071   4.622   0.761
 2368SOL     OW 8002   4.893   0.098   2.941
 2368SOL    HW1 8003   4.954   0.174   2.964
 2368SOL    HW2 8004   4.798   0.129   2.947
 2369SOL     OW 8005   0.893   2.684   5.994
 2369SOL    HW1 8006   0.980   2.696   6.043
 2369SOL    HW2 8007   0.817   2.699   6.056
 2370SOL     OW 8008   5.221   3.873   6.768
 2370SOL    HW1 8009   5.307   3.842   6.809
 2370SOL    HW2 8010   5.158   3.901   6.841
 2371SOL     OW 8011   0.574   6.525   1.790
 2371SOL    HW1 8012   0.567   6.476   1.877
 2371SOL    HW2 8013   0.593   6.621   1.807
 2372SOL     OW 8014   6.507   2.511   1.574
 2372SOL    HW1 8015   6.590   2.529   1.522
 2372SOL    HW2 8016   6.520   2.539   1.669
 2373SOL     OW 8017   0.306   1.137   0.550
 2373SOL    HW1 8018   0.377   1.067   0.547
 2373SOL    HW2 8019   0.216   1.093   0.549
 2374SOL     OW 8020   6.230   1.388   3.564
 2374SOL    HW1 8021   6.316   1.437   3.579
 2374SOL    HW2 8022   6.245   1.313   3.500
 2375SOL     OW 8023   2.321   0.026   4.570
 2375SOL    HW1 8024   2.296   6.949   4.569
 2375SOL    HW2 8025   2.394   0.042   4.503
 2376SOL     OW 8026   6.623   2.461   4.480
 2376SOL    HW1 8027   6.599   2.523   4.555
 2376SOL    HW2 8028   6.714   2.483   4.446
 2377SOL     OW 8029   3.463   4.032   2.872
 2377SOL    HW1 8030   3.400   3.985   2.934
 2377SOL    HW2 8031   3.423   4.036   2.781
 2378SOL     OW 8032   4.854   2.835   0.075
 2378SOL    HW1 8033   4.950   2.821   0.051
 2378SOL    HW2 8034   4.849   2.882   0.163
 2379SOL     OW 8035   5.413   2.521   6.825
 2379SOL    HW1 8036   5.402   2.439   6.881
 2379SOL    HW2 8037   5.428   2.600   6.884
 2380SOL     OW 8038   0.005   0.221   5.105
 2380SOL    HW1 8039   0.049   0.132   5.116
 2380SOL    HW2 8040   0.022   0.276   5.187
 2381SOL     OW 8041   1.865   3.468   4.256
 2381SOL    HW1 8042   1.836   3.373   4.243
 2381SOL    HW2 8043   1.810   3.528   4.200
 2382SOL     OW 8044   2.451   4.425   3.488
 2382SOL    HW1 8045   2.422   4.520   3.482
 2382SOL    HW2 8046   2.511   4.403   3.411
 2383SOL     OW 8047   6.106   6.666   0.952
 2383SOL    HW1 8048   6.170   6.725   0.902
 2383SOL    HW2 8049   6.115   6.683   1.050
 2384SOL     OW 8050   6.247   6.877   2.044
 2384SOL    HW1 8051   6.340   6.840   2.053
 2384SOL    HW2 8052   6.187   6.807   2.005
 2385SOL     OW 8053   0.528   6.439   0.969
 2385SOL    HW1 8054   0.624   6.468   0.964
 2385SOL    HW2 8055   0.523   6.340   0.983
 2386SOL     OW 8056   5.179   4.997   4.237
 2386SOL    HW1 8057   5.151   5.048   4.318
 2386SOL    HW2 8058   5.116   5.017   4.161
 2387SOL     OW 8059   0.802   1.211   3.475
 2387SOL    HW1 8060   0.712   1.193   3.436
 2387SOL    HW2 8061   0.829   1.135   3.534
 2388SOL     OW 8062   1.942   2.226   3.627
 2388SOL    HW1 8063   1.935   2.164   3.705
 2388SOL    HW2 8064   1.853   2.269   3.612
 2389SOL     OW 8065   5.178   3.741   2.745
 2389SOL    HW1 8066   5.081   3.753   2.765
 2389SOL    HW2 8067   5.210   3.818   2.689
 2390SOL     OW 8068   3.621   4.025   3.358
 2390SOL    HW1 8069   3.582   3.951   3.303
 2390SOL    HW2 8070   3.720   4.022   3.354
 2391SOL     OW 8071   5.044   4.763   5.887
 2391SOL    HW1 8072   4.963   4.817   5.908
 2391SOL    HW2 8073   5.056   4.692   5.956
 2392SOL     OW 8074   3.554   0.047   5.423
 2392SOL    HW1 8075   3.551   0.011   5.330
 2392SOL    HW2 8076   3.647   0.040   5.459
 2393SOL     OW 8077   4.731   4.033   6.123
 2393SOL    HW1 8078   4.767   3.962   6.183
 2393SOL    HW2 8079   4.727   4.120   6.172
 2394SOL     OW 8080   2.128   3.425   4.570
 2394SOL    HW1 8081   2.197   3.453   4.636
 2394SOL    HW2 8082   2.099   3.332   4.589
 2395SOL     OW 8083   6.520   2.749   6.534
 2395SOL    HW1 8084   6.461   2.686   6.584
 2395SOL    HW2 8085   6.470   2.786   6.455
 2396SOL     OW 8086   4.001   5.581   1.507
 2396SOL    HW1 8087   4.013   5.680   1.496
 2396SOL    HW2 8088   4.090   5.536   1.501
 2397SOL     OW 8089   0.297   4.079   6.764
 2397SOL    HW1 8090   0.296   4.071   6.664
 2397SOL    HW2 8091   0.386   4.052   6.799
 2398SOL     OW 8092   3.279   3.798   6.650
 2398SOL    HW1 8093   3.349   3.735   6.682
 2398SOL    HW2 8094   3.263   3.783   6.552
 2399SOL     OW 8095   4.696   1.069   2.337
 2399SOL    HW1 8096   4.616   1.128   2.334
 2399SOL    HW2 8097   4.708   1.033   2.430
 2400SOL     OW 8098   3.477   5.020   0.037
 2400SOL    HW1 8099   3.500   5.105   7.010
 2400SOL    HW2 8100   3.557   4.984   0.085
 2401SOL     OW 8101   4.407   6.671   6.737
 2401SOL    HW1 8102   4.449   6.659   6.826
 2401SOL    HW2 8103   4.431   6.594   6.678
 2402SOL     OW 8104   0.720   0.667   4.400
 2402SOL    HW1 8105   0.746   0.610   4.322
 2402SOL    HW2 8106   0.790   0.661   4.471
 2403SOL     OW 8107   2.320   2.431   1.092
 2403SOL    HW1 8108   2.384   2.507   1.099
 2403SOL    HW2 8109   2.371   2.345   1.089
 2404SOL     OW 8110   4.950   1.148   1.047
 2404SOL    HW1 8111   4.981   1.232   1.004
 2404SOL    HW2 8112   5.019   1.115   1.111
 2405SOL     OW 8113   3.751   3.572   2.755
 2405SOL    HW1 8114   3.802   3.650   2.790
 2405SOL    HW2 8115   3.814   3.497   2.736
 2406SOL     OW 8116   2.664   6.963   3.335
 2406SOL    HW1 8117   2.610   6.941   3.254
 2406SOL    HW2 8118   2.757   6.926   3.324
 2407SOL     OW 8119   5.535   2.224   2.715
 2407SOL    HW1 8120   5.599   2.282   2.766
 2407SOL    HW2 8121   5.586   2.154   2.665
 2408SOL     OW 8122   4.486   4.879   3.660
 2408SOL    HW1 8123   4.556   4.892   3.730
 2408SOL    HW2 8124   4.514   4.925   3.576
 2409SOL     OW 8125   1.132   3.243   1.938
 2409SOL    HW1 8126   1.157   3.323   1.992
 2409SOL    HW2 8127   1.082   3.271   1.856
 2410SOL     OW 8128   4.844   2.670   6.213
 2410SOL    HW1 8129   4.854   2.721   6.127
 2410SOL    HW2 8130   4.754   2.627   6.216
 2411SOL     OW 8131   4.270   5.319   5.631
 2411SOL    HW1 8132   4.296   5.238   5.580
 2411SOL    HW2 8133   4.192   5.363   5.586
 2412SOL     OW 8134   4.250   4.732   1.166
 2412SOL    HW1 8135   4.337   4.781   1.165
 2412SOL    HW2 8136   4.187   4.778   1.228
 2413SOL     OW 8137   6.340   2.272   0.396
 2413SOL    HW1 8138   6.261   2.217   0.370
 2413SOL    HW2 8139   6.358   2.262   0.494
 2414SOL     OW 8140   5.126   3.852   2.310
 2414SOL    HW1 8141   5.048   3.862   2.372
 2414SOL    HW2 8142   5.101   3.889   2.220
 2415SOL     OW 8143   0.259   0.069   2.112
 2415SOL    HW1 8144   0.236   0.008   2.036
 2415SOL    HW2 8145   0.222   0.160   2.094
 2416SOL     OW 8146   3.877   1.989   4.985
 2416SOL    HW1 8147   3.846   1.998   5.080
 2416SOL    HW2 8148   3.955   1.927   4.981
 2417SOL     OW 8149   4.196   3.544   5.613
 2417SOL    HW1 8150   4.184   3.604   5.534
 2417SOL    HW2 8151   4.166   3.452   5.591
 2418SOL     OW 8152   3.577   3.918   3.952
 2418SOL    HW1 8153   3.485   3.952   3.933
 2418SOL    HW2 8154   3.571   3.823   3.983
 2419SOL     OW 8155   0.719   5.784   4.762
 2419SOL    HW1 8156   0.711   5.877   4.724
 2419SOL    HW2 8157   0.724   5.790   4.861
 2420SOL     OW 8158   3.577   1.588   1.457
 2420SOL    HW1 8159   3.572   1.637   1.370
 2420SOL    HW2 8160   3.485   1.573   1.493
 2421SOL     OW 8161   2.847   1.365   5.217
 2421SOL    HW1 8162   2.866   1.340   5.313
 2421SOL    HW2 8163   2.869   1.461   5.203
 2422SOL     OW 8164   5.920   0.170   1.663
 2422SOL    HW1 8165   5.923   0.082   1.616
 2422SOL    HW2 8166   6.011   0.191   1.700
 2423SOL     OW 8167   1.343   6.605   3.836
 2423SOL    HW1 8168   1.410   6.536   3.864
 2423SOL    HW2 8169   1.295   6.638   3.917
 2424SOL     OW 8170   6.244   6.568   6.082
 2424SOL    HW1 8171   6.202   6.515   6.155
 2424SOL    HW2 8172   6.343   6.558   6.085
 2425SOL     OW 8173   6.317   0.314   3.866
 2425SOL    HW1 8174   6.228   0.331   3.910
 2425SOL    HW2 8175   6.358   0.232   3.905
 2426SOL     OW 8176   0.931   5.539   4.438
 2426SOL    HW1 8177   0.919   5.578   4.529
 2426SOL    HW2 8178   1.027   5.545   4.412
 2427SOL     OW 8179   5.409   5.262   6.268
 2427SOL    HW1 8180   5.392   5.281   6.171
 2427SOL    HW2 8181   5.377   5.339   6.323
 2428SOL     OW 8182   6.272   0.572   3.391
 2428SOL    HW1 8183   6.178   0.542   3.376
 2428SOL    HW2 8184   6.316   0.510   3.457
 2429SOL     OW 8185   6.317   5.286   3.988
 2429SOL    HW1 8186   6.231   5.275   4.038
 2429SOL    HW2 8187   6.391   5.243   4.038
 2430SOL     OW 8188   6.366   1.341   0.837
 2430SOL    HW1 8189   6.416   1.264   0.797
 2430SOL    HW2 8190   6.338   1.317   0.930
 2431SOL     OW 8191   4.321   0.661   2.260
 2431SOL    HW1 8192   4.315   0.749   2.213
 2431SOL    HW2 8193   4.229   0.621   2.267
 2432SOL     OW 8194   2.940   6.909   3.317
 2432SOL    HW1 8195   3.013   6.882   3.380
 2432SOL    HW2 8196   2.953   7.004   3.290
 2433SOL     OW 8197   3.145   0.506   1.228
 2433SOL    HW1 8198   3.196   0.518   1.314
 2433SOL    HW2 8199   3.160   0.414   1.193
 2434SOL     OW 8200   4.254   0.984   4.735
 2434SOL    HW1 8201   4.261   0.903   4.678
 2434SOL    HW2 8202   4.219   1.060   4.681
 2435SOL     OW 8203   4.165   4.779   5.692
 2435SOL    HW1 8204   4.115   4.856   5.732
 2435SOL    HW2 8205   4.260   4.781   5.723
 2436SOL     OW 8206   1.938   6.796   1.927
 2436SOL    HW1 8207   1.883   6.722   1.965
 2436SOL    HW2 8208   1.880   6.875   1.908
 2437SOL     OW 8209   4.387   6.042   0.517
 2437SOL    HW1 8210   4.374   6.055   0.419
 2437SOL    HW2 8211   4.401   5.945   0.536
 2438SOL     OW 8212   3.540   1.181   5.929
 2438SOL    HW1 8213   3.504   1.125   6.003
 2438SOL    HW2 8214   3.637   1.200   5.945
 2439SOL     OW 8215   0.718   4.291   6.407
 2439SOL    HW1 8216   0.732   4.210   6.465
 2439SOL    HW2 8217   0.625   4.326   6.421
 2440SOL     OW 8218   5.074   6.016   5.777
 2440SOL    HW1 8219   5.002   6.077   5.810
 2440SOL    HW2 8220   5.099   6.041   5.683
 2441SOL     OW 8221   6.935   0.005   0.503
 2441SOL    HW1 8222   6.950   6.926   0.495
 2441SOL    HW2 8223   6.836   0.023   0.505
 2442SOL     OW 8224   6.574   4.686   4.557
 2442SOL    HW1 8225   6.598   4.726   4.469
 2442SOL    HW2 8226   6.479   4.709   4.579
 2443SOL     OW 8227   4.163   6.414   5.808
 2443SOL    HW1 8228   4.072   6.450   5.788
 2443SOL    HW2 8229   4.189   6.348   5.737
 2444SOL     OW 8230   3.145   4.212   6.014
 2444SOL    HW1 8231   3.159   4.201   5.916
 2444SOL    HW2 8232   3.212   4.276   6.050
 2445SOL     OW 8233   0.289   0.778   2.074
 2445SOL    HW1 8234   0.284   0.803   1.978
 2445SOL    HW2 8235   0.209   0.814   2.123
 2446SOL     OW 8236   0.514   4.340   3.720
 2446SOL    HW1 8237   0.498   4.255   3.672
 2446SOL    HW2 8238   0.602   4.378   3.693
 2447SOL     OW 8239   2.771   1.934   0.789
 2447SOL    HW1 8240   2.804   1.875   0.863
 2447SOL    HW2 8241   2.779   1.886   0.702
 2448SOL     OW 8242   0.074   0.783   5.354
 2448SOL    HW1 8243   0.021   0.773   5.270
 2448SOL    HW2 8244   0.140   0.858   5.343
 2449SOL     OW 8245   0.492   4.943   1.148
 2449SOL    HW1 8246   0.411   4.994   1.178
 2449SOL    HW2 8247   0.470   4.845   1.145
 2450SOL     OW 8248   2.612   4.567   3.719
 2450SOL    HW1 8249   2.555   4.617   3.783
 2450SOL    HW2 8250   2.603   4.607   3.628
 2451SOL     OW 8251   0.441   0.145   3.489
 2451SOL    HW1 8252   0.521   0.160   3.546
 2451SOL    HW2 8253   0.438   0.214   3.417
 2452SOL     OW 8254   1.472   2.905   2.883
 2452SOL    HW1 8255   1.510   2.962   2.955
 2452SOL    HW2 8256   1.531   2.825   2.869
 2453SOL     OW 8257   6.450   3.862   0.475
 2453SOL    HW1 8258   6.531   3.875   0.418
 2453SOL    HW2 8259   6.445   3.767   0.504
 2454SOL     OW 8260   3.517   1.294   0.588
 2454SOL    HW1 8261   3.420   1.294   0.562
 2454SOL    HW2 8262   3.533   1.220   0.653
 2455SOL     OW 8263   5.588   6.418   0.891
 2455SOL    HW1 8264   5.624   6.408   0.984
 2455SOL    HW2 8265   5.492   6.446   0.895
 2456SOL     OW 8266   5.805   6.783   0.499
 2456SOL    HW1 8267   5.823   6.881   0.490
 2456SOL    HW2 8268   5.730   6.757   0.439
 2457SOL     OW 8269   6.669   6.128   0.340
 2457SOL    HW1 8270   6.612   6.156   0.417
 2457SOL    HW2 8271   6.715   6.042   0.361
 2458SOL     OW 8272   2.789   5.775   3.664
 2458SOL    HW1 8273   2.871   5.767   3.609
 2458SOL    HW2 8274   2.760   5.684   3.695
 2459SOL     OW 8275   2.527   0.033   0.404
 2459SOL    HW1 8276   2.515   0.129   0.379
 2459SOL    HW2 8277   2.567   0.027   0.495
 2460SOL     OW 8278   2.391   0.393   1.575
 2460SOL    HW1 8279   2.460   0.321   1.581
 2460SOL    HW2 8280   2.435   0.480   1.556
 2461SOL     OW 8281   4.780   0.489   2.821
 2461SOL    HW1 8282   4.811   0.559   2.756
 2461SOL    HW2 8283   4.809   0.515   2.913
 2462SOL     OW 8284   2.323   5.681   6.736
 2462SOL    HW1 8285   2.276   5.698   6.650
 2462SOL    HW2 8286   2.394   5.751   6.751
 2463SOL     OW 8287   5.879   2.490   4.046
 2463SOL    HW1 8288   5.949   2.419   4.051
 2463SOL    HW2 8289   5.922   2.580   4.042
 2464SOL     OW 8290   1.332   4.954   1.332
 2464SOL    HW1 8291   1.313   4.917   1.423
 2464SOL    HW2 8292   1.295   4.893   1.263
 2465SOL     OW 8293   6.854   5.449   1.132
 2465SOL    HW1 8294   6.894   5.374   1.080
 2465SOL    HW2 8295   6.838   5.420   1.226
 2466SOL     OW 8296   3.413   0.848   1.445
 2466SOL    HW1 8297   3.340   0.864   1.512
 2466SOL    HW2 8298   3.498   0.889   1.479
 2467SOL     OW 8299   5.498   1.579   5.543
 2467SOL    HW1 8300   5.562   1.637   5.492
 2467SOL    HW2 8301   5.528   1.574   5.639
 2468SOL     OW 8302   6.425   5.981   1.947
 2468SOL    HW1 8303   6.417   5.913   2.021
 2468SOL    HW2 8304   6.348   6.045   1.954
 2469SOL     OW 8305   3.647   4.880   5.181
 2469SOL    HW1 8306   3.552   4.853   5.168
 2469SOL    HW2 8307   3.682   4.841   5.266
 2470SOL     OW 8308   3.167   3.740   6.386
 2470SOL    HW1 8309   3.079   3.693   6.395
 2470SOL    HW2 8310   3.187   3.755   6.289
 2471SOL     OW 8311   2.326   6.532   1.632
 2471SOL    HW1 8312   2.397   6.563   1.569
 2471SOL    HW2 8313   2.362   6.460   1.691
 2472SOL     OW 8314   5.803   1.237   4.868
 2472SOL    HW1 8315   5.887   1.287   4.889
 2472SOL    HW2 8316   5.810   1.197   4.776
 2473SOL     OW 8317   1.990   3.844   4.499
 2473SOL    HW1 8318   2.060   3.884   4.558
 2473SOL    HW2 8319   1.970   3.751   4.529
 2474SOL     OW 8320   6.742   5.403   0.480
 2474SOL    HW1 8321   6.821   5.401   0.419
 2474SOL    HW2 8322   6.664   5.360   0.433
 2475SOL     OW 8323   4.521   1.842   0.955
 2475SOL    HW1 8324   4.514   1.771   1.025
 2475SOL    HW2 8325   4.432   1.854   0.911
 2476SOL     OW 8326   0.432   2.625   3.412
 2476SOL    HW1 8327   0.371   2.657   3.484
 2476SOL    HW2 8328   0.428   2.525   3.407
 2477SOL     OW 8329   6.384   0.506   1.926
 2477SOL    HW1 8330   6.420   0.424   1.970
 2477SOL    HW2 8331   6.373   0.579   1.993
 2478SOL     OW 8332   5.422   6.570   2.792
 2478SOL    HW1 8333   5.372   6.573   2.706
 2478SOL    HW2 8334   5.387   6.495   2.848
 2479SOL     OW 8335   0.640   3.678   1.512
 2479SOL    HW1 8336   0.725   3.702   1.559
 2479SOL    HW2 8337   0.562   3.703   1.569
 2480SOL     OW 8338   6.416   3.446   1.166
 2480SOL    HW1 8339   6.495   3.386   1.158
 2480SOL    HW2 8340   6.344   3.399   1.218
 2481SOL     OW 8341   3.423   6.219   0.043
 2481SOL    HW1 8342   3.485   6.172   0.106
 2481SOL    HW2 8343   3.475   6.260   6.988
 2482SOL     OW 8344   4.625   2.982   5.525
 2482SOL    HW1 8345   4.657   2.897   5.567
 2482SOL    HW2 8346   4.554   3.023   5.582
 2483SOL     OW 8347   2.140   1.540   0.910
 2483SOL    HW1 8348   2.188   1.575   0.830
 2483SOL    HW2 8349   2.044   1.568   0.906
 2484SOL     OW 8350   1.910   0.754   0.641
 2484SOL    HW1 8351   1.994   0.788   0.683
 2484SOL    HW2 8352   1.886   0.812   0.563
 2485SOL     OW 8353   4.721   5.384   2.880
 2485SOL    HW1 8354   4.635   5.348   2.844
 2485SOL    HW2 8355   4.794   5.366   2.814
 2486SOL     OW 8356   2.480   6.032   2.739
 2486SOL    HW1 8357   2.464   6.057   2.643
 2486SOL    HW2 8358   2.571   5.993   2.748
 2487SOL     OW 8359   3.841   6.167   0.471
 2487SOL    HW1 8360   3.914   6.160   0.403
 2487SOL    HW2 8361   3.847   6.091   0.535
 2488SOL     OW 8362   2.563   4.230   1.537
 2488SOL    HW1 8363   2.649   4.248   1.586
 2488SOL    HW2 8364   2.526   4.141   1.566
 2489SOL     OW 8365   2.789   4.819   4.203
 2489SOL    HW1 8366   2.828   4.881   4.135
 2489SOL    HW2 8367   2.784   4.727   4.164
 2490SOL     OW 8368   6.279   5.203   1.197
 2490SOL    HW1 8369   6.316   5.113   1.220
 2490SOL    HW2 8370   6.199   5.222   1.254
 2491SOL     OW 8371   2.612   5.807   2.887
 2491SOL    HW1 8372   2.663   5.863   2.952
 2491SOL    HW2 8373   2.609   5.712   2.920
 2492SOL     OW 8374   3.854   3.286   6.235
 2492SOL    HW1 8375   3.861   3.213   6.167
 2492SOL    HW2 8376   3.929   3.351   6.222
 2493SOL     OW 8377   5.759   0.148   2.808
 2493SOL    HW1 8378   5.719   0.233   2.773
 2493SOL    HW2 8379   5.850   0.135   2.769
 2494SOL     OW 8380   5.294   3.106   2.608
 2494SOL    HW1 8381   5.255   3.138   2.694
 2494SOL    HW2 8382   5.227   3.119   2.535
 2495SOL     OW 8383   4.898   0.815   5.208
 2495SOL    HW1 8384   4.899   0.903   5.254
 2495SOL    HW2 8385   4.833   0.818   5.131
 2496SOL     OW 8386   0.779   5.099   0.219
 2496SOL    HW1 8387   0.814   5.099   0.312
 2496SOL    HW2 8388   0.771   5.193   0.186
 2497SOL     OW 8389   0.423   1.867   6.870
 2497SOL    HW1 8390   0.437   1.791   6.934
 2497SOL    HW2 8391   0.460   1.951   6.909
 2498SOL     OW 8392   2.390   2.708   3.640
 2498SOL    HW1 8393   2.310   2.667   3.596
 2498SOL    HW2 8394   2.363   2.792   3.686
 2499SOL     OW 8395   5.647   0.412   4.520
 2499SOL    HW1 8396   5.576   0.437   4.586
 2499SOL    HW2 8397   5.617   0.332   4.467
 2500SOL     OW 8398   4.527   3.927   5.335
 2500SOL    HW1 8399   4.536   3.930   5.434
 2500SOL    HW2 8400   4.615   3.900   5.295
 2501SOL     OW 8401   6.255   4.590   6.876
 2501SOL    HW1 8402   6.283   4.602   6.780
 2501SOL    HW2 8403   6.293   4.504   6.910
 2502SOL     OW 8404   3.061   6.455   3.475
 2502SOL    HW1 8405   3.064   6.386   3.402
 2502SOL    HW2 8406   3.145   6.451   3.528
 2503SOL     OW 8407   4.046   5.959   5.665
 2503SOL    HW1 8408   3.983   6.020   5.712
 2503SOL    HW2 8409   4.113   5.923   5.730
 2504SOL     OW 8410   2.724   5.267   5.066
 2504SOL    HW1 8411   2.697   5.325   5.142
 2504SOL    HW2 8412   2.758   5.179   5.101
 2505SOL     OW 8413   3.416   6.270   4.703
 2505SOL    HW1 8414   3.379   6.362   4.697
 2505SOL    HW2 8415   3.347   6.204   4.672
 2506SOL     OW 8416   7.006   3.380   6.032
 2506SOL    HW1 8417   0.060   3.342   5.975
 2506SOL    HW2 8418   6.973   3.465   5.991
 2507SOL     OW 8419   6.321   5.068   0.142
 2507SOL    HW1 8420   6.252   4.995   0.152
 2507SOL    HW2 8421   6.286   5.152   0.182
 2508SOL     OW 8422   2.604   2.328   2.020
 2508SOL    HW1 8423   2.702   2.309   2.026
 2508SOL    HW2 8424   2.570   2.300   1.930
 2509SOL     OW 8425   5.386   1.439   2.354
 2509SOL    HW1 8426   5.396   1.365   2.287
 2509SOL    HW2 8427   5.461   1.434   2.420
 2510SOL     OW 8428   2.381   4.314   0.650
 2510SOL    HW1 8429   2.437   4.232   0.663
 2510SOL    HW2 8430   2.423   4.391   0.698
 2511SOL     OW 8431   1.546   1.742   4.942
 2511SOL    HW1 8432   1.464   1.797   4.926
 2511SOL    HW2 8433   1.533   1.651   4.903
 2512SOL     OW 8434   5.641   4.345   4.834
 2512SOL    HW1 8435   5.563   4.289   4.861
 2512SOL    HW2 8436   5.657   4.416   4.904
 2513SOL     OW 8437   0.885   2.396   5.971
 2513SOL    HW1 8438   0.979   2.361   5.967
 2513SOL    HW2 8439   0.886   2.496   5.966
 2514SOL     OW 8440   0.084   2.855   4.052
 2514SOL    HW1 8441   0.093   2.948   4.089
 2514SOL    HW2 8442   0.088   2.858   3.952
 2515SOL     OW 8443   1.244   6.847   1.151
 2515SOL    HW1 8444   1.230   6.837   1.053
 2515SOL    HW2 8445   1.232   6.942   1.177
 2516SOL     OW 8446   6.065   5.222   3.146
 2516SOL    HW1 8447   6.050   5.208   3.244
 2516SOL    HW2 8448   6.138   5.160   3.115
 2517SOL     OW 8449   2.107   4.934   6.251
 2517SOL    HW1 8450   2.053   4.878   6.188
 2517SOL    HW2 8451   2.181   4.879   6.291
 2518SOL     OW 8452   2.212   3.058   6.881
 2518SOL    HW1 8453   2.193   3.092   6.973
 2518SOL    HW2 8454   2.192   2.960   6.876
 2519SOL     OW 8455   4.443   4.853   4.064
 2519SOL    HW1 8456   4.475   4.944   4.090
 2519SOL    HW2 8457   4.422   4.799   4.146
 2520SOL     OW 8458   1.760   2.715   0.781
 2520SOL    HW1 8459   1.786   2.773   0.858
 2520SOL    HW2 8460   1.789   2.621   0.800
 2521SOL     OW 8461   0.871   0.139   5.720
 2521SOL    HW1 8462   0.899   0.131   5.816
 2521SOL    HW2 8463   0.810   0.063   5.697
 2522SOL     OW 8464   0.988   2.762   4.803
 2522SOL    HW1 8465   0.949   2.739   4.714
 2522SOL    HW2 8466   0.928   2.730   4.876
 2523SOL     OW 8467   6.890   3.173   1.037
 2523SOL    HW1 8468   6.914   3.118   0.957
 2523SOL    HW2 8469   6.914   3.123   1.120
 2524SOL     OW 8470   0.309   6.075   4.422
 2524SOL    HW1 8471   0.341   6.001   4.363
 2524SOL    HW2 8472   0.305   6.160   4.369
 2525SOL     OW 8473   1.527   3.268   4.483
 2525SOL    HW1 8474   1.499   3.187   4.431
 2525SOL    HW2 8475   1.626   3.276   4.480
 2526SOL     OW 8476   0.510   3.135   5.363
 2526SOL    HW1 8477   0.507   3.084   5.449
 2526SOL    HW2 8478   0.497   3.072   5.286
 2527SOL     OW 8479   6.043   0.083   5.442
 2527SOL    HW1 8480   6.071   7.008   5.426
 2527SOL    HW2 8481   6.106   0.125   5.507
 2528SOL     OW 8482   5.402   4.906   0.802
 2528SOL    HW1 8483   5.470   4.978   0.815
 2528SOL    HW2 8484   5.386   4.892   0.704
 2529SOL     OW 8485   4.985   4.655   6.335
 2529SOL    HW1 8486   5.004   4.562   6.366
 2529SOL    HW2 8487   4.905   4.691   6.382
 2530SOL     OW 8488   1.075   6.253   4.234
 2530SOL    HW1 8489   1.155   6.194   4.224
 2530SOL    HW2 8490   1.089   6.339   4.184
 2531SOL     OW 8491   5.677   6.498   4.809
 2531SOL    HW1 8492   5.600   6.439   4.834
 2531SOL    HW2 8493   5.726   6.459   4.731
 2532SOL     OW 8494   0.665   5.832   0.480
 2532SOL    HW1 8495   0.714   5.822   0.394
 2532SOL    HW2 8496   0.631   5.744   0.511
 2533SOL     OW 8497   5.238   6.299   5.096
 2533SOL    HW1 8498   5.183   6.363   5.042
 2533SOL    HW2 8499   5.203   6.295   5.189
 2534SOL     OW 8500   2.369   0.575   3.273
 2534SOL    HW1 8501   2.316   0.580   3.358
 2534SOL    HW2 8502   2.371   0.481   3.240
 2535SOL     OW 8503   1.810   1.999   6.103
 2535SOL    HW1 8504   1.818   1.918   6.045
 2535SOL    HW2 8505   1.716   2.007   6.136
 2536SOL     OW 8506   6.870   1.988   3.585
 2536SOL    HW1 8507   6.920   1.913   3.542
 2536SOL    HW2 8508   6.894   2.075   3.542
 2537SOL     OW 8509   4.927   6.340   0.795
 2537SOL    HW1 8510   4.885   6.337   0.705
 2537SOL    HW2 8511   4.891   6.418   0.847
 2538SOL     OW 8512   2.144   4.476   4.769
 2538SOL    HW1 8513   2.174   4.382   4.780
 2538SOL    HW2 8514   2.137   4.498   4.671
 2539SOL     OW 8515   4.186   0.096   5.363
 2539SOL    HW1 8516   4.157   0.191   5.350
 2539SOL    HW2 8517   4.285   0.093   5.379
 2540SOL     OW 8518   5.642   1.162   1.308
 2540SOL    HW1 8519   5.730   1.146   1.262
 2540SOL    HW2 8520   5.599   1.075   1.329
 2541SOL     OW 8521   1.467   0.402   5.377
 2541SOL    HW1 8522   1.463   0.455   5.292
 2541SOL    HW2 8523   1.377   0.363   5.397
 2542SOL     OW 8524   4.099   2.234   4.593
 2542SOL    HW1 8525   4.125   2.138   4.583
 2542SOL    HW2 8526   4.053   2.247   4.681
 2543SOL     OW 8527   1.410   0.372   2.947
 2543SOL    HW1 8528   1.438   0.368   3.043
 2543SOL    HW2 8529   1.325   0.424   2.940
 2544SOL     OW 8530   0.688   5.108   1.775
 2544SOL    HW1 8531   0.738   5.166   1.711
 2544SOL    HW2 8532   0.742   5.025   1.794
 2545SOL     OW 8533   1.774   1.568   1.648
 2545SOL    HW1 8534   1.745   1.633   1.577
 2545SOL    HW2 8535   1.697   1.512   1.676
 2546SOL     OW 8536   7.015   3.376   1.319
 2546SOL    HW1 8537   6.927   3.396   1.274
 2546SOL    HW2 8538   0.042   3.303   1.270
 2547SOL     OW 8539   5.443   5.283   0.953
 2547SOL    HW1 8540   5.495   5.362   0.918
 2547SOL    HW2 8541   5.494   5.199   0.933
 2548SOL     OW 8542   1.835   0.353   4.913
 2548SOL    HW1 8543   1.869   0.310   4.996
 2548SOL    HW2 8544   1.879   0.442   4.901
 2549SOL     OW 8545   2.114   2.657   1.485
 2549SOL    HW1 8546   2.187   2.615   1.431
 2549SOL    HW2 8547   2.027   2.647   1.437
 2550SOL     OW 8548   5.524   0.043   6.706
 2550SOL    HW1 8549   5.620   0.039   6.734
 2550SOL    HW2 8550   5.501   6.980   6.656
 2551SOL     OW 8551   3.838   4.985   0.022
 2551SOL    HW1 8552   3.803   5.062   0.076
 2551SOL    HW2 8553   3.854   4.907   0.083
 2552SOL     OW 8554   2.327   5.296   6.527
 2552SOL    HW1 8555   2.313   5.227   6.598
 2552SOL    HW2 8556   2.414   5.343   6.542
 2553SOL     OW 8557   3.639   2.813   6.065
 2553SOL    HW1 8558   3.586   2.828   5.981
 2553SOL    HW2 8559   3.627   2.719   6.096
 2554SOL     OW 8560   1.727   6.188   6.561
 2554SOL    HW1 8561   1.735   6.140   6.474
 2554SOL    HW2 8562   1.734   6.286   6.546
 2555SOL     OW 8563   6.299   6.087   6.488
 2555SOL    HW1 8564   6.202   6.087   6.466
 2555SOL    HW2 8565   6.314   6.040   6.575
 2556SOL     OW 8566   3.842   0.136   1.203
 2556SOL    HW1 8567   3.905   0.212   1.189
 2556SOL    HW2 8568   3.887   0.065   1.257
 2557SOL     OW 8569   2.831   1.155   0.039
 2557SOL    HW1 8570   2.898   1.140   6.986
 2557SOL    HW2 8571   2.739   1.155   7.020
 2558SOL     OW 8572   4.856   3.990   5.857
 2558SOL    HW1 8573   4.846   4.056   5.931
 2558SOL    HW2 8574   4.770   3.942   5.843
 2559SOL     OW 8575   6.791   3.476   3.635
 2559SOL    HW1 8576   6.739   3.506   3.555
 2559SOL    HW2 8577   6.770   3.535   3.713
 2560SOL     OW 8578   4.840   3.728   3.421
 2560SOL    HW1 8579   4.814   3.631   3.420
 2560SOL    HW2 8580   4.890   3.749   3.504
 2561SOL     OW 8581   3.928   1.513   3.116
 2561SOL    HW1 8582   3.877   1.599   3.109
 2561SOL    HW2 8583   3.950   1.494   3.211
 2562SOL     OW 8584   3.210   5.952   3.260
 2562SOL    HW1 8585   3.197   5.862   3.218
 2562SOL    HW2 8586   3.249   5.942   3.351
 2563SOL     OW 8587   3.673   1.656   6.560
 2563SOL    HW1 8588   3.591   1.601   6.574
 2563SOL    HW2 8589   3.651   1.733   6.500
 2564SOL     OW 8590   2.342   6.802   0.527
 2564SOL    HW1 8591   2.413   6.744   0.487
 2564SOL    HW2 8592   2.346   6.893   0.486
 2565SOL     OW 8593   0.257   1.165   6.847
 2565SOL    HW1 8594   0.246   1.220   6.764
 2565SOL    HW2 8595   0.167   1.143   6.885
 2566SOL     OW 8596   2.680   6.466   1.676
 2566SOL    HW1 8597   2.729   6.481   1.761
 2566SOL    HW2 8598   2.584   6.447   1.696
 2567SOL     OW 8599   1.646   1.327   1.406
 2567SOL    HW1 8600   1.561   1.286   1.440
 2567SOL    HW2 8601   1.724   1.282   1.449
 2568SOL     OW 8602   2.907   6.786   0.864
 2568SOL    HW1 8603   2.957   6.807   0.948
 2568SOL    HW2 8604   2.841   6.859   0.846
 2569SOL     OW 8605   2.881   2.086   1.874
 2569SOL    HW1 8606   2.858   2.018   1.944
 2569SOL    HW2 8607   2.850   2.177   1.904
 2570SOL     OW 8608   5.299   6.036   5.946
 2570SOL    HW1 8609   5.343   6.120   5.916
 2570SOL    HW2 8610   5.224   6.013   5.883
 2571SOL     OW 8611   3.852   2.962   4.616
 2571SOL    HW1 8612   3.887   3.045   4.570
 2571SOL    HW2 8613   3.928   2.916   4.661
 2572SOL     OW 8614   2.437   6.205   1.365
 2572SOL    HW1 8615   2.421   6.150   1.283
 2572SOL    HW2 8616   2.439   6.302   1.341
 2573SOL     OW 8617   6.433   2.154   3.695
 2573SOL    HW1 8618   6.363   2.089   3.726
 2573SOL    HW2 8619   6.390   2.223   3.637
 2574SOL     OW 8620   6.256   3.338   0.733
 2574SOL    HW1 8621   6.178   3.374   0.784
 2574SOL    HW2 8622   6.232   3.248   0.695
 2575SOL     OW 8623   5.281   3.790   1.349
 2575SOL    HW1 8624   5.191   3.780   1.391
 2575SOL    HW2 8625   5.352   3.777   1.419
 2576SOL     OW 8626   3.380   6.956   3.895
 2576SOL    HW1 8627   3.452   6.892   3.870
 2576SOL    HW2 8628   3.358   7.013   3.816
 2577SOL     OW 8629   4.427   0.596   3.774
 2577SOL    HW1 8630   4.358   0.665   3.796
 2577SOL    HW2 8631   4.476   0.569   3.857
 2578SOL     OW 8632   5.208   3.033   5.043
 2578SOL    HW1 8633   5.146   3.104   5.073
 2578SOL    HW2 8634   5.164   2.943   5.054
 2579SOL     OW 8635   0.841   1.463   5.585
 2579SOL    HW1 8636   0.893   1.384   5.619
 2579SOL    HW2 8637   0.889   1.547   5.609
 2580SOL     OW 8638   1.977   2.645   5.628
 2580SOL    HW1 8639   1.937   2.670   5.540
 2580SOL    HW2 8640   2.045   2.714   5.654
 2581SOL     OW 8641   5.590   4.651   1.737
 2581SOL    HW1 8642   5.537   4.571   1.708
 2581SOL    HW2 8643   5.604   4.648   1.836
 2582SOL     OW 8644   2.147   4.640   3.283
 2582SOL    HW1 8645   2.225   4.678   3.334
 2582SOL    HW2 8646   2.142   4.542   3.299
 2583SOL     OW 8647   1.375   0.824   1.028
 2583SOL    HW1 8648   1.283   0.797   1.001
 2583SOL    HW2 8649   1.435   0.743   1.027
 2584SOL     OW 8650   3.962   6.527   0.736
 2584SOL    HW1 8651   3.964   6.433   0.770
 2584SOL    HW2 8652   4.046   6.575   0.763
 2585SOL     OW 8653   2.949   0.471   0.476
 2585SOL    HW1 8654   2.859   0.513   0.483
 2585SOL    HW2 8655   3.004   0.496   0.555
 2586SOL     OW 8656   5.415   1.399   4.814
 2586SOL    HW1 8657   5.493   1.439   4.767
 2586SOL    HW2 8658   5.421   1.299   4.809
 2587SOL     OW 8659   6.598   0.039   4.397
 2587SOL    HW1 8660   6.592   0.120   4.455
 2587SOL    HW2 8661   6.691   0.001   4.403
 2588SOL     OW 8662   5.112   0.001   0.689
 2588SOL    HW1 8663   5.202   0.043   0.693
 2588SOL    HW2 8664   5.067   0.027   0.604
 2589SOL     OW 8665   6.966   6.930   4.980
 2589SOL    HW1 8666   6.909   6.854   4.951
 2589SOL    HW2 8667   0.015   6.949   4.910
 2590SOL     OW 8668   3.887   0.365   2.587
 2590SOL    HW1 8669   3.898   0.406   2.678
 2590SOL    HW2 8670   3.893   0.265   2.595
 2591SOL     OW 8671   6.129   6.261   1.813
 2591SOL    HW1 8672   6.142   6.189   1.881
 2591SOL    HW2 8673   6.213   6.316   1.806
 2592SOL     OW 8674   2.878   6.409   1.887
 2592SOL    HW1 8675   2.908   6.317   1.910
 2592SOL    HW2 8676   2.956   6.462   1.851
 2593SOL     OW 8677   3.867   6.913   2.153
 2593SOL    HW1 8678   3.869   6.948   2.059
 2593SOL    HW2 8679   3.855   6.814   2.151
 2594SOL     OW 8680   0.669   6.559   6.233
 2594SOL    HW1 8681   0.588   6.537   6.179
 2594SOL    HW2 8682   0.684   6.658   6.232
 2595SOL     OW 8683   0.083   2.063   5.551
 2595SOL    HW1 8684   0.132   2.067   5.464
 2595SOL    HW2 8685   0.108   2.142   5.607
 2596SOL     OW 8686   3.713   2.481   1.660
 2596SOL    HW1 8687   3.669   2.426   1.731
 2596SOL    HW2 8688   3.723   2.575   1.691
 2597SOL     OW 8689   2.114   3.853   0.895
 2597SOL    HW1 8690   2.173   3.907   0.955
 2597SOL    HW2 8691   2.021   3.889   0.897
 2598SOL     OW 8692   5.818   2.869   4.436
 2598SOL    HW1 8693   5.833   2.775   4.405
 2598SOL    HW2 8694   5.798   2.927   4.358
 2599SOL     OW 8695   3.801   5.765   0.039
 2599SOL    HW1 8696   3.846   5.688   0.084
 2599SOL    HW2 8697   3.721   5.792   0.091
 2600SOL     OW 8698   4.864   3.780   4.019
 2600SOL    HW1 8699   4.879   3.691   3.976
 2600SOL    HW2 8700   4.851   3.768   4.118
 2601SOL     OW 8701   3.332   2.429   6.517
 2601SOL    HW1 8702   3.430   2.442   6.506
 2601SOL    HW2 8703   3.313   2.334   6.544
 2602SOL     OW 8704   6.812   4.378   3.359
 2602SOL    HW1 8705   6.872   4.399   3.436
 2602SOL    HW2 8706   6.863   4.330   3.289
 2603SOL     OW 8707   2.698   2.154   1.368
 2603SOL    HW1 8708   2.725   2.188   1.458
 2603SOL    HW2 8709   2.691   2.231   1.304
 2604SOL     OW 8710   5.230   1.203   1.381
 2604SOL    HW1 8711   5.239   1.155   1.468
 2604SOL    HW2 8712   5.212   1.137   1.308
 2605SOL     OW 8713   4.130   4.807   3.387
 2605SOL    HW1 8714   4.155   4.782   3.481
 2605SOL    HW2 8715   4.048   4.864   3.389
 2606SOL     OW 8716   6.340   5.035   0.820
 2606SOL    HW1 8717   6.389   4.956   0.856
 2606SOL    HW2 8718   6.381   5.119   0.854
 2607SOL     OW 8719   0.583   2.058   5.410
 2607SOL    HW1 8720   0.570   2.078   5.507
 2607SOL    HW2 8721   0.613   2.140   5.363
 2608SOL     OW 8722   5.021   6.383   3.008
 2608SOL    HW1 8723   5.073   6.379   2.923
 2608SOL    HW2 8724   4.983   6.475   3.020
 2609SOL     OW 8725   0.462   2.310   1.224
 2609SOL    HW1 8726   0.560   2.319   1.243
 2609SOL    HW2 8727   0.446   2.229   1.167
 2610SOL     OW 8728   6.767   5.099   4.660
 2610SOL    HW1 8729   6.792   5.190   4.695
 2610SOL    HW2 8730   6.850   5.052   4.630
 2611SOL     OW 8731   6.346   6.799   1.120
 2611SOL    HW1 8732   6.414   6.793   1.047
 2611SOL    HW2 8733   6.284   6.875   1.103
 2612SOL     OW 8734   6.701   6.527   4.756
 2612SOL    HW1 8735   6.787   6.477   4.764
 2612SOL    HW2 8736   6.694   6.567   4.665
 2613SOL     OW 8737   2.975   6.621   2.144
 2613SOL    HW1 8738   2.892   6.669   2.171
 2613SOL    HW2 8739   2.951   6.533   2.104
 2614SOL     OW 8740   6.399   6.178   5.869
 2614SOL    HW1 8741   6.366   6.129   5.950
 2614SOL    HW2 8742   6.358   6.269   5.867
 2615SOL     OW 8743   5.420   5.012   3.132
 2615SOL    HW1 8744   5.358   4.973   3.200
 2615SOL    HW2 8745   5.366   5.054   3.058
 2616SOL     OW 8746   3.886   3.135   3.966
 2616SOL    HW1 8747   3.831   3.104   4.043
 2616SOL    HW2 8748   3.835   3.205   3.915
 2617SOL     OW 8749   3.356   5.941   1.096
 2617SOL    HW1 8750   3.434   5.991   1.057
 2617SOL    HW2 8751   3.271   5.980   1.061
 2618SOL     OW 8752   0.253   6.724   3.803
 2618SOL    HW1 8753   0.350   6.699   3.802
 2618SOL    HW2 8754   0.243   6.823   3.798
 2619SOL     OW 8755   3.183   1.423   2.757
 2619SOL    HW1 8756   3.223   1.346   2.708
 2619SOL    HW2 8757   3.216   1.424   2.852
 2620SOL     OW 8758   1.123   5.851   3.591
 2620SOL    HW1 8759   1.152   5.795   3.514
 2620SOL    HW2 8760   1.141   5.803   3.676
 2621SOL     OW 8761   1.567   5.723   3.576
 2621SOL    HW1 8762   1.648   5.683   3.620
 2621SOL    HW2 8763   1.508   5.650   3.542
 2622SOL     OW 8764   2.323   2.532   6.747
 2622SOL    HW1 8765   2.294   2.457   6.688
 2622SOL    HW2 8766   2.419   2.554   6.730
 2623SOL     OW 8767   3.901   1.958   4.649
 2623SOL    HW1 8768   3.913   2.053   4.678
 2623SOL    HW2 8769   3.813   1.949   4.601
 2624SOL     OW 8770   6.743   3.098   3.797
 2624SOL    HW1 8771   6.754   3.017   3.854
 2624SOL    HW2 8772   6.833   3.131   3.769
 2625SOL     OW 8773   2.273   2.987   5.344
 2625SOL    HW1 8774   2.334   3.019   5.271
 2625SOL    HW2 8775   2.293   3.036   5.429
 2626SOL     OW 8776   0.519   6.691   3.888
 2626SOL    HW1 8777   0.529   6.600   3.848
 2626SOL    HW2 8778   0.505   6.683   3.987
 2627SOL     OW 8779   0.403   0.850   4.260
 2627SOL    HW1 8780   0.448   0.828   4.173
 2627SOL    HW2 8781   0.472   0.855   4.332
 2628SOL     OW 8782   3.685   5.605   6.821
 2628SOL    HW1 8783   3.689   5.681   6.886
 2628SOL    HW2 8784   3.762   5.543   6.837
 2629SOL     OW 8785   3.450   4.006   2.164
 2629SOL    HW1 8786   3.515   4.064   2.213
 2629SOL    HW2 8787   3.359   4.019   2.203
 2630SOL     OW 8788   3.932   2.037   2.301
 2630SOL    HW1 8789   3.945   2.076   2.210
 2630SOL    HW2 8790   3.835   2.015   2.315
 2631SOL     OW 8791   4.383   6.683   3.615
 2631SOL    HW1 8792   4.450   6.743   3.571
 2631SOL    HW2 8793   4.374   6.709   3.711
 2632SOL     OW 8794   2.913   2.161   5.930
 2632SOL    HW1 8795   2.886   2.253   5.902
 2632SOL    HW2 8796   2.907   2.099   5.852
 2633SOL     OW 8797   6.470   2.466   6.057
 2633SOL    HW1 8798   6.505   2.503   6.143
 2633SOL    HW2 8799   6.535   2.485   5.984
 2634SOL     OW 8800   2.226   3.994   3.286
 2634SOL    HW1 8801   2.257   4.086   3.261
 2634SOL    HW2 8802   2.217   3.938   3.204
 2635SOL     OW 8803   5.640   5.622   4.228
 2635SOL    HW1 8804   5.699   5.612   4.308
 2635SOL    HW2 8805   5.544   5.627   4.258
 2636SOL     OW 8806   5.203   0.444   5.853
 2636SOL    HW1 8807   5.160   0.510   5.914
 2636SOL    HW2 8808   5.227   0.362   5.904
 2637SOL     OW 8809   6.495   0.975   3.503
 2637SOL    HW1 8810   6.562   1.000   3.573
 2637SOL    HW2 8811   6.543   0.952   3.418
 2638SOL     OW 8812   0.115   6.861   2.964
 2638SOL    HW1 8813   0.042   6.801   2.932
 2638SOL    HW2 8814   0.197   6.845   2.909
 2639SOL     OW 8815   6.993   6.595   1.803
 2639SOL    HW1 8816   6.908   6.635   1.769
 2639SOL    HW2 8817   0.026   6.559   1.726
 2640SOL     OW 8818   6.985   6.577   5.717
 2640SOL    HW1 8819   0.044   6.552   5.659
 2640SOL    HW2 8820   6.949   6.666   5.687
 2641SOL     OW 8821   5.478   3.385   1.433
 2641SOL    HW1 8822   5.557   3.411   1.378
 2641SOL    HW2 8823   5.510   3.333   1.513
 2642SOL     OW 8824   5.051   0.603   4.732
 2642SOL    HW1 8825   4.960   0.635   4.706
 2642SOL    HW2 8826   5.048   0.565   4.824
 2643SOL     OW 8827   0.965   4.770   3.124
 2643SOL    HW1 8828   1.063   4.781   3.106
 2643SOL    HW2 8829   0.920   4.735   3.041
 2644SOL     OW 8830   0.574   4.161   4.925
 2644SOL    HW1 8831   0.525   4.164   5.012
 2644SOL    HW2 8832   0.623   4.074   4.917
 2645SOL     OW 8833   4.780   6.575   4.893
 2645SOL    HW1 8834   4.723   6.643   4.847
 2645SOL    HW2 8835   4.739   6.549   4.980
 2646SOL     OW 8836   6.217   6.691   6.690
 2646SOL    HW1 8837   6.242   6.716   6.783
 2646SOL    HW2 8838   6.279   6.620   6.657
 2647SOL     OW 8839   5.632   1.007   0.566
 2647SOL    HW1 8840   5.731   1.016   0.555
 2647SOL    HW2 8841   5.602   1.058   0.646
 2648SOL     OW 8842   6.683   6.586   3.839
 2648SOL    HW1 8843   6.598   6.584   3.786
 2648SOL    HW2 8844   6.705   6.681   3.862
 2649SOL     OW 8845   4.234   1.960   6.113
 2649SOL    HW1 8846   4.215   1.932   6.019
 2649SOL    HW2 8847   4.323   1.925   6.142
 2650SOL     OW 8848   0.354   4.009   4.001
 2650SOL    HW1 8849   0.273   4.006   4.060
 2650SOL    HW2 8850   0.346   4.088   3.939
 2651SOL     OW 8851   1.427   1.842   0.361
 2651SOL    HW1 8852   1.332   1.817   0.343
 2651SOL    HW2 8853   1.482   1.759   0.372
 2652SOL     OW 8854   2.973   3.783   3.387
 2652SOL    HW1 8855   2.917   3.780   3.470
 2652SOL    HW2 8856   3.044   3.713   3.393
 2653SOL     OW 8857   5.226   0.013   5.068
 2653SOL    HW1 8858   5.250   0.104   5.103
 2653SOL    HW2 8859   5.201   6.974   5.144
 2654SOL     OW 8860   4.691   3.278   0.225
 2654SOL    HW1 8861   4.610   3.245   0.272
 2654SOL    HW2 8862   4.727   3.206   0.165
 2655SOL     OW 8863   4.538   4.591   4.574
 2655SOL    HW1 8864   4.616   4.628   4.625
 2655SOL    HW2 8865   4.453   4.613   4.623
 2656SOL     OW 8866   4.069   4.921   4.141
 2656SOL    HW1 8867   3.984   4.962   4.108
 2656SOL    HW2 8868   4.112   4.868   4.067
 2657SOL     OW 8869   2.541   4.566   6.427
 2657SOL    HW1 8870   2.614   4.633   6.439
 2657SOL    HW2 8871   2.514   4.563   6.331
 2658SOL     OW 8872   5.219   4.158   6.947
 2658SOL    HW1 8873   5.121   4.147   6.968
 2658SOL    HW2 8874   5.272   4.091   6.998
 2659SOL     OW 8875   6.188   2.349   4.288
 2659SOL    HW1 8876   6.248   2.314   4.360
 2659SOL    HW2 8877   6.226   2.326   4.198
 2660SOL     OW 8878   0.809   2.095   0.773
 2660SOL    HW1 8879   0.886   2.039   0.805
 2660SOL    HW2 8880   0.832   2.192   0.780
 2661SOL     OW 8881   2.227   6.357   1.939
 2661SOL    HW1 8882   2.220   6.449   1.976
 2661SOL    HW2 8883   2.285   6.358   1.857
 2662SOL     OW 8884   4.423   0.231   4.913
 2662SOL    HW1 8885   4.404   0.271   5.002
 2662SOL    HW2 8886   4.479   0.149   4.924
 2663SOL     OW 8887   2.533   4.782   1.130
 2663SOL    HW1 8888   2.524   4.881   1.114
 2663SOL    HW2 8889   2.468   4.754   1.201
 2664SOL     OW 8890   3.906   3.572   3.466
 2664SOL    HW1 8891   3.838   3.541   3.400
 2664SOL    HW2 8892   3.860   3.611   3.546
 2665SOL     OW 8893   3.238   1.898   4.769
 2665SOL    HW1 8894   3.258   1.960   4.845
 2665SOL    HW2 8895   3.148   1.920   4.731
 2666SOL     OW 8896   4.754   3.544   1.524
 2666SOL    HW1 8897   4.822   3.474   1.503
 2666SOL    HW2 8898   4.699   3.515   1.602
 2667SOL     OW 8899   1.691   5.585   4.518
 2667SOL    HW1 8900   1.784   5.554   4.502
 2667SOL    HW2 8901   1.674   5.590   4.616
 2668SOL     OW 8902   6.486   3.154   3.337
 2668SOL    HW1 8903   6.577   3.145   3.378
 2668SOL    HW2 8904   6.454   3.249   3.347
 2669SOL     OW 8905   2.785   5.057   5.235
 2669SOL    HW1 8906   2.873   5.104   5.242
 2669SOL    HW2 8907   2.798   4.959   5.248
 2670SOL     OW 8908   5.814   1.079   6.514
 2670SOL    HW1 8909   5.755   0.999   6.500
 2670SOL    HW2 8910   5.797   1.117   6.605
 2671SOL     OW 8911   3.030   4.937   0.512
 2671SOL    HW1 8912   3.051   4.941   0.414
 2671SOL    HW2 8913   2.997   5.027   0.542
 2672SOL     OW 8914   0.523   5.525   6.495
 2672SOL    HW1 8915   0.558   5.612   6.529
 2672SOL    HW2 8916   0.599   5.462   6.480
 2673SOL     OW 8917   5.487   2.488   3.897
 2673SOL    HW1 8918   5.431   2.523   3.973
 2673SOL    HW2 8919   5.512   2.564   3.837
 2674SOL     OW 8920   2.193   4.119   4.397
 2674SOL    HW1 8921   2.098   4.131   4.424
 2674SOL    HW2 8922   2.251   4.180   4.452
 2675SOL     OW 8923   0.610   4.724   5.450
 2675SOL    HW1 8924   0.699   4.719   5.404
 2675SOL    HW2 8925   0.538   4.692   5.389
 2676SOL     OW 8926   4.513   0.679   3.038
 2676SOL    HW1 8927   4.523   0.613   2.964
 2676SOL    HW2 8928   4.598   0.683   3.091
 2677SOL     OW 8929   3.266   5.363   1.170
 2677SOL    HW1 8930   3.292   5.458   1.186
 2677SOL    HW2 8931   3.323   5.303   1.227
 2678SOL     OW 8932   0.210   4.173   0.865
 2678SOL    HW1 8933   0.196   4.103   0.936
 2678SOL    HW2 8934   0.252   4.254   0.906
 2679SOL     OW 8935   4.195   5.529   1.277
 2679SOL    HW1 8936   4.197   5.510   1.179
 2679SOL    HW2 8937   4.149   5.455   1.325
 2680SOL     OW 8938   1.378   1.291   0.841
 2680SOL    HW1 8939   1.290   1.244   0.846
 2680SOL    HW2 8940   1.386   1.354   0.919
 2681SOL     OW 8941   1.187   2.329   4.297
 2681SOL    HW1 8942   1.133   2.281   4.227
 2681SOL    HW2 8943   1.253   2.265   4.338
 2682SOL     OW 8944   5.564   3.338   2.115
 2682SOL    HW1 8945   5.584   3.245   2.085
 2682SOL    HW2 8946   5.465   3.353   2.112
 2683SOL     OW 8947   1.559   3.657   0.123
 2683SOL    HW1 8948   1.598   3.584   0.179
 2683SOL    HW2 8949   1.519   3.617   0.041
 2684SOL     OW 8950   3.917   5.115   3.308
 2684SOL    HW1 8951   3.954   5.080   3.222
 2684SOL    HW2 8952   3.880   5.040   3.362
 2685SOL     OW 8953   6.926   6.874   5.597
 2685SOL    HW1 8954   6.845   6.836   5.553
 2685SOL    HW2 8955   6.976   6.931   5.532
 2686SOL     OW 8956   1.639   2.573   5.483
 2686SOL    HW1 8957   1.683   2.505   5.424
 2686SOL    HW2 8958   1.605   2.649   5.427
 2687SOL     OW 8959   4.298   4.669   3.021
 2687SOL    HW1 8960   4.380   4.727   3.024
 2687SOL    HW2 8961   4.321   4.577   3.055
 2688SOL     OW 8962   4.487   5.560   6.314
 2688SOL    HW1 8963   4.391   5.561   6.287
 2688SOL    HW2 8964   4.494   5.558   6.414
 2689SOL     OW 8965   2.302   2.174   3.605
 2689SOL    HW1 8966   2.286   2.079   3.580
 2689SOL    HW2 8967   2.334   2.179   3.700
 2690SOL     OW 8968   2.934   3.370   3.627
 2690SOL    HW1 8969   2.907   3.374   3.723
 2690SOL    HW2 8970   2.992   3.290   3.612
 2691SOL     OW 8971   1.377   5.229   2.247
 2691SOL    HW1 8972   1.435   5.200   2.171
 2691SOL    HW2 8973   1.384   5.163   2.322
 2692SOL     OW 8974   5.131   5.834   4.376
 2692SOL    HW1 8975   5.055   5.817   4.313
 2692SOL    HW2 8976   5.104   5.902   4.443
 2693SOL     OW 8977   1.781   4.391   2.964
 2693SOL    HW1 8978   1.830   4.348   3.040
 2693SOL    HW2 8979   1.766   4.324   2.892
 2694SOL     OW 8980   3.649   0.853   2.858
 2694SOL    HW1 8981   3.592   0.808   2.789
 2694SOL    HW2 8982   3.690   0.935   2.817
 2695SOL     OW 8983   5.781   1.679   2.841
 2695SOL    HW1 8984   5.762   1.687   2.939
 2695SOL    HW2 8985   5.832   1.758   2.810
 2696SOL     OW 8986   3.507   3.013   5.075
 2696SOL    HW1 8987   3.481   3.107   5.057
 2696SOL    HW2 8988   3.486   2.956   4.996
 2697SOL     OW 8989   4.669   2.294   3.726
 2697SOL    HW1 8990   4.725   2.319   3.805
 2697SOL    HW2 8991   4.707   2.211   3.684
 2698SOL     OW 8992   2.207   5.332   0.991
 2698SOL    HW1 8993   2.202   5.233   0.999
 2698SOL    HW2 8994   2.116   5.372   1.002
 2699SOL     OW 8995   3.203   5.476   0.314
 2699SOL    HW1 8996   3.123   5.427   0.349
 2699SOL    HW2 8997   3.221   5.555   0.374
 2700SOL     OW 8998   2.077   3.285   1.954
 2700SOL    HW1 8999   2.121   3.373   1.972
 2700SOL    HW2 9000   2.092   3.224   2.031
 2701SOL     OW 9001   4.214   0.011   6.424
 2701SOL    HW1 9002   4.158   6.971   6.482
 2701SOL    HW2 9003   4.162   0.035   6.342
 2702SOL     OW 9004   0.386   1.648   4.044
 2702SOL    HW1 9005   0.363   1.652   3.947
 2702SOL    HW2 9006   0.458   1.715   4.063
 2703SOL     OW 9007   2.240   1.085   2.686
 2703SOL    HW1 9008   2.209   1.072   2.592
 2703SOL    HW2 9009   2.188   1.026   2.747
 2704SOL     OW 9010   1.065   5.183   0.704
 2704SOL    HW1 9011   1.140   5.248   0.692
 2704SOL    HW2 9012   1.025   5.194   0.795
 2705SOL     OW 9013   1.059   5.559   4.152
 2705SOL    HW1 9014   0.974   5.612   4.144
 2705SOL    HW2 9015   1.137   5.621   4.150
 2706SOL     OW 9016   0.620   0.526   1.464
 2706SOL    HW1 9017   0.655   0.566   1.549
 2706SOL    HW2 9018   0.656   0.578   1.386
 2707SOL     OW 9019   2.495   0.579   5.567
 2707SOL    HW1 9020   2.422   0.627   5.519
 2707SOL    HW2 9021   2.563   0.645   5.600
 2708SOL     OW 9022   1.531   2.906   1.555
 2708SOL    HW1 9023   1.601   2.835   1.554
 2708SOL    HW2 9024   1.573   2.995   1.569
 2709SOL     OW 9025   5.721   6.344   1.162
 2709SOL    HW1 9026   5.719   6.427   1.217
 2709SOL    HW2 9027   5.668   6.272   1.207
 2710SOL     OW 9028   6.859   2.756   2.666
 2710SOL    HW1 9029   6.813   2.696   2.731
 2710SOL    HW2 9030   6.881   2.705   2.583
 2711SOL     OW 9031   3.198   0.818   2.882
 2711SOL    HW1 9032   3.240   0.778   2.963
 2711SOL    HW2 9033   3.109   0.855   2.906
 2712SOL     OW 9034   3.993   5.181   0.903
 2712SOL    HW1 9035   4.083   5.139   0.899
 2712SOL    HW2 9036   3.963   5.204   0.811
 2713SOL     OW 9037   1.884   2.457   4.523
 2713SOL    HW1 9038   1.797   2.416   4.495
 2713SOL    HW2 9039   1.917   2.518   4.450
 2714SOL     OW 9040   4.787   2.228   0.052
 2714SOL    HW1 9041   4.748   2.309   0.097
 2714SOL    HW2 9042   4.814   2.162   0.122
 2715SOL     OW 9043   5.789   0.118   0.207
 2715SOL    HW1 9044   5.886   0.140   0.197
 2715SOL    HW2 9045   5.749   0.176   0.278
 2716SOL     OW 9046   5.832   5.395   2.005
 2716SOL    HW1 9047   5.808   5.304   1.971
 2716SOL    HW2 9048   5.752   5.455   1.999
 2717SOL     OW 9049   1.181   5.445   2.010
 2717SOL    HW1 9050   1.181   5.528   1.955
 2717SOL    HW2 9051   1.113   5.453   2.083
 2718SOL     OW 9052   1.904   3.565   4.493
 2718SOL    HW1 9053   1.984   3.515   4.526
 2718SOL    HW2 9054   1.880   3.534   4.401
 2719SOL     OW 9055   5.107   4.918   1.719
 2719SOL    HW1 9056   5.080   4.915   1.623
 2719SOL    HW2 9057   5.153   4.832   1.743
 2720SOL     OW 9058   1.983   6.047   3.286
 2720SOL    HW1 9059   2.071   6.002   3.271
 2720SOL    HW2 9060   1.955   6.032   3.381
 2721SOL     OW 9061   2.759   0.286   5.261
 2721SOL    HW1 9062   2.668   0.300   5.222
 2721SOL    HW2 9063   2.758   0.205   5.320
 2722SOL     OW 9064   6.671   5.301   2.865
 2722SOL    HW1 9065   6.699   5.369   2.933
 2722SOL    HW2 9066   6.743   5.231   2.856
 2723SOL     OW 9067   1.771   0.056   6.209
 2723SOL    HW1 9068   1.856   0.048   6.262
 2723SOL    HW2 9069   1.736   6.984   6.188
 2724SOL     OW 9070   3.270   6.844   6.110
 2724SOL    HW1 9071   3.222   6.798   6.185
 2724SOL    HW2 9072   3.298   6.936   6.140
 2725SOL     OW 9073   6.257   5.051   3.070
 2725SOL    HW1 9074   6.311   5.094   2.998
 2725SOL    HW2 9075   6.270   4.952   3.066
 2726SOL     OW 9076   5.991   4.293   1.218
 2726SOL    HW1 9077   6.040   4.206   1.208
 2726SOL    HW2 9078   5.925   4.303   1.144
 2727SOL     OW 9079   0.072   4.769   2.609
 2727SOL    HW1 9080   0.132   4.689   2.611
 2727SOL    HW2 9081   0.074   4.810   2.518
 2728SOL     OW 9082   3.440   0.493   5.712
 2728SOL    HW1 9083   3.458   0.415   5.653
 2728SOL    HW2 9084   3.442   0.577   5.657
 2729SOL     OW 9085   6.902   5.782   1.804
 2729SOL    HW1 9086   6.940   5.834   1.728
 2729SOL    HW2 9087   6.856   5.700   1.770
 2730SOL     OW 9088   1.771   6.524   0.951
 2730SOL    HW1 9089   1.722   6.574   1.022
 2730SOL    HW2 9090   1.771   6.426   0.973
 2731SOL     OW 9091   3.626   3.775   1.694
 2731SOL    HW1 9092   3.544   3.755   1.748
 2731SOL    HW2 9093   3.689   3.832   1.747
 2732SOL     OW 9094   6.083   3.125   2.008
 2732SOL    HW1 9095   5.997   3.088   1.973
 2732SOL    HW2 9096   6.152   3.124   1.935
 2733SOL     OW 9097   0.324   6.897   5.027
 2733SOL    HW1 9098   0.360   6.831   5.092
 2733SOL    HW2 9099   0.395   6.964   5.005
 2734SOL     OW 9100   2.144   5.137   2.404
 2734SOL    HW1 9101   2.097   5.202   2.344
 2734SOL    HW2 9102   2.167   5.182   2.491
 2735SOL     OW 9103   0.815   3.655   2.949
 2735SOL    HW1 9104   0.889   3.707   2.993
 2735SOL    HW2 9105   0.788   3.579   3.010
 2736SOL     OW 9106   5.146   0.611   3.699
 2736SOL    HW1 9107   5.195   0.538   3.651
 2736SOL    HW2 9108   5.203   0.693   3.702
 2737SOL     OW 9109   3.342   3.465   5.603
 2737SOL    HW1 9110   3.374   3.378   5.565
 2737SOL    HW2 9111   3.409   3.500   5.668
 2738SOL     OW 9112   5.117   5.137   4.445
 2738SOL    HW1 9113   5.056   5.132   4.524
 2738SOL    HW2 9114   5.205   5.174   4.475
 2739SOL     OW 9115   6.256   4.724   0.496
 2739SOL    HW1 9116   6.311   4.805   0.517
 2739SOL    HW2 9117   6.191   4.708   0.571
 2740SOL     OW 9118   5.673   2.502   2.585
 2740SOL    HW1 9119   5.744   2.469   2.522
 2740SOL    HW2 9120   5.709   2.578   2.639
 2741SOL     OW 9121   6.771   1.632   6.314
 2741SOL    HW1 9122   6.787   1.715   6.367
 2741SOL    HW2 9123   6.774   1.653   6.216
 2742SOL     OW 9124   1.965   5.557   6.529
 2742SOL    HW1 9125   1.890   5.490   6.524
 2742SOL    HW2 9126   2.018   5.553   6.444
 2743SOL     OW 9127   6.280   5.309   1.739
 2743SOL    HW1 9128   6.286   5.406   1.762
 2743SOL    HW2 9129   6.365   5.280   1.694
 2744SOL     OW 9130   4.013   3.033   6.674
 2744SOL    HW1 9131   3.995   3.074   6.584
 2744SOL    HW2 9132   3.968   2.944   6.679
 2745SOL     OW 9133   1.371   0.300   6.753
 2745SOL    HW1 9134   1.299   0.325   6.817
 2745SOL    HW2 9135   1.359   0.205   6.723
 2746SOL     OW 9136   2.112   2.401   4.328
 2746SOL    HW1 9137   2.145   2.396   4.423
 2746SOL    HW2 9138   2.047   2.476   4.320
 2747SOL     OW 9139   5.441   3.975   5.397
 2747SOL    HW1 9140   5.517   4.012   5.452
 2747SOL    HW2 9141   5.464   3.882   5.369
 2748SOL     OW 9142   3.819   1.496   1.130
 2748SOL    HW1 9143   3.756   1.574   1.127
 2748SOL    HW2 9144   3.910   1.526   1.100
 2749SOL     OW 9145   5.875   4.384   4.228
 2749SOL    HW1 9146   5.876   4.310   4.295
 2749SOL    HW2 9147   5.781   4.409   4.207
 2750SOL     OW 9148   0.409   5.446   1.637
 2750SOL    HW1 9149   0.313   5.473   1.633
 2750SOL    HW2 9150   0.445   5.461   1.730
 2751SOL     OW 9151   1.868   6.960   0.549
 2751SOL    HW1 9152   1.804   6.992   0.478
 2751SOL    HW2 9153   1.944   6.912   0.505
 2752SOL     OW 9154   5.451   5.566   5.182
 2752SOL    HW1 9155   5.412   5.512   5.256
 2752SOL    HW2 9156   5.550   5.554   5.180
 2753SOL     OW 9157   1.615   6.706   5.956
 2753SOL    HW1 9158   1.546   6.647   5.915
 2753SOL    HW2 9159   1.703   6.658   5.960
 2754SOL     OW 9160   6.417   0.541   4.535
 2754SOL    HW1 9161   6.442   0.521   4.440
 2754SOL    HW2 9162   6.366   0.464   4.573
 2755SOL     OW 9163   2.973   6.919   2.848
 2755SOL    HW1 9164   2.949   6.887   2.940
 2755SOL    HW2 9165   2.930   6.860   2.780
 2756SOL     OW 9166   6.035   3.973   4.336
 2756SOL    HW1 9167   6.102   3.996   4.265
 2756SOL    HW2 9168   6.050   3.879   4.367
 2757SOL     OW 9169   2.741   1.759   6.745
 2757SOL    HW1 9170   2.758   1.824   6.819
 2757SOL    HW2 9171   2.711   1.672   6.785
 2758SOL     OW 9172   5.439   6.031   3.797
 2758SOL    HW1 9173   5.349   6.073   3.808
 2758SOL    HW2 9174   5.461   5.978   3.879
 2759SOL     OW 9175   3.686   5.212   5.072
 2759SOL    HW1 9176   3.612   5.153   5.104
 2759SOL    HW2 9177   3.735   5.167   4.998
 2760SOL     OW 9178   6.839   4.908   2.961
 2760SOL    HW1 9179   6.915   4.912   3.026
 2760SOL    HW2 9180   6.855   4.835   2.895
 2761SOL     OW 9181   2.137   3.893   3.816
 2761SOL    HW1 9182   2.058   3.948   3.790
 2761SOL    HW2 9183   2.219   3.931   3.773
 2762SOL     OW 9184   1.432   2.270   6.572
 2762SOL    HW1 9185   1.437   2.346   6.507
 2762SOL    HW2 9186   1.511   2.275   6.634
 2763SOL     OW 9187   5.126   2.215   5.611
 2763SOL    HW1 9188   5.046   2.172   5.651
 2763SOL    HW2 9189   5.104   2.253   5.522
 2764SOL     OW 9190   0.286   5.412   2.652
 2764SOL    HW1 9191   0.319   5.366   2.734
 2764SOL    HW2 9192   0.322   5.505   2.649
 2765SOL     OW 9193   0.160   0.357   1.102
 2765SOL    HW1 9194   0.079   0.312   1.064
 2765SOL    HW2 9195   0.155   0.456   1.083
 2766SOL     OW 9196   4.146   0.991   6.488
 2766SOL    HW1 9197   4.116   0.909   6.440
 2766SOL    HW2 9198   4.084   1.066   6.468
 2767SOL     OW 9199   5.944   6.050   6.743
 2767SOL    HW1 9200   5.877   6.124   6.750
 2767SOL    HW2 9201   5.930   6.001   6.657
 2768SOL     OW 9202   4.206   1.234   0.070
 2768SOL    HW1 9203   4.197   1.145   0.025
 2768SOL    HW2 9204   4.139   1.241   0.144
 2769SOL     OW 9205   2.520   4.493   6.141
 2769SOL    HW1 9206   2.548   4.465   6.049
 2769SOL    HW2 9207   2.462   4.574   6.134
 2770SOL     OW 9208   4.121   6.046   6.385
 2770SOL    HW1 9209   4.130   6.140   6.417
 2770SOL    HW2 9210   4.160   6.038   6.293
 2771SOL     OW 9211   5.503   0.063   4.851
 2771SOL    HW1 9212   5.580   0.089   4.792
 2771SOL    HW2 9213   5.493   6.984   4.852
 2772SOL     OW 9214   3.171   1.590   2.407
 2772SOL    HW1 9215   3.103   1.517   2.416
 2772SOL    HW2 9216   3.136   1.674   2.448
 2773SOL     OW 9217   0.222   3.070   3.876
 2773SOL    HW1 9218   0.312   3.072   3.920
 2773SOL    HW2 9219   0.164   3.141   3.917
 2774SOL     OW 9220   5.088   2.836   2.856
 2774SOL    HW1 9221   5.028   2.909   2.823
 2774SOL    HW2 9222   5.166   2.876   2.904
 2775SOL     OW 9223   6.508   3.669   3.793
 2775SOL    HW1 9224   6.501   3.574   3.765
 2775SOL    HW2 9225   6.589   3.681   3.850
 2776SOL     OW 9226   5.484   4.990   6.110
 2776SOL    HW1 9227   5.539   5.033   6.182
 2776SOL    HW2 9228   5.388   5.014   6.123
 2777SOL     OW 9229   2.395   1.609   6.483
 2777SOL    HW1 9230   2.346   1.522   6.479
 2777SOL    HW2 9231   2.493   1.592   6.487
 2778SOL     OW 9232   2.135   6.095   6.399
 2778SOL    HW1 9233   2.081   6.035   6.456
 2778SOL    HW2 9234   2.076   6.138   6.329
 2779SOL     OW 9235   5.657   6.721   2.141
 2779SOL    HW1 9236   5.635   6.676   2.055
 2779SOL    HW2 9237   5.692   6.653   2.206
 2780SOL     OW 9238   6.689   0.093   6.088
 2780SOL    HW1 9239   6.648   0.146   6.162
 2780SOL    HW2 9240   6.732   0.155   6.022
 2781SOL     OW 9241   5.884   0.390   3.039
 2781SOL    HW1 9242   5.961   0.422   2.984
 2781SOL    HW2 9243   5.894   0.292   3.056
 2782SOL     OW 9244   4.364   1.318   5.335
 2782SOL    HW1 9245   4.298   1.334   5.408
 2782SOL    HW2 9246   4.394   1.406   5.298
 2783SOL     OW 9247   6.465   3.930   1.358
 2783SOL    HW1 9248   6.368   3.948   1.337
 2783SOL    HW2 9249   6.518   3.938   1.274
 2784SOL     OW 9250   3.320   1.759   1.806
 2784SOL    HW1 9251   3.287   1.764   1.712
 2784SOL    HW2 9252   3.262   1.816   1.864
 2785SOL     OW 9253   5.422   2.163   1.001
 2785SOL    HW1 9254   5.339   2.121   0.965
 2785SOL    HW2 9255   5.428   2.146   1.099
 2786SOL     OW 9256   6.642   5.939   1.151
 2786SOL    HW1 9257   6.678   5.991   1.229
 2786SOL    HW2 9258   6.710   5.871   1.122
 2787SOL     OW 9259   6.936   6.051   5.831
 2787SOL    HW1 9260   6.934   5.953   5.812
 2787SOL    HW2 9261   6.882   6.100   5.763
 2788SOL     OW 9262   3.269   5.905   6.322
 2788SOL    HW1 9263   3.231   5.995   6.342
 2788SOL    HW2 9264   3.216   5.862   6.248
 2789SOL     OW 9265   1.700   2.376   3.603
 2789SOL    HW1 9266   1.647   2.461   3.602
 2789SOL    HW2 9267   1.711   2.343   3.509
 2790SOL     OW 9268   3.204   4.891   0.731
 2790SOL    HW1 9269   3.144   4.892   0.652
 2790SOL    HW2 9270   3.150   4.899   0.815
 2791SOL     OW 9271   0.359   4.358   2.368
 2791SOL    HW1 9272   0.356   4.452   2.402
 2791SOL    HW2 9273   0.434   4.348   2.303
 2792SOL     OW 9274   3.216   1.110   4.227
 2792SOL    HW1 9275   3.277   1.127   4.305
 2792SOL    HW2 9276   3.257   1.148   4.144
 2793SOL     OW 9277   5.070   3.936   1.842
 2793SOL    HW1 9278   5.165   3.958   1.865
 2793SOL    HW2 9279   5.064   3.839   1.817
 2794SOL     OW 9280   6.761   1.709   6.056
 2794SOL    HW1 9281   6.825   1.730   5.982
 2794SOL    HW2 9282   6.681   1.662   6.018
 2795SOL     OW 9283   0.557   5.014   0.895
 2795SOL    HW1 9284   0.655   5.012   0.915
 2795SOL    HW2 9285   0.505   4.991   0.978
 2796SOL     OW 9286   0.378   5.415   4.370
 2796SOL    HW1 9287   0.474   5.389   4.361
 2796SOL    HW2 9288   0.340   5.374   4.452
 2797SOL     OW 9289   5.263   5.655   5.938
 2797SOL    HW1 9290   5.170   5.685   5.917
 2797SOL    HW2 9291   5.307   5.620   5.855
 2798SOL     OW 9292   6.919   5.654   2.685
 2798SOL    HW1 9293   6.937   5.728   2.620
 2798SOL    HW2 9294   6.926   5.566   2.639
 2799SOL     OW 9295   5.013   5.485   5.336
 2799SOL    HW1 9296   5.010   5.386   5.346
 2799SOL    HW2 9297   4.923   5.518   5.305
 2800SOL     OW 9298   6.220   1.035   6.437
 2800SOL    HW1 9299   6.259   1.039   6.345
 2800SOL    HW2 9300   6.233   1.123   6.483
 2801SOL     OW 9301   1.635   5.437   5.638
 2801SOL    HW1 9302   1.647   5.536   5.649
 2801SOL    HW2 9303   1.548   5.419   5.592
 2802SOL     OW 9304   6.827   6.435   5.215
 2802SOL    HW1 9305   6.812   6.529   5.183
 2802SOL    HW2 9306   6.751   6.377   5.185
 2803SOL     OW 9307   3.489   4.290   5.684
 2803SOL    HW1 9308   3.469   4.217   5.618
 2803SOL    HW2 9309   3.483   4.379   5.638
 2804SOL     OW 9310   0.453   3.773   3.878
 2804SOL    HW1 9311   0.430   3.860   3.922
 2804SOL    HW2 9312   0.484   3.708   3.947
 2805SOL     OW 9313   5.716   3.806   2.470
 2805SOL    HW1 9314   5.773   3.773   2.394
 2805SOL    HW2 9315   5.638   3.745   2.482
 2806SOL     OW 9316   1.524   4.786   6.945
 2806SOL    HW1 9317   1.460   4.839   7.001
 2806SOL    HW2 9318   1.500   4.797   6.848
 2807SOL     OW 9319   3.865   0.412   3.210
 2807SOL    HW1 9320   3.773   0.378   3.190
 2807SOL    HW2 9321   3.880   0.411   3.309
 2808SOL     OW 9322   6.090   6.240   0.801
 2808SOL    HW1 9323   6.046   6.219   0.888
 2808SOL    HW2 9324   6.058   6.329   0.767
 2809SOL     OW 9325   5.870   2.703   2.046
 2809SOL    HW1 9326   5.922   2.659   2.120
 2809SOL    HW2 9327   5.815   2.777   2.084
 2810SOL     OW 9328   2.317   5.129   2.711
 2810SOL    HW1 9329   2.239   5.185   2.683
 2810SOL    HW2 9330   2.345   5.155   2.803
 2811SOL     OW 9331   0.855   1.272   2.588
 2811SOL    HW1 9332   0.935   1.215   2.568
 2811SOL    HW2 9333   0.885   1.360   2.623
 2812SOL     OW 9334   6.480   3.078   0.421
 2812SOL    HW1 9335   6.565   3.103   0.374
 2812SOL    HW2 9336   6.402   3.098   0.362
 2813SOL     OW 9337   0.536   1.708   0.649
 2813SOL    HW1 9338   0.509   1.726   0.744
 2813SOL    HW2 9339   0.515   1.787   0.592
 2814SOL     OW 9340   3.228   4.149   5.749
 2814SOL    HW1 9341   3.187   4.079   5.690
 2814SOL    HW2 9342   3.327   4.143   5.743
 2815SOL     OW 9343   0.383   6.164   5.922
 2815SOL    HW1 9344   0.470   6.206   5.947
 2815SOL    HW2 9345   0.397   6.099   5.848
 2816SOL     OW 9346   6.915   5.938   4.934
 2816SOL    HW1 9347   6.858   5.885   4.997
 2816SOL    HW2 9348   6.991   5.980   4.985
 2817SOL     OW 9349   3.794   1.436   2.131
 2817SOL    HW1 9350   3.830   1.520   2.091
 2817SOL    HW2 9351   3.704   1.454   2.172
 2818SOL     OW 9352   0.118   1.110   1.210
 2818SOL    HW1 9353   0.176   1.191   1.208
 2818SOL    HW2 9354   0.145   1.051   1.287
 2819SOL     OW 9355   1.345   0.228   0.995
 2819SOL    HW1 9356   1.311   0.302   0.937
 2819SOL    HW2 9357   1.418   0.179   0.947
 2820SOL     OW 9358   0.944   2.036   2.131
 2820SOL    HW1 9359   1.036   2.006   2.108
 2820SOL    HW2 9360   0.880   2.003   2.061
 2821SOL     OW 9361   3.335   5.056   6.033
 2821SOL    HW1 9362   3.308   5.070   5.938
 2821SOL    HW2 9363   3.315   5.138   6.086
 2822SOL     OW 9364   3.874   2.651   0.116
 2822SOL    HW1 9365   3.814   2.726   0.142
 2822SOL    HW2 9366   3.970   2.677   0.132
 2823SOL     OW 9367   5.307   0.742   6.999
 2823SOL    HW1 9368   5.387   0.764   0.036
 2823SOL    HW2 9369   5.233   0.710   0.038
 2824SOL     OW 9370   1.760   3.380   5.201
 2824SOL    HW1 9371   1.810   3.410   5.120
 2824SOL    HW2 9372   1.729   3.286   5.189
 2825SOL     OW 9373   5.272   0.378   6.609
 2825SOL    HW1 9374   5.319   0.413   6.690
 2825SOL    HW2 9375   5.223   0.453   6.564
 2826SOL     OW 9376   1.798   2.928   6.320
 2826SOL    HW1 9377   1.769   2.833   6.329
 2826SOL    HW2 9378   1.730   2.978   6.266
 2827SOL     OW 9379   0.383   1.203   6.442
 2827SOL    HW1 9380   0.410   1.139   6.369
 2827SOL    HW2 9381   0.464   1.245   6.481
 2828SOL     OW 9382   1.711   3.524   1.438
 2828SOL    HW1 9383   1.771   3.557   1.364
 2828SOL    HW2 9384   1.764   3.517   1.522
 2829SOL     OW 9385   3.620   3.403   3.115
 2829SOL    HW1 9386   3.661   3.494   3.126
 2829SOL    HW2 9387   3.552   3.407   3.042
 2830SOL     OW 9388   3.438   4.521   5.309
 2830SOL    HW1 9389   3.362   4.456   5.305
 2830SOL    HW2 9390   3.482   4.514   5.399
 2831SOL     OW 9391   0.191   1.856   2.736
 2831SOL    HW1 9392   0.290   1.854   2.754
 2831SOL    HW2 9393   0.169   1.935   2.680
 2832SOL     OW 9394   0.765   3.307   1.611
 2832SOL    HW1 9395   0.676   3.286   1.570
 2832SOL    HW2 9396   0.794   3.231   1.669
 2833SOL     OW 9397   2.264   1.319   2.444
 2833SOL    HW1 9398   2.339   1.257   2.423
 2833SOL    HW2 9399   2.298   1.414   2.442
 2834SOL     OW 9400   4.874   6.138   4.802
 2834SOL    HW1 9401   4.868   6.038   4.795
 2834SOL    HW2 9402   4.859   6.165   4.897
 2835SOL     OW 9403   1.321   6.653   0.731
 2835SOL    HW1 9404   1.316   6.554   0.718
 2835SOL    HW2 9405   1.307   6.699   0.643
 2836SOL     OW 9406   3.270   6.113   3.012
 2836SOL    HW1 9407   3.347   6.177   3.013
 2836SOL    HW2 9408   3.268   6.061   3.097
 2837SOL     OW 9409   5.700   4.354   2.269
 2837SOL    HW1 9410   5.773   4.335   2.335
 2837SOL    HW2 9411   5.732   4.422   2.202
 2838SOL     OW 9412   4.770   4.117   6.768
 2838SOL    HW1 9413   4.762   4.101   6.867
 2838SOL    HW2 9414   4.697   4.179   6.739
 2839SOL     OW 9415   6.786   2.498   3.262
 2839SOL    HW1 9416   6.725   2.481   3.184
 2839SOL    HW2 9417   6.740   2.471   3.347
 2840SOL     OW 9418   1.551   5.161   2.609
 2840SOL    HW1 9419   1.489   5.097   2.564
 2840SOL    HW2 9420   1.572   5.236   2.546
 2841SOL     OW 9421   6.114   2.513   0.350
 2841SOL    HW1 9422   6.157   2.599   0.377
 2841SOL    HW2 9423   6.181   2.456   0.302
 2842SOL     OW 9424   1.588   5.547   5.042
 2842SOL    HW1 9425   1.507   5.494   5.019
 2842SOL    HW2 9426   1.560   5.632   5.089
 2843SOL     OW 9427   2.488   2.464   2.382
 2843SOL    HW1 9428   2.439   2.380   2.402
 2843SOL    HW2 9429   2.586   2.446   2.377
 2844SOL     OW 9430   4.997   4.337   1.270
 2844SOL    HW1 9431   5.046   4.335   1.357
 2844SOL    HW2 9432   4.978   4.244   1.241
 2845SOL     OW 9433   5.195   2.790   3.681
 2845SOL    HW1 9434   5.148   2.757   3.599
 2845SOL    HW2 9435   5.196   2.718   3.750
 2846SOL     OW 9436   3.382   0.526   0.216
 2846SOL    HW1 9437   3.413   0.489   0.303
 2846SOL    HW2 9438   3.438   0.605   0.191
 2847SOL     OW 9439   4.814   4.192   2.153
 2847SOL    HW1 9440   4.734   4.186   2.094
 2847SOL    HW2 9441   4.789   4.167   2.247
 2848SOL     OW 9442   1.468   2.309   5.400
 2848SOL    HW1 9443   1.482   2.232   5.337
 2848SOL    HW2 9444   1.509   2.392   5.361
 2849SOL     OW 9445   3.855   1.178   1.552
 2849SOL    HW1 9446   3.835   1.235   1.632
 2849SOL    HW2 9447   3.857   1.235   1.470
 2850SOL     OW 9448   1.881   6.874   3.701
 2850SOL    HW1 9449   1.877   6.967   3.664
 2850SOL    HW2 9450   1.930   6.875   3.788
 2851SOL     OW 9451   4.231   3.246   6.718
 2851SOL    HW1 9452   4.199   3.162   6.763
 2851SOL    HW2 9453   4.200   3.325   6.770
 2852SOL     OW 9454   6.374   4.378   0.059
 2852SOL    HW1 9455   6.366   4.327   0.145
 2852SOL    HW2 9456   6.408   4.470   0.079
 2853SOL     OW 9457   0.297   3.369   6.869
 2853SOL    HW1 9458   0.301   3.377   6.968
 2853SOL    HW2 9459   0.214   3.413   6.835
 2854SOL     OW 9460   3.517   0.994   6.146
 2854SOL    HW1 9461   3.447   0.998   6.216
 2854SOL    HW2 9462   3.602   0.957   6.185
 2855SOL     OW 9463   0.917   2.499   4.200
 2855SOL    HW1 9464   0.941   2.594   4.180
 2855SOL    HW2 9465   0.994   2.454   4.245
 2856SOL     OW 9466   1.560   2.683   3.174
 2856SOL    HW1 9467   1.607   2.610   3.124
 2856SOL    HW2 9468   1.572   2.670   3.272
 2857SOL     OW 9469   0.283   3.325   0.876
 2857SOL    HW1 9470   0.369   3.355   0.834
 2857SOL    HW2 9471   0.299   3.300   0.971
 2858SOL     OW 9472   5.342   6.085   2.655
 2858SOL    HW1 9473   5.268   6.019   2.658
 2858SOL    HW2 9474   5.324   6.153   2.583
 2859SOL     OW 9475   5.426   5.289   0.621
 2859SOL    HW1 9476   5.424   5.383   0.656
 2859SOL    HW2 9477   5.385   5.227   0.688
 2860SOL     OW 9478   1.946   6.530   2.232
 2860SOL    HW1 9479   2.018   6.597   2.250
 2860SOL    HW2 9480   1.925   6.481   2.317
 2861SOL     OW 9481   3.195   5.162   5.522
 2861SOL    HW1 9482   3.264   5.095   5.495
 2861SOL    HW2 9483   3.134   5.181   5.445
 2862SOL     OW 9484   4.715   2.740   1.882
 2862SOL    HW1 9485   4.626   2.719   1.841
 2862SOL    HW2 9486   4.712   2.832   1.922
 2863SOL     OW 9487   5.364   1.088   6.269
 2863SOL    HW1 9488   5.341   1.092   6.172
 2863SOL    HW2 9489   5.401   0.997   6.290
 2864SOL     OW 9490   4.557   2.857   1.204
 2864SOL    HW1 9491   4.468   2.824   1.173
 2864SOL    HW2 9492   4.559   2.861   1.304
 2865SOL     OW 9493   4.508   7.006   4.397
 2865SOL    HW1 9494   4.511   6.914   4.358
 2865SOL    HW2 9495   4.599   0.028   4.388
 2866SOL     OW 9496   5.766   3.904   0.281
 2866SOL    HW1 9497   5.859   3.874   0.260
 2866SOL    HW2 9498   5.702   3.830   0.260
 2867SOL     OW 9499   6.540   6.411   2.261
 2867SOL    HW1 9500   6.591   6.395   2.346
 2867SOL    HW2 9501   6.603   6.446   2.191
 2868SOL     OW 9502   1.024   1.010   5.405
 2868SOL    HW1 9503   1.056   0.927   5.359
 2868SOL    HW2 9504   1.101   1.056   5.449
 2869SOL     OW 9505   5.944   0.113   4.013
 2869SOL    HW1 9506   5.858   0.137   4.058
 2869SOL    HW2 9507   5.949   0.160   3.925
 2870SOL     OW 9508   0.688   1.758   6.754
 2870SOL    HW1 9509   0.769   1.722   6.709
 2870SOL    HW2 9510   0.619   1.685   6.763
 2871SOL     OW 9511   6.759   0.914   0.477
 2871SOL    HW1 9512   6.817   0.903   0.558
 2871SOL    HW2 9513   6.667   0.879   0.497
 2872SOL     OW 9514   2.534   1.329   1.233
 2872SOL    HW1 9515   2.560   1.425   1.218
 2872SOL    HW2 9516   2.475   1.299   1.159
 2873SOL     OW 9517   6.769   5.276   1.846
 2873SOL    HW1 9518   6.685   5.285   1.794
 2873SOL    HW2 9519   6.773   5.347   1.916
 2874SOL     OW 9520   4.182   0.014   3.058
 2874SOL    HW1 9521   4.259   0.069   3.090
 2874SOL    HW2 9522   4.168   6.957   3.120
 2875SOL     OW 9523   3.513   0.045   2.924
 2875SOL    HW1 9524   3.528   0.091   2.836
 2875SOL    HW2 9525   3.529   0.109   2.999
 2876SOL     OW 9526   1.317   6.465   1.983
 2876SOL    HW1 9527   1.302   6.369   2.005
 2876SOL    HW2 9528   1.232   6.507   1.953
 2877SOL     OW 9529   2.145   1.455   6.576
 2877SOL    HW1 9530   2.120   1.538   6.527
 2877SOL    HW2 9531   2.076   1.435   6.646
 2878SOL     OW 9532   3.044   3.662   4.370
 2878SOL    HW1 9533   3.023   3.670   4.468
 2878SOL    HW2 9534   3.085   3.573   4.353
 2879SOL     OW 9535   4.373   5.297   6.122
 2879SOL    HW1 9536   4.297   5.320   6.182
 2879SOL    HW2 9537   4.459   5.329   6.163
 2880SOL     OW 9538   0.686   1.692   3.689
 2880SOL    HW1 9539   0.662   1.787   3.674
 2880SOL    HW2 9540   0.693   1.645   3.600
 2881SOL     OW 9541   3.307   5.661   0.143
 2881SOL    HW1 9542   3.267   5.584   0.194
 2881SOL    HW2 9543   3.259   5.671   0.056
 2882SOL     OW 9544   6.251   6.396   1.352
 2882SOL    HW1 9545   6.307   6.407   1.435
 2882SOL    HW2 9546   6.182   6.326   1.368
 2883SOL     OW 9547   6.401   6.464   3.709
 2883SOL    HW1 9548   6.340   6.397   3.751
 2883SOL    HW2 9549   6.398   6.550   3.761
 2884SOL     OW 9550   6.522   5.156   2.091
 2884SOL    HW1 9551   6.550   5.164   1.996
 2884SOL    HW2 9552   6.423   5.168   2.098
 2885SOL     OW 9553   1.493   1.992   4.321
 2885SOL    HW1 9554   1.522   1.900   4.346
 2885SOL    HW2 9555   1.562   2.034   4.262
 2886SOL     OW 9556   2.890   4.613   0.106
 2886SOL    HW1 9557   2.919   4.593   0.013
 2886SOL    HW2 9558   2.796   4.580   0.120
 2887SOL     OW 9559   7.019   6.391   3.983
 2887SOL    HW1 9560   0.087   6.344   3.994
 2887SOL    HW2 9561   6.997   6.399   3.886
 2888SOL     OW 9562   6.830   5.419   0.060
 2888SOL    HW1 9563   6.903   5.456   0.003
 2888SOL    HW2 9564   6.743   5.426   0.012
 2889SOL     OW 9565   3.143   6.548   2.817
 2889SOL    HW1 9566   3.130   6.631   2.871
 2889SOL    HW2 9567   3.237   6.516   2.828
 2890SOL     OW 9568   2.591   5.643   0.976
 2890SOL    HW1 9569   2.614   5.722   1.033
 2890SOL    HW2 9570   2.493   5.622   0.986
 2891SOL     OW 9571   0.746   3.330   3.178
 2891SOL    HW1 9572   0.745   3.422   3.217
 2891SOL    HW2 9573   0.808   3.327   3.100
 2892SOL     OW 9574   6.225   3.044   0.732
 2892SOL    HW1 9575   6.314   3.000   0.739
 2892SOL    HW2 9576   6.198   3.081   0.821
 2893SOL     OW 9577   1.723   5.597   4.791
 2893SOL    HW1 9578   1.670   5.557   4.866
 2893SOL    HW2 9579   1.789   5.530   4.757
 2894SOL     OW 9580   1.834   4.177   1.956
 2894SOL    HW1 9581   1.846   4.206   1.861
 2894SOL    HW2 9582   1.923   4.172   2.000
 2895SOL     OW 9583   3.687   1.052   6.499
 2895SOL    HW1 9584   3.609   1.080   6.555
 2895SOL    HW2 9585   3.743   1.132   6.477
 2896SOL     OW 9586   5.637   0.005   6.214
 2896SOL    HW1 9587   5.731   0.037   6.227
 2896SOL    HW2 9588   5.594   0.058   6.140
 2897SOL     OW 9589   4.184   4.688   2.761
 2897SOL    HW1 9590   4.085   4.696   2.765
 2897SOL    HW2 9591   4.220   4.677   2.853
 2898SOL     OW 9592   5.471   3.949   3.750
 2898SOL    HW1 9593   5.385   3.925   3.705
 2898SOL    HW2 9594   5.454   4.018   3.820
 2899SOL     OW 9595   6.321   2.329   1.292
 2899SOL    HW1 9596   6.247   2.264   1.274
 2899SOL    HW2 9597   6.295   2.389   1.367
 2900SOL     OW 9598   4.043   5.188   6.963
 2900SOL    HW1 9599   3.983   5.122   7.007
 2900SOL    HW2 9600   4.138   5.156   6.967
 2901SOL     OW 9601   1.604   4.665   3.825
 2901SOL    HW1 9602   1.515   4.632   3.793
 2901SOL    HW2 9603   1.594   4.754   3.869
 2902SOL     OW 9604   0.268   6.013   3.685
 2902SOL    HW1 9605   0.200   6.050   3.622
 2902SOL    HW2 9606   0.225   5.948   3.747
 2903SOL     OW 9607   4.629   6.435   1.052
 2903SOL    HW1 9608   4.687   6.417   1.131
 2903SOL    HW2 9609   4.648   6.367   0.980
 2904SOL     OW 9610   3.003   5.005   4.918
 2904SOL    HW1 9611   2.942   4.948   4.862
 2904SOL    HW2 9612   3.021   4.959   5.005
 2905SOL     OW 9613   1.235   3.874   3.805
 2905SOL    HW1 9614   1.154   3.830   3.767
 2905SOL    HW2 9615   1.217   3.971   3.818
 2906SOL     OW 9616   5.102   6.004   2.615
 2906SOL    HW1 9617   5.102   5.905   2.605
 2906SOL    HW2 9618   5.048   6.030   2.695
 2907SOL     OW 9619   0.829   1.497   3.953
 2907SOL    HW1 9620   0.791   1.511   3.862
 2907SOL    HW2 9621   0.778   1.425   4.000
 2908SOL     OW 9622   5.275   6.949   4.197
 2908SOL    HW1 9623   5.349   6.995   4.149
 2908SOL    HW2 9624   5.295   6.852   4.206
 2909SOL     OW 9625   1.602   6.704   3.086
 2909SOL    HW1 9626   1.616   6.679   2.991
 2909SOL    HW2 9627   1.625   6.626   3.145
 2910SOL     OW 9628   6.849   0.990   3.455
 2910SOL    HW1 9629   6.835   1.073   3.509
 2910SOL    HW2 9630   6.764   0.966   3.407
 2911SOL     OW 9631   1.225   4.855   3.846
 2911SOL    HW1 9632   1.238   4.869   3.748
 2911SOL    HW2 9633   1.180   4.935   3.885
 2912SOL     OW 9634   0.173   6.545   6.930
 2912SOL    HW1 9635   0.076   6.568   6.940
 2912SOL    HW2 9636   0.184   6.446   6.938
 2913SOL     OW 9637   2.558   4.527   2.587
 2913SOL    HW1 9638   2.614   4.491   2.662
 2913SOL    HW2 9639   2.618   4.570   2.519
 2914SOL     OW 9640   5.278   5.289   1.471
 2914SOL    HW1 9641   5.268   5.191   1.454
 2914SOL    HW2 9642   5.374   5.315   1.456
 2915SOL     OW 9643   2.857   2.324   3.504
 2915SOL    HW1 9644   2.830   2.369   3.589
 2915SOL    HW2 9645   2.941   2.271   3.520
 2916SOL     OW 9646   1.920   5.661   0.345
 2916SOL    HW1 9647   1.906   5.748   0.392
 2916SOL    HW2 9648   1.832   5.622   0.319
 2917SOL     OW 9649   2.995   0.524   3.727
 2917SOL    HW1 9650   2.939   0.443   3.745
 2917SOL    HW2 9651   2.942   0.589   3.672
 2918SOL     OW 9652   6.086   3.525   0.161
 2918SOL    HW1 9653   6.170   3.510   0.109
 2918SOL    HW2 9654   6.010   3.476   0.118
 2919SOL     OW 9655   6.615   6.298   3.617
 2919SOL    HW1 9656   6.678   6.328   3.545
 2919SOL    HW2 9657   6.552   6.372   3.639
 2920SOL     OW 9658   2.522   0.674   2.330
 2920SOL    HW1 9659   2.567   0.758   2.359
 2920SOL    HW2 9660   2.423   0.685   2.337
 2921SOL     OW 9661   0.028   0.293   5.830
 2921SOL    HW1 9662   0.010   0.352   5.908
 2921SOL    HW2 9663   6.974   0.227   5.820
 2922SOL     OW 9664   4.036   0.266   2.034
 2922SOL    HW1 9665   3.936   0.273   2.028
 2922SOL    HW2 9666   4.061   0.224   2.121
 2923SOL     OW 9667   6.617   5.119   4.442
 2923SOL    HW1 9668   6.666   5.088   4.523
 2923SOL    HW2 9669   6.543   5.181   4.470
 2924SOL     OW 9670   6.421   1.527   4.956
 2924SOL    HW1 9671   6.382   1.582   4.881
 2924SOL    HW2 9672   6.368   1.443   4.967
 2925SOL     OW 9673   5.284   1.631   6.762
 2925SOL    HW1 9674   5.213   1.656   6.696
 2925SOL    HW2 9675   5.263   1.542   6.802
 2926SOL     OW 9676   6.905   2.470   5.786
 2926SOL    HW1 9677   6.930   2.376   5.808
 2926SOL    HW2 9678   6.821   2.495   5.835
 2927SOL     OW 9679   1.834   3.656   0.766
 2927SOL    HW1 9680   1.831   3.674   0.864
 2927SOL    HW2 9681   1.866   3.562   0.751
 2928SOL     OW 9682   6.384   1.421   6.844
 2928SOL    HW1 9683   6.461   1.390   6.900
 2928SOL    HW2 9684   6.408   1.506   6.798
 2929SOL     OW 9685   1.391   2.454   4.976
 2929SOL    HW1 9686   1.392   2.548   5.011
 2929SOL    HW2 9687   1.328   2.448   4.899
 2930SOL     OW 9688   5.792   6.023   5.258
 2930SOL    HW1 9689   5.872   6.068   5.218
 2930SOL    HW2 9690   5.814   5.927   5.277
 2931SOL     OW 9691   4.094   4.998   0.473
 2931SOL    HW1 9692   3.998   4.969   0.481
 2931SOL    HW2 9693   4.148   4.954   0.545
 2932SOL     OW 9694   6.625   4.984   1.695
 2932SOL    HW1 9695   6.708   4.937   1.664
 2932SOL    HW2 9696   6.545   4.937   1.658
 2933SOL     OW 9697   0.531   0.023   2.083
 2933SOL    HW1 9698   0.432   0.018   2.082
 2933SOL    HW2 9699   0.564   0.014   2.177
 2934SOL     OW 9700   4.718   2.999   1.497
 2934SOL    HW1 9701   4.746   3.032   1.587
 2934SOL    HW2 9702   4.700   2.901   1.502
 2935SOL     OW 9703   1.309   2.395   6.188
 2935SOL    HW1 9704   1.342   2.457   6.260
 2935SOL    HW2 9705   1.311   2.301   6.222
 2936SOL     OW 9706   4.138   6.894   0.726
 2936SOL    HW1 9707   4.077   6.870   0.650
 2936SOL    HW2 9708   4.122   6.989   0.753
 2937SOL     OW 9709   4.445   4.955   1.099
 2937SOL    HW1 9710   4.455   5.026   1.169
 2937SOL    HW2 9711   4.524   4.894   1.102
 2938SOL     OW 9712   6.021   5.539   6.732
 2938SOL    HW1 9713   6.012   5.547   6.633
 2938SOL    HW2 9714   6.084   5.609   6.766
 2939SOL     OW 9715   0.632   0.260   1.495
 2939SOL    HW1 9716   0.554   0.243   1.554
 2939SOL    HW2 9717   0.635   0.357   1.471
 2940SOL     OW 9718   5.734   5.639   4.609
 2940SOL    HW1 9719   5.814   5.694   4.633
 2940SOL    HW2 9720   5.705   5.585   4.688
 2941SOL     OW 9721   2.432   2.215   3.125
 2941SOL    HW1 9722   2.503   2.272   3.083
 2941SOL    HW2 9723   2.398   2.259   3.208
 2942SOL     OW 9724   3.248   2.752   0.371
 2942SOL    HW1 9725   3.242   2.653   0.380
 2942SOL    HW2 9726   3.231   2.778   0.276
 2943SOL     OW 9727   6.585   4.782   3.517
 2943SOL    HW1 9728   6.560   4.834   3.436
 2943SOL    HW2 9729   6.570   4.837   3.599
 2944SOL     OW 9730   2.707   6.249   3.690
 2944SOL    HW1 9731   2.734   6.158   3.658
 2944SOL    HW2 9732   2.745   6.264   3.781
 2945SOL     OW 9733   5.451   3.615   1.773
 2945SOL    HW1 9734   5.430   3.647   1.866
 2945SOL    HW2 9735   5.480   3.520   1.776
 2946SOL     OW 9736   1.576   4.045   5.583
 2946SOL    HW1 9737   1.560   4.022   5.679
 2946SOL    HW2 9738   1.616   3.966   5.536
 2947SOL     OW 9739   0.528   5.561   0.184
 2947SOL    HW1 9740   0.528   5.658   0.207
 2947SOL    HW2 9741   0.519   5.551   0.085
 2948SOL     OW 9742   6.545   4.418   3.298
 2948SOL    HW1 9743   6.533   4.320   3.279
 2948SOL    HW2 9744   6.639   4.435   3.327
 2949SOL     OW 9745   0.664   6.386   6.465
 2949SOL    HW1 9746   0.719   6.419   6.541
 2949SOL    HW2 9747   0.704   6.415   6.379
 2950SOL     OW 9748   5.620   5.203   3.064
 2950SOL    HW1 9749   5.628   5.263   3.144
 2950SOL    HW2 9750   5.544   5.140   3.078
 2951SOL     OW 9751   5.253   1.072   2.004
 2951SOL    HW1 9752   5.177   1.007   2.011
 2951SOL    HW2 9753   5.299   1.059   1.917
 2952SOL     OW 9754   6.363   0.133   4.729
 2952SOL    HW1 9755   6.442   0.157   4.672
 2952SOL    HW2 9756   6.347   0.207   4.795
 2953SOL     OW 9757   6.855   4.407   3.027
 2953SOL    HW1 9758   6.843   4.312   3.055
 2953SOL    HW2 9759   6.897   4.410   2.937
 2954SOL     OW 9760   6.837   4.674   6.405
 2954SOL    HW1 9761   6.840   4.575   6.391
 2954SOL    HW2 9762   6.742   4.705   6.408
 2955SOL     OW 9763   0.965   4.332   0.311
 2955SOL    HW1 9764   0.937   4.415   0.264
 2955SOL    HW2 9765   0.934   4.252   0.259
 2956SOL     OW 9766   0.047   5.559   3.974
 2956SOL    HW1 9767   0.015   5.581   3.882
 2956SOL    HW2 9768   0.001   5.618   4.040
 2957SOL     OW 9769   4.062   4.845   1.319
 2957SOL    HW1 9770   4.065   4.930   1.267
 2957SOL    HW2 9771   4.046   4.865   1.416
 2958SOL     OW 9772   2.157   5.147   3.569
 2958SOL    HW1 9773   2.063   5.173   3.591
 2958SOL    HW2 9774   2.220   5.216   3.604
 2959SOL     OW 9775   5.238   2.629   2.944
 2959SOL    HW1 9776   5.252   2.552   2.882
 2959SOL    HW2 9777   5.167   2.689   2.907
 2960SOL     OW 9778   3.654   0.183   0.148
 2960SOL    HW1 9779   3.624   0.257   0.087
 2960SOL    HW2 9780   3.671   0.221   0.239
 2961SOL     OW 9781   6.305   4.772   3.017
 2961SOL    HW1 9782   6.346   4.687   3.050
 2961SOL    HW2 9783   6.338   4.791   2.925
 2962SOL     OW 9784   5.092   6.414   3.405
 2962SOL    HW1 9785   5.169   6.355   3.432
 2962SOL    HW2 9786   5.028   6.362   3.349
 2963SOL     OW 9787   1.451   0.954   6.602
 2963SOL    HW1 9788   1.437   1.044   6.644
 2963SOL    HW2 9789   1.449   0.884   6.673
 2964SOL     OW 9790   0.719   2.733   6.217
 2964SOL    HW1 9791   0.723   2.832   6.230
 2964SOL    HW2 9792   0.625   2.704   6.203
 2965SOL     OW 9793   1.226   0.378   4.270
 2965SOL    HW1 9794   1.323   0.381   4.293
 2965SOL    HW2 9795   1.213   0.318   4.191
 2966SOL     OW 9796   4.973   5.409   3.818
 2966SOL    HW1 9797   4.913   5.337   3.784
 2966SOL    HW2 9798   4.981   5.402   3.917
 2967SOL     OW 9799   5.896   1.395   5.709
 2967SOL    HW1 9800   5.831   1.322   5.731
 2967SOL    HW2 9801   5.868   1.440   5.624
 2968SOL     OW 9802   2.197   2.786   0.659
 2968SOL    HW1 9803   2.214   2.761   0.755
 2968SOL    HW2 9804   2.121   2.851   0.655
 2969SOL     OW 9805   4.888   3.893   4.535
 2969SOL    HW1 9806   4.855   3.831   4.606
 2969SOL    HW2 9807   4.855   3.986   4.554
 2970SOL     OW 9808   2.753   2.885   5.537
 2970SOL    HW1 9809   2.749   2.893   5.637
 2970SOL    HW2 9810   2.839   2.840   5.512
 2971SOL     OW 9811   5.852   4.169   0.306
 2971SOL    HW1 9812   5.951   4.173   0.288
 2971SOL    HW2 9813   5.818   4.078   0.283
 2972SOL     OW 9814   5.659   5.160   7.005
 2972SOL    HW1 9815   5.727   5.139   0.055
 2972SOL    HW2 9816   5.567   5.148   0.023
 2973SOL     OW 9817   4.754   6.649   2.495
 2973SOL    HW1 9818   4.717   6.585   2.427
 2973SOL    HW2 9819   4.753   6.742   2.457
 2974SOL     OW 9820   5.908   4.381   3.330
 2974SOL    HW1 9821   5.896   4.478   3.307
 2974SOL    HW2 9822   5.866   4.324   3.260
 2975SOL     OW 9823   4.752   4.594   4.235
 2975SOL    HW1 9824   4.792   4.578   4.325
 2975SOL    HW2 9825   4.821   4.636   4.175
 2976SOL     OW 9826   5.275   2.145   3.106
 2976SOL    HW1 9827   5.278   2.158   3.007
 2976SOL    HW2 9828   5.355   2.092   3.135
 2977SOL     OW 9829   1.034   0.346   2.069
 2977SOL    HW1 9830   0.984   0.309   1.991
 2977SOL    HW2 9831   0.984   0.327   2.153
 2978SOL     OW 9832   3.961   4.217   0.287
 2978SOL    HW1 9833   4.010   4.238   0.202
 2978SOL    HW2 9834   3.952   4.118   0.296
 2979SOL     OW 9835   3.177   1.415   4.284
 2979SOL    HW1 9836   3.189   1.321   4.315
 2979SOL    HW2 9837   3.203   1.422   4.188
 2980SOL     OW 9838   2.652   4.934   6.049
 2980SOL    HW1 9839   2.581   4.985   6.098
 2980SOL    HW2 9840   2.740   4.946   6.094
 2981SOL     OW 9841   2.526   1.756   0.069
 2981SOL    HW1 9842   2.518   1.856   0.073
 2981SOL    HW2 9843   2.469   1.721   7.015
 2982SOL     OW 9844   2.082   6.075   2.725
 2982SOL    HW1 9845   2.089   5.998   2.662
 2982SOL    HW2 9846   2.118   6.157   2.682
 2983SOL     OW 9847   0.001   2.091   0.790
 2983SOL    HW1 9848   6.926   2.059   0.791
 2983SOL    HW2 9849   0.049   2.056   0.870
 2984SOL     OW 9850   5.955   5.313   6.199
 2984SOL    HW1 9851   5.874   5.267   6.165
 2984SOL    HW2 9852   5.999   5.256   6.268
 2985SOL     OW 9853   0.481   1.160   4.519
 2985SOL    HW1 9854   0.515   1.087   4.460
 2985SOL    HW2 9855   0.435   1.229   4.464
 2986SOL     OW 9856   3.417   4.178   2.522
 2986SOL    HW1 9857   3.452   4.266   2.555
 2986SOL    HW2 9858   3.427   4.173   2.423
 2987SOL     OW 9859   1.828   1.638   4.406
 2987SOL    HW1 9860   1.864   1.571   4.341
 2987SOL    HW2 9861   1.864   1.619   4.498
 2988SOL     OW 9862   1.929   0.037   1.544
 2988SOL    HW1 9863   1.977   6.975   1.576
 2988SOL    HW2 9864   1.888   0.084   1.623
 2989SOL     OW 9865   5.158   3.936   5.067
 2989SOL    HW1 9866   5.202   4.018   5.105
 2989SOL    HW2 9867   5.165   3.938   4.967
 2990SOL     OW 9868   5.140   2.373   4.365
 2990SOL    HW1 9869   5.102   2.405   4.451
 2990SOL    HW2 9870   5.239   2.385   4.366
 2991SOL     OW 9871   6.431   3.315   6.745
 2991SOL    HW1 9872   6.406   3.387   6.679
 2991SOL    HW2 9873   6.528   3.324   6.768
 2992SOL     OW 9874   0.999   4.552   4.656
 2992SOL    HW1 9875   0.988   4.480   4.725
 2992SOL    HW2 9876   1.096   4.563   4.636
 2993SOL     OW 9877   0.042   4.895   0.373
 2993SOL    HW1 9878   0.047   4.968   0.440
 2993SOL    HW2 9879   0.055   4.933   0.281
 2994SOL     OW 9880   4.800   5.777   6.965
 2994SOL    HW1 9881   4.708   5.778   6.926
 2994SOL    HW2 9882   4.813   5.694   7.019
 2995SOL     OW 9883   4.671   0.139   0.298
 2995SOL    HW1 9884   4.598   0.175   0.357
 2995SOL    HW2 9885   4.695   0.046   0.327
 2996SOL     OW 9886   1.079   1.815   4.744
 2996SOL    HW1 9887   1.080   1.912   4.719
 2996SOL    HW2 9888   1.147   1.798   4.815
 2997SOL     OW 9889   4.646   0.449   3.331
 2997SOL    HW1 9890   4.714   0.521   3.348
 2997SOL    HW2 9891   4.691   0.372   3.285
 2998SOL     OW 9892   3.327   0.127   3.693
 2998SOL    HW1 9893   3.348   0.085   3.605
 2998SOL    HW2 9894   3.306   0.224   3.680
 2999SOL     OW 9895   3.294   4.416   6.153
 2999SOL    HW1 9896   3.291   4.502   6.204
 2999SOL    HW2 9897   3.339   4.431   6.065
 3000SOL     OW 9898   2.965   4.184   6.548
 3000SOL    HW1 9899   2.957   4.146   6.456
 3000SOL    HW2 9900   2.947   4.113   6.616
 3001SOL     OW 9901   6.109   2.147   0.294
 3001SOL    HW1 9902   6.039   2.148   0.365
 3001SOL    HW2 9903   6.067   2.126   0.206
 3002SOL     OW 9904   3.230   1.345   0.522
 3002SOL    HW1 9905   3.259   1.439   0.503
 3002SOL    HW2 9906   3.161   1.318   0.455
 3003SOL     OW 9907   0.816   6.149   1.360
 3003SOL    HW1 9908   0.891   6.216   1.365
 3003SOL    HW2 9909   0.729   6.195   1.377
 3004SOL     OW 9910   1.852   4.962   3.538
 3004SOL    HW1 9911   1.811   4.985   3.450
 3004SOL    HW2 9912   1.923   4.893   3.524
 3005SOL     OW 9913   1.144   3.380   5.753
 3005SOL    HW1 9914   1.081   3.306   5.729
 3005SOL    HW2 9915   1.207   3.396   5.676
 3006SOL     OW 9916   5.481   1.299   5.262
 3006SOL    HW1 9917   5.553   1.306   5.331
 3006SOL    HW2 9918   5.472   1.204   5.234
 3007SOL     OW 9919   4.514   5.242   0.095
 3007SOL    HW1 9920   4.576   5.209   0.024
 3007SOL    HW2 9921   4.486   5.165   0.152
 3008SOL     OW 9922   3.505   2.673   6.370
 3008SOL    HW1 9923   3.462   2.634   6.451
 3008SOL    HW2 9924   3.511   2.773   6.380
 3009SOL     OW 9925   0.224   2.300   3.073
 3009SOL    HW1 9926   0.306   2.251   3.044
 3009SOL    HW2 9927   0.226   2.393   3.037
 3010SOL     OW 9928   3.370   5.881   5.216
 3010SOL    HW1 9929   3.359   5.856   5.313
 3010SOL    HW2 9930   3.372   5.798   5.160
 3011SOL     OW 9931   6.586   6.875   1.548
 3011SOL    HW1 9932   6.522   6.930   1.494
 3011SOL    HW2 9933   6.680   6.900   1.524
 3012SOL     OW 9934   2.328   3.868   6.983
 3012SOL    HW1 9935   2.313   3.867   6.885
 3012SOL    HW2 9936   2.339   3.774   7.017
 3013SOL     OW 9937   6.224   4.905   3.305
 3013SOL    HW1 9938   6.306   4.906   3.248
 3013SOL    HW2 9939   6.236   4.838   3.378
 3014SOL     OW 9940   4.858   1.733   6.714
 3014SOL    HW1 9941   4.872   1.712   6.811
 3014SOL    HW2 9942   4.762   1.719   6.691
 3015SOL     OW 9943   2.327   1.334   0.666
 3015SOL    HW1 9944   2.257   1.267   0.691
 3015SOL    HW2 9945   2.286   1.425   0.662
 3016SOL     OW 9946   3.227   0.029   4.093
 3016SOL    HW1 9947   3.291   7.000   4.034
 3016SOL    HW2 9948   3.141   6.999   4.098
 3017SOL     OW 9949   5.935   4.757   2.244
 3017SOL    HW1 9950   5.871   4.834   2.254
 3017SOL    HW2 9951   5.921   4.691   2.318
 3018SOL     OW 9952   3.957   0.011   6.899
 3018SOL    HW1 9953   3.882   0.063   6.858
 3018SOL    HW2 9954   3.930   7.001   6.991
 3019SOL     OW 9955   0.851   0.058   0.491
 3019SOL    HW1 9956   0.792   0.128   0.452
 3019SOL    HW2 9957   0.827   0.045   0.588
 3020SOL     OW 9958   4.426   3.253   0.407
 3020SOL    HW1 9959   4.414   3.272   0.504
 3020SOL    HW2 9960   4.349   3.198   0.374
 3021SOL     OW 9961   2.259   6.757   4.613
 3021SOL    HW1 9962   2.258   6.666   4.655
 3021SOL    HW2 9963   2.172   6.775   4.569
 3022SOL     OW 9964   4.145   5.719   4.327
 3022SOL    HW1 9965   4.055   5.748   4.359
 3022SOL    HW2 9966   4.182   5.788   4.265
 3023SOL     OW 9967   3.894   0.092   2.654
 3023SOL    HW1 9968   3.974   0.058   2.703
 3023SOL    HW2 9969   3.883   0.042   2.568
 3024SOL     OW 9970   6.168   5.941   5.395
 3024SOL    HW1 9971   6.134   5.925   5.488
 3024SOL    HW2 9972   6.240   6.010   5.397
 3025SOL     OW 9973   3.859   6.113   1.357
 3025SOL    HW1 9974   3.958   6.128   1.361
 3025SOL    HW2 9975   3.840   6.040   1.290
 3026SOL     OW 9976   6.952   1.341   6.391
 3026SOL    HW1 9977   7.006   1.423   6.376
 3026SOL    HW2 9978   7.012   1.265   6.417
 3027SOL     OW 9979   4.069   1.536   2.377
 3027SOL    HW1 9980   4.067   1.473   2.299
 3027SOL    HW2 9981   3.993   1.601   2.369
 3028SOL     OW 9982   1.919   3.782   6.102
 3028SOL    HW1 9983   1.983   3.852   6.068
 3028SOL    HW2 9984   1.827   3.804   6.071
 3029SOL     OW 9985   1.061   2.148   3.523
 3029SOL    HW1 9986   1.099   2.239   3.541
 3029SOL    HW2 9987   1.094   2.083   3.592
 3030SOL     OW 9988   1.441   3.949   0.676
 3030SOL    HW1 9989   1.463   3.997   0.762
 3030SOL    HW2 9990   1.496   3.866   0.671
 3031SOL     OW 9991   1.377   4.974   0.948
 3031SOL    HW1 9992   1.285   5.015   0.949
 3031SOL    HW2 9993   1.390   4.920   1.031
 3032SOL     OW 9994   1.952   5.533   2.407
 3032SOL    HW1 9995   2.017   5.593   2.359
 3032SOL    HW2 9996   1.895   5.588   2.468
 3033SOL     OW 9997   6.076   1.900   3.123
 3033SOL    HW1 9998   5.986   1.931   3.154
 3033SOL    HW2 9999   6.069   1.807   3.088
 3034SOL     OW10000   1.195   5.731   3.811
 3034SOL    HW110001   1.119   5.770   3.863
 3034SOL    HW210002   1.201   5.633   3.830
 3035SOL     OW10003   1.043   3.043   6.388
 3035SOL    HW110004   1.089   3.043   6.299
 3035SOL    HW210005   1.072   3.123   6.440
 3036SOL     OW10006   1.232   1.943   5.529
 3036SOL    HW110007   1.174   1.979   5.456
 3036SOL    HW210008   1.294   2.015   5.560
 3037SOL     OW10009   0.002   5.152   5.476
 3037SOL    HW110010   0.082   5.154   5.416
 3037SOL    HW210011   7.016   5.239   5.526
 3038SOL     OW10012   5.605   4.696   6.020
 3038SOL    HW110013   5.595   4.773   6.083
 3038SOL    HW210014   5.654   4.726   5.939
 3039SOL     OW10015   6.981   2.969   0.002
 3039SOL    HW110016   6.935   2.990   6.935
 3039SOL    HW210017   0.001   3.053   0.039
 3040SOL     OW10018   3.180   4.557   5.723
 3040SOL    HW110019   3.200   4.487   5.654
 3040SOL    HW210020   3.237   4.540   5.804
 3041SOL     OW10021   0.919   4.455   5.921
 3041SOL    HW110022   0.971   4.540   5.936
 3041SOL    HW210023   0.900   4.412   6.010
 3042SOL     OW10024   6.173   5.692   2.319
 3042SOL    HW110025   6.108   5.628   2.278
 3042SOL    HW210026   6.241   5.641   2.371
 3043SOL     OW10027   3.172   3.442   0.491
 3043SOL    HW110028   3.179   3.539   0.467
 3043SOL    HW210029   3.263   3.400   0.488
 3044SOL     OW10030   3.000   4.808   5.498
 3044SOL    HW110031   3.050   4.748   5.436
 3044SOL    HW210032   2.917   4.840   5.452
 3045SOL     OW10033   4.456   6.805   3.197
 3045SOL    HW110034   4.516   6.826   3.120
 3045SOL    HW210035   4.486   6.856   3.278
 3046SOL     OW10036   3.606   5.961   6.813
 3046SOL    HW110037   3.589   5.914   6.900
 3046SOL    HW210038   3.700   5.993   6.811
 3047SOL     OW10039   5.871   0.039   0.525
 3047SOL    HW110040   5.802   0.100   0.487
 3047SOL    HW210041   5.877   0.053   0.624
 3048SOL     OW10042   4.780   2.362   1.081
 3048SOL    HW110043   4.759   2.426   1.155
 3048SOL    HW210044   4.873   2.327   1.092
 3049SOL     OW10045   1.192   1.164   3.969
 3049SOL    HW110046   1.178   1.209   3.881
 3049SOL    HW210047   1.191   1.065   3.957
 3050SOL     OW10048   2.328   2.320   1.472
 3050SOL    HW110049   2.283   2.261   1.405
 3050SOL    HW210050   2.302   2.291   1.564
 3051SOL     OW10051   2.734   6.894   6.277
 3051SOL    HW110052   2.688   6.805   6.271
 3051SOL    HW210053   2.668   6.964   6.301
 3052SOL     OW10054   5.611   5.803   2.141
 3052SOL    HW110055   5.699   5.785   2.185
 3052SOL    HW210056   5.545   5.832   2.209
 3053SOL     OW10057   0.737   3.997   0.840
 3053SOL    HW110058   0.680   4.073   0.809
 3053SOL    HW210059   0.829   4.007   0.803
 3054SOL     OW10060   5.601   0.906   2.792
 3054SOL    HW110061   5.546   0.880   2.871
 3054SOL    HW210062   5.620   0.825   2.736
 3055SOL     OW10063   5.780   6.668   5.644
 3055SOL    HW110064   5.748   6.585   5.598
 3055SOL    HW210065   5.788   6.742   5.578
 3056SOL     OW10066   6.124   1.724   5.619
 3056SOL    HW110067   6.138   1.641   5.565
 3056SOL    HW210068   6.026   1.741   5.630
 3057SOL     OW10069   5.363   5.772   4.046
 3057SOL    HW110070   5.267   5.745   4.046
 3057SOL    HW210071   5.414   5.714   3.982
 3058SOL     OW10072   6.602   4.002   1.133
 3058SOL    HW110073   6.661   3.924   1.116
 3058SOL    HW210074   6.547   4.020   1.051
 3059SOL     OW10075   2.453   1.596   4.380
 3059SOL    HW110076   2.356   1.622   4.374
 3059SOL    HW210077   2.468   1.513   4.326
 3060SOL     OW10078   2.607   5.246   6.686
 3060SOL    HW110079   2.678   5.271   6.620
 3060SOL    HW210080   2.564   5.160   6.658
 3061SOL     OW10081   6.000   5.635   5.742
 3061SOL    HW110082   6.020   5.690   5.823
 3061SOL    HW210083   5.919   5.672   5.696
 3062SOL     OW10084   3.606   5.617   1.044
 3062SOL    HW110085   3.697   5.626   1.085
 3062SOL    HW210086   3.538   5.605   1.116
 3063SOL     OW10087   0.894   4.471   0.613
 3063SOL    HW110088   0.975   4.439   0.564
 3063SOL    HW210089   0.829   4.510   0.548
 3064SOL     OW10090   4.301   2.966   6.822
 3064SOL    HW110091   4.373   2.989   6.888
 3064SOL    HW210092   4.235   2.905   6.865
 3065SOL     OW10093   1.131   1.560   6.497
 3065SOL    HW110094   1.110   1.530   6.590
 3065SOL    HW210095   1.075   1.509   6.432
 3066SOL     OW10096   5.062   5.311   6.099
 3066SOL    HW110097   5.000   5.288   6.024
 3066SOL    HW210098   5.015   5.370   6.165
 3067SOL     OW10099   2.236   1.611   0.693
 3067SOL    HW110100   2.143   1.631   0.659
 3067SOL    HW210101   2.297   1.687   0.668
 3068SOL     OW10102   0.242   0.956   1.417
 3068SOL    HW110103   0.176   0.897   1.463
 3068SOL    HW210104   0.288   1.014   1.484
 3069SOL     OW10105   6.530   6.379   3.268
 3069SOL    HW110106   6.593   6.301   3.276
 3069SOL    HW210107   6.583   6.462   3.249
 3070SOL     OW10108   2.616   0.970   6.849
 3070SOL    HW110109   2.670   1.048   6.817
 3070SOL    HW210110   2.546   0.949   6.782
 3071SOL     OW10111   6.839   4.769   3.656
 3071SOL    HW110112   6.765   4.736   3.598
 3071SOL    HW210113   6.859   4.865   3.633
 3072SOL     OW10114   1.763   6.076   0.045
 3072SOL    HW110115   1.737   6.072   6.968
 3072SOL    HW210116   1.862   6.066   0.053
 3073SOL     OW10117   0.312   4.377   1.496
 3073SOL    HW110118   0.222   4.399   1.535
 3073SOL    HW210119   0.315   4.280   1.471
 3074SOL     OW10120   1.406   4.213   1.435
 3074SOL    HW110121   1.400   4.293   1.494
 3074SOL    HW210122   1.351   4.138   1.474
 3075SOL     OW10123   2.540   5.366   4.013
 3075SOL    HW110124   2.485   5.357   3.930
 3075SOL    HW210125   2.481   5.391   4.090
 3076SOL     OW10126   6.538   1.272   4.711
 3076SOL    HW110127   6.571   1.262   4.806
 3076SOL    HW210128   6.602   1.329   4.660
 3077SOL     OW10129   6.108   3.564   1.858
 3077SOL    HW110130   6.204   3.549   1.880
 3077SOL    HW210131   6.095   3.557   1.759
 3078SOL     OW10132   6.685   2.842   2.044
 3078SOL    HW110133   6.661   2.927   2.091
 3078SOL    HW210134   6.702   2.770   2.111
 3079SOL     OW10135   3.100   2.185   3.826
 3079SOL    HW110136   3.072   2.116   3.892
 3079SOL    HW210137   3.142   2.262   3.874
 3080SOL     OW10138   4.760   4.236   1.836
 3080SOL    HW110139   4.853   4.230   1.872
 3080SOL    HW210140   4.699   4.268   1.907
 3081SOL     OW10141   0.862   4.700   6.699
 3081SOL    HW110142   0.837   4.631   6.631
 3081SOL    HW210143   0.959   4.721   6.692
 3082SOL     OW10144   2.743   5.585   4.332
 3082SOL    HW110145   2.660   5.618   4.375
 3082SOL    HW210146   2.793   5.526   4.395
 3083SOL     OW10147   3.255   5.568   2.764
 3083SOL    HW110148   3.188   5.500   2.734
 3083SOL    HW210149   3.292   5.615   2.684
 3084SOL     OW10150   0.138   4.239   2.462
 3084SOL    HW110151   0.055   4.288   2.439
 3084SOL    HW210152   0.217   4.286   2.423
 3085SOL     OW10153   4.991   4.786   0.851
 3085SOL    HW110154   5.063   4.811   0.916
 3085SOL    HW210155   4.940   4.707   0.885
 3086SOL     OW10156   4.582   1.088   6.816
 3086SOL    HW110157   4.632   1.090   6.903
 3086SOL    HW210158   4.641   1.052   6.744
 3087SOL     OW10159   2.399   6.170   2.475
 3087SOL    HW110160   2.382   6.210   2.385
 3087SOL    HW210161   2.358   6.229   2.545
 3088SOL     OW10162   1.389   3.107   5.649
 3088SOL    HW110163   1.392   3.200   5.614
 3088SOL    HW210164   1.479   3.064   5.635
 3089SOL     OW10165   4.470   1.585   5.195
 3089SOL    HW110166   4.406   1.661   5.181
 3089SOL    HW210167   4.519   1.600   5.281
 3090SOL     OW10168   1.771   1.211   1.994
 3090SOL    HW110169   1.858   1.188   2.037
 3090SOL    HW210170   1.783   1.214   1.894
 3091SOL     OW10171   1.151   0.802   0.593
 3091SOL    HW110172   1.125   0.837   0.683
 3091SOL    HW210173   1.179   0.878   0.534
 3092SOL     OW10174   5.014   6.556   1.435
 3092SOL    HW110175   4.939   6.505   1.394
 3092SOL    HW210176   4.992   6.653   1.436
 3093SOL     OW10177   5.505   6.477   5.683
 3093SOL    HW110178   5.559   6.491   5.600
 3093SOL    HW210179   5.413   6.445   5.658
 3094SOL     OW10180   2.962   0.677   4.214
 3094SOL    HW110181   2.867   0.706   4.214
 3094SOL    HW210182   2.980   0.621   4.295
 3095SOL     OW10183   2.155   3.510   5.731
 3095SOL    HW110184   2.063   3.526   5.765
 3095SOL    HW210185   2.174   3.571   5.654
 3096SOL     OW10186   0.774   3.580   4.868
 3096SOL    HW110187   0.834   3.594   4.790
 3096SOL    HW210188   0.693   3.638   4.860
 3097SOL     OW10189   5.629   2.841   0.457
 3097SOL    HW110190   5.717   2.858   0.501
 3097SOL    HW210191   5.554   2.864   0.520
 3098SOL     OW10192   1.598   3.111   2.024
 3098SOL    HW110193   1.671   3.180   2.023
 3098SOL    HW210194   1.547   3.115   1.938
 3099SOL     OW10195   0.954   5.863   3.945
 3099SOL    HW110196   0.905   5.874   3.859
 3099SOL    HW210197   0.972   5.953   3.985
 3100SOL     OW10198   6.908   6.647   2.241
 3100SOL    HW110199   6.977   6.574   2.231
 3100SOL    HW210200   6.951   6.735   2.220
 3101SOL     OW10201   4.506   6.471   6.005
 3101SOL    HW110202   4.524   6.385   6.055
 3101SOL    HW210203   4.593   6.514   5.982
 3102SOL     OW10204   6.716   5.854   0.394
 3102SOL    HW110205   6.628   5.827   0.354
 3102SOL    HW210206   6.787   5.851   0.324
 3103SOL     OW10207   5.253   0.827   0.857
 3103SOL    HW110208   5.155   0.840   0.870
 3103SOL    HW210209   5.281   0.739   0.895
 3104SOL     OW10210   4.496   6.753   0.087
 3104SOL    HW110211   4.566   6.695   0.047
 3104SOL    HW210212   4.414   6.699   0.105
 3105SOL     OW10213   4.623   3.157   1.066
 3105SOL    HW110214   4.554   3.171   0.995
 3105SOL    HW210215   4.577   3.137   1.153
 3106SOL     OW10216   5.464   0.228   5.312
 3106SOL    HW110217   5.406   0.254   5.235
 3106SOL    HW210218   5.407   0.193   5.386
 3107SOL     OW10219   4.275   1.586   4.330
 3107SOL    HW110220   4.350   1.527   4.297
 3107SOL    HW210221   4.280   1.675   4.285
 3108SOL     OW10222   1.882   5.374   4.731
 3108SOL    HW110223   1.964   5.336   4.774
 3108SOL    HW210224   1.887   5.359   4.632
 3109SOL     OW10225   6.687   0.446   4.352
 3109SOL    HW110226   6.724   0.539   4.355
 3109SOL    HW210227   6.597   0.448   4.307
 3110SOL     OW10228   2.323   4.230   3.237
 3110SOL    HW110229   2.289   4.263   3.324
 3110SOL    HW210230   2.418   4.258   3.225
 3111SOL     OW10231   7.010   4.661   3.382
 3111SOL    HW110232   0.012   4.758   3.394
 3111SOL    HW210233   6.932   4.652   3.321
 3112SOL     OW10234   3.233   3.411   6.948
 3112SOL    HW110235   3.235   3.511   6.949
 3112SOL    HW210236   3.143   3.379   6.978
 3113SOL     OW10237   3.161   5.981   2.780
 3113SOL    HW110238   3.196   6.014   2.867
 3113SOL    HW210239   3.146   6.058   2.719
 3114SOL     OW10240   4.062   1.530   0.164
 3114SOL    HW110241   3.962   1.521   0.173
 3114SOL    HW210242   4.092   1.614   0.207
 3115SOL     OW10243   3.776   4.752   5.458
 3115SOL    HW110244   3.750   4.816   5.531
 3115SOL    HW210245   3.761   4.658   5.490
 3116SOL     OW10246   0.559   2.168   0.262
 3116SOL    HW110247   0.508   2.243   0.305
 3116SOL    HW210248   0.630   2.136   0.325
 3117SOL     OW10249   4.852   2.502   5.358
 3117SOL    HW110250   4.807   2.466   5.275
 3117SOL    HW210251   4.940   2.457   5.370
 3118SOL     OW10252   1.292   6.965   2.209
 3118SOL    HW110253   1.278   0.042   2.184
 3118SOL    HW210254   1.275   6.953   2.307
 3119SOL     OW10255   2.984   2.825   5.393
 3119SOL    HW110256   3.055   2.756   5.405
 3119SOL    HW210257   3.023   2.907   5.352
 3120SOL     OW10258   3.179   0.549   5.808
 3120SOL    HW110259   3.274   0.545   5.776
 3120SOL    HW210260   3.134   0.462   5.787
 3121SOL     OW10261   5.506   1.746   4.357
 3121SOL    HW110262   5.433   1.715   4.418
 3121SOL    HW210263   5.537   1.837   4.385
 3122SOL     OW10264   4.440   4.768   5.043
 3122SOL    HW110265   4.363   4.820   5.005
 3122SOL    HW210266   4.426   4.670   5.026
 3123SOL     OW10267   1.561   0.718   3.676
 3123SOL    HW110268   1.544   0.620   3.664
 3123SOL    HW210269   1.636   0.731   3.740
 3124SOL     OW10270   5.388   6.719   4.072
 3124SOL    HW110271   5.336   6.658   4.132
 3124SOL    HW210272   5.372   6.693   3.977
 3125SOL     OW10273   0.956   3.013   5.334
 3125SOL    HW110274   0.983   3.010   5.238
 3125SOL    HW210275   1.037   3.034   5.390
 3126SOL     OW10276   5.455   4.590   6.429
 3126SOL    HW110277   5.500   4.675   6.457
 3126SOL    HW210278   5.523   4.523   6.401
 3127SOL     OW10279   1.485   2.776   5.052
 3127SOL    HW110280   1.540   2.833   4.991
 3127SOL    HW210281   1.538   2.756   5.135
 3128SOL     OW10282   3.745   0.821   0.284
 3128SOL    HW110283   3.833   0.860   0.257
 3128SOL    HW210284   3.754   0.779   0.375
 3129SOL     OW10285   4.812   3.355   1.034
 3129SOL    HW110286   4.776   3.433   1.085
 3129SOL    HW210287   4.750   3.277   1.045
 3130SOL     OW10288   1.680   4.248   1.346
 3130SOL    HW110289   1.588   4.211   1.357
 3130SOL    HW210290   1.716   4.273   1.436
 3131SOL     OW10291   0.359   3.302   2.551
 3131SOL    HW110292   0.432   3.277   2.487
 3131SOL    HW210293   0.278   3.247   2.532
 3132SOL     OW10294   4.447   5.206   6.511
 3132SOL    HW110295   4.468   5.110   6.492
 3132SOL    HW210296   4.511   5.242   6.578
 3133SOL     OW10297   3.650   1.270   3.144
 3133SOL    HW110298   3.649   1.349   3.206
 3133SOL    HW210299   3.709   1.199   3.182
 3134SOL     OW10300   3.991   5.346   1.684
 3134SOL    HW110301   3.951   5.418   1.629
 3134SOL    HW210302   3.946   5.259   1.664
 3135SOL     OW10303   4.981   6.618   6.127
 3135SOL    HW110304   5.023   6.709   6.117
 3135SOL    HW210305   5.040   6.549   6.085
 3136SOL     OW10306   5.795   0.528   1.830
 3136SOL    HW110307   5.882   0.480   1.840
 3136SOL    HW210308   5.801   0.617   1.876
 3137SOL     OW10309   6.538   6.965   2.621
 3137SOL    HW110310   6.506   6.923   2.536
 3137SOL    HW210311   6.605   6.904   2.664
 3138SOL     OW10312   6.167   5.200   3.411
 3138SOL    HW110313   6.217   5.120   3.377
 3138SOL    HW210314   6.143   5.186   3.507
 3139SOL     OW10315   3.528   5.119   1.753
 3139SOL    HW110316   3.550   5.022   1.761
 3139SOL    HW210317   3.576   5.170   1.825
 3140SOL     OW10318   6.861   6.182   5.305
 3140SOL    HW110319   6.953   6.144   5.306
 3140SOL    HW210320   6.862   6.273   5.263
 3141SOL     OW10321   0.005   0.408   6.619
 3141SOL    HW110322   7.010   0.477   6.690
 3141SOL    HW210323   0.053   0.449   6.542
 3142SOL     OW10324   3.612   1.294   2.838
 3142SOL    HW110325   3.625   1.252   2.928
 3142SOL    HW210326   3.650   1.386   2.839
 3143SOL     OW10327   6.128   1.919   6.485
 3143SOL    HW110328   6.144   1.985   6.411
 3143SOL    HW210329   6.044   1.942   6.533
 3144SOL     OW10330   4.070   3.485   0.514
 3144SOL    HW110331   4.044   3.480   0.611
 3144SOL    HW210332   4.052   3.396   0.471
 3145SOL     OW10333   2.154   6.358   2.642
 3145SOL    HW110334   2.087   6.408   2.697
 3145SOL    HW210335   2.111   6.329   2.557
 3146SOL     OW10336   0.694   0.840   5.053
 3146SOL    HW110337   0.780   0.888   5.063
 3146SOL    HW210338   0.680   0.817   4.956
 3147SOL     OW10339   2.992   5.142   6.652
 3147SOL    HW110340   2.943   5.229   6.657
 3147SOL    HW210341   3.031   5.131   6.561
 3148SOL     OW10342   0.457   0.483   4.111
 3148SOL    HW110343   0.382   0.503   4.175
 3148SOL    HW210344   0.498   0.569   4.080
 3149SOL     OW10345   3.210   1.362   6.871
 3149SOL    HW110346   3.299   1.334   6.904
 3149SOL    HW210347   3.147   1.375   6.948
 3150SOL     OW10348   6.509   5.805   5.436
 3150SOL    HW110349   6.514   5.798   5.336
 3150SOL    HW210350   6.472   5.719   5.473
 3151SOL     OW10351   6.976   2.068   5.940
 3151SOL    HW110352   6.964   2.014   5.857
 3151SOL    HW210353   6.988   2.164   5.916
 3152SOL     OW10354   1.110   4.522   0.027
 3152SOL    HW110355   1.154   4.567   6.970
 3152SOL    HW210356   1.110   4.423   0.012
 3153SOL     OW10357   6.068   4.931   0.195
 3153SOL    HW110358   6.039   4.854   0.139
 3153SOL    HW210359   5.998   4.952   0.263
 3154SOL     OW10360   6.268   0.747   1.251
 3154SOL    HW110361   6.271   0.690   1.333
 3154SOL    HW210362   6.188   0.723   1.196
 3155SOL     OW10363   6.368   4.330   0.356
 3155SOL    HW110364   6.309   4.376   0.423
 3155SOL    HW210365   6.344   4.233   0.351
 3156SOL     OW10366   3.200   4.069   2.215
 3156SOL    HW110367   3.177   4.037   2.307
 3156SOL    HW210368   3.134   4.033   2.149
 3157SOL     OW10369   1.774   1.909   5.266
 3157SOL    HW110370   1.782   1.907   5.366
 3157SOL    HW210371   1.678   1.897   5.241
 3158SOL     OW10372   2.497   1.447   4.635
 3158SOL    HW110373   2.582   1.470   4.683
 3158SOL    HW210374   2.498   1.490   4.544
 3159SOL     OW10375   5.818   0.249   6.659
 3159SOL    HW110376   5.915   0.264   6.675
 3159SOL    HW210377   5.790   0.163   6.703
 3160SOL     OW10378   1.723   6.408   5.680
 3160SOL    HW110379   1.628   6.427   5.656
 3160SOL    HW210380   1.775   6.388   5.597
 3161SOL     OW10381   2.111   2.606   2.618
 3161SOL    HW110382   2.160   2.612   2.532
 3161SOL    HW210383   2.166   2.646   2.691
 3162SOL     OW10384   1.500   5.869   0.930
 3162SOL    HW110385   1.593   5.884   0.965
 3162SOL    HW210386   1.440   5.943   0.961
 3163SOL     OW10387   3.565   3.390   7.015
 3163SOL    HW110388   3.560   3.320   6.943
 3163SOL    HW210389   3.475   3.404   0.035
 3164SOL     OW10390   3.611   5.870   2.671
 3164SOL    HW110391   3.586   5.885   2.575
 3164SOL    HW210392   3.689   5.929   2.694
 3165SOL     OW10393   0.926   5.634   1.162
 3165SOL    HW110394   1.008   5.577   1.156
 3165SOL    HW210395   0.869   5.619   1.081
 3166SOL     OW10396   4.547   1.465   4.317
 3166SOL    HW110397   4.579   1.545   4.268
 3166SOL    HW210398   4.583   1.382   4.273
 3167SOL     OW10399   5.434   4.523   0.742
 3167SOL    HW110400   5.532   4.536   0.723
 3167SOL    HW210401   5.421   4.435   0.788
 3168SOL     OW10402   5.718   2.336   0.577
 3168SOL    HW110403   5.692   2.303   0.668
 3168SOL    HW210404   5.754   2.429   0.583
 3169SOL     OW10405   1.572   4.008   3.390
 3169SOL    HW110406   1.529   3.993   3.479
 3169SOL    HW210407   1.501   4.017   3.320
 3170SOL     OW10408   4.181   5.855   2.757
 3170SOL    HW110409   4.273   5.879   2.785
 3170SOL    HW210410   4.184   5.773   2.698
 3171SOL     OW10411   5.782   2.339   1.599
 3171SOL    HW110412   5.833   2.372   1.678
 3171SOL    HW210413   5.810   2.246   1.576
 3172SOL     OW10414   0.199   5.318   0.053
 3172SOL    HW110415   0.211   5.222   0.081
 3172SOL    HW210416   0.224   5.378   0.129
 3173SOL     OW10417   3.429   2.830   6.607
 3173SOL    HW110418   3.518   2.872   6.592
 3173SOL    HW210419   3.360   2.876   6.551
 3174SOL     OW10420   2.526   2.959   6.040
 3174SOL    HW110421   2.578   2.994   6.118
 3174SOL    HW210422   2.442   3.011   6.029
 3175SOL     OW10423   6.023   1.312   1.694
 3175SOL    HW110424   6.018   1.233   1.632
 3175SOL    HW210425   5.933   1.327   1.734
 3176SOL     OW10426   0.853   2.958   5.574
 3176SOL    HW110427   0.897   2.980   5.487
 3176SOL    HW210428   0.781   2.890   5.559
 3177SOL     OW10429   5.296   4.456   4.072
 3177SOL    HW110430   5.275   4.387   4.142
 3177SOL    HW210431   5.350   4.530   4.114
 3178SOL     OW10432   6.134   2.380   0.086
 3178SOL    HW110433   6.077   2.352   0.163
 3178SOL    HW210434   6.175   2.299   0.044
 3179SOL     OW10435   1.256   1.489   1.672
 3179SOL    HW110436   1.251   1.456   1.578
 3179SOL    HW210437   1.258   1.589   1.672
 3180SOL     OW10438   5.467   6.635   0.511
 3180SOL    HW110439   5.460   6.553   0.455
 3180SOL    HW210440   5.556   6.678   0.495
 3181SOL     OW10441   6.916   2.345   4.132
 3181SOL    HW110442   7.006   2.312   4.104
 3181SOL    HW210443   6.856   2.268   4.150
 3182SOL     OW10444   2.678   0.513   6.695
 3182SOL    HW110445   2.620   0.594   6.691
 3182SOL    HW210446   2.637   0.446   6.757
 3183SOL     OW10447   4.302   4.620   2.111
 3183SOL    HW110448   4.331   4.712   2.138
 3183SOL    HW210449   4.209   4.603   2.144
 3184SOL     OW10450   0.690   1.775   2.961
 3184SOL    HW110451   0.689   1.784   2.862
 3184SOL    HW210452   0.730   1.856   3.003
 3185SOL     OW10453   5.193   6.445   6.163
 3185SOL    HW110454   5.218   6.349   6.178
 3185SOL    HW210455   5.155   6.483   6.248
 3186SOL     OW10456   2.881   1.542   0.191
 3186SOL    HW110457   2.877   1.603   0.270
 3186SOL    HW210458   2.977   1.529   0.165
 3187SOL     OW10459   3.698   5.301   2.358
 3187SOL    HW110460   3.626   5.358   2.397
 3187SOL    HW210461   3.657   5.218   2.319
 3188SOL     OW10462   1.590   6.025   4.607
 3188SOL    HW110463   1.573   5.940   4.556
 3188SOL    HW210464   1.634   6.092   4.548
 3189SOL     OW10465   1.903   1.493   0.568
 3189SOL    HW110466   1.907   1.430   0.490
 3189SOL    HW210467   1.948   1.579   0.543
 3190SOL     OW10468   0.219   5.972   0.004
 3190SOL    HW110469   0.317   5.981   7.010
 3190SOL    HW210470   0.196   5.876   0.024
 3191SOL     OW10471   4.791   5.174   1.716
 3191SOL    HW110472   4.786   5.075   1.700
 3191SOL    HW210473   4.713   5.203   1.771
 3192SOL     OW10474   0.416   2.631   0.821
 3192SOL    HW110475   0.466   2.554   0.782
 3192SOL    HW210476   0.435   2.714   0.767
 3193SOL     OW10477   3.943   1.696   4.692
 3193SOL    HW110478   4.024   1.682   4.634
 3193SOL    HW210479   3.929   1.794   4.706
 3194SOL     OW10480   0.931   1.715   5.649
 3194SOL    HW110481   0.957   1.812   5.647
 3194SOL    HW210482   0.930   1.682   5.743
 3195SOL     OW10483   0.805   1.161   1.440
 3195SOL    HW110484   0.858   1.198   1.364
 3195SOL    HW210485   0.788   1.064   1.426
 3196SOL     OW10486   6.658   0.530   6.686
 3196SOL    HW110487   6.613   0.446   6.717
 3196SOL    HW210488   6.716   0.566   6.759
 3197SOL     OW10489   2.407   6.804   5.198
 3197SOL    HW110490   2.479   6.801   5.129
 3197SOL    HW210491   2.429   6.874   5.266
 3198SOL     OW10492   6.432   2.836   3.189
 3198SOL    HW110493   6.411   2.871   3.280
 3198SOL    HW210494   6.368   2.875   3.123
 3199SOL     OW10495   5.317   4.367   2.910
 3199SOL    HW110496   5.406   4.331   2.936
 3199SOL    HW210497   5.328   4.457   2.869
 3200SOL     OW10498   5.991   2.967   2.997
 3200SOL    HW110499   5.905   2.940   2.954
 3200SOL    HW210500   5.998   3.066   2.998
 3201SOL     OW10501   6.529   4.884   3.260
 3201SOL    HW110502   6.533   4.787   3.236
 3201SOL    HW210503   6.536   4.939   3.177
 3202SOL     OW10504   0.951   5.096   0.459
 3202SOL    HW110505   1.006   5.172   0.425
 3202SOL    HW210506   0.945   5.101   0.558
 3203SOL     OW10507   5.783   1.594   0.833
 3203SOL    HW110508   5.871   1.618   0.875
 3203SOL    HW210509   5.743   1.676   0.792
 3204SOL     OW10510   3.609   0.468   3.417
 3204SOL    HW110511   3.635   0.380   3.458
 3204SOL    HW210512   3.512   0.467   3.393
 3205SOL     OW10513   4.860   2.923   5.732
 3205SOL    HW110514   4.883   3.007   5.681
 3205SOL    HW210515   4.761   2.914   5.736
 3206SOL     OW10516   1.876   4.057   0.897
 3206SOL    HW110517   1.855   4.106   0.812
 3206SOL    HW210518   1.876   4.122   0.973
 3207SOL     OW10519   1.474   0.751   6.806
 3207SOL    HW110520   1.498   0.812   6.881
 3207SOL    HW210521   1.394   0.696   6.832
 3208SOL     OW10522   5.351   5.780   6.307
 3208SOL    HW110523   5.370   5.798   6.210
 3208SOL    HW210524   5.431   5.806   6.362
 3209SOL     OW10525   2.929   5.403   4.423
 3209SOL    HW110526   2.876   5.318   4.418
 3209SOL    HW210527   2.962   5.428   4.332
 3210SOL     OW10528   1.133   5.063   1.056
 3210SOL    HW110529   1.142   4.964   1.072
 3210SOL    HW210530   1.051   5.096   1.102
 3211SOL     OW10531   2.127   4.208   0.670
 3211SOL    HW110532   2.140   4.134   0.603
 3211SOL    HW210533   2.209   4.265   0.673
 3212SOL     OW10534   3.223   6.680   2.323
 3212SOL    HW110535   3.176   6.745   2.263
 3212SOL    HW210536   3.169   6.667   2.407
 3213SOL     OW10537   1.137   0.535   6.666
 3213SOL    HW110538   1.211   0.602   6.656
 3213SOL    HW210539   1.136   0.501   6.760
 3214SOL     OW10540   4.822   5.630   2.307
 3214SOL    HW110541   4.781   5.550   2.352
 3214SOL    HW210542   4.918   5.638   2.334
 3215SOL     OW10543   0.325   3.983   0.695
 3215SOL    HW110544   0.259   3.912   0.718
 3215SOL    HW210545   0.294   4.071   0.730
 3216SOL     OW10546   5.766   5.406   0.680
 3216SOL    HW110547   5.737   5.381   0.587
 3216SOL    HW210548   5.806   5.327   0.725
 3217SOL     OW10549   0.361   5.264   2.866
 3217SOL    HW110550   0.421   5.192   2.830
 3217SOL    HW210551   0.338   5.243   2.961
 3218SOL     OW10552   5.797   2.542   3.199
 3218SOL    HW110553   5.743   2.599   3.261
 3218SOL    HW210554   5.796   2.582   3.107
 3219SOL     OW10555   6.809   0.691   4.285
 3219SOL    HW110556   6.890   0.715   4.231
 3219SOL    HW210557   6.726   0.713   4.233
 3220SOL     OW10558   0.267   5.905   6.053
 3220SOL    HW110559   0.215   5.848   5.989
 3220SOL    HW210560   0.280   5.996   6.013
 3221SOL     OW10561   3.374   0.236   2.346
 3221SOL    HW110562   3.470   0.221   2.370
 3221SOL    HW210563   3.319   0.240   2.429
 3222SOL     OW10564   2.961   1.471   2.571
 3222SOL    HW110565   2.918   1.558   2.593
 3222SOL    HW210566   3.031   1.450   2.640
 3223SOL     OW10567   2.476   6.543   0.162
 3223SOL    HW110568   2.498   6.520   0.067
 3223SOL    HW210569   2.418   6.472   0.202
 3224SOL     OW10570   4.913   2.802   4.928
 3224SOL    HW110571   4.999   2.793   4.979
 3224SOL    HW210572   4.892   2.899   4.916
 3225SOL     OW10573   4.559   1.636   5.435
 3225SOL    HW110574   4.611   1.719   5.453
 3225SOL    HW210575   4.465   1.648   5.467
 3226SOL     OW10576   2.230   0.963   2.245
 3226SOL    HW110577   2.193   0.913   2.324
 3226SOL    HW210578   2.175   0.941   2.164
 3227SOL     OW10579   3.724   3.645   6.618
 3227SOL    HW110580   3.705   3.576   6.548
 3227SOL    HW210581   3.815   3.630   6.657
 3228SOL     OW10582   6.781   3.441   0.794
 3228SOL    HW110583   6.869   3.394   0.795
 3228SOL    HW210584   6.707   3.374   0.801
 3229SOL     OW10585   3.490   1.059   5.609
 3229SOL    HW110586   3.513   0.993   5.681
 3229SOL    HW210587   3.526   1.027   5.522
 3230SOL     OW10588   2.052   5.476   5.857
 3230SOL    HW110589   2.104   5.455   5.940
 3230SOL    HW210590   2.104   5.444   5.777
 3231SOL     OW10591   2.684   0.560   2.644
 3231SOL    HW110592   2.740   0.542   2.564
 3231SOL    HW210593   2.637   0.648   2.634
 3232SOL     OW10594   4.176   5.937   4.100
 3232SOL    HW110595   4.135   5.996   4.170
 3232SOL    HW210596   4.105   5.910   4.034
 3233SOL     OW10597   6.910   2.289   0.181
 3233SOL    HW110598   6.911   2.387   0.165
 3233SOL    HW210599   6.980   2.245   0.126
 3234SOL     OW10600   0.633   2.794   7.017
 3234SOL    HW110601   0.568   2.848   0.052
 3234SOL    HW210602   0.706   2.854   6.983
 3235SOL     OW10603   6.700   0.233   1.661
 3235SOL    HW110604   6.780   0.175   1.682
 3235SOL    HW210605   6.684   0.296   1.737
 3236SOL     OW10606   0.793   4.359   0.069
 3236SOL    HW110607   0.750   4.443   0.037
 3236SOL    HW210608   0.728   4.308   0.127
 3237SOL     OW10609   5.840   1.502   2.609
 3237SOL    HW110610   5.932   1.511   2.570
 3237SOL    HW210611   5.841   1.532   2.704
 3238SOL     OW10612   5.943   5.193   0.108
 3238SOL    HW110613   5.979   5.101   0.128
 3238SOL    HW210614   5.928   5.242   0.193
 3239SOL     OW10615   0.562   0.793   2.901
 3239SOL    HW110616   0.564   0.889   2.928
 3239SOL    HW210617   0.496   0.744   2.958
 3240SOL     OW10618   6.876   0.458   6.335
 3240SOL    HW110619   6.944   0.527   6.359
 3240SOL    HW210620   6.826   0.430   6.417
 3241SOL     OW10621   5.109   1.370   5.793
 3241SOL    HW110622   5.062   1.452   5.826
 3241SOL    HW210623   5.087   1.293   5.854
 3242SOL     OW10624   4.477   3.890   6.106
 3242SOL    HW110625   4.552   3.948   6.075
 3242SOL    HW210626   4.513   3.813   6.159
 3243SOL     OW10627   4.533   5.396   0.381
 3243SOL    HW110628   4.626   5.397   0.418
 3243SOL    HW210629   4.507   5.303   0.356
 3244SOL     OW10630   5.517   5.923   6.933
 3244SOL    HW110631   5.422   5.893   6.928
 3244SOL    HW210632   5.559   5.886   7.016
 3245SOL     OW10633   4.873   1.979   4.240
 3245SOL    HW110634   4.864   2.070   4.281
 3245SOL    HW210635   4.964   1.942   4.260
 3246SOL     OW10636   6.806   6.971   2.937
 3246SOL    HW110637   6.782   6.930   2.849
 3246SOL    HW210638   6.814   6.900   3.006
 3247SOL     OW10639   5.890   4.339   1.845
 3247SOL    HW110640   5.932   4.249   1.854
 3247SOL    HW210641   5.790   4.330   1.847
 3248SOL     OW10642   5.812   2.966   2.603
 3248SOL    HW110643   5.754   2.936   2.528
 3248SOL    HW210644   5.900   2.997   2.567
 3249SOL     OW10645   3.140   4.029   3.363
 3249SOL    HW110646   3.097   3.938   3.363
 3249SOL    HW210647   3.131   4.070   3.273
 3250SOL     OW10648   5.527   0.304   2.511
 3250SOL    HW110649   5.537   0.293   2.412
 3250SOL    HW210650   5.535   0.214   2.555
 3251SOL     OW10651   3.568   0.877   3.970
 3251SOL    HW110652   3.469   0.884   3.980
 3251SOL    HW210653   3.610   0.862   4.059
 3252SOL     OW10654   3.120   0.823   2.468
 3252SOL    HW110655   3.072   0.850   2.384
 3252SOL    HW210656   3.203   0.877   2.478
 3253SOL     OW10657   4.328   3.542   0.599
 3253SOL    HW110658   4.240   3.553   0.554
 3253SOL    HW210659   4.333   3.451   0.641
 3254SOL     OW10660   5.186   6.280   6.904
 3254SOL    HW110661   5.196   6.312   6.810
 3254SOL    HW210662   5.092   6.246   6.917
 3255SOL     OW10663   4.675   6.805   1.559
 3255SOL    HW110664   4.693   6.712   1.593
 3255SOL    HW210665   4.760   6.857   1.556
 3256SOL     OW10666   3.621   1.767   1.156
 3256SOL    HW110667   3.597   1.779   1.252
 3256SOL    HW210668   3.622   1.856   1.111
 3257SOL     OW10669   1.196   1.756   1.579
 3257SOL    HW110670   1.101   1.770   1.550
 3257SOL    HW210671   1.246   1.842   1.573
 3258SOL     OW10672   4.169   5.657   3.527
 3258SOL    HW110673   4.190   5.719   3.452
 3258SOL    HW210674   4.133   5.571   3.491
 3259SOL     OW10675   4.746   4.739   4.688
 3259SOL    HW110676   4.819   4.781   4.634
 3259SOL    HW210677   4.777   4.650   4.722
 3260SOL     OW10678   1.635   3.167   1.631
 3260SOL    HW110679   1.570   3.177   1.707
 3260SOL    HW210680   1.703   3.239   1.636
 3261SOL     OW10681   5.512   0.917   1.335
 3261SOL    HW110682   5.433   0.892   1.391
 3261SOL    HW210683   5.484   0.922   1.239
 3262SOL     OW10684   3.985   2.125   2.059
 3262SOL    HW110685   4.051   2.170   1.998
 3262SOL    HW210686   3.894   2.160   2.041
 3263SOL     OW10687   2.852   1.491   2.979
 3263SOL    HW110688   2.924   1.425   3.000
 3263SOL    HW210689   2.764   1.444   2.977
 3264SOL     OW10690   2.332   5.561   1.032
 3264SOL    HW110691   2.292   5.470   1.019
 3264SOL    HW210692   2.259   5.627   1.048
 3265SOL     OW10693   5.255   6.912   6.394
 3265SOL    HW110694   5.187   6.886   6.325
 3265SOL    HW210695   5.234   7.003   6.428
 3266SOL     OW10696   2.795   4.976   6.999
 3266SOL    HW110697   2.696   4.984   7.008
 3266SOL    HW210698   2.832   4.925   0.056
 3267SOL     OW10699   3.174   6.792   2.013
 3267SOL    HW110700   3.271   6.772   1.998
 3267SOL    HW210701   3.127   6.709   2.041
 3268SOL     OW10702   2.102   3.893   1.318
 3268SOL    HW110703   2.169   3.819   1.318
 3268SOL    HW210704   2.132   3.966   1.256
 3269SOL     OW10705   6.422   5.834   2.202
 3269SOL    HW110706   6.335   5.785   2.214
 3269SOL    HW210707   6.440   5.889   2.283
 3270SOL     OW10708   1.832   3.785   6.601
 3270SOL    HW110709   1.915   3.752   6.646
 3270SOL    HW210710   1.754   3.774   6.662
 3271SOL     OW10711   6.954   3.075   1.501
 3271SOL    HW110712   6.970   3.166   1.462
 3271SOL    HW210713   6.881   3.079   1.569
 3272SOL     OW10714   3.116   4.051   6.238
 3272SOL    HW110715   3.113   4.110   6.157
 3272SOL    HW210716   3.175   4.092   6.307
 3273SOL     OW10717   6.264   4.792   0.016
 3273SOL    HW110718   6.285   4.715   6.975
 3273SOL    HW210719   6.215   4.862   6.984
 3274SOL     OW10720   5.796   0.420   0.704
 3274SOL    HW110721   5.764   0.501   0.752
 3274SOL    HW210722   5.730   0.346   0.715
 3275SOL     OW10723   4.978   0.861   6.857
 3275SOL    HW110724   5.004   0.945   6.905
 3275SOL    HW210725   4.921   0.805   6.917
 3276SOL     OW10726   4.209   6.359   6.549
 3276SOL    HW110727   4.218   6.276   6.604
 3276SOL    HW210728   4.299   6.400   6.536
 3277SOL     OW10729   3.659   0.969   0.989
 3277SOL    HW110730   3.732   0.907   1.018
 3277SOL    HW210731   3.697   1.040   0.929
 3278SOL     OW10732   1.184   0.783   5.612
 3278SOL    HW110733   1.171   0.685   5.604
 3278SOL    HW210734   1.108   0.822   5.664
 3279SOL     OW10735   5.445   6.976   0.492
 3279SOL    HW110736   5.393   7.009   0.414
 3279SOL    HW210737   5.465   6.878   0.481
 3280SOL     OW10738   4.904   4.945   5.046
 3280SOL    HW110739   4.839   4.892   4.991
 3280SOL    HW210740   4.973   4.986   4.987
 3281SOL     OW10741   0.819   4.990   0.942
 3281SOL    HW110742   0.878   4.925   0.894
 3281SOL    HW210743   0.866   5.077   0.952
 3282SOL     OW10744   6.724   5.014   5.081
 3282SOL    HW110745   6.718   5.093   5.143
 3282SOL    HW210746   6.735   4.930   5.135
 3283SOL     OW10747   3.359   1.438   1.226
 3283SOL    HW110748   3.387   1.424   1.131
 3283SOL    HW210749   3.311   1.525   1.234
 3284SOL     OW10750   1.276   6.087   5.665
 3284SOL    HW110751   1.359   6.142   5.677
 3284SOL    HW210752   1.277   6.012   5.731
 3285SOL     OW10753   4.392   2.297   4.718
 3285SOL    HW110754   4.374   2.384   4.672
 3285SOL    HW210755   4.490   2.283   4.726
 3286SOL     OW10756   3.318   2.824   2.026
 3286SOL    HW110757   3.342   2.763   1.950
 3286SOL    HW210758   3.396   2.831   2.089
 3287SOL     OW10759   0.470   6.849   0.328
 3287SOL    HW110760   0.439   6.772   0.273
 3287SOL    HW210761   0.393   6.889   0.377
 3288SOL     OW10762   2.011   6.772   0.392
 3288SOL    HW110763   1.988   6.681   0.426
 3288SOL    HW210764   1.967   6.786   0.303
 3289SOL     OW10765   2.827   1.471   6.341
 3289SOL    HW110766   2.758   1.407   6.308
 3289SOL    HW210767   2.916   1.448   6.301
 3290SOL     OW10768   6.589   4.715   0.613
 3290SOL    HW110769   6.556   4.691   0.522
 3290SOL    HW210770   6.537   4.793   0.648
 3291SOL     OW10771   2.267   1.311   6.006
 3291SOL    HW110772   2.281   1.224   6.052
 3291SOL    HW210773   2.201   1.366   6.057
 3292SOL     OW10774   0.051   1.090   0.639
 3292SOL    HW110775   6.978   1.109   0.674
 3292SOL    HW210776   0.044   1.050   0.547
 3293SOL     OW10777   6.686   4.438   1.452
 3293SOL    HW110778   6.765   4.481   1.494
 3293SOL    HW210779   6.632   4.391   1.522
 3294SOL     OW10780   5.184   2.817   6.289
 3294SOL    HW110781   5.248   2.740   6.288
 3294SOL    HW210782   5.182   2.856   6.381
 3295SOL     OW10783   0.952   2.811   2.102
 3295SOL    HW110784   0.973   2.714   2.089
 3295SOL    HW210785   1.014   2.867   2.047
 3296SOL     OW10786   1.333   0.937   2.785
 3296SOL    HW110787   1.245   0.889   2.781
 3296SOL    HW210788   1.356   0.956   2.881
 3297SOL     OW10789   2.868   1.641   5.188
 3297SOL    HW110790   2.920   1.715   5.144
 3297SOL    HW210791   2.791   1.680   5.237
 3298SOL     OW10792   6.636   2.515   5.840
 3298SOL    HW110793   6.625   2.472   5.751
 3298SOL    HW210794   6.603   2.609   5.836
 3299SOL     OW10795   4.106   6.145   2.777
 3299SOL    HW110796   4.096   6.143   2.876
 3299SOL    HW210797   4.140   6.056   2.745
 3300SOL     OW10798   1.151   0.526   5.987
 3300SOL    HW110799   1.247   0.501   5.994
 3300SOL    HW210800   1.135   0.609   6.041
 3301SOL     OW10801   1.734   2.928   3.319
 3301SOL    HW110802   1.642   2.939   3.358
 3301SOL    HW210803   1.782   3.015   3.322
 3302SOL     OW10804   0.430   4.603   5.236
 3302SOL    HW110805   0.398   4.656   5.158
 3302SOL    HW210806   0.375   4.521   5.245
 3303SOL     OW10807   3.211   3.569   0.199
 3303SOL    HW110808   3.209   3.620   0.113
 3303SOL    HW210809   3.201   3.633   0.276
 3304SOL     OW10810   1.755   5.403   6.155
 3304SOL    HW110811   1.755   5.499   6.186
 3304SOL    HW210812   1.774   5.400   6.057
 3305SOL     OW10813   2.306   1.610   2.448
 3305SOL    HW110814   2.358   1.616   2.363
 3305SOL    HW210815   2.360   1.647   2.524
 3306SOL     OW10816   1.339   5.232   4.795
 3306SOL    HW110817   1.315   5.275   4.708
 3306SOL    HW210818   1.352   5.302   4.864
 3307SOL     OW10819   0.772   6.846   5.885
 3307SOL    HW110820   0.749   6.854   5.788
 3307SOL    HW210821   0.722   6.915   5.937
 3308SOL     OW10822   3.108   5.504   1.435
 3308SOL    HW110823   3.179   5.485   1.502
 3308SOL    HW210824   3.038   5.563   1.475
 3309SOL     OW10825   6.922   5.342   3.613
 3309SOL    HW110826   6.866   5.404   3.559
 3309SOL    HW210827   6.966   5.392   3.687
 3310SOL     OW10828   6.887   4.236   4.796
 3310SOL    HW110829   6.940   4.292   4.732
 3310SOL    HW210830   6.949   4.184   4.854
 3311SOL     OW10831   3.493   4.201   0.710
 3311SOL    HW110832   3.544   4.237   0.632
 3311SOL    HW210833   3.530   4.239   0.794
 3312SOL     OW10834   3.953   3.811   5.672
 3312SOL    HW110835   4.046   3.814   5.634
 3312SOL    HW210836   3.953   3.854   5.762
 3313SOL     OW10837   0.892   6.646   4.068
 3313SOL    HW110838   0.821   6.715   4.059
 3313SOL    HW210839   0.925   6.620   3.977
 3314SOL     OW10840   2.549   1.232   2.470
 3314SOL    HW110841   2.550   1.140   2.431
 3314SOL    HW210842   2.595   1.296   2.408
 3315SOL     OW10843   0.279   3.878   4.574
 3315SOL    HW110844   0.331   3.842   4.497
 3315SOL    HW210845   0.183   3.854   4.565
 3316SOL     OW10846   4.509   1.012   4.859
 3316SOL    HW110847   4.570   0.958   4.918
 3316SOL    HW210848   4.430   0.956   4.834
 3317SOL     OW10849   5.133   2.623   2.093
 3317SOL    HW110850   5.211   2.663   2.141
 3317SOL    HW210851   5.127   2.526   2.112
 3318SOL     OW10852   1.701   1.501   0.752
 3318SOL    HW110853   1.774   1.501   0.683
 3318SOL    HW210854   1.673   1.407   0.770
 3319SOL     OW10855   5.499   0.978   3.898
 3319SOL    HW110856   5.596   0.966   3.920
 3319SOL    HW210857   5.451   1.011   3.979
 3320SOL     OW10858   5.941   0.846   0.335
 3320SOL    HW110859   5.842   0.855   0.333
 3320SOL    HW210860   5.971   0.792   0.256
 3321SOL     OW10861   5.441   1.775   0.481
 3321SOL    HW110862   5.476   1.865   0.507
 3321SOL    HW210863   5.371   1.785   0.411
 3322SOL     OW10864   6.735   2.754   1.235
 3322SOL    HW110865   6.683   2.800   1.164
 3322SOL    HW210866   6.735   2.655   1.218
 3323SOL     OW10867   2.591   3.159   0.252
 3323SOL    HW110868   2.508   3.106   0.269
 3323SOL    HW210869   2.671   3.107   0.283
 3324SOL     OW10870   4.154   4.980   6.311
 3324SOL    HW110871   4.098   5.037   6.371
 3324SOL    HW210872   4.097   4.911   6.267
 3325SOL     OW10873   0.173   4.001   0.256
 3325SOL    HW110874   0.146   4.008   0.160
 3325SOL    HW210875   0.106   4.048   0.313
 3326SOL     OW10876   4.955   1.869   1.820
 3326SOL    HW110877   4.873   1.833   1.775
 3326SOL    HW210878   4.934   1.889   1.916
 3327SOL     OW10879   3.273   5.424   2.089
 3327SOL    HW110880   3.330   5.460   2.163
 3327SOL    HW210881   3.226   5.500   2.044
 3328SOL     OW10882   3.812   1.937   0.808
 3328SOL    HW110883   3.889   1.874   0.811
 3328SOL    HW210884   3.826   2.004   0.734
 3329SOL     OW10885   5.831   0.461   5.348
 3329SOL    HW110886   5.919   0.427   5.380
 3329SOL    HW210887   5.819   0.556   5.378
 3330SOL     OW10888   6.377   3.698   1.588
 3330SOL    HW110889   6.444   3.764   1.622
 3330SOL    HW210890   6.424   3.627   1.535
 3331SOL     OW10891   2.199   2.896   1.622
 3331SOL    HW110892   2.158   2.815   1.580
 3331SOL    HW210893   2.289   2.913   1.581
 3332SOL     OW10894   5.959   5.905   0.206
 3332SOL    HW110895   5.958   5.967   0.127
 3332SOL    HW210896   5.971   5.811   0.173
 3333SOL     OW10897   3.911   5.865   6.418
 3333SOL    HW110898   3.986   5.930   6.421
 3333SOL    HW210899   3.824   5.914   6.417
 3334SOL     OW10900   3.229   3.596   1.405
 3334SOL    HW110901   3.179   3.512   1.385
 3334SOL    HW210902   3.182   3.674   1.362
 3335SOL     OW10903   4.846   5.232   5.939
 3335SOL    HW110904   4.752   5.267   5.940
 3335SOL    HW210905   4.847   5.138   5.973
 3336SOL     OW10906   3.096   5.612   4.861
 3336SOL    HW110907   3.031   5.578   4.793
 3336SOL    HW210908   3.151   5.535   4.896
 3337SOL     OW10909   3.101   3.224   2.020
 3337SOL    HW110910   3.019   3.236   1.964
 3337SOL    HW210911   3.087   3.148   2.084
 3338SOL     OW10912   5.892   2.938   1.048
 3338SOL    HW110913   5.794   2.925   1.029
 3338SOL    HW210914   5.944   2.866   1.002
 3339SOL     OW10915   6.531   0.316   6.827
 3339SOL    HW110916   6.435   0.344   6.821
 3339SOL    HW210917   6.540   0.245   6.898
 3340SOL     OW10918   3.827   0.554   0.958
 3340SOL    HW110919   3.890   0.545   0.881
 3340SOL    HW210920   3.761   0.478   0.957
 3341SOL     OW10921   0.944   6.104   4.030
 3341SOL    HW110922   0.916   6.128   4.123
 3341SOL    HW210923   0.868   6.120   3.967
 3342SOL     OW10924   2.414   6.683   4.268
 3342SOL    HW110925   2.460   6.732   4.342
 3342SOL    HW210926   2.418   6.585   4.286
 3343SOL     OW10927   4.806   2.954   0.776
 3343SOL    HW110928   4.796   2.943   0.875
 3343SOL    HW210929   4.786   2.867   0.731
 3344SOL     OW10930   6.377   3.561   4.566
 3344SOL    HW110931   6.422   3.481   4.606
 3344SOL    HW210932   6.283   3.567   4.600
 3345SOL     OW10933   1.356   3.954   5.248
 3345SOL    HW110934   1.286   3.976   5.180
 3345SOL    HW210935   1.359   4.026   5.318
 3346SOL     OW10936   1.446   1.039   1.168
 3346SOL    HW110937   1.435   0.954   1.117
 3346SOL    HW210938   1.511   1.098   1.121
 3347SOL     OW10939   0.852   4.563   3.897
 3347SOL    HW110940   0.861   4.657   3.863
 3347SOL    HW210941   0.823   4.504   3.822
 3348SOL     OW10942   3.045   3.070   2.927
 3348SOL    HW110943   3.141   3.055   2.905
 3348SOL    HW210944   3.035   3.084   3.026
 3349SOL     OW10945   0.604   5.020   4.278
 3349SOL    HW110946   0.577   4.958   4.352
 3349SOL    HW210947   0.613   4.969   4.193
 3350SOL     OW10948   1.115   2.239   5.911
 3350SOL    HW110949   1.095   2.172   5.983
 3350SOL    HW210950   1.212   2.234   5.887
 3351SOL     OW10951   5.476   0.050   2.579
 3351SOL    HW110952   5.393   0.061   2.525
 3351SOL    HW210953   5.454   0.009   2.667
 3352SOL     OW10954   0.220   3.202   0.614
 3352SOL    HW110955   0.284   3.144   0.664
 3352SOL    HW210956   0.175   3.265   0.677
 3353SOL     OW10957   1.429   6.386   2.404
 3353SOL    HW110958   1.447   6.462   2.342
 3353SOL    HW210959   1.404   6.421   2.494
 3354SOL     OW10960   5.357   2.609   4.122
 3354SOL    HW110961   5.393   2.692   4.164
 3354SOL    HW210962   5.384   2.529   4.176
 3355SOL     OW10963   1.536   1.568   0.069
 3355SOL    HW110964   1.629   1.592   0.096
 3355SOL    HW210965   1.512   1.614   7.003
 3356SOL     OW10966   1.934   3.548   6.728
 3356SOL    HW110967   1.839   3.539   6.756
 3356SOL    HW210968   1.943   3.523   6.631
 3357SOL     OW10969   2.721   4.733   1.778
 3357SOL    HW110970   2.767   4.680   1.850
 3357SOL    HW210971   2.666   4.805   1.820
 3358SOL     OW10972   4.842   0.322   1.253
 3358SOL    HW110973   4.783   0.369   1.187
 3358SOL    HW210974   4.931   0.304   1.211
 3359SOL     OW10975   6.646   0.254   3.901
 3359SOL    HW110976   6.563   0.204   3.929
 3359SOL    HW210977   6.682   0.304   3.980
 3360SOL     OW10978   0.348   0.905   0.197
 3360SOL    HW110979   0.289   0.849   0.139
 3360SOL    HW210980   0.372   0.989   0.148
 3361SOL     OW10981   0.668   4.929   2.538
 3361SOL    HW110982   0.766   4.909   2.545
 3361SOL    HW210983   0.628   4.933   2.629
 3362SOL     OW10984   4.114   1.699   3.875
 3362SOL    HW110985   4.182   1.754   3.923
 3362SOL    HW210986   4.027   1.749   3.871
 3363SOL     OW10987   0.844   0.074   6.993
 3363SOL    HW110988   0.920   0.010   6.990
 3363SOL    HW210989   0.876   0.162   0.010
 3364SOL     OW10990   1.265   4.272   4.413
 3364SOL    HW110991   1.354   4.273   4.458
 3364SOL    HW210992   1.227   4.180   4.418
 3365SOL     OW10993   0.122   2.465   4.961
 3365SOL    HW110994   0.163   2.540   5.013
 3365SOL    HW210995   0.024   2.482   4.949
 3366SOL     OW10996   6.291   0.388   6.169
 3366SOL    HW110997   6.253   0.298   6.147
 3366SOL    HW210998   6.313   0.437   6.085
 3367SOL     OW10999   2.458   2.940   1.292
 3367SOL    HW111000   2.462   2.861   1.353
 3367SOL    HW211001   2.449   3.024   1.347
 3368SOL     OW11002   0.701   5.982   6.284
 3368SOL    HW111003   0.694   6.000   6.382
 3368SOL    HW211004   0.769   6.043   6.244
 3369SOL     OW11005   3.598   2.313   5.814
 3369SOL    HW111006   3.634   2.267   5.733
 3369SOL    HW211007   3.595   2.412   5.797
 3370SOL     OW11008   6.777   6.385   5.737
 3370SOL    HW111009   6.852   6.445   5.708
 3370SOL    HW211010   6.785   6.297   5.690
 3371SOL     OW11011   0.549   4.282   2.602
 3371SOL    HW111012   0.598   4.336   2.533
 3371SOL    HW211013   0.609   4.209   2.635
 3372SOL     OW11014   0.874   1.561   1.743
 3372SOL    HW111015   0.777   1.583   1.755
 3372SOL    HW211016   0.929   1.624   1.797
 3373SOL     OW11017   6.232   1.441   3.029
 3373SOL    HW111018   6.263   1.352   3.062
 3373SOL    HW211019   6.293   1.473   2.956
 3374SOL     OW11020   2.596   5.791   4.825
 3374SOL    HW111021   2.535   5.721   4.787
 3374SOL    HW211022   2.648   5.752   4.901
 3375SOL     OW11023   4.819   4.970   6.085
 3375SOL    HW111024   4.897   4.989   6.144
 3375SOL    HW211025   4.735   5.000   6.130
 3376SOL     OW11026   3.902   3.787   2.881
 3376SOL    HW111027   3.973   3.718   2.868
 3376SOL    HW211028   3.896   3.812   2.977
 3377SOL     OW11029   0.066   6.202   4.546
 3377SOL    HW111030   0.083   6.270   4.617
 3377SOL    HW211031   0.150   6.152   4.527
 3378SOL     OW11032   6.145   0.664   0.596
 3378SOL    HW111033   6.207   0.638   0.521
 3378SOL    HW211034   6.101   0.582   0.633
 3379SOL     OW11035   7.011   5.289   6.187
 3379SOL    HW111036   6.971   5.347   6.117
 3379SOL    HW211037   6.952   5.210   6.204
 3380SOL     OW11038   5.911   6.360   5.859
 3380SOL    HW111039   5.971   6.361   5.939
 3380SOL    HW211040   5.843   6.432   5.867
 3381SOL     OW11041   1.364   2.574   0.917
 3381SOL    HW111042   1.417   2.505   0.966
 3381SOL    HW211043   1.426   2.634   0.866
 3382SOL     OW11044   0.956   0.744   0.351
 3382SOL    HW111045   1.044   0.764   0.394
 3382SOL    HW211046   0.895   0.701   0.418
 3383SOL     OW11047   4.445   5.516   3.062
 3383SOL    HW111048   4.352   5.545   3.039
 3383SOL    HW211049   4.440   5.431   3.115
 3384SOL     OW11050   2.809   3.339   5.278
 3384SOL    HW111051   2.721   3.380   5.254
 3384SOL    HW211052   2.794   3.250   5.321
 3385SOL     OW11053   0.226   4.036   3.627
 3385SOL    HW111054   0.198   3.941   3.614
 3385SOL    HW211055   0.325   4.044   3.616
 3386SOL     OW11056   6.484   3.708   6.264
 3386SOL    HW111057   6.421   3.633   6.286
 3386SOL    HW211058   6.572   3.670   6.237
 3387SOL     OW11059   2.968   1.139   2.780
 3387SOL    HW111060   2.891   1.172   2.726
 3387SOL    HW211061   2.945   1.049   2.819
 3388SOL     OW11062   6.100   3.064   1.615
 3388SOL    HW111063   6.115   3.152   1.569
 3388SOL    HW211064   6.127   2.990   1.553
 3389SOL     OW11065   4.749   5.297   4.788
 3389SOL    HW111066   4.682   5.223   4.780
 3389SOL    HW211067   4.751   5.330   4.882
 3390SOL     OW11068   5.770   4.740   5.801
 3390SOL    HW111069   5.712   4.708   5.726
 3390SOL    HW211070   5.800   4.834   5.782
 3391SOL     OW11071   5.369   2.701   4.475
 3391SOL    HW111072   5.412   2.616   4.504
 3391SOL    HW211073   5.413   2.735   4.392
 3392SOL     OW11074   2.621   0.305   3.902
 3392SOL    HW111075   2.541   0.351   3.862
 3392SOL    HW211076   2.595   0.262   3.988
 3393SOL     OW11077   0.296   6.449   0.480
 3393SOL    HW111078   0.380   6.438   0.534
 3393SOL    HW211079   0.237   6.370   0.495
 3394SOL     OW11080   5.881   3.191   0.922
 3394SOL    HW111081   5.923   3.246   0.994
 3394SOL    HW211082   5.877   3.095   0.951
 3395SOL     OW11083   6.087   3.358   3.430
 3395SOL    HW111084   6.101   3.268   3.387
 3395SOL    HW211085   5.995   3.390   3.410
 3396SOL     OW11086   6.146   2.003   3.423
 3396SOL    HW111087   6.148   1.911   3.462
 3396SOL    HW211088   6.148   1.997   3.323
 3397SOL     OW11089   2.861   1.316   5.499
 3397SOL    HW111090   2.808   1.233   5.481
 3397SOL    HW211091   2.803   1.385   5.542
 3398SOL     OW11092   1.657   6.721   3.860
 3398SOL    HW111093   1.630   6.632   3.823
 3398SOL    HW211094   1.717   6.768   3.795
 3399SOL     OW11095   5.397   4.676   5.048
 3399SOL    HW111096   5.322   4.684   5.114
 3399SOL    HW211097   5.360   4.668   4.956
 3400SOL     OW11098   4.666   1.664   5.801
 3400SOL    HW111099   4.720   1.696   5.724
 3400SOL    HW211100   4.569   1.673   5.779
 3401SOL     OW11101   6.766   3.494   1.210
 3401SOL    HW111102   6.799   3.535   1.125
 3401SOL    HW211103   6.708   3.416   1.189
 3402SOL     OW11104   4.134   6.244   0.690
 3402SOL    HW111105   4.071   6.257   0.614
 3402SOL    HW211106   4.217   6.298   0.674
 3403SOL     OW11107   4.125   0.309   5.073
 3403SOL    HW111108   4.134   0.384   5.007
 3403SOL    HW211109   4.035   0.267   5.064
 3404SOL     OW11110   5.538   1.663   6.706
 3404SOL    HW111111   5.452   1.656   6.756
 3404SOL    HW211112   5.600   1.590   6.736
 3405SOL     OW11113   6.475   4.305   4.350
 3405SOL    HW111114   6.378   4.284   4.361
 3405SOL    HW211115   6.525   4.220   4.330
 3406SOL     OW11116   0.737   4.325   2.415
 3406SOL    HW111117   0.789   4.241   2.396
 3406SOL    HW211118   0.696   4.359   2.331
 3407SOL     OW11119   1.566   5.364   0.108
 3407SOL    HW111120   1.584   5.273   0.146
 3407SOL    HW211121   1.627   5.381   0.031
 3408SOL     OW11122   5.077   4.081   4.756
 3408SOL    HW111123   5.054   3.984   4.747
 3408SOL    HW211124   5.096   4.120   4.666
 3409SOL     OW11125   3.397   6.342   6.268
 3409SOL    HW111126   3.470   6.404   6.298
 3409SOL    HW211127   3.432   6.249   6.263
 3410SOL     OW11128   6.739   5.982   0.012
 3410SOL    HW111129   6.834   6.012   0.013
 3410SOL    HW211130   6.679   6.061   0.023
 3411SOL     OW11131   0.641   2.629   2.325
 3411SOL    HW111132   0.614   2.585   2.240
 3411SOL    HW211133   0.735   2.603   2.348
 3412SOL     OW11134   4.313   2.635   6.091
 3412SOL    HW111135   4.281   2.696   6.163
 3412SOL    HW211136   4.243   2.567   6.071
 3413SOL     OW11137   5.149   0.625   2.533
 3413SOL    HW111138   5.179   0.714   2.499
 3413SOL    HW211139   5.063   0.636   2.584
 3414SOL     OW11140   1.871   1.059   5.882
 3414SOL    HW111141   1.966   1.078   5.907
 3414SOL    HW211142   1.835   1.136   5.829
 3415SOL     OW11143   1.682   4.499   4.800
 3415SOL    HW111144   1.761   4.544   4.758
 3415SOL    HW211145   1.683   4.515   4.899
 3416SOL     OW11146   0.169   5.707   0.099
 3416SOL    HW111147   0.221   5.656   0.168
 3416SOL    HW211148   0.118   5.643   0.042
 3417SOL     OW11149   0.840   5.866   3.676
 3417SOL    HW111150   0.933   5.832   3.660
 3417SOL    HW211151   0.788   5.864   3.590
 3418SOL     OW11152   3.943   0.102   5.289
 3418SOL    HW111153   3.899   0.135   5.373
 3418SOL    HW211154   4.035   0.071   5.309
 3419SOL     OW11155   3.958   5.330   4.827
 3419SOL    HW111156   3.862   5.307   4.815
 3419SOL    HW211157   3.982   5.406   4.766
 3420SOL     OW11158   5.370   3.229   3.447
 3420SOL    HW111159   5.313   3.177   3.511
 3420SOL    HW211160   5.435   3.168   3.402
 3421SOL     OW11161   6.033   0.721   6.241
 3421SOL    HW111162   5.997   0.637   6.282
 3421SOL    HW211163   5.998   0.731   6.148
 3422SOL     OW11164   2.064   6.530   1.000
 3422SOL    HW111165   2.048   6.559   1.095
 3422SOL    HW211166   1.976   6.524   0.953
 3423SOL     OW11167   2.484   6.451   0.484
 3423SOL    HW111168   2.472   6.464   0.582
 3423SOL    HW211169   2.514   6.537   0.442
 3424SOL     OW11170   2.955   6.889   2.324
 3424SOL    HW111171   2.939   6.839   2.409
 3424SOL    HW211172   2.895   6.853   2.253
 3425SOL     OW11173   5.794   4.072   2.581
 3425SOL    HW111174   5.750   3.992   2.539
 3425SOL    HW211175   5.724   4.132   2.620
 3426SOL     OW11176   2.868   3.087   0.042
 3426SOL    HW111177   2.802   3.105   0.115
 3426SOL    HW211178   2.890   3.173   7.015
 3427SOL     OW11179   6.862   6.646   6.751
 3427SOL    HW111180   6.913   6.657   6.837
 3427SOL    HW211181   6.875   6.728   6.695
 3428SOL     OW11182   3.377   4.993   1.060
 3428SOL    HW111183   3.394   4.904   1.103
 3428SOL    HW211184   3.341   5.056   1.128
 3429SOL     OW11185   0.761   1.445   6.855
 3429SOL    HW111186   0.712   1.367   6.818
 3429SOL    HW211187   0.756   1.443   6.955
 3430SOL     OW11188   0.265   6.362   5.038
 3430SOL    HW111189   0.342   6.301   5.054
 3430SOL    HW211190   0.213   6.373   5.122
 3431SOL     OW11191   2.036   6.838   0.973
 3431SOL    HW111192   1.994   6.828   0.882
 3431SOL    HW211193   1.992   6.775   1.037
 3432SOL     OW11194   2.434   2.805   6.625
 3432SOL    HW111195   2.339   2.776   6.639
 3432SOL    HW211196   2.496   2.737   6.665
 3433SOL     OW11197   0.923   6.887   6.472
 3433SOL    HW111198   0.938   6.979   6.434
 3433SOL    HW211199   0.924   6.892   6.572
 3434SOL     OW11200   3.732   2.386   0.824
 3434SOL    HW111201   3.652   2.333   0.795
 3434SOL    HW211202   3.768   2.348   0.909
 3435SOL     OW11203   1.344   1.434   1.071
 3435SOL    HW111204   1.355   1.490   1.153
 3435SOL    HW211205   1.274   1.365   1.086
 3436SOL     OW11206   3.456   6.577   5.712
 3436SOL    HW111207   3.363   6.612   5.717
 3436SOL    HW211208   3.519   6.653   5.691
 3437SOL     OW11209   3.375   0.486   6.371
 3437SOL    HW111210   3.415   0.566   6.415
 3437SOL    HW211211   3.306   0.446   6.431
 3438SOL     OW11212   1.766   2.810   0.340
 3438SOL    HW111213   1.783   2.717   0.374
 3438SOL    HW211214   1.786   2.877   0.411
 3439SOL     OW11215   2.119   6.368   5.799
 3439SOL    HW111216   2.141   6.299   5.730
 3439SOL    HW211217   2.188   6.440   5.798
 3440SOL     OW11218   4.194   3.325   1.758
 3440SOL    HW111219   4.192   3.348   1.855
 3440SOL    HW211220   4.107   3.284   1.731
 3441SOL     OW11221   4.944   0.199   3.718
 3441SOL    HW111222   4.893   0.278   3.754
 3441SOL    HW211223   5.038   0.225   3.700
 3442SOL     OW11224   2.858   4.727   2.722
 3442SOL    HW111225   2.930   4.758   2.784
 3442SOL    HW211226   2.789   4.677   2.774
 3443SOL     OW11227   5.429   0.232   1.912
 3443SOL    HW111228   5.507   0.254   1.854
 3443SOL    HW211229   5.412   0.133   1.908
 3444SOL     OW11230   4.885   5.280   0.184
 3444SOL    HW111231   4.830   5.254   0.264
 3444SOL    HW211232   4.883   5.206   0.116
 3445SOL     OW11233   6.046   5.348   4.363
 3445SOL    HW111234   6.050   5.317   4.268
 3445SOL    HW211235   6.095   5.435   4.372
 3446SOL     OW11236   6.075   0.656   2.594
 3446SOL    HW111237   6.058   0.603   2.510
 3446SOL    HW211238   6.043   0.750   2.581
 3447SOL     OW11239   5.207   5.143   1.078
 3447SOL    HW111240   5.272   5.192   1.020
 3447SOL    HW211241   5.254   5.110   1.161
 3448SOL     OW11242   3.039   0.211   0.482
 3448SOL    HW111243   3.081   0.195   0.572
 3448SOL    HW211244   3.025   0.309   0.469
 3449SOL     OW11245   6.439   6.722   3.814
 3449SOL    HW111246   6.384   6.742   3.895
 3449SOL    HW211247   6.516   6.785   3.810
 3450SOL     OW11248   0.450   3.186   6.504
 3450SOL    HW111249   0.406   3.275   6.518
 3450SOL    HW211250   0.387   3.113   6.529
 3451SOL     OW11251   1.265   5.808   2.825
 3451SOL    HW111252   1.321   5.859   2.890
 3451SOL    HW211253   1.169   5.816   2.852
 3452SOL     OW11254   5.845   1.957   6.555
 3452SOL    HW111255   5.790   2.029   6.597
 3452SOL    HW211256   5.790   1.874   6.547
 3453SOL     OW11257   0.107   6.558   6.182
 3453SOL    HW111258   0.081   6.519   6.093
 3453SOL    HW211259   0.049   6.637   6.201
 3454SOL     OW11260   1.842   0.963   6.858
 3454SOL    HW111261   1.923   1.016   6.832
 3454SOL    HW211262   1.826   0.891   6.790
 3455SOL     OW11263   2.153   3.109   4.194
 3455SOL    HW111264   2.085   3.081   4.262
 3455SOL    HW211265   2.176   3.205   4.207
 3456SOL     OW11266   5.163   5.949   2.264
 3456SOL    HW111267   5.241   5.891   2.289
 3456SOL    HW211268   5.122   5.987   2.347
 3457SOL     OW11269   2.358   5.683   4.161
 3457SOL    HW111270   2.441   5.717   4.118
 3457SOL    HW211271   2.352   5.584   4.147
 3458SOL     OW11272   4.650   6.890   0.664
 3458SOL    HW111273   4.553   6.906   0.643
 3458SOL    HW211274   4.701   6.877   0.579
 3459SOL     OW11275   6.264   4.029   2.536
 3459SOL    HW111276   6.190   3.963   2.522
 3459SOL    HW211277   6.348   3.979   2.558
 3460SOL     OW11278   2.419   3.352   0.348
 3460SOL    HW111279   2.488   3.287   0.318
 3460SOL    HW211280   2.431   3.372   0.445
 3461SOL     OW11281   4.326   6.190   4.460
 3461SOL    HW111282   4.388   6.122   4.422
 3461SOL    HW211283   4.377   6.275   4.476
 3462SOL     OW11284   0.211   3.366   2.164
 3462SOL    HW111285   0.240   3.405   2.251
 3462SOL    HW211286   0.125   3.316   2.177
 3463SOL     OW11287   1.157   3.517   3.326
 3463SOL    HW111288   1.065   3.500   3.361
 3463SOL    HW211289   1.215   3.438   3.345
 3464SOL     OW11290   6.789   2.705   6.582
 3464SOL    HW111291   6.813   2.716   6.679
 3464SOL    HW211292   6.690   2.712   6.571
 3465SOL     OW11293   0.510   2.616   2.103
 3465SOL    HW111294   0.430   2.675   2.100
 3465SOL    HW211295   0.590   2.667   2.070
 3466SOL     OW11296   6.576   4.818   6.771
 3466SOL    HW111297   6.500   4.835   6.708
 3466SOL    HW211298   6.583   4.893   6.836
 3467SOL     OW11299   2.075   1.840   1.039
 3467SOL    HW111300   2.086   1.756   0.986
 3467SOL    HW211301   2.122   1.830   1.128
 3468SOL     OW11302   5.413   0.789   2.969
 3468SOL    HW111303   5.445   0.805   3.063
 3468SOL    HW211304   5.408   0.691   2.952
 3469SOL     OW11305   4.508   0.675   4.194
 3469SOL    HW111306   4.521   0.612   4.271
 3469SOL    HW211307   4.411   0.678   4.170
 3470SOL     OW11308   0.061   2.316   1.908
 3470SOL    HW111309   7.007   2.345   1.968
 3470SOL    HW211310   0.129   2.265   1.962
 3471SOL     OW11311   4.603   4.321   4.471
 3471SOL    HW111312   4.575   4.413   4.500
 3471SOL    HW211313   4.592   4.313   4.372
 3472SOL     OW11314   2.728   1.092   2.195
 3472SOL    HW111315   2.773   1.151   2.128
 3472SOL    HW211316   2.642   1.058   2.157
 3473SOL     OW11317   0.203   2.712   2.360
 3473SOL    HW111318   0.202   2.649   2.282
 3473SOL    HW211319   0.207   2.806   2.328
 3474SOL     OW11320   0.160   4.484   2.642
 3474SOL    HW111321   0.239   4.467   2.700
 3474SOL    HW211322   0.186   4.471   2.546
 3475SOL     OW11323   1.090   4.142   3.798
 3475SOL    HW111324   1.098   4.183   3.707
 3475SOL    HW211325   1.077   4.214   3.866
 3476SOL     OW11326   2.128   1.827   2.720
 3476SOL    HW111327   2.044   1.869   2.754
 3476SOL    HW211328   2.114   1.729   2.711
 3477SOL     OW11329   1.939   4.915   0.999
 3477SOL    HW111330   1.840   4.920   0.986
 3477SOL    HW211331   1.967   4.984   1.065
 3478SOL     OW11332   2.454   5.553   5.858
 3478SOL    HW111333   2.381   5.527   5.922
 3478SOL    HW211334   2.518   5.615   5.904
 3479SOL     OW11335   1.133   0.694   2.517
 3479SOL    HW111336   1.148   0.790   2.494
 3479SOL    HW211337   1.192   0.637   2.461
 3480SOL     OW11338   6.680   5.405   4.721
 3480SOL    HW111339   6.775   5.401   4.751
 3480SOL    HW211340   6.627   5.461   4.784
 3481SOL     OW11341   5.277   0.431   0.088
 3481SOL    HW111342   5.224   0.408   0.007
 3481SOL    HW211343   5.369   0.460   0.061
 3482SOL     OW11344   6.505   0.983   2.329
 3482SOL    HW111345   6.490   1.063   2.270
 3482SOL    HW211346   6.578   1.004   2.394
 3483SOL     OW11347   5.203   1.920   1.615
 3483SOL    HW111348   5.213   1.842   1.554
 3483SOL    HW211349   5.123   1.907   1.673
 3484SOL     OW11350   0.776   2.631   0.478
 3484SOL    HW111351   0.763   2.730   0.468
 3484SOL    HW211352   0.872   2.612   0.496
 3485SOL     OW11353   1.584   1.745   4.392
 3485SOL    HW111354   1.542   1.720   4.305
 3485SOL    HW211355   1.678   1.710   4.395
 3486SOL     OW11356   2.323   0.353   3.481
 3486SOL    HW111357   2.379   0.282   3.440
 3486SOL    HW211358   2.238   0.313   3.516
 3487SOL     OW11359   6.988   2.017   0.355
 3487SOL    HW111360   6.976   2.079   0.277
 3487SOL    HW211361   6.899   1.979   0.380
 3488SOL     OW11362   6.338   0.404   4.892
 3488SOL    HW111363   6.331   0.464   4.812
 3488SOL    HW211364   6.273   0.435   4.962
 3489SOL     OW11365   4.060   0.547   1.943
 3489SOL    HW111366   4.061   0.451   1.970
 3489SOL    HW211367   4.012   0.600   2.012
 3490SOL     OW11368   4.282   3.696   1.341
 3490SOL    HW111369   4.199   3.701   1.285
 3490SOL    HW211370   4.343   3.772   1.318
 3491SOL     OW11371   4.810   2.401   5.755
 3491SOL    HW111372   4.744   2.446   5.693
 3491SOL    HW211373   4.791   2.429   5.849
 3492SOL     OW11374   6.607   4.432   0.763
 3492SOL    HW111375   6.631   4.522   0.728
 3492SOL    HW211376   6.510   4.414   0.746
 3493SOL     OW11377   4.831   4.269   4.872
 3493SOL    HW111378   4.764   4.335   4.905
 3493SOL    HW211379   4.842   4.195   4.939
 3494SOL     OW11380   3.043   1.101   1.959
 3494SOL    HW111381   3.017   1.043   1.882
 3494SOL    HW211382   3.143   1.111   1.961
 3495SOL     OW11383   5.821   4.787   1.267
 3495SOL    HW111384   5.919   4.767   1.267
 3495SOL    HW211385   5.773   4.716   1.319
 3496SOL     OW11386   6.157   5.329   0.504
 3496SOL    HW111387   6.200   5.404   0.555
 3496SOL    HW211388   6.202   5.319   0.415
 3497SOL     OW11389   2.212   1.060   3.830
 3497SOL    HW111390   2.184   1.155   3.816
 3497SOL    HW211391   2.307   1.059   3.864
 3498SOL     OW11392   3.236   1.639   1.112
 3498SOL    HW111393   3.169   1.589   1.058
 3498SOL    HW211394   3.190   1.706   1.171
 3499SOL     OW11395   5.738   3.847   4.293
 3499SOL    HW111396   5.816   3.873   4.236
 3499SOL    HW211397   5.690   3.771   4.249
 3500SOL     OW11398   2.112   3.359   4.264
 3500SOL    HW111399   2.122   3.377   4.362
 3500SOL    HW211400   2.024   3.393   4.233
 3501SOL     OW11401   2.756   5.632   5.756
 3501SOL    HW111402   2.711   5.680   5.831
 3501SOL    HW211403   2.793   5.545   5.789
 3502SOL     OW11404   6.781   2.372   1.788
 3502SOL    HW111405   6.875   2.338   1.785
 3502SOL    HW211406   6.745   2.379   1.696
 3503SOL     OW11407   5.949   5.813   4.672
 3503SOL    HW111408   5.900   5.878   4.730
 3503SOL    HW211409   5.961   5.852   4.580
 3504SOL     OW11410   2.597   0.938   1.998
 3504SOL    HW111411   2.539   0.863   1.968
 3504SOL    HW211412   2.670   0.903   2.056
 3505SOL     OW11413   5.467   4.322   5.903
 3505SOL    HW111414   5.552   4.329   5.954
 3505SOL    HW211415   5.422   4.411   5.899
 3506SOL     OW11416   5.353   4.836   5.333
 3506SOL    HW111417   5.352   4.865   5.429
 3506SOL    HW211418   5.288   4.761   5.321
 3507SOL     OW11419   2.557   0.829   0.990
 3507SOL    HW111420   2.496   0.856   1.064
 3507SOL    HW211421   2.646   0.803   1.028
 3508SOL     OW11422   2.385   2.104   6.104
 3508SOL    HW111423   2.353   2.032   6.043
 3508SOL    HW211424   2.419   2.180   6.050
 3509SOL     OW11425   4.912   0.411   6.649
 3509SOL    HW111426   4.962   0.488   6.689
 3509SOL    HW211427   4.865   0.361   6.722
 3510SOL     OW11428   1.482   1.153   2.041
 3510SOL    HW111429   1.429   1.222   1.992
 3510SOL    HW211430   1.574   1.187   2.058
 3511SOL     OW11431   2.158   4.923   1.473
 3511SOL    HW111432   2.090   4.910   1.401
 3511SOL    HW211433   2.115   4.911   1.562
 3512SOL     OW11434   0.745   4.605   0.432
 3512SOL    HW111435   0.651   4.596   0.398
 3512SOL    HW211436   0.808   4.611   0.354
 3513SOL     OW11437   5.286   2.145   0.278
 3513SOL    HW111438   5.220   2.212   0.245
 3513SOL    HW211439   5.372   2.190   0.300
 3514SOL     OW11440   0.052   1.544   1.741
 3514SOL    HW111441   0.099   1.566   1.826
 3514SOL    HW211442   0.114   1.561   1.664
 3515SOL     OW11443   4.192   5.810   3.286
 3515SOL    HW111444   4.148   5.876   3.347
 3515SOL    HW211445   4.138   5.802   3.202
 3516SOL     OW11446   4.946   6.816   0.768
 3516SOL    HW111447   5.019   6.878   0.739
 3516SOL    HW211448   4.869   6.870   0.803
 3517SOL     OW11449   1.003   2.237   1.148
 3517SOL    HW111450   1.018   2.248   1.049
 3517SOL    HW211451   1.091   2.246   1.196
 3518SOL     OW11452   5.088   2.953   4.287
 3518SOL    HW111453   5.009   2.982   4.233
 3518SOL    HW211454   5.070   2.862   4.325
 3519SOL     OW11455   1.488   0.935   6.335
 3519SOL    HW111456   1.484   0.952   6.433
 3519SOL    HW211457   1.561   0.870   6.315
 3520SOL     OW11458   3.073   5.392   6.925
 3520SOL    HW111459   3.048   5.489   6.926
 3520SOL    HW211460   2.990   5.336   6.925
 3521SOL     OW11461   4.760   2.505   0.160
 3521SOL    HW111462   4.768   2.600   0.192
 3521SOL    HW211463   4.817   2.492   0.079
 3522SOL     OW11464   0.083   4.789   1.222
 3522SOL    HW111465   0.099   4.812   1.126
 3522SOL    HW211466   0.029   4.705   1.226
 3523SOL     OW11467   1.238   4.577   6.150
 3523SOL    HW111468   1.214   4.480   6.138
 3523SOL    HW211469   1.265   4.593   6.245
 3524SOL     OW11470   4.654   1.570   1.999
 3524SOL    HW111471   4.608   1.483   1.982
 3524SOL    HW211472   4.617   1.641   1.939
 3525SOL     OW11473   0.284   4.458   3.230
 3525SOL    HW111474   0.204   4.448   3.289
 3525SOL    HW211475   0.364   4.421   3.277
 3526SOL     OW11476   2.035   6.666   3.856
 3526SOL    HW111477   2.100   6.591   3.846
 3526SOL    HW211478   2.084   6.752   3.866
 3527SOL     OW11479   5.624   3.394   6.415
 3527SOL    HW111480   5.660   3.417   6.505
 3527SOL    HW211481   5.535   3.438   6.402
 3528SOL     OW11482   1.208   6.114   5.370
 3528SOL    HW111483   1.297   6.152   5.349
 3528SOL    HW211484   1.199   6.101   5.469
 3529SOL     OW11485   3.868   0.669   0.038
 3529SOL    HW111486   3.939   0.738   0.049
 3529SOL    HW211487   3.795   0.704   6.999
 3530SOL     OW11488   6.654   5.299   2.342
 3530SOL    HW111489   6.602   5.280   2.259
 3530SOL    HW211490   6.734   5.354   2.320
 3531SOL     OW11491   5.367   3.307   0.784
 3531SOL    HW111492   5.409   3.294   0.695
 3531SOL    HW211493   5.267   3.307   0.775
 3532SOL     OW11494   2.789   0.531   1.984
 3532SOL    HW111495   2.876   0.484   1.994
 3532SOL    HW211496   2.733   0.486   1.915
 3533SOL     OW11497   1.324   1.750   2.899
 3533SOL    HW111498   1.352   1.846   2.911
 3533SOL    HW211499   1.235   1.747   2.854
 3534SOL     OW11500   6.503   1.877   0.844
 3534SOL    HW111501   6.436   1.807   0.870
 3534SOL    HW211502   6.593   1.835   0.832
 3535SOL     OW11503   1.664   5.769   0.521
 3535SOL    HW111504   1.575   5.732   0.548
 3535SOL    HW211505   1.734   5.738   0.586
 3536SOL     OW11506   2.719   1.945   3.248
 3536SOL    HW111507   2.706   2.009   3.323
 3536SOL    HW211508   2.653   1.964   3.175
 3537SOL     OW11509   3.325   6.548   2.078
 3537SOL    HW111510   3.290   6.455   2.070
 3537SOL    HW211511   3.319   6.579   2.173
 3538SOL     OW11512   1.649   6.844   6.193
 3538SOL    HW111513   1.555   6.876   6.210
 3538SOL    HW211514   1.651   6.789   6.110
 3539SOL     OW11515   4.452   3.120   5.696
 3539SOL    HW111516   4.413   3.202   5.653
 3539SOL    HW211517   4.383   3.047   5.697
 3540SOL     OW11518   2.423   2.255   5.378
 3540SOL    HW111519   2.337   2.207   5.362
 3540SOL    HW211520   2.462   2.226   5.465
 3541SOL     OW11521   1.898   2.689   6.199
 3541SOL    HW111522   1.866   2.699   6.105
 3541SOL    HW211523   1.984   2.638   6.200
 3542SOL     OW11524   1.759   5.431   2.859
 3542SOL    HW111525   1.828   5.459   2.925
 3542SOL    HW211526   1.803   5.389   2.780
 3543SOL     OW11527   0.889   2.294   4.752
 3543SOL    HW111528   0.916   2.204   4.716
 3543SOL    HW211529   0.972   2.345   4.778
 3544SOL     OW11530   2.551   4.139   6.495
 3544SOL    HW111531   2.504   4.056   6.465
 3544SOL    HW211532   2.599   4.180   6.418
 3545SOL     OW11533   4.343   5.764   0.620
 3545SOL    HW111534   4.255   5.811   0.620
 3545SOL    HW211535   4.341   5.691   0.551
 3546SOL     OW11536   1.530   4.349   4.430
 3546SOL    HW111537   1.548   4.448   4.431
 3546SOL    HW211538   1.610   4.301   4.396
 3547SOL     OW11539   6.855   4.642   4.067
 3547SOL    HW111540   6.792   4.574   4.029
 3547SOL    HW211541   6.932   4.655   4.006
 3548SOL     OW11542   5.598   1.562   5.824
 3548SOL    HW111543   5.645   1.550   5.911
 3548SOL    HW211544   5.582   1.659   5.808
 3549SOL     OW11545   6.773   5.254   5.707
 3549SOL    HW111546   6.826   5.325   5.661
 3549SOL    HW211547   6.825   5.168   5.708
 3550SOL     OW11548   6.422   2.205   2.801
 3550SOL    HW111549   6.439   2.302   2.780
 3550SOL    HW211550   6.462   2.183   2.890
 3551SOL     OW11551   3.737   0.856   1.994
 3551SOL    HW111552   3.746   0.913   1.912
 3551SOL    HW211553   3.821   0.802   2.006
 3552SOL     OW11554   5.533   6.258   2.341
 3552SOL    HW111555   5.494   6.293   2.426
 3552SOL    HW211556   5.460   6.223   2.283
 3553SOL     OW11557   4.513   4.347   1.214
 3553SOL    HW111558   4.593   4.401   1.240
 3553SOL    HW211559   4.459   4.398   1.147
 3554SOL     OW11560   4.946   2.453   0.692
 3554SOL    HW111561   4.899   2.453   0.603
 3554SOL    HW211562   5.000   2.369   0.701
 3555SOL     OW11563   1.432   4.225   4.101
 3555SOL    HW111564   1.423   4.189   4.194
 3555SOL    HW211565   1.528   4.237   4.079
 3556SOL     OW11566   4.290   1.410   3.442
 3556SOL    HW111567   4.279   1.314   3.469
 3556SOL    HW211568   4.281   1.468   3.523
 3557SOL     OW11569   0.877   0.192   4.157
 3557SOL    HW111570   0.789   0.174   4.113
 3557SOL    HW211571   0.862   0.226   4.250
 3558SOL     OW11572   1.716   6.403   1.267
 3558SOL    HW111573   1.670   6.486   1.299
 3558SOL    HW211574   1.783   6.374   1.335
 3559SOL     OW11575   0.128   6.140   5.324
 3559SOL    HW111576   0.139   6.085   5.407
 3559SOL    HW211577   0.118   6.079   5.245
 3560SOL     OW11578   0.618   5.770   1.519
 3560SOL    HW111579   0.542   5.756   1.454
 3560SOL    HW211580   0.702   5.733   1.480
 3561SOL     OW11581   3.964   4.679   5.252
 3561SOL    HW111582   3.903   4.712   5.324
 3561SOL    HW211583   4.024   4.608   5.289
 3562SOL     OW11584   5.186   0.925   3.112
 3562SOL    HW111585   5.283   0.929   3.089
 3562SOL    HW211586   5.132   0.917   3.029
 3563SOL     OW11587   5.604   1.985   6.908
 3563SOL    HW111588   5.574   1.907   6.963
 3563SOL    HW211589   5.530   2.013   6.847
 3564SOL     OW11590   1.545   4.585   4.185
 3564SOL    HW111591   1.558   4.524   4.107
 3564SOL    HW211592   1.459   4.562   4.231
 3565SOL     OW11593   3.324   5.684   5.025
 3565SOL    HW111594   3.236   5.697   5.071
 3565SOL    HW211595   3.336   5.587   5.003
 3566SOL     OW11596   6.588   3.690   5.919
 3566SOL    HW111597   6.643   3.645   5.989
 3566SOL    HW211598   6.500   3.643   5.910
 3567SOL     OW11599   0.323   3.258   0.145
 3567SOL    HW111600   0.383   3.180   0.164
 3567SOL    HW211601   0.350   3.335   0.202
 3568SOL     OW11602   4.671   5.325   4.211
 3568SOL    HW111603   4.755   5.333   4.265
 3568SOL    HW211604   4.606   5.395   4.240
 3569SOL     OW11605   2.692   2.009   6.033
 3569SOL    HW111606   2.787   1.987   6.011
 3569SOL    HW211607   2.689   2.098   6.079
 3570SOL     OW11608   4.984   0.563   4.991
 3570SOL    HW111609   4.885   0.559   5.004
 3570SOL    HW211610   5.029   0.513   5.065
 3571SOL     OW11611   1.547   0.226   5.149
 3571SOL    HW111612   1.518   0.131   5.166
 3571SOL    HW211613   1.531   0.281   5.230
 3572SOL     OW11614   5.671   3.189   3.174
 3572SOL    HW111615   5.655   3.179   3.076
 3572SOL    HW211616   5.672   3.286   3.199
 3573SOL     OW11617   6.493   4.135   3.241
 3573SOL    HW111618   6.397   4.108   3.244
 3573SOL    HW211619   6.538   4.089   3.165
 3574SOL     OW11620   0.557   2.639   1.091
 3574SOL    HW111621   0.514   2.619   1.180
 3574SOL    HW211622   0.497   2.607   1.018
 3575SOL     OW11623   5.238   5.570   3.036
 3575SOL    HW111624   5.237   5.477   3.074
 3575SOL    HW211625   5.260   5.635   3.108
 3576SOL     OW11626   0.693   2.104   6.777
 3576SOL    HW111627   0.608   2.155   6.762
 3576SOL    HW211628   0.690   2.019   6.724
 3577SOL     OW11629   1.355   2.746   6.799
 3577SOL    HW111630   1.339   2.843   6.812
 3577SOL    HW211631   1.453   2.727   6.804
 3578SOL     OW11632   4.661   1.570   0.827
 3578SOL    HW111633   4.713   1.655   0.841
 3578SOL    HW211634   4.643   1.528   0.916
 3579SOL     OW11635   6.801   1.956   2.769
 3579SOL    HW111636   6.732   1.884   2.765
 3579SOL    HW211637   6.763   2.036   2.815
 3580SOL     OW11638   6.054   3.536   0.629
 3580SOL    HW111639   6.152   3.544   0.609
 3580SOL    HW211640   6.041   3.516   0.726
 3581SOL     OW11641   0.715   5.214   3.521
 3581SOL    HW111642   0.755   5.234   3.611
 3581SOL    HW211643   0.756   5.274   3.452
 3582SOL     OW11644   1.259   3.803   5.791
 3582SOL    HW111645   1.265   3.793   5.692
 3582SOL    HW211646   1.166   3.781   5.821
 3583SOL     OW11647   1.656   4.437   6.953
 3583SOL    HW111648   1.716   4.366   6.989
 3583SOL    HW211649   1.711   4.515   6.921
 3584SOL     OW11650   5.728   4.378   5.631
 3584SOL    HW111651   5.712   4.445   5.704
 3584SOL    HW211652   5.721   4.424   5.542
 3585SOL     OW11653   2.947   2.174   4.622
 3585SOL    HW111654   2.994   2.181   4.534
 3585SOL    HW211655   2.964   2.084   4.661
 3586SOL     OW11656   6.282   1.669   4.760
 3586SOL    HW111657   6.289   1.574   4.728
 3586SOL    HW211658   6.309   1.730   4.686
 3587SOL     OW11659   2.192   5.405   5.623
 3587SOL    HW111660   2.211   5.425   5.526
 3587SOL    HW211661   2.198   5.307   5.638
 3588SOL     OW11662   0.084   2.978   5.230
 3588SOL    HW111663   7.016   2.969   5.183
 3588SOL    HW211664   0.143   3.042   5.181
 3589SOL     OW11665   5.476   0.959   5.721
 3589SOL    HW111666   5.485   0.860   5.705
 3589SOL    HW211667   5.503   0.980   5.815
 3590SOL     OW11668   6.751   3.644   0.343
 3590SOL    HW111669   6.765   3.739   0.369
 3590SOL    HW211670   6.693   3.640   0.261
 3591SOL     OW11671   5.681   3.559   0.420
 3591SOL    HW111672   5.756   3.492   0.413
 3591SOL    HW211673   5.671   3.606   0.332
 3592SOL     OW11674   0.457   6.612   2.691
 3592SOL    HW111675   0.448   6.689   2.627
 3592SOL    HW211676   0.388   6.543   2.669
 3593SOL     OW11677   0.635   4.148   5.815
 3593SOL    HW111678   0.663   4.229   5.765
 3593SOL    HW211679   0.644   4.067   5.756
 3594SOL     OW11680   4.645   0.364   3.583
 3594SOL    HW111681   4.695   0.442   3.622
 3594SOL    HW211682   4.654   0.366   3.484
 3595SOL     OW11683   5.478   5.685   6.729
 3595SOL    HW111684   5.468   5.620   6.804
 3595SOL    HW211685   5.434   5.771   6.753
 3596SOL     OW11686   4.876   3.410   3.192
 3596SOL    HW111687   4.893   3.427   3.095
 3596SOL    HW211688   4.801   3.343   3.201
 3597SOL     OW11689   2.177   2.445   5.531
 3597SOL    HW111690   2.245   2.503   5.487
 3597SOL    HW211691   2.127   2.498   5.600
 3598SOL     OW11692   2.082   6.678   5.928
 3598SOL    HW111693   2.134   6.650   6.009
 3598SOL    HW211694   2.127   6.642   5.846
 3599SOL     OW11695   4.766   2.057   0.483
 3599SOL    HW111696   4.698   1.985   0.498
 3599SOL    HW211697   4.744   2.136   0.540
 3600SOL     OW11698   1.026   2.677   2.605
 3600SOL    HW111699   1.101   2.721   2.556
 3600SOL    HW211700   0.959   2.747   2.632
 3601SOL     OW11701   5.304   2.797   6.015
 3601SOL    HW111702   5.379   2.802   6.081
 3601SOL    HW211703   5.231   2.859   6.043
 3602SOL     OW11704   1.495   3.933   0.989
 3602SOL    HW111705   1.575   3.898   1.037
 3602SOL    HW211706   1.420   3.867   0.997
 3603SOL     OW11707   3.762   0.661   4.341
 3603SOL    HW111708   3.724   0.748   4.308
 3603SOL    HW211709   3.732   0.645   4.435
 3604SOL     OW11710   6.843   6.661   3.397
 3604SOL    HW111711   6.758   6.704   3.426
 3604SOL    HW211712   6.899   6.728   3.348
 3605SOL     OW11713   0.765   4.464   3.641
 3605SOL    HW111714   0.765   4.553   3.595
 3605SOL    HW211715   0.743   4.392   3.575
 3606SOL     OW11716   0.711   6.656   4.340
 3606SOL    HW111717   0.657   6.708   4.273
 3606SOL    HW211718   0.745   6.572   4.296
 3607SOL     OW11719   5.678   4.677   2.005
 3607SOL    HW111720   5.762   4.636   2.041
 3607SOL    HW211721   5.694   4.773   1.984
 3608SOL     OW11722   4.952   1.735   4.452
 3608SOL    HW111723   4.865   1.771   4.487
 3608SOL    HW211724   5.014   1.718   4.528
 3609SOL     OW11725   1.757   0.203   4.354
 3609SOL    HW111726   1.718   0.244   4.437
 3609SOL    HW211727   1.754   0.103   4.362
 3610SOL     OW11728   1.594   0.690   6.272
 3610SOL    HW111729   1.648   0.626   6.327
 3610SOL    HW211730   1.553   0.642   6.195
 3611SOL     OW11731   4.370   5.111   3.883
 3611SOL    HW111732   4.383   5.020   3.921
 3611SOL    HW211733   4.445   5.170   3.910
 3612SOL     OW11734   0.694   0.645   6.508
 3612SOL    HW111735   0.739   0.664   6.595
 3612SOL    HW211736   0.639   0.562   6.516
 3613SOL     OW11737   4.584   4.735   2.172
 3613SOL    HW111738   4.671   4.783   2.161
 3613SOL    HW211739   4.601   4.637   2.182
 3614SOL     OW11740   3.490   3.638   0.828
 3614SOL    HW111741   3.420   3.568   0.821
 3614SOL    HW211742   3.561   3.609   0.892
 3615SOL     OW11743   5.487   2.823   6.207
 3615SOL    HW111744   5.517   2.773   6.289
 3615SOL    HW211745   5.553   2.896   6.187
 3616SOL     OW11746   0.885   0.563   6.333
 3616SOL    HW111747   0.951   0.638   6.341
 3616SOL    HW211748   0.799   0.589   6.376
 3617SOL     OW11749   3.994   0.753   6.111
 3617SOL    HW111750   4.075   0.763   6.053
 3617SOL    HW211751   4.019   0.769   6.207
 3618SOL     OW11752   2.406   3.234   5.366
 3618SOL    HW111753   2.446   3.150   5.331
 3618SOL    HW211754   2.458   3.313   5.332
 3619SOL     OW11755   5.811   2.883   6.284
 3619SOL    HW111756   5.864   2.965   6.304
 3619SOL    HW211757   5.815   2.821   6.362
 3620SOL     OW11758   5.796   5.730   5.309
 3620SOL    HW111759   5.767   5.637   5.289
 3620SOL    HW211760   5.758   5.758   5.398
 3621SOL     OW11761   2.918   3.354   4.732
 3621SOL    HW111762   2.882   3.260   4.735
 3621SOL    HW211763   2.935   3.385   4.826
 3622SOL     OW11764   1.796   1.169   0.278
 3622SOL    HW111765   1.713   1.215   0.247
 3622SOL    HW211766   1.873   1.234   0.274
 3623SOL     OW11767   6.474   5.835   4.379
 3623SOL    HW111768   6.503   5.931   4.380
 3623SOL    HW211769   6.482   5.797   4.471
 3624SOL     OW11770   1.416   0.156   2.751
 3624SOL    HW111771   1.413   0.074   2.809
 3624SOL    HW211772   1.388   0.235   2.805
 3625SOL     OW11773   0.299   3.522   6.254
 3625SOL    HW111774   0.355   3.504   6.173
 3625SOL    HW211775   0.253   3.610   6.243
 3626SOL     OW11776   0.567   3.384   5.517
 3626SOL    HW111777   0.517   3.309   5.474
 3626SOL    HW211778   0.648   3.348   5.563
 3627SOL     OW11779   4.271   3.034   1.533
 3627SOL    HW111780   4.351   3.023   1.591
 3627SOL    HW211781   4.264   3.130   1.504
 3628SOL     OW11782   1.035   1.695   1.947
 3628SOL    HW111783   1.132   1.673   1.962
 3628SOL    HW211784   0.985   1.679   2.032
 3629SOL     OW11785   0.483   0.147   5.212
 3629SOL    HW111786   0.479   0.122   5.115
 3629SOL    HW211787   0.507   0.243   5.221
 3630SOL     OW11788   6.072   2.587   3.722
 3630SOL    HW111789   6.013   2.632   3.655
 3630SOL    HW211790   6.157   2.560   3.677
 3631SOL     OW11791   1.642   0.103   3.023
 3631SOL    HW111792   1.680   0.192   2.998
 3631SOL    HW211793   1.638   0.095   3.122
 3632SOL     OW11794   4.988   4.938   0.621
 3632SOL    HW111795   5.001   4.876   0.698
 3632SOL    HW211796   4.969   5.030   0.655
 3633SOL     OW11797   4.321   2.569   5.747
 3633SOL    HW111798   4.374   2.491   5.714
 3633SOL    HW211799   4.375   2.620   5.814
 3634SOL     OW11800   2.195   5.816   6.113
 3634SOL    HW111801   2.118   5.839   6.054
 3634SOL    HW211802   2.280   5.844   6.069
 3635SOL     OW11803   2.921   1.007   0.940
 3635SOL    HW111804   2.953   1.101   0.931
 3635SOL    HW211805   2.871   0.997   1.027
 3636SOL     OW11806   6.786   5.438   0.742
 3636SOL    HW111807   6.746   5.358   0.788
 3636SOL    HW211808   6.764   5.434   0.644
 3637SOL     OW11809   0.453   2.576   1.377
 3637SOL    HW111810   0.442   2.479   1.397
 3637SOL    HW211811   0.451   2.628   1.462
 3638SOL     OW11812   6.845   3.914   2.689
 3638SOL    HW111813   6.788   3.835   2.666
 3638SOL    HW211814   6.836   3.983   2.617
 3639SOL     OW11815   4.115   5.020   6.724
 3639SOL    HW111816   4.020   4.991   6.735
 3639SOL    HW211817   4.124   5.116   6.752
 3640SOL     OW11818   4.977   1.775   0.144
 3640SOL    HW111819   4.945   1.728   0.227
 3640SOL    HW211820   5.048   1.720   0.101
 3641SOL     OW11821   6.098   3.670   1.584
 3641SOL    HW111822   6.198   3.672   1.572
 3641SOL    HW211823   6.063   3.763   1.585
 3642SOL     OW11824   4.477   2.274   6.737
 3642SOL    HW111825   4.392   2.326   6.728
 3642SOL    HW211826   4.481   2.205   6.664
 3643SOL     OW11827   4.065   5.957   5.339
 3643SOL    HW111828   4.014   6.002   5.266
 3643SOL    HW211829   4.020   5.975   5.427
 3644SOL     OW11830   2.109   1.316   1.445
 3644SOL    HW111831   2.103   1.408   1.406
 3644SOL    HW211832   2.062   1.251   1.386
 3645SOL     OW11833   1.413   3.066   4.340
 3645SOL    HW111834   1.367   3.094   4.255
 3645SOL    HW211835   1.344   3.040   4.408
 3646SOL     OW11836   1.326   4.176   5.471
 3646SOL    HW111837   1.293   4.269   5.488
 3646SOL    HW211838   1.422   4.170   5.496
 3647SOL     OW11839   2.439   5.960   6.705
 3647SOL    HW111840   2.511   6.029   6.696
 3647SOL    HW211841   2.380   5.964   6.624
 3648SOL     OW11842   5.199   5.783   3.727
 3648SOL    HW111843   5.205   5.882   3.733
 3648SOL    HW211844   5.166   5.757   3.636
 3649SOL     OW11845   6.287   3.107   0.185
 3649SOL    HW111846   6.303   3.010   0.166
 3649SOL    HW211847   6.337   3.162   0.119
 3650SOL     OW11848   6.093   4.981   1.050
 3650SOL    HW111849   6.054   5.033   1.126
 3650SOL    HW211850   6.097   5.038   0.969
 3651SOL     OW11851   1.961   0.602   4.805
 3651SOL    HW111852   1.945   0.580   4.709
 3651SOL    HW211853   2.059   0.596   4.825
 3652SOL     OW11854   6.320   6.633   3.393
 3652SOL    HW111855   6.250   6.583   3.343
 3652SOL    HW211856   6.408   6.587   3.381
 3653SOL     OW11857   1.548   1.227   2.874
 3653SOL    HW111858   1.511   1.296   2.936
 3653SOL    HW211859   1.586   1.271   2.793
 3654SOL     OW11860   4.647   5.728   0.571
 3654SOL    HW111861   4.552   5.719   0.598
 3654SOL    HW211862   4.690   5.637   0.568
 3655SOL     OW11863   3.708   0.917   4.220
 3655SOL    HW111864   3.675   0.991   4.278
 3655SOL    HW211865   3.731   0.953   4.129
 3656SOL     OW11866   0.813   5.550   1.403
 3656SOL    HW111867   0.863   5.611   1.464
 3656SOL    HW211868   0.840   5.568   1.308
 3657SOL     OW11869   4.805   5.566   4.625
 3657SOL    HW111870   4.830   5.564   4.721
 3657SOL    HW211871   4.825   5.477   4.584
 3658SOL     OW11872   2.315   5.136   6.761
 3658SOL    HW111873   2.376   5.057   6.752
 3658SOL    HW211874   2.313   5.167   6.856
 3659SOL     OW11875   1.367   2.208   5.846
 3659SOL    HW111876   1.346   2.299   5.810
 3659SOL    HW211877   1.388   2.146   5.770
 3660SOL     OW11878   6.026   5.761   4.283
 3660SOL    HW111879   5.955   5.826   4.309
 3660SOL    HW211880   6.055   5.709   4.363
 3661SOL     OW11881   0.608   0.577   5.059
 3661SOL    HW111882   0.637   0.673   5.056
 3661SOL    HW211883   0.545   0.559   4.984
 3662SOL     OW11884   3.945   1.060   4.446
 3662SOL    HW111885   3.847   1.076   4.436
 3662SOL    HW211886   3.986   1.138   4.494
 3663SOL     OW11887   1.627   2.744   6.776
 3663SOL    HW111888   1.591   2.760   6.684
 3663SOL    HW211889   1.722   2.775   6.781
 3664SOL     OW11890   4.825   2.491   1.972
 3664SOL    HW111891   4.842   2.587   1.947
 3664SOL    HW211892   4.889   2.432   1.922
 3665SOL     OW11893   0.782   5.911   5.723
 3665SOL    HW111894   0.705   5.889   5.664
 3665SOL    HW211895   0.858   5.944   5.668
 3666SOL     OW11896   0.750   3.583   3.296
 3666SOL    HW111897   0.747   3.560   3.393
 3666SOL    HW211898   0.764   3.682   3.286
 3667SOL     OW11899   0.322   1.254   3.300
 3667SOL    HW111900   0.358   1.231   3.391
 3667SOL    HW211901   0.229   1.292   3.310
 3668SOL     OW11902   1.341   0.448   1.374
 3668SOL    HW111903   1.407   0.514   1.410
 3668SOL    HW211904   1.256   0.452   1.426
 3669SOL     OW11905   5.565   1.468   3.789
 3669SOL    HW111906   5.569   1.372   3.760
 3669SOL    HW211907   5.609   1.525   3.720
 3670SOL     OW11908   3.016   5.298   0.416
 3670SOL    HW111909   3.030   5.289   0.515
 3670SOL    HW211910   2.947   5.232   0.387
 3671SOL     OW11911   6.677   1.886   3.997
 3671SOL    HW111912   6.684   1.936   3.911
 3671SOL    HW211913   6.602   1.820   3.992
 3672SOL     OW11914   4.806   2.213   2.834
 3672SOL    HW111915   4.728   2.200   2.773
 3672SOL    HW211916   4.828   2.126   2.878
 3673SOL     OW11917   3.982   5.538   6.737
 3673SOL    HW111918   3.991   5.514   6.834
 3673SOL    HW211919   3.981   5.637   6.727
 3674SOL     OW11920   1.585   5.800   5.360
 3674SOL    HW111921   1.560   5.767   5.269
 3674SOL    HW211922   1.685   5.798   5.369
 3675SOL     OW11923   1.031   2.353   3.948
 3675SOL    HW111924   0.953   2.292   3.936
 3675SOL    HW211925   1.002   2.436   3.997
 3676SOL     OW11926   5.673   3.233   2.624
 3676SOL    HW111927   5.680   3.292   2.543
 3676SOL    HW211928   5.754   3.174   2.629
 3677SOL     OW11929   2.688   0.395   4.872
 3677SOL    HW111930   2.736   0.307   4.882
 3677SOL    HW211931   2.597   0.389   4.912
 3678SOL     OW11932   1.875   1.316   4.172
 3678SOL    HW111933   1.882   1.259   4.090
 3678SOL    HW211934   1.786   1.363   4.172
 3679SOL     OW11935   7.016   0.418   2.869
 3679SOL    HW111936   6.933   0.367   2.891
 3679SOL    HW211937   0.017   0.481   2.944
 3680SOL     OW11938   4.716   2.782   4.521
 3680SOL    HW111939   4.670   2.740   4.442
 3680SOL    HW211940   4.660   2.770   4.603
 3681SOL     OW11941   0.997   0.881   6.760
 3681SOL    HW111942   1.032   0.964   6.715
 3681SOL    HW211943   0.984   0.899   6.857
 3682SOL     OW11944   5.619   2.716   0.195
 3682SOL    HW111945   5.607   2.626   0.237
 3682SOL    HW211946   5.648   2.782   0.264
 3683SOL     OW11947   0.117   0.607   3.572
 3683SOL    HW111948   0.029   0.602   3.620
 3683SOL    HW211949   0.185   0.553   3.621
 3684SOL     OW11950   1.293   5.348   0.003
 3684SOL    HW111951   1.256   5.310   0.087
 3684SOL    HW211952   1.391   5.363   0.013
 3685SOL     OW11953   2.482   6.024   5.553
 3685SOL    HW111954   2.428   6.048   5.472
 3685SOL    HW211955   2.456   5.932   5.584
 3686SOL     OW11956   6.607   4.926   3.739
 3686SOL    HW111957   6.689   4.902   3.791
 3686SOL    HW211958   6.531   4.943   3.802
 3687SOL     OW11959   4.899   6.712   3.542
 3687SOL    HW111960   4.849   6.694   3.627
 3687SOL    HW211961   4.914   6.626   3.493
 3688SOL     OW11962   6.453   2.805   6.850
 3688SOL    HW111963   6.474   2.754   6.933
 3688SOL    HW211964   6.356   2.832   6.851
 3689SOL     OW11965   2.173   1.942   5.648
 3689SOL    HW111966   2.234   1.949   5.568
 3689SOL    HW211967   2.223   1.901   5.724
 3690SOL     OW11968   4.846   5.858   0.914
 3690SOL    HW111969   4.852   5.771   0.964
 3690SOL    HW211970   4.750   5.875   0.891
 3691SOL     OW11971   2.534   1.914   6.521
 3691SOL    HW111972   2.464   1.927   6.451
 3691SOL    HW211973   2.557   1.817   6.528
 3692SOL     OW11974   6.505   4.747   6.068
 3692SOL    HW111975   6.593   4.721   6.027
 3692SOL    HW211976   6.434   4.685   6.034
 3693SOL     OW11977   1.824   1.725   2.963
 3693SOL    HW111978   1.735   1.697   2.927
 3693SOL    HW211979   1.896   1.668   2.923
 3694SOL     OW11980   1.705   6.609   2.431
 3694SOL    HW111981   1.634   6.588   2.364
 3694SOL    HW211982   1.751   6.525   2.460
 3695SOL     OW11983   5.521   1.280   1.946
 3695SOL    HW111984   5.471   1.230   2.018
 3695SOL    HW211985   5.552   1.367   1.982
 3696SOL     OW11986   4.192   6.774   5.248
 3696SOL    HW111987   4.209   6.854   5.191
 3696SOL    HW211988   4.277   6.747   5.293
 3697SOL     OW11989   6.791   6.251   3.051
 3697SOL    HW111990   6.825   6.346   3.056
 3697SOL    HW211991   6.713   6.247   2.989
 3698SOL     OW11992   1.724   1.284   3.457
 3698SOL    HW111993   1.753   1.214   3.522
 3698SOL    HW211994   1.769   1.268   3.369
 3699SOL     OW11995   1.645   1.626   3.732
 3699SOL    HW111996   1.606   1.676   3.655
 3699SOL    HW211997   1.743   1.615   3.718
 3700SOL     OW11998   1.744   5.148   4.898
 3700SOL    HW111999   1.759   5.236   4.851
 3700SOL    HW212000   1.678   5.094   4.846
 3701SOL     OW12001   1.114   6.340   2.713
 3701SOL    HW112002   1.064   6.301   2.791
 3701SOL    HW212003   1.049   6.383   2.650
 3702SOL     OW12004   5.477   6.407   3.239
 3702SOL    HW112005   5.535   6.352   3.300
 3702SOL    HW212006   5.432   6.479   3.292
 3703SOL     OW12007   0.974   0.255   6.720
 3703SOL    HW112008   0.898   0.286   6.663
 3703SOL    HW212009   0.997   0.160   6.698
 3704SOL     OW12010   5.158   2.736   0.903
 3704SOL    HW112011   5.083   2.672   0.922
 3704SOL    HW212012   5.121   2.823   0.872
 3705SOL     OW12013   4.897   4.706   3.985
 3705SOL    HW112014   4.943   4.626   4.023
 3705SOL    HW212015   4.952   4.745   3.911
 3706SOL     OW12016   0.385   4.447   6.707
 3706SOL    HW112017   0.289   4.463   6.686
 3706SOL    HW212018   0.397   4.437   6.806
 3707SOL     OW12019   4.575   5.993   4.027
 3707SOL    HW112020   4.649   5.925   4.033
 3707SOL    HW212021   4.523   5.978   3.943
 3708SOL     OW12022   4.197   6.854   1.432
 3708SOL    HW112023   4.146   6.798   1.365
 3708SOL    HW212024   4.276   6.803   1.465
 3709SOL     OW12025   2.718   0.305   1.787
 3709SOL    HW112026   2.644   0.273   1.728
 3709SOL    HW212027   2.770   0.377   1.740
 3710SOL     OW12028   0.390   5.353   5.061
 3710SOL    HW112029   0.407   5.381   4.967
 3710SOL    HW212030   0.456   5.282   5.087
 3711SOL     OW12031   1.101   5.708   5.061
 3711SOL    HW112032   1.104   5.618   5.019
 3711SOL    HW212033   1.140   5.775   4.998
 3712SOL     OW12034   1.557   6.283   0.080
 3712SOL    HW112035   1.463   6.277   0.047
 3712SOL    HW212036   1.604   6.196   0.065
 3713SOL     OW12037   0.534   0.409   5.262
 3713SOL    HW112038   0.454   0.454   5.301
 3713SOL    HW212039   0.568   0.462   5.184
 3714SOL     OW12040   6.095   5.176   6.376
 3714SOL    HW112041   6.041   5.133   6.449
 3714SOL    HW212042   6.111   5.109   6.303
 3715SOL     OW12043   1.269   4.871   2.112
 3715SOL    HW112044   1.203   4.815   2.163
 3715SOL    HW212045   1.265   4.846   2.015
 3716SOL     OW12046   5.918   5.644   4.884
 3716SOL    HW112047   5.941   5.680   4.794
 3716SOL    HW212048   5.873   5.555   4.874
 3717SOL     OW12049   5.739   1.327   0.431
 3717SOL    HW112050   5.705   1.420   0.430
 3717SOL    HW212051   5.805   1.315   0.357
 3718SOL     OW12052   6.897   0.165   6.579
 3718SOL    HW112053   6.935   0.253   6.608
 3718SOL    HW212054   6.961   0.121   6.515
 3719SOL     OW12055   4.175   3.087   6.331
 3719SOL    HW112056   4.088   3.039   6.335
 3719SOL    HW212057   4.169   3.172   6.383
 3720SOL     OW12058   5.625   4.018   0.590
 3720SOL    HW112059   5.658   3.992   0.499
 3720SOL    HW212060   5.574   4.104   0.583
 3721SOL     OW12061   0.097   5.050   0.786
 3721SOL    HW112062   0.064   5.066   0.693
 3721SOL    HW212063   0.145   5.132   0.819
 3722SOL     OW12064   5.677   5.937   1.630
 3722SOL    HW112065   5.733   5.900   1.705
 3722SOL    HW212066   5.585   5.898   1.635
 3723SOL     OW12067   4.752   5.473   0.608
 3723SOL    HW112068   4.845   5.440   0.595
 3723SOL    HW212069   4.743   5.513   0.699
 3724SOL     OW12070   1.435   4.220   5.976
 3724SOL    HW112071   1.416   4.276   5.896
 3724SOL    HW212072   1.443   4.279   6.057
 3725SOL     OW12073   0.661   6.051   6.548
 3725SOL    HW112074   0.717   6.124   6.587
 3725SOL    HW212075   0.661   5.973   6.610
 3726SOL     OW12076   5.191   3.929   6.249
 3726SOL    HW112077   5.145   3.904   6.163
 3726SOL    HW212078   5.253   4.006   6.233
 3727SOL     OW12079   6.225   3.114   5.126
 3727SOL    HW112080   6.170   3.062   5.060
 3727SOL    HW212081   6.320   3.115   5.096
 3728SOL     OW12082   1.666   3.585   6.822
 3728SOL    HW112083   1.576   3.545   6.842
 3728SOL    HW212084   1.671   3.677   6.859
 3729SOL     OW12085   0.820   1.139   4.237
 3729SOL    HW112086   0.899   1.164   4.293
 3729SOL    HW212087   0.775   1.059   4.276
 3730SOL     OW12088   3.899   6.482   5.770
 3730SOL    HW112089   3.908   6.576   5.801
 3730SOL    HW212090   3.925   6.476   5.673
 3731SOL     OW12091   0.198   1.234   0.204
 3731SOL    HW112092   0.274   1.263   0.147
 3731SOL    HW212093   0.150   1.314   0.240
 3732SOL     OW12094   2.353   2.379   0.676
 3732SOL    HW112095   2.441   2.332   0.682
 3732SOL    HW212096   2.365   2.476   0.692
 3733SOL     OW12097   2.071   2.177   3.249
 3733SOL    HW112098   2.004   2.237   3.293
 3733SOL    HW212099   2.152   2.230   3.225
 3734SOL     OW12100   4.292   0.689   1.500
 3734SOL    HW112101   4.207   0.668   1.548
 3734SOL    HW212102   4.356   0.612   1.511
 3735SOL     OW12103   4.073   0.533   2.291
 3735SOL    HW112104   4.054   0.572   2.381
 3735SOL    HW212105   4.071   0.433   2.297
 3736SOL     OW12106   6.833   1.149   0.794
 3736SOL    HW112107   6.864   1.243   0.803
 3736SOL    HW212108   6.805   1.114   0.883
 3737SOL     OW12109   5.986   1.292   3.517
 3737SOL    HW112110   5.915   1.352   3.480
 3737SOL    HW212111   6.066   1.346   3.543
 3738SOL     OW12112   6.564   0.149   1.199
 3738SOL    HW112113   6.578   0.204   1.281
 3738SOL    HW212114   6.630   0.175   1.129
 3739SOL     OW12115   2.298   4.378   1.528
 3739SOL    HW112116   2.386   4.335   1.506
 3739SOL    HW212117   2.239   4.376   1.448
 3740SOL     OW12118   6.205   5.623   0.308
 3740SOL    HW112119   6.114   5.613   0.268
 3740SOL    HW212120   6.198   5.673   0.394
 3741SOL     OW12121   4.599   2.883   6.633
 3741SOL    HW112122   4.608   2.846   6.725
 3741SOL    HW212123   4.506   2.920   6.620
 3742SOL     OW12124   4.199   0.284   0.576
 3742SOL    HW112125   4.142   0.352   0.528
 3742SOL    HW212126   4.155   0.259   0.662
 3743SOL     OW12127   5.237   3.994   1.156
 3743SOL    HW112128   5.252   3.917   1.217
 3743SOL    HW212129   5.294   4.071   1.185
 3744SOL     OW12130   1.051   6.138   2.052
 3744SOL    HW112131   1.053   6.071   1.978
 3744SOL    HW212132   1.117   6.112   2.122
 3745SOL     OW12133   5.364   4.029   2.987
 3745SOL    HW112134   5.347   4.042   2.889
 3745SOL    HW212135   5.325   3.941   3.016
 3746SOL     OW12136   5.920   0.228   3.722
 3746SOL    HW112137   5.966   0.139   3.713
 3746SOL    HW212138   5.968   0.296   3.668
 3747SOL     OW12139   4.603   6.345   5.574
 3747SOL    HW112140   4.560   6.318   5.661
 3747SOL    HW212141   4.545   6.316   5.498
 3748SOL     OW12142   5.200   0.617   1.818
 3748SOL    HW112143   5.182   0.704   1.772
 3748SOL    HW212144   5.297   0.594   1.808
 3749SOL     OW12145   2.032   4.773   3.520
 3749SOL    HW112146   2.107   4.768   3.586
 3749SOL    HW212147   2.035   4.693   3.460
 3750SOL     OW12148   5.710   4.491   0.908
 3750SOL    HW112149   5.734   4.507   0.813
 3750SOL    HW212150   5.665   4.572   0.946
 3751SOL     OW12151   6.715   2.830   0.685
 3751SOL    HW112152   6.715   2.735   0.715
 3751SOL    HW212153   6.746   2.835   0.590
 3752SOL     OW12154   1.124   0.051   0.789
 3752SOL    HW112155   1.094   0.097   0.872
 3752SOL    HW212156   1.074   6.985   0.778
 3753SOL     OW12157   0.005   0.774   4.166
 3753SOL    HW112158   0.040   0.828   4.242
 3753SOL    HW212159   0.044   0.807   4.080
 3754SOL     OW12160   4.183   6.339   1.835
 3754SOL    HW112161   4.165   6.392   1.752
 3754SOL    HW212162   4.155   6.391   1.915
 3755SOL     OW12163   5.226   5.504   4.467
 3755SOL    HW112164   5.256   5.565   4.539
 3755SOL    HW212165   5.304   5.478   4.410
 3756SOL     OW12166   1.987   7.003   6.372
 3756SOL    HW112167   2.009   0.017   6.463
 3756SOL    HW212168   2.071   7.001   6.317
 3757SOL     OW12169   4.142   6.158   6.984
 3757SOL    HW112170   4.071   6.088   6.991
 3757SOL    HW212171   4.105   6.247   7.012
 3758SOL     OW12172   1.854   1.188   4.433
 3758SOL    HW112173   1.866   1.263   4.368
 3758SOL    HW212174   1.849   1.224   4.526
 3759SOL     OW12175   4.237   5.040   6.058
 3759SOL    HW112176   4.222   5.016   6.154
 3759SOL    HW212177   4.269   5.134   6.052
 3760SOL     OW12178   1.086   2.812   4.440
 3760SOL    HW112179   1.021   2.763   4.498
 3760SOL    HW212180   1.130   2.884   4.492
 3761SOL     OW12181   0.486   0.082   4.943
 3761SOL    HW112182   0.447   0.109   4.855
 3761SOL    HW212183   0.564   0.021   4.927
 3762SOL     OW12184   0.720   5.683   6.575
 3762SOL    HW112185   0.698   5.758   6.638
 3762SOL    HW212186   0.729   5.598   6.627
 3763SOL     OW12187   6.732   4.968   0.194
 3763SOL    HW112188   6.781   4.883   0.212
 3763SOL    HW212189   6.654   4.976   0.257
 3764SOL     OW12190   1.692   0.372   3.367
 3764SOL    HW112191   1.759   0.427   3.318
 3764SOL    HW212192   1.603   0.379   3.322
 3765SOL     OW12193   5.299   1.292   1.087
 3765SOL    HW112194   5.393   1.323   1.105
 3765SOL    HW212195   5.291   1.195   1.108
 3766SOL     OW12196   1.337   1.128   4.306
 3766SOL    HW112197   1.247   1.155   4.271
 3766SOL    HW212198   1.370   1.197   4.370
 3767SOL     OW12199   2.155   5.500   0.343
 3767SOL    HW112200   2.224   5.512   0.414
 3767SOL    HW212201   2.077   5.559   0.363
 3768SOL     OW12202   2.537   5.740   5.323
 3768SOL    HW112203   2.579   5.693   5.401
 3768SOL    HW212204   2.438   5.743   5.336
 3769SOL     OW12205   5.503   5.786   4.898
 3769SOL    HW112206   5.456   5.701   4.920
 3769SOL    HW212207   5.596   5.784   4.934
 3770SOL     OW12208   1.890   0.282   6.722
 3770SOL    HW112209   1.801   0.321   6.746
 3770SOL    HW212210   1.898   0.191   6.764
 3771SOL     OW12211   5.802   2.660   6.976
 3771SOL    HW112212   5.732   2.650   0.027
 3771SOL    HW212213   5.892   2.666   0.000
 3772SOL     OW12214   6.922   1.608   0.069
 3772SOL    HW112215   6.933   1.509   0.074
 3772SOL    HW212216   6.837   1.634   0.115
 3773SOL     OW12217   6.176   2.884   6.359
 3773SOL    HW112218   6.148   2.891   6.263
 3773SOL    HW212219   6.159   2.791   6.392
 3774SOL     OW12220   0.687   6.408   0.025
 3774SOL    HW112221   0.647   6.347   6.976
 3774SOL    HW212222   0.642   6.497   0.020
 3775SOL     OW12223   5.120   4.552   2.169
 3775SOL    HW112224   5.068   4.603   2.238
 3775SOL    HW212225   5.099   4.454   2.177
 3776SOL     OW12226   3.841   0.897   0.780
 3776SOL    HW112227   3.833   0.872   0.876
 3776SOL    HW212228   3.936   0.886   0.750
 3777SOL     OW12229   2.859   4.843   4.492
 3777SOL    HW112230   2.836   4.816   4.585
 3777SOL    HW212231   2.797   4.798   4.428
 3778SOL     OW12232   2.624   5.213   2.988
 3778SOL    HW112233   2.638   5.264   2.903
 3778SOL    HW212234   2.712   5.187   3.027
 3779SOL     OW12235   1.669   4.733   0.860
 3779SOL    HW112236   1.609   4.653   0.861
 3779SOL    HW212237   1.724   4.732   0.777
 3780SOL     OW12238   4.441   4.826   5.721
 3780SOL    HW112239   4.518   4.824   5.786
 3780SOL    HW212240   4.463   4.887   5.645
 3781SOL     OW12241   1.523   6.736   4.955
 3781SOL    HW112242   1.531   6.720   4.856
 3781SOL    HW212243   1.595   6.685   5.002
 3782SOL     OW12244   2.612   1.793   4.509
 3782SOL    HW112245   2.689   1.790   4.445
 3782SOL    HW212246   2.536   1.739   4.472
 3783SOL     OW12247   5.530   6.089   5.186
 3783SOL    HW112248   5.531   6.176   5.236
 3783SOL    HW212249   5.623   6.053   5.179
 3784SOL     OW12250   5.158   2.016   3.699
 3784SOL    HW112251   5.145   2.113   3.678
 3784SOL    HW212252   5.252   2.001   3.730
 3785SOL     OW12253   1.090   1.091   6.575
 3785SOL    HW112254   1.147   1.171   6.590
 3785SOL    HW212255   1.054   1.092   6.482
 3786SOL     OW12256   2.477   6.689   2.612
 3786SOL    HW112257   2.563   6.652   2.646
 3786SOL    HW212258   2.431   6.740   2.685
 3787SOL     OW12259   6.068   6.522   3.318
 3787SOL    HW112260   6.032   6.495   3.228
 3787SOL    HW212261   5.991   6.538   3.380
 3788SOL     OW12262   0.577   3.225   3.766
 3788SOL    HW112263   0.677   3.227   3.768
 3788SOL    HW212264   0.541   3.261   3.852
 3789SOL     OW12265   0.619   2.916   4.132
 3789SOL    HW112266   0.710   2.903   4.092
 3789SOL    HW212267   0.627   2.916   4.232
 3790SOL     OW12268   1.684   3.771   5.555
 3790SOL    HW112269   1.721   3.760   5.462
 3790SOL    HW212270   1.710   3.692   5.611
 3791SOL     OW12271   6.086   0.418   0.731
 3791SOL    HW112272   6.137   0.430   0.817
 3791SOL    HW212273   5.989   0.406   0.752
 3792SOL     OW12274   6.909   0.955   3.887
 3792SOL    HW112275   6.997   0.909   3.897
 3792SOL    HW212276   6.909   1.039   3.942
 3793SOL     OW12277   3.648   0.317   3.088
 3793SOL    HW112278   3.668   0.291   2.994
 3793SOL    HW212279   3.571   0.380   3.090
 3794SOL     OW12280   2.534   4.268   1.178
 3794SOL    HW112281   2.490   4.358   1.181
 3794SOL    HW212282   2.499   4.211   1.252
 3795SOL     OW12283   4.038   6.462   6.932
 3795SOL    HW112284   3.957   6.470   6.990
 3795SOL    HW212285   4.015   6.489   6.838
 3796SOL     OW12286   2.690   1.806   1.187
 3796SOL    HW112287   2.671   1.756   1.272
 3796SOL    HW212288   2.606   1.815   1.134
 3797SOL     OW12289   5.945   4.556   2.462
 3797SOL    HW112290   5.928   4.458   2.457
 3797SOL    HW212291   6.041   4.575   2.444
 3798SOL     OW12292   3.397   5.561   3.426
 3798SOL    HW112293   3.445   5.648   3.429
 3798SOL    HW212294   3.382   5.528   3.519
 3799SOL     OW12295   0.136   2.499   4.325
 3799SOL    HW112296   0.037   2.509   4.336
 3799SOL    HW212297   0.182   2.580   4.362
 3800SOL     OW12298   5.211   3.157   4.448
 3800SOL    HW112299   5.310   3.149   4.461
 3800SOL    HW212300   5.177   3.076   4.399
 3801SOL     OW12301   6.713   6.159   3.299
 3801SOL    HW112302   6.781   6.150   3.371
 3801SOL    HW212303   6.758   6.180   3.212
 3802SOL     OW12304   0.683   2.528   3.787
 3802SOL    HW112305   0.708   2.528   3.883
 3802SOL    HW212306   0.634   2.612   3.764
 3803SOL     OW12307   3.875   2.217   1.112
 3803SOL    HW112308   3.957   2.273   1.093
 3803SOL    HW212309   3.805   2.275   1.154
 3804SOL     OW12310   5.347   1.765   3.771
 3804SOL    HW112311   5.305   1.696   3.830
 3804SOL    HW212312   5.400   1.720   3.700
 3805SOL     OW12313   2.730   3.452   1.527
 3805SOL    HW112314   2.667   3.415   1.459
 3805SOL    HW212315   2.790   3.519   1.483
 3806SOL     OW12316   2.980   3.813   0.146
 3806SOL    HW112317   3.032   3.884   0.194
 3806SOL    HW212318   3.033   3.781   0.068
 3807SOL     OW12319   2.504   0.191   4.121
 3807SOL    HW112320   2.483   0.121   4.188
 3807SOL    HW212321   2.421   0.243   4.098
 3808SOL     OW12322   4.323   0.772   1.163
 3808SOL    HW112323   4.368   0.712   1.097
 3808SOL    HW212324   4.373   0.771   1.249
 3809SOL     OW12325   6.152   2.799   0.386
 3809SOL    HW112326   6.116   2.880   0.434
 3809SOL    HW212327   6.217   2.828   0.316
 3810SOL     OW12328   4.565   2.384   5.231
 3810SOL    HW112329   4.608   2.327   5.302
 3810SOL    HW212330   4.630   2.398   5.156
 3811SOL     OW12331   0.993   4.345   3.986
 3811SOL    HW112332   0.954   4.432   3.955
 3811SOL    HW212333   0.927   4.297   4.043
 3812SOL     OW12334   5.374   1.060   5.120
 3812SOL    HW112335   5.301   1.098   5.063
 3812SOL    HW212336   5.459   1.059   5.068
 3813SOL     OW12337   3.775   4.244   0.477
 3813SOL    HW112338   3.738   4.162   0.521
 3813SOL    HW212339   3.843   4.218   0.409
 3814SOL     OW12340   0.500   6.842   1.396
 3814SOL    HW112341   0.460   6.777   1.461
 3814SOL    HW212342   0.502   6.801   1.305
 3815SOL     OW12343   4.816   2.791   0.387
 3815SOL    HW112344   4.805   2.764   0.483
 3815SOL    HW212345   4.739   2.849   0.360
 3816SOL     OW12346   6.985   5.639   0.721
 3816SOL    HW112347   6.912   5.578   0.751
 3816SOL    HW212348   6.948   5.729   0.702
 3817SOL     OW12349   5.189   3.332   3.281
 3817SOL    HW112350   5.167   3.422   3.319
 3817SOL    HW212351   5.264   3.291   3.334
 3818SOL     OW12352   5.130   0.364   0.308
 3818SOL    HW112353   5.172   0.395   0.223
 3818SOL    HW212354   5.040   0.326   0.289
 3819SOL     OW12355   5.481   5.761   1.126
 3819SOL    HW112356   5.557   5.701   1.149
 3819SOL    HW212357   5.516   5.846   1.086
 3820SOL     OW12358   6.786   6.793   4.064
 3820SOL    HW112359   6.734   6.866   4.109
 3820SOL    HW212360   6.882   6.801   4.091
 3821SOL     OW12361   2.247   2.684   0.911
 3821SOL    HW112362   2.321   2.631   0.953
 3821SOL    HW212363   2.159   2.648   0.942
 3822SOL     OW12364   1.566   5.906   2.525
 3822SOL    HW112365   1.473   5.940   2.542
 3822SOL    HW212366   1.564   5.806   2.516
 3823SOL     OW12367   4.286   2.338   5.559
 3823SOL    HW112368   4.200   2.389   5.554
 3823SOL    HW212369   4.281   2.271   5.633
 3824SOL     OW12370   5.995   2.065   5.729
 3824SOL    HW112371   6.090   2.094   5.723
 3824SOL    HW212372   5.986   1.991   5.795
 3825SOL     OW12373   0.525   6.688   1.185
 3825SOL    HW112374   0.599   6.667   1.248
 3825SOL    HW212375   0.479   6.604   1.158
 3826SOL     OW12376   1.175   3.903   6.651
 3826SOL    HW112377   1.132   3.937   6.734
 3826SOL    HW212378   1.106   3.857   6.595
 3827SOL     OW12379   3.085   3.348   0.764
 3827SOL    HW112380   2.991   3.380   0.776
 3827SOL    HW212381   3.118   3.375   0.674
 3828SOL     OW12382   4.455   2.387   1.373
 3828SOL    HW112383   4.536   2.445   1.361
 3828SOL    HW212384   4.476   2.294   1.343
 3829SOL     OW12385   1.677   5.027   4.358
 3829SOL    HW112386   1.683   5.034   4.258
 3829SOL    HW212387   1.602   4.965   4.382
 3830SOL     OW12388   1.213   0.494   4.585
 3830SOL    HW112389   1.158   0.522   4.664
 3830SOL    HW212390   1.257   0.406   4.604
 3831SOL     OW12391   4.470   1.998   1.927
 3831SOL    HW112392   4.418   1.997   2.012
 3831SOL    HW212393   4.478   1.905   1.891
 3832SOL     OW12394   6.039   0.504   2.346
 3832SOL    HW112395   6.067   0.566   2.272
 3832SOL    HW212396   5.960   0.451   2.317
 3833SOL     OW12397   1.308   6.201   6.191
 3833SOL    HW112398   1.267   6.115   6.160
 3833SOL    HW212399   1.360   6.185   6.275
 3834SOL     OW12400   3.537   2.619   0.682
 3834SOL    HW112401   3.561   2.565   0.601
 3834SOL    HW212402   3.484   2.562   0.745
 3835SOL     OW12403   3.351   5.442   4.936
 3835SOL    HW112404   3.377   5.365   4.994
 3835SOL    HW212405   3.384   5.425   4.842
 3836SOL     OW12406   1.856   3.786   5.028
 3836SOL    HW112407   1.955   3.796   5.030
 3836SOL    HW212408   1.815   3.866   4.984
 3837SOL     OW12409   4.972   3.585   6.994
 3837SOL    HW112410   4.925   3.594   6.906
 3837SOL    HW212411   4.970   3.489   0.004
 3838SOL     OW12412   6.434   4.194   4.630
 3838SOL    HW112413   6.380   4.125   4.581
 3838SOL    HW212414   6.389   4.283   4.622
 3839SOL     OW12415   4.077   0.353   4.640
 3839SOL    HW112416   4.120   0.417   4.576
 3839SOL    HW212417   4.057   0.267   4.592
 3840SOL     OW12418   1.579   1.401   5.533
 3840SOL    HW112419   1.648   1.449   5.479
 3840SOL    HW212420   1.609   1.307   5.550
 3841SOL     OW12421   6.868   3.340   4.469
 3841SOL    HW112422   6.858   3.438   4.488
 3841SOL    HW212423   6.869   3.289   4.555
 3842SOL     OW12424   1.242   4.888   0.186
 3842SOL    HW112425   1.150   4.917   0.158
 3842SOL    HW212426   1.308   4.915   0.116
 3843SOL     OW12427   0.050   4.116   1.883
 3843SOL    HW112428   0.031   4.033   1.935
 3843SOL    HW212429   7.005   4.187   1.908
 3844SOL     OW12430   0.095   4.313   5.566
 3844SOL    HW112431   0.118   4.315   5.664
 3844SOL    HW212432   7.018   4.337   5.555
 3845SOL     OW12433   3.874   2.985   2.861
 3845SOL    HW112434   3.808   2.965   2.934
 3845SOL    HW212435   3.948   3.041   2.899
 3846SOL     OW12436   0.729   4.569   4.149
 3846SOL    HW112437   0.769   4.522   4.071
 3846SOL    HW212438   0.651   4.518   4.183
 3847SOL     OW12439   6.157   1.499   5.462
 3847SOL    HW112440   6.168   1.443   5.544
 3847SOL    HW212441   6.213   1.461   5.388
 3848SOL     OW12442   2.785   5.458   3.190
 3848SOL    HW112443   2.808   5.392   3.262
 3848SOL    HW212444   2.867   5.477   3.136
 3849SOL     OW12445   0.424   1.454   5.788
 3849SOL    HW112446   0.342   1.415   5.744
 3849SOL    HW212447   0.397   1.498   5.874
 3850SOL     OW12448   2.419   3.469   1.598
 3850SOL    HW112449   2.482   3.543   1.576
 3850SOL    HW212450   2.416   3.456   1.697
 3851SOL     OW12451   0.837   4.382   2.711
 3851SOL    HW112452   0.831   4.293   2.757
 3851SOL    HW212453   0.867   4.369   2.617
 3852SOL     OW12454   4.562   0.003   4.925
 3852SOL    HW112455   4.561   6.951   4.856
 3852SOL    HW212456   4.630   7.002   4.995
 3853SOL     OW12457   1.513   3.363   2.534
 3853SOL    HW112458   1.580   3.313   2.589
 3853SOL    HW212459   1.482   3.305   2.458
 3854SOL     OW12460   0.545   4.129   2.867
 3854SOL    HW112461   0.480   4.193   2.908
 3854SOL    HW212462   0.553   4.048   2.926
 3855SOL     OW12463   5.547   5.465   6.944
 3855SOL    HW112464   5.637   5.424   6.929
 3855SOL    HW212465   5.495   5.408   7.008
 3856SOL     OW12466   6.918   6.411   4.922
 3856SOL    HW112467   6.922   6.386   5.019
 3856SOL    HW212468   6.910   6.328   4.866
 3857SOL     OW12469   1.039   6.322   5.242
 3857SOL    HW112470   1.034   6.234   5.289
 3857SOL    HW212471   1.092   6.387   5.297
 3858SOL     OW12472   1.690   5.738   5.963
 3858SOL    HW112473   1.716   5.706   6.054
 3858SOL    HW212474   1.679   5.837   5.965
 3859SOL     OW12475   0.221   1.756   3.107
 3859SOL    HW112476   0.166   1.682   3.146
 3859SOL    HW212477   0.162   1.833   3.084
 3860SOL     OW12478   1.741   6.196   4.467
 3860SOL    HW112479   1.830   6.155   4.487
 3860SOL    HW212480   1.750   6.257   4.388
 3861SOL     OW12481   5.319   4.549   1.991
 3861SOL    HW112482   5.249   4.565   2.061
 3861SOL    HW212483   5.391   4.492   2.029
 3862SOL     OW12484   6.483   6.946   5.206
 3862SOL    HW112485   6.435   6.862   5.230
 3862SOL    HW212486   6.469   7.015   5.277
 3863SOL     OW12487   3.874   4.342   6.687
 3863SOL    HW112488   3.797   4.280   6.701
 3863SOL    HW212489   3.848   4.435   6.713
 3864SOL     OW12490   4.197   1.869   5.827
 3864SOL    HW112491   4.147   1.814   5.893
 3864SOL    HW212492   4.150   1.868   5.739
 3865SOL     OW12493   4.072   0.628   1.661
 3865SOL    HW112494   3.990   0.607   1.608
 3865SOL    HW212495   4.066   0.583   1.750
 3866SOL     OW12496   4.024   0.863   0.193
 3866SOL    HW112497   4.093   0.798   0.162
 3866SOL    HW212498   4.016   0.937   0.127
 3867SOL     OW12499   2.069   3.481   3.974
 3867SOL    HW112500   2.094   3.386   3.993
 3867SOL    HW212501   2.121   3.542   4.033
 3868SOL     OW12502   2.240   6.230   2.199
 3868SOL    HW112503   2.195   6.141   2.199
 3868SOL    HW212504   2.254   6.261   2.105
 3869SOL     OW12505   0.328   2.709   4.165
 3869SOL    HW112506   0.263   2.686   4.092
 3869SOL    HW212507   0.359   2.804   4.154
 3870SOL     OW12508   3.946   5.288   0.322
 3870SOL    HW112509   3.862   5.237   0.308
 3870SOL    HW212510   3.924   5.381   0.353
 3871SOL     OW12511   3.547   0.526   2.694
 3871SOL    HW112512   3.516   0.621   2.695
 3871SOL    HW212513   3.575   0.501   2.601
 3872SOL     OW12514   3.669   2.809   1.372
 3872SOL    HW112515   3.761   2.835   1.398
 3872SOL    HW212516   3.672   2.749   1.292
 3873SOL     OW12517   5.761   5.647   1.358
 3873SOL    HW112518   5.735   5.618   1.266
 3873SOL    HW212519   5.842   5.705   1.353
 3874SOL     OW12520   4.071   6.499   0.477
 3874SOL    HW112521   4.024   6.534   0.396
 3874SOL    HW212522   4.021   6.529   0.559
 3875SOL     OW12523   1.237   4.010   2.849
 3875SOL    HW112524   1.258   3.938   2.783
 3875SOL    HW212525   1.195   4.087   2.802
 3876SOL     OW12526   4.759   4.956   6.437
 3876SOL    HW112527   4.676   5.000   6.404
 3876SOL    HW212528   4.831   4.963   6.368
 3877SOL     OW12529   6.642   1.454   1.025
 3877SOL    HW112530   6.648   1.550   1.053
 3877SOL    HW212531   6.602   1.449   0.934
 3878SOL     OW12532   2.572   6.197   6.112
 3878SOL    HW112533   2.630   6.181   6.191
 3878SOL    HW212534   2.619   6.256   6.047
 3879SOL     OW12535   4.952   5.615   1.346
 3879SOL    HW112536   4.989   5.527   1.319
 3879SOL    HW212537   5.027   5.676   1.373
 3880SOL     OW12538   5.827   3.944   2.830
 3880SOL    HW112539   5.808   3.984   2.740
 3880SOL    HW212540   5.776   3.858   2.839
 3881SOL     OW12541   1.694   5.460   0.851
 3881SOL    HW112542   1.606   5.485   0.810
 3881SOL    HW212543   1.691   5.365   0.881
 3882SOL     OW12544   6.403   0.616   5.603
 3882SOL    HW112545   6.483   0.659   5.561
 3882SOL    HW212546   6.365   0.677   5.672
 3883SOL     OW12547   5.047   1.499   4.044
 3883SOL    HW112548   5.121   1.561   4.070
 3883SOL    HW212549   5.028   1.509   3.946
 3884SOL     OW12550   1.337   6.403   4.518
 3884SOL    HW112551   1.407   6.473   4.538
 3884SOL    HW212552   1.337   6.383   4.420
 3885SOL     OW12553   6.431   1.030   4.640
 3885SOL    HW112554   6.472   1.119   4.655
 3885SOL    HW212555   6.500   0.965   4.611
 3886SOL     OW12556   6.157   0.041   5.804
 3886SOL    HW112557   6.192   0.050   5.897
 3886SOL    HW212558   6.114   6.971   5.793
 3887SOL     OW12559   4.611   1.890   5.509
 3887SOL    HW112560   4.664   1.928   5.433
 3887SOL    HW212561   4.632   1.941   5.593
 3888SOL     OW12562   6.688   1.304   6.447
 3888SOL    HW112563   6.688   1.207   6.473
 3888SOL    HW212564   6.782   1.336   6.440
 3889SOL     OW12565   0.518   5.177   6.841
 3889SOL    HW112566   0.470   5.202   6.758
 3889SOL    HW212567   0.491   5.084   6.869
 3890SOL     OW12568   6.332   6.015   3.079
 3890SOL    HW112569   6.431   6.023   3.076
 3890SOL    HW212570   6.293   6.097   3.122
 3891SOL     OW12571   5.246   4.831   4.681
 3891SOL    HW112572   5.274   4.923   4.707
 3891SOL    HW212573   5.277   4.811   4.588
 3892SOL     OW12574   1.054   0.202   2.710
 3892SOL    HW112575   1.065   0.138   2.786
 3892SOL    HW212576   1.034   0.293   2.746
 3893SOL     OW12577   3.377   5.715   3.127
 3893SOL    HW112578   3.386   5.770   3.044
 3893SOL    HW212579   3.441   5.749   3.196
 3894SOL     OW12580   3.852   2.418   0.298
 3894SOL    HW112581   3.844   2.507   0.255
 3894SOL    HW212582   3.949   2.396   0.313
 3895SOL     OW12583   1.427   1.537   5.710
 3895SOL    HW112584   1.489   1.614   5.723
 3895SOL    HW212585   1.471   1.467   5.655
 3896SOL     OW12586   0.587   1.755   5.937
 3896SOL    HW112587   0.609   1.663   5.969
 3896SOL    HW212588   0.508   1.751   5.877
 3897SOL     OW12589   2.639   6.418   2.417
 3897SOL    HW112590   2.688   6.440   2.501
 3897SOL    HW212591   2.541   6.425   2.432
 3898SOL     OW12592   3.075   3.151   3.900
 3898SOL    HW112593   3.081   3.156   3.800
 3898SOL    HW212594   3.059   3.242   3.937
 3899SOL     OW12595   5.391   1.141   4.790
 3899SOL    HW112596   5.366   1.144   4.693
 3899SOL    HW212597   5.308   1.145   4.845
 3900SOL     OW12598   6.405   2.559   3.345
 3900SOL    HW112599   6.468   2.617   3.293
 3900SOL    HW212600   6.372   2.485   3.285
 3901SOL     OW12601   1.439   6.242   5.265
 3901SOL    HW112602   1.469   6.338   5.263
 3901SOL    HW212603   1.372   6.226   5.192
 3902SOL     OW12604   5.531   5.170   2.637
 3902SOL    HW112605   5.524   5.092   2.700
 3902SOL    HW212606   5.596   5.236   2.675
 3903SOL     OW12607   4.111   2.763   0.134
 3903SOL    HW112608   4.185   2.737   0.195
 3903SOL    HW212609   4.133   2.735   0.040
 3904SOL     OW12610   0.885   6.871   0.300
 3904SOL    HW112611   0.832   6.793   0.333
 3904SOL    HW212612   0.886   6.943   0.370
 3905SOL     OW12613   6.728   6.268   6.365
 3905SOL    HW112614   6.630   6.282   6.357
 3905SOL    HW212615   6.767   6.251   6.274
 3906SOL     OW12616   1.424   5.090   3.919
 3906SOL    HW112617   1.329   5.093   3.950
 3906SOL    HW212618   1.434   5.021   3.848
 3907SOL     OW12619   6.930   0.989   4.635
 3907SOL    HW112620   6.901   0.968   4.729
 3907SOL    HW212621   6.913   0.910   4.576
 3908SOL     OW12622   1.463   0.870   5.579
 3908SOL    HW112623   1.463   0.923   5.494
 3908SOL    HW212624   1.376   0.821   5.587
 3909SOL     OW12625   5.495   3.533   5.891
 3909SOL    HW112626   5.501   3.536   5.791
 3909SOL    HW212627   5.410   3.576   5.921
 3910SOL     OW12628   3.533   3.804   2.000
 3910SOL    HW112629   3.461   3.748   1.958
 3910SOL    HW212630   3.492   3.869   2.063
 3911SOL     OW12631   5.592   0.703   1.049
 3911SOL    HW112632   5.495   0.686   1.033
 3911SOL    HW212633   5.646   0.670   0.971
 3912SOL     OW12634   3.240   2.321   6.097
 3912SOL    HW112635   3.253   2.308   5.998
 3912SOL    HW212636   3.273   2.412   6.123
 3913SOL     OW12637   3.901   6.804   0.435
 3913SOL    HW112638   3.884   6.899   0.460
 3913SOL    HW212639   3.836   6.744   0.481
 3914SOL     OW12640   6.109   1.566   0.977
 3914SOL    HW112641   6.101   1.568   1.076
 3914SOL    HW212642   6.080   1.654   0.939
 3915SOL     OW12643   4.016   5.830   0.417
 3915SOL    HW112644   4.071   5.861   0.494
 3915SOL    HW212645   4.016   5.730   0.413
 3916SOL     OW12646   3.006   0.695   3.317
 3916SOL    HW112647   2.925   0.682   3.373
 3916SOL    HW212648   3.018   0.793   3.298
 3917SOL     OW12649   2.405   5.329   0.794
 3917SOL    HW112650   2.421   5.425   0.774
 3917SOL    HW212651   2.326   5.321   0.856
 3918SOL     OW12652   5.184   1.049   0.194
 3918SOL    HW112653   5.131   0.964   0.187
 3918SOL    HW212654   5.235   1.049   0.280
 3919SOL     OW12655   4.643   1.348   1.157
 3919SOL    HW112656   4.551   1.340   1.118
 3919SOL    HW212657   4.707   1.371   1.084
 3920SOL     OW12658   2.955   1.501   6.576
 3920SOL    HW112659   2.990   1.594   6.573
 3920SOL    HW212660   2.895   1.485   6.497
 3921SOL     OW12661   0.456   2.635   6.598
 3921SOL    HW112662   0.478   2.723   6.555
 3921SOL    HW212663   0.380   2.648   6.662
 3922SOL     OW12664   4.811   4.879   1.711
 3922SOL    HW112665   4.826   4.853   1.615
 3922SOL    HW212666   4.886   4.844   1.767
 3923SOL     OW12667   6.179   1.059   2.059
 3923SOL    HW112668   6.233   1.020   1.985
 3923SOL    HW212669   6.083   1.060   2.034
 3924SOL     OW12670   0.339   4.546   4.083
 3924SOL    HW112671   0.301   4.637   4.101
 3924SOL    HW212672   0.394   4.548   4.000
 3925SOL     OW12673   4.982   3.728   0.375
 3925SOL    HW112674   5.005   3.822   0.350
 3925SOL    HW212675   4.980   3.671   0.294
 3926SOL     OW12676   1.554   0.944   5.856
 3926SOL    HW112677   1.503   0.922   5.774
 3926SOL    HW212678   1.589   1.038   5.850
 3927SOL     OW12679   0.478   2.499   4.511
 3927SOL    HW112680   0.558   2.469   4.563
 3927SOL    HW212681   0.412   2.543   4.572
 3928SOL     OW12682   2.162   6.928   3.809
 3928SOL    HW112683   2.179   0.002   3.839
 3928SOL    HW212684   2.246   6.889   3.772
 3929SOL     OW12685   6.553   2.057   5.586
 3929SOL    HW112686   6.471   2.100   5.547
 3929SOL    HW212687   6.569   1.970   5.541
 3930SOL     OW12688   1.465   2.546   3.780
 3930SOL    HW112689   1.527   2.487   3.832
 3930SOL    HW212690   1.483   2.642   3.803
 3931SOL     OW12691   1.292   2.322   1.671
 3931SOL    HW112692   1.367   2.376   1.634
 3931SOL    HW212693   1.293   2.328   1.771
 3932SOL     OW12694   1.940   5.860   3.911
 3932SOL    HW112695   1.904   5.839   4.002
 3932SOL    HW212696   2.038   5.841   3.909
 3933SOL     OW12697   1.855   5.305   0.467
 3933SOL    HW112698   1.767   5.353   0.471
 3933SOL    HW212699   1.914   5.337   0.541
 3934SOL     OW12700   0.928   1.527   2.718
 3934SOL    HW112701   0.946   1.468   2.797
 3934SOL    HW212702   0.952   1.621   2.741
 3935SOL     OW12703   6.295   3.097   6.450
 3935SOL    HW112704   6.261   3.013   6.407
 3935SOL    HW212705   6.263   3.176   6.398
 3936SOL     OW12706   6.513   5.423   5.131
 3936SOL    HW112707   6.528   5.372   5.046
 3936SOL    HW212708   6.434   5.384   5.180
 3937SOL     OW12709   6.957   5.422   2.494
 3937SOL    HW112710   0.031   5.424   2.526
 3937SOL    HW212711   6.928   5.328   2.480
 3938SOL     OW12712   6.734   3.783   3.519
 3938SOL    HW112713   6.692   3.873   3.505
 3938SOL    HW212714   6.683   3.714   3.468
 3939SOL     OW12715   0.626   1.370   2.049
 3939SOL    HW112716   0.527   1.367   2.033
 3939SOL    HW212717   0.660   1.461   2.028
 3940SOL     OW12718   3.102   4.789   1.876
 3940SOL    HW112719   3.121   4.732   1.796
 3940SOL    HW212720   3.006   4.782   1.900
 3941SOL     OW12721   5.909   6.727   4.108
 3941SOL    HW112722   5.989   6.784   4.124
 3941SOL    HW212723   5.832   6.785   4.078
 3942SOL     OW12724   1.074   6.333   6.297
 3942SOL    HW112725   1.072   6.307   6.393
 3942SOL    HW212726   1.166   6.314   6.260
 3943SOL     OW12727   0.746   3.746   2.037
 3943SOL    HW112728   0.689   3.808   1.984
 3943SOL    HW212729   0.696   3.716   2.118
 3944SOL     OW12730   6.384   2.561   6.723
 3944SOL    HW112731   6.345   2.472   6.745
 3944SOL    HW212732   6.362   2.627   6.796
 3945SOL     OW12733   1.117   0.987   3.350
 3945SOL    HW112734   1.065   1.053   3.295
 3945SOL    HW212735   1.127   1.023   3.443
 3946SOL     OW12736   6.714   3.104   0.288
 3946SOL    HW112737   6.730   3.165   0.211
 3946SOL    HW212738   6.757   3.140   0.370
 3947SOL     OW12739   5.658   5.895   0.766
 3947SOL    HW112740   5.664   5.993   0.785
 3947SOL    HW212741   5.734   5.848   0.810
 3948SOL     OW12742   1.608   2.697   6.240
 3948SOL    HW112743   1.627   2.632   6.166
 3948SOL    HW212744   1.535   2.760   6.210
 3949SOL     OW12745   6.296   6.201   2.834
 3949SOL    HW112746   6.293   6.238   2.741
 3949SOL    HW212747   6.204   6.203   2.874
 3950SOL     OW12748   3.876   4.638   1.384
 3950SOL    HW112749   3.878   4.615   1.482
 3950SOL    HW212750   3.941   4.711   1.366
 3951SOL     OW12751   0.238   1.730   5.533
 3951SOL    HW112752   0.253   1.631   5.535
 3951SOL    HW212753   0.295   1.771   5.462
 3952SOL     OW12754   5.900   2.448   5.055
 3952SOL    HW112755   5.884   2.543   5.029
 3952SOL    HW212756   5.969   2.444   5.127
 3953SOL     OW12757   3.012   3.958   5.935
 3953SOL    HW112758   3.002   4.037   5.995
 3953SOL    HW212759   2.922   3.920   5.915
 3954SOL     OW12760   0.251   3.763   4.823
 3954SOL    HW112761   0.160   3.792   4.853
 3954SOL    HW212762   0.279   3.819   4.745
 3955SOL     OW12763   5.209   5.732   0.149
 3955SOL    HW112764   5.222   5.699   0.055
 3955SOL    HW212765   5.116   5.765   0.160
 3956SOL     OW12766   0.570   3.055   5.638
 3956SOL    HW112767   0.631   3.114   5.690
 3956SOL    HW212768   0.561   2.966   5.684
 3957SOL     OW12769   2.765   0.192   4.202
 3957SOL    HW112770   2.814   0.257   4.144
 3957SOL    HW212771   2.667   0.209   4.195
 3958SOL     OW12772   6.419   5.748   6.924
 3958SOL    HW112773   6.428   5.818   6.852
 3958SOL    HW212774   6.506   5.739   6.972
 3959SOL     OW12775   2.630   5.826   0.311
 3959SOL    HW112776   2.586   5.795   0.396
 3959SOL    HW212777   2.657   5.747   0.257
 3960SOL     OW12778   3.990   3.175   6.916
 3960SOL    HW112779   3.978   3.102   6.983
 3960SOL    HW212780   4.000   3.135   6.825
 3961SOL     OW12781   4.894   1.431   2.231
 3961SOL    HW112782   4.799   1.430   2.262
 3961SOL    HW212783   4.905   1.502   2.161
 3962SOL     OW12784   1.127   6.575   0.237
 3962SOL    HW112785   1.210   6.619   0.271
 3962SOL    HW212786   1.054   6.586   0.305
 3963SOL     OW12787   5.052   4.744   4.220
 3963SOL    HW112788   5.017   4.747   4.127
 3963SOL    HW212789   5.109   4.824   4.237
 3964SOL     OW12790   5.005   5.792   5.233
 3964SOL    HW112791   4.933   5.798   5.163
 3964SOL    HW212792   5.094   5.787   5.188
 3965SOL     OW12793   4.009   4.716   6.837
 3965SOL    HW112794   3.968   4.794   6.789
 3965SOL    HW212795   4.104   4.706   6.807
 3966SOL     OW12796   6.125   5.073   5.696
 3966SOL    HW112797   6.095   5.142   5.762
 3966SOL    HW212798   6.214   5.037   5.725
 3967SOL     OW12799   0.438   6.026   4.773
 3967SOL    HW112800   0.397   6.079   4.699
 3967SOL    HW212801   0.420   5.929   4.759
 3968SOL     OW12802   5.124   0.250   2.263
 3968SOL    HW112803   5.089   0.336   2.300
 3968SOL    HW212804   5.160   0.266   2.171
 3969SOL     OW12805   1.084   4.965   2.929
 3969SOL    HW112806   1.138   5.049   2.938
 3969SOL    HW212807   0.999   4.986   2.880
 3970SOL     OW12808   5.030   5.090   4.005
 3970SOL    HW112809   5.048   5.129   3.915
 3970SOL    HW212810   4.932   5.098   4.026
 3971SOL     OW12811   2.167   5.715   3.039
 3971SOL    HW112812   2.149   5.725   3.136
 3971SOL    HW212813   2.205   5.800   3.003
 3972SOL     OW12814   0.502   6.152   0.674
 3972SOL    HW112815   0.469   6.247   0.680
 3972SOL    HW212816   0.555   6.129   0.755
 3973SOL     OW12817   3.493   3.545   3.762
 3973SOL    HW112818   3.543   3.476   3.813
 3973SOL    HW212819   3.447   3.607   3.827
 3974SOL     OW12820   6.712   1.295   6.139
 3974SOL    HW112821   6.765   1.342   6.209
 3974SOL    HW212822   6.764   1.218   6.103
 3975SOL     OW12823   6.735   1.033   6.439
 3975SOL    HW112824   6.729   1.003   6.343
 3975SOL    HW212825   6.665   0.987   6.493
 3976SOL     OW12826   1.513   4.203   0.996
 3976SOL    HW112827   1.523   4.104   1.002
 3976SOL    HW212828   1.591   4.242   0.948
 3977SOL     OW12829   2.306   6.274   6.175
 3977SOL    HW112830   2.396   6.253   6.136
 3977SOL    HW212831   2.297   6.228   6.263
 3978SOL     OW12832   5.646   1.937   5.640
 3978SOL    HW112833   5.654   2.023   5.589
 3978SOL    HW212834   5.670   1.953   5.736
 3979SOL     OW12835   1.088   6.739   2.122
 3979SOL    HW112836   1.097   6.810   2.053
 3979SOL    HW212837   1.176   6.693   2.135
 3980SOL     OW12838   5.102   3.595   4.276
 3980SOL    HW112839   5.122   3.502   4.307
 3980SOL    HW212840   5.136   3.607   4.183
 3981SOL     OW12841   0.077   1.729   6.907
 3981SOL    HW112842   0.012   1.711   6.981
 3981SOL    HW212843   0.027   1.738   6.821
 3982SOL     OW12844   2.419   1.097   3.989
 3982SOL    HW112845   2.376   1.105   4.079
 3982SOL    HW212846   2.500   1.038   3.996
 3983SOL     OW12847   2.995   6.705   4.406
 3983SOL    HW112848   2.943   6.671   4.485
 3983SOL    HW212849   3.090   6.721   4.433
 3984SOL     OW12850   1.498   6.594   2.191
 3984SOL    HW112851   1.537   6.682   2.163
 3984SOL    HW212852   1.434   6.562   2.121
 3985SOL     OW12853   1.335   3.694   6.769
 3985SOL    HW112854   1.289   3.778   6.739
 3985SOL    HW212855   1.372   3.646   6.690
 3986SOL     OW12856   7.011   2.046   1.417
 3986SOL    HW112857   6.936   2.046   1.483
 3986SOL    HW212858   0.072   2.087   1.458
 3987SOL     OW12859   2.500   5.306   5.641
 3987SOL    HW112860   2.417   5.254   5.622
 3987SOL    HW212861   2.482   5.371   5.716
 3988SOL     OW12862   3.842   2.058   6.752
 3988SOL    HW112863   3.801   2.141   6.790
 3988SOL    HW212864   3.913   2.023   6.814
 3989SOL     OW12865   6.047   0.135   0.171
 3989SOL    HW112866   6.092   0.212   0.127
 3989SOL    HW212867   6.098   0.051   0.152
 3990SOL     OW12868   0.104   2.806   4.362
 3990SOL    HW112869   0.020   2.851   4.393
 3990SOL    HW212870   0.106   2.806   4.262
 3991SOL     OW12871   0.230   2.186   3.616
 3991SOL    HW112872   0.194   2.103   3.657
 3991SOL    HW212873   0.196   2.195   3.523
 3992SOL     OW12874   4.127   3.346   6.472
 3992SOL    HW112875   4.173   3.309   6.552
 3992SOL    HW212876   4.100   3.441   6.489
 3993SOL     OW12877   3.108   2.187   2.584
 3993SOL    HW112878   3.110   2.131   2.500
 3993SOL    HW212879   3.191   2.243   2.588
 3994SOL     OW12880   2.641   2.470   4.575
 3994SOL    HW112881   2.634   2.411   4.495
 3994SOL    HW212882   2.717   2.535   4.563
 3995SOL     OW12883   1.857   3.946   3.246
 3995SOL    HW112884   1.925   3.923   3.315
 3995SOL    HW212885   1.771   3.972   3.290
 3996SOL     OW12886   1.042   1.261   4.396
 3996SOL    HW112887   1.086   1.346   4.368
 3996SOL    HW212888   1.103   1.210   4.456
 3997SOL     OW12889   4.856   4.065   3.119
 3997SOL    HW112890   4.786   4.057   3.048
 3997SOL    HW212891   4.846   3.991   3.186
 3998SOL     OW12892   6.477   1.981   2.621
 3998SOL    HW112893   6.461   1.997   2.719
 3998SOL    HW212894   6.538   2.052   2.585
 3999SOL     OW12895   5.895   3.867   3.106
 3999SOL    HW112896   5.821   3.921   3.065
 3999SOL    HW212897   5.894   3.880   3.205
 4000SOL     OW12898   2.960   5.754   2.591
 4000SOL    HW112899   2.999   5.719   2.676
 4000SOL    HW212900   2.985   5.693   2.516
 4001SOL     OW12901   2.898   3.513   5.923
 4001SOL    HW112902   2.956   3.568   5.983
 4001SOL    HW212903   2.898   3.554   5.832
 4002SOL     OW12904   3.944   3.178   5.155
 4002SOL    HW112905   3.936   3.147   5.060
 4002SOL    HW212906   3.872   3.245   5.175
 4003SOL     OW12907   2.855   1.113   6.683
 4003SOL    HW112908   2.806   1.181   6.629
 4003SOL    HW212909   2.938   1.153   6.721
 4004SOL     OW12910   6.312   3.493   3.061
 4004SOL    HW112911   6.219   3.462   3.043
 4004SOL    HW212912   6.313   3.593   3.069
 4005SOL     OW12913   4.060   3.950   1.365
 4005SOL    HW112914   4.126   4.021   1.390
 4005SOL    HW212915   4.008   3.923   1.446
 4006SOL     OW12916   5.325   4.803   1.896
 4006SOL    HW112917   5.322   4.703   1.905
 4006SOL    HW212918   5.253   4.844   1.951
 4007SOL     OW12919   0.509   1.768   3.175
 4007SOL    HW112920   0.579   1.768   3.103
 4007SOL    HW212921   0.420   1.746   3.135
 4008SOL     OW12922   3.073   6.886   0.410
 4008SOL    HW112923   2.989   6.831   0.404
 4008SOL    HW212924   3.068   6.944   0.491
 4009SOL     OW12925   5.223   2.117   1.420
 4009SOL    HW112926   5.211   2.061   1.501
 4009SOL    HW212927   5.204   2.062   1.338
 4010SOL     OW12928   2.996   4.411   1.468
 4010SOL    HW112929   2.911   4.410   1.520
 4010SOL    HW212930   3.035   4.319   1.465
 4011SOL     OW12931   6.894   6.005   1.246
 4011SOL    HW112932   6.845   6.092   1.247
 4011SOL    HW212933   6.967   6.008   1.178
 4012SOL     OW12934   4.140   6.885   2.167
 4012SOL    HW112935   4.042   6.903   2.154
 4012SOL    HW212936   4.181   6.962   2.217
 4013SOL     OW12937   2.312   6.968   1.467
 4013SOL    HW112938   2.244   6.894   1.467
 4013SOL    HW212939   2.316   7.008   1.559
 4014SOL     OW12940   3.410   6.213   4.015
 4014SOL    HW112941   3.322   6.198   3.970
 4014SOL    HW212942   3.428   6.311   4.023
 4015SOL     OW12943   4.669   4.520   6.265
 4015SOL    HW112944   4.578   4.483   6.284
 4015SOL    HW212945   4.704   4.566   6.346
 4016SOL     OW12946   3.101   5.349   0.709
 4016SOL    HW112947   3.059   5.429   0.752
 4016SOL    HW212948   3.192   5.374   0.675
 4017SOL     OW12949   0.188   4.802   5.255
 4017SOL    HW112950   0.202   4.776   5.351
 4017SOL    HW212951   0.266   4.858   5.225
 4018SOL     OW12952   4.068   0.157   1.785
 4018SOL    HW112953   4.147   0.097   1.776
 4018SOL    HW212954   4.053   0.179   1.882
 4019SOL     OW12955   5.487   3.664   2.516
 4019SOL    HW112956   5.471   3.574   2.477
 4019SOL    HW212957   5.463   3.663   2.613
 4020SOL     OW12958   6.626   3.373   5.155
 4020SOL    HW112959   6.709   3.330   5.119
 4020SOL    HW212960   6.645   3.469   5.177
 4021SOL     OW12961   3.432   4.183   5.040
 4021SOL    HW112962   3.497   4.244   5.086
 4021SOL    HW212963   3.480   4.131   4.969
 4022SOL     OW12964   3.951   6.614   0.238
 4022SOL    HW112965   3.924   6.697   0.287
 4022SOL    HW212966   4.026   6.636   0.175
 4023SOL     OW12967   6.675   0.880   5.948
 4023SOL    HW112968   6.579   0.908   5.960
 4023SOL    HW212969   6.699   0.886   5.852
 4024SOL     OW12970   2.519   5.166   4.666
 4024SOL    HW112971   2.454   5.132   4.734
 4024SOL    HW212972   2.561   5.251   4.699
 4025SOL     OW12973   0.818   6.327   4.480
 4025SOL    HW112974   0.916   6.313   4.495
 4025SOL    HW212975   0.788   6.406   4.534
 4026SOL     OW12976   6.301   6.242   4.214
 4026SOL    HW112977   6.348   6.238   4.302
 4026SOL    HW212978   6.258   6.154   4.194
 4027SOL     OW12979   3.024   1.963   0.080
 4027SOL    HW112980   3.005   1.979   0.177
 4027SOL    HW212981   3.105   1.905   0.071
 4028SOL     OW12982   3.988   1.814   3.539
 4028SOL    HW112983   4.056   1.838   3.608
 4028SOL    HW212984   4.029   1.754   3.471
 4029SOL     OW12985   2.696   4.271   6.277
 4029SOL    HW112986   2.768   4.336   6.302
 4029SOL    HW212987   2.738   4.185   6.248
 4030SOL     OW12988   6.758   1.213   1.629
 4030SOL    HW112989   6.766   1.294   1.571
 4030SOL    HW212990   6.746   1.241   1.724
 4031SOL     OW12991   5.280   6.223   3.532
 4031SOL    HW112992   5.231   6.183   3.609
 4031SOL    HW212993   5.363   6.267   3.565
 4032SOL     OW12994   0.369   0.045   2.403
 4032SOL    HW112995   0.442   0.102   2.439
 4032SOL    HW212996   0.344   0.077   2.311
 4033SOL     OW12997   1.689   2.735   2.021
 4033SOL    HW112998   1.760   2.775   1.963
 4033SOL    HW212999   1.721   2.648   2.058
 4034SOL     OW13000   5.715   2.193   5.435
 4034SOL    HW113001   5.708   2.269   5.370
 4034SOL    HW213002   5.803   2.147   5.424
 4035SOL     OW13003   6.500   0.933   1.092
 4035SOL    HW113004   6.513   0.959   1.188
 4035SOL    HW213005   6.406   0.953   1.065
 4036SOL     OW13006   4.051   5.009   2.676
 4036SOL    HW113007   3.999   4.937   2.723
 4036SOL    HW213008   4.084   4.974   2.588
 4037SOL     OW13009   2.294   1.343   6.362
 4037SOL    HW113010   2.199   1.373   6.356
 4037SOL    HW213011   2.320   1.296   6.277
 4038SOL     OW13012   4.352   2.876   0.807
 4038SOL    HW113013   4.368   2.787   0.765
 4038SOL    HW213014   4.269   2.916   0.768
 4039SOL     OW13015   4.547   5.827   2.205
 4039SOL    HW113016   4.542   5.908   2.264
 4039SOL    HW213017   4.472   5.765   2.227
 4040SOL     OW13018   2.630   6.830   4.792
 4040SOL    HW113019   2.552   6.768   4.788
 4040SOL    HW213020   2.616   6.896   4.866
 4041SOL     OW13021   2.143   5.375   1.338
 4041SOL    HW113022   2.232   5.375   1.384
 4041SOL    HW213023   2.153   5.336   1.246
 4042SOL     OW13024   5.932   5.963   4.464
 4042SOL    HW113025   6.006   6.029   4.453
 4042SOL    HW213026   5.846   6.002   4.431
 4043SOL     OW13027   0.123   2.163   6.282
 4043SOL    HW113028   0.090   2.163   6.377
 4043SOL    HW213029   0.059   2.112   6.225
 4044SOL     OW13030   5.468   5.788   3.632
 4044SOL    HW113031   5.403   5.743   3.694
 4044SOL    HW213032   5.482   5.882   3.661
 4045SOL     OW13033   4.344   6.612   5.819
 4045SOL    HW113034   4.267   6.548   5.813
 4045SOL    HW213035   4.406   6.582   5.891
 4046SOL     OW13036   0.843   2.000   3.073
 4046SOL    HW113037   0.919   1.997   3.138
 4046SOL    HW213038   0.878   2.021   2.982
 4047SOL     OW13039   2.729   2.476   6.990
 4047SOL    HW113040   2.821   2.445   6.964
 4047SOL    HW213041   2.668   2.397   6.996
 4048SOL     OW13042   5.418   1.366   1.702
 4048SOL    HW113043   5.449   1.459   1.719
 4048SOL    HW213044   5.451   1.306   1.775
 4049SOL     OW13045   5.078   5.086   6.500
 4049SOL    HW113046   5.111   5.059   6.591
 4049SOL    HW213047   5.053   5.183   6.501
 4050SOL     OW13048   0.836   6.260   1.956
 4050SOL    HW113049   0.800   6.204   1.882
 4050SOL    HW213050   0.916   6.216   1.996
 4051SOL     OW13051   4.287   1.496   6.240
 4051SOL    HW113052   4.379   1.527   6.213
 4051SOL    HW213053   4.287   1.474   6.337
 4052SOL     OW13054   5.771   1.475   3.364
 4052SOL    HW113055   5.703   1.414   3.405
 4052SOL    HW213056   5.761   1.567   3.403
 4053SOL     OW13057   2.445   6.604   4.831
 4053SOL    HW113058   2.440   6.593   4.930
 4053SOL    HW213059   2.357   6.577   4.790
 4054SOL     OW13060   4.902   4.302   0.888
 4054SOL    HW113061   4.985   4.331   0.840
 4054SOL    HW213062   4.925   4.277   0.982
 4055SOL     OW13063   2.929   3.990   0.458
 4055SOL    HW113064   2.908   4.082   0.492
 4055SOL    HW213065   2.864   3.965   0.388
 4056SOL     OW13066   5.388   4.463   1.099
 4056SOL    HW113067   5.456   4.534   1.079
 4056SOL    HW213068   5.297   4.501   1.083
 4057SOL     OW13069   0.511   2.849   0.603
 4057SOL    HW113070   0.472   2.760   0.578
 4057SOL    HW213071   0.476   2.920   0.541
 4058SOL     OW13072   3.283   6.738   4.848
 4058SOL    HW113073   3.233   6.726   4.933
 4058SOL    HW213074   3.264   6.830   4.811
 4059SOL     OW13075   0.703   1.797   2.707
 4059SOL    HW113076   0.710   1.739   2.626
 4059SOL    HW213077   0.719   1.892   2.681
 4060SOL     OW13078   5.362   4.914   5.595
 4060SOL    HW113079   5.422   4.930   5.674
 4060SOL    HW213080   5.269   4.943   5.618
 4061SOL     OW13081   2.126   4.707   2.014
 4061SOL    HW113082   2.101   4.670   1.925
 4061SOL    HW213083   2.146   4.632   2.077
 4062SOL     OW13084   2.364   0.450   1.844
 4062SOL    HW113085   2.369   0.424   1.747
 4062SOL    HW213086   2.364   0.368   1.901
 4063SOL     OW13087   6.322   6.558   0.177
 4063SOL    HW113088   6.330   6.507   0.262
 4063SOL    HW213089   6.225   6.572   0.156
 4064SOL     OW13090   2.080   0.743   4.191
 4064SOL    HW113091   2.176   0.719   4.201
 4064SOL    HW213092   2.060   0.824   4.247
 4065SOL     OW13093   1.301   6.445   1.471
 4065SOL    HW113094   1.380   6.465   1.529
 4065SOL    HW213095   1.260   6.531   1.439
 4066SOL     OW13096   6.158   4.443   3.142
 4066SOL    HW113097   6.107   4.516   3.098
 4066SOL    HW213098   6.141   4.445   3.240
 4067SOL     OW13099   6.433   3.195   2.660
 4067SOL    HW113100   6.477   3.224   2.745
 4067SOL    HW213101   6.461   3.101   2.639
 4068SOL     OW13102   2.102   1.607   4.681
 4068SOL    HW113103   2.129   1.683   4.740
 4068SOL    HW213104   2.135   1.623   4.588
 4069SOL     OW13105   3.312   5.223   6.508
 4069SOL    HW113106   3.264   5.266   6.585
 4069SOL    HW213107   3.366   5.146   6.541
 4070SOL     OW13108   0.240   2.538   2.968
 4070SOL    HW113109   0.172   2.610   2.965
 4070SOL    HW213110   0.316   2.561   2.907
 4071SOL     OW13111   0.885   1.266   5.257
 4071SOL    HW113112   0.949   1.311   5.319
 4071SOL    HW213113   0.863   1.175   5.292
 4072SOL     OW13114   0.688   5.539   4.328
 4072SOL    HW113115   0.784   5.554   4.348
 4072SOL    HW213116   0.665   5.443   4.344
 4073SOL     OW13117   2.907   6.105   6.532
 4073SOL    HW113118   2.999   6.142   6.524
 4073SOL    HW213119   2.886   6.088   6.629
 4074SOL     OW13120   0.433   4.699   1.067
 4074SOL    HW113121   0.354   4.687   1.008
 4074SOL    HW213122   0.429   4.633   1.142
 4075SOL     OW13123   4.912   1.763   1.326
 4075SOL    HW113124   4.915   1.693   1.397
 4075SOL    HW213125   4.961   1.732   1.245
 4076SOL     OW13126   2.513   3.272   6.228
 4076SOL    HW113127   2.598   3.252   6.179
 4076SOL    HW213128   2.448   3.316   6.166
 4077SOL     OW13129   4.159   1.640   6.953
 4077SOL    HW113130   4.113   1.572   7.011
 4077SOL    HW213131   4.098   1.666   6.878
 4078SOL     OW13132   1.531   5.431   1.731
 4078SOL    HW113133   1.502   5.396   1.820
 4078SOL    HW213134   1.452   5.436   1.670
 4079SOL     OW13135   1.815   1.042   3.657
 4079SOL    HW113136   1.751   0.966   3.647
 4079SOL    HW213137   1.785   1.101   3.732
 4080SOL     OW13138   4.759   3.190   5.997
 4080SOL    HW113139   4.718   3.241   6.073
 4080SOL    HW213140   4.831   3.130   6.032
 4081SOL     OW13141   2.042   2.793   4.026
 4081SOL    HW113142   2.112   2.864   4.018
 4081SOL    HW213143   1.952   2.832   4.006
 4082SOL     OW13144   1.045   4.206   7.017
 4082SOL    HW113145   0.952   4.244   7.019
 4082SOL    HW213146   1.058   4.145   0.075
 4083SOL     OW13147   6.984   2.995   2.669
 4083SOL    HW113148   6.930   2.911   2.673
 4083SOL    HW213149   6.947   3.056   2.600
 4084SOL     OW13150   5.657   2.294   4.005
 4084SOL    HW113151   5.590   2.356   3.964
 4084SOL    HW213152   5.738   2.346   4.031
 4085SOL     OW13153   3.342   5.441   1.565
 4085SOL    HW113154   3.410   5.481   1.626
 4085SOL    HW213155   3.366   5.346   1.546
 4086SOL     OW13156   1.843   6.038   1.734
 4086SOL    HW113157   1.836   6.050   1.833
 4086SOL    HW213158   1.765   6.080   1.689
 4087SOL     OW13159   2.453   2.011   3.868
 4087SOL    HW113160   2.387   1.941   3.897
 4087SOL    HW213161   2.422   2.101   3.899
 4088SOL     OW13162   0.148   1.829   0.474
 4088SOL    HW113163   0.238   1.870   0.489
 4088SOL    HW213164   0.083   1.900   0.446
 4089SOL     OW13165   5.848   6.296   4.232
 4089SOL    HW113166   5.759   6.340   4.231
 4089SOL    HW213167   5.918   6.360   4.199
 4090SOL     OW13168   1.230   4.082   6.085
 4090SOL    HW113169   1.312   4.138   6.075
 4090SOL    HW213170   1.178   4.083   6.000
 4091SOL     OW13171   0.257   6.026   0.354
 4091SOL    HW113172   0.290   6.058   0.266
 4091SOL    HW213173   0.161   5.998   0.346
 4092SOL     OW13174   6.566   2.710   5.606
 4092SOL    HW113175   6.506   2.750   5.537
 4092SOL    HW213176   6.624   2.782   5.645
 4093SOL     OW13177   4.488   0.490   2.835
 4093SOL    HW113178   4.586   0.480   2.815
 4093SOL    HW213179   4.435   0.453   2.758
 4094SOL     OW13180   2.716   6.069   4.349
 4094SOL    HW113181   2.754   6.113   4.267
 4094SOL    HW213182   2.691   5.975   4.328
 4095SOL     OW13183   0.592   3.535   7.019
 4095SOL    HW113184   0.654   3.610   6.999
 4095SOL    HW213185   0.502   3.571   0.024
 4096SOL     OW13186   4.653   6.035   6.201
 4096SOL    HW113187   4.628   5.939   6.185
 4096SOL    HW213188   4.752   6.041   6.213
 4097SOL     OW13189   3.346   4.814   5.711
 4097SOL    HW113190   3.288   4.734   5.727
 4097SOL    HW213191   3.298   4.897   5.741
 4098SOL     OW13192   0.824   3.091   1.773
 4098SOL    HW113193   0.786   3.078   1.864
 4098SOL    HW213194   0.881   3.012   1.749
 4099SOL     OW13195   2.895   5.002   1.325
 4099SOL    HW113196   2.796   5.010   1.326
 4099SOL    HW213197   2.936   5.093   1.321
 4100SOL     OW13198   6.899   5.321   4.832
 4100SOL    HW113199   6.905   5.244   4.896
 4100SOL    HW213200   6.990   5.346   4.801
 4101SOL     OW13201   5.913   1.635   0.298
 4101SOL    HW113202   5.901   1.660   0.202
 4101SOL    HW213203   6.007   1.606   0.314
 4102SOL     OW13204   6.283   0.468   0.937
 4102SOL    HW113205   6.377   0.435   0.940
 4102SOL    HW213206   6.283   0.568   0.939
 4103SOL     OW13207   0.319   0.523   0.472
 4103SOL    HW113208   0.262   0.462   0.527
 4103SOL    HW213209   0.284   0.616   0.479
 4104SOL     OW13210   0.628   4.618   2.168
 4104SOL    HW113211   0.650   4.617   2.266
 4104SOL    HW213212   0.707   4.652   2.117
 4105SOL     OW13213   4.281   6.796   1.953
 4105SOL    HW113214   4.222   6.852   2.011
 4105SOL    HW213215   4.304   6.711   2.000
 4106SOL     OW13216   6.713   2.564   3.790
 4106SOL    HW113217   6.811   2.575   3.773
 4106SOL    HW213218   6.685   2.623   3.865
 4107SOL     OW13219   1.311   6.168   1.450
 4107SOL    HW113220   1.299   6.129   1.542
 4107SOL    HW213221   1.294   6.267   1.454
 4108SOL     OW13222   6.482   4.650   5.700
 4108SOL    HW113223   6.439   4.638   5.789
 4108SOL    HW213224   6.439   4.589   5.634
 4109SOL     OW13225   5.367   6.603   5.315
 4109SOL    HW113226   5.415   6.613   5.228
 4109SOL    HW213227   5.386   6.683   5.373
 4110SOL     OW13228   4.550   3.609   6.467
 4110SOL    HW113229   4.566   3.706   6.450
 4110SOL    HW213230   4.503   3.569   6.389
 4111SOL     OW13231   3.828   3.315   6.664
 4111SOL    HW113232   3.840   3.415   6.669
 4111SOL    HW213233   3.898   3.277   6.604
 4112SOL     OW13234   4.973   0.282   5.411
 4112SOL    HW113235   4.942   0.377   5.413
 4112SOL    HW213236   5.017   0.263   5.323
 4113SOL     OW13237   4.886   6.580   4.635
 4113SOL    HW113238   4.879   6.487   4.601
 4113SOL    HW213239   4.845   6.586   4.726
 4114SOL     OW13240   3.095   2.176   4.395
 4114SOL    HW113241   3.037   2.183   4.314
 4114SOL    HW213242   3.191   2.170   4.367
 4115SOL     OW13243   3.839   5.088   2.507
 4115SOL    HW113244   3.837   5.157   2.435
 4115SOL    HW213245   3.911   5.110   2.573
 4116SOL     OW13246   3.730   2.166   1.670
 4116SOL    HW113247   3.799   2.231   1.639
 4116SOL    HW213248   3.696   2.193   1.760
 4117SOL     OW13249   0.844   4.865   1.828
 4117SOL    HW113250   0.772   4.795   1.833
 4117SOL    HW213251   0.905   4.844   1.751
 4118SOL     OW13252   3.056   6.528   0.330
 4118SOL    HW113253   3.088   6.565   0.243
 4118SOL    HW213254   2.974   6.473   0.315
 4119SOL     OW13255   3.575   1.698   3.709
 4119SOL    HW113256   3.507   1.747   3.763
 4119SOL    HW213257   3.572   1.601   3.732
 4120SOL     OW13258   4.074   0.195   0.796
 4120SOL    HW113259   3.985   0.174   0.836
 4120SOL    HW213260   4.126   0.254   0.858
 4121SOL     OW13261   5.798   0.781   5.208
 4121SOL    HW113262   5.807   0.759   5.111
 4121SOL    HW213263   5.871   0.737   5.259
 4122SOL     OW13264   0.701   5.651   5.297
 4122SOL    HW113265   0.792   5.627   5.330
 4122SOL    HW213266   0.638   5.654   5.374
 4123SOL     OW13267   4.298   4.794   5.959
 4123SOL    HW113268   4.268   4.885   5.988
 4123SOL    HW213269   4.368   4.803   5.888
 4124SOL     OW13270   5.688   5.129   6.332
 4124SOL    HW113271   5.759   5.126   6.402
 4124SOL    HW213272   5.648   5.221   6.329
 4125SOL     OW13273   4.598   1.800   2.478
 4125SOL    HW113274   4.579   1.815   2.575
 4125SOL    HW213275   4.539   1.727   2.444
 4126SOL     OW13276   1.413   3.654   3.568
 4126SOL    HW113277   1.494   3.640   3.511
 4126SOL    HW213278   1.371   3.566   3.589
 4127SOL     OW13279   4.121   4.770   4.571
 4127SOL    HW113280   4.069   4.793   4.653
 4127SOL    HW213281   4.214   4.743   4.597
 4128SOL     OW13282   1.390   3.162   2.405
 4128SOL    HW113283   1.382   3.088   2.338
 4128SOL    HW213284   1.309   3.221   2.398
 4129SOL     OW13285   4.616   1.885   6.448
 4129SOL    HW113286   4.599   1.797   6.492
 4129SOL    HW213287   4.568   1.957   6.498
 4130SOL     OW13288   6.280   2.708   5.709
 4130SOL    HW113289   6.216   2.680   5.781
 4130SOL    HW213290   6.361   2.749   5.751
 4131SOL     OW13291   1.825   6.453   3.239
 4131SOL    HW113292   1.785   6.419   3.154
 4131SOL    HW213293   1.921   6.425   3.245
 4132SOL     OW13294   5.292   4.219   3.699
 4132SOL    HW113295   5.268   4.122   3.689
 4132SOL    HW213296   5.327   4.253   3.611
 4133SOL     OW13297   3.069   0.269   1.540
 4133SOL    HW113298   3.072   0.169   1.547
 4133SOL    HW213299   2.980   0.298   1.505
 4134SOL     OW13300   2.333   3.007   0.257
 4134SOL    HW113301   2.300   3.070   0.187
 4134SOL    HW213302   2.298   3.034   0.346
 4135SOL     OW13303   1.635   1.571   3.316
 4135SOL    HW113304   1.601   1.508   3.247
 4135SOL    HW213305   1.735   1.566   3.320
 4136SOL     OW13306   1.138   2.365   3.049
 4136SOL    HW113307   1.130   2.391   3.145
 4136SOL    HW213308   1.163   2.445   2.995
 4137SOL     OW13309   1.509   4.534   0.753
 4137SOL    HW113310   1.578   4.505   0.686
 4137SOL    HW213311   1.441   4.461   0.764
 4138SOL     OW13312   3.674   5.225   3.049
 4138SOL    HW113313   3.610   5.303   3.050
 4138SOL    HW213314   3.640   5.153   3.109
 4139SOL     OW13315   2.572   2.386   4.829
 4139SOL    HW113316   2.574   2.419   4.735
 4139SOL    HW213317   2.542   2.459   4.890
 4140SOL     OW13318   3.154   0.846   5.759
 4140SOL    HW113319   3.126   0.768   5.704
 4140SOL    HW213320   3.182   0.816   5.850
 4141SOL     OW13321   5.923   6.680   1.424
 4141SOL    HW113322   6.005   6.645   1.380
 4141SOL    HW213323   5.852   6.696   1.356
 4142SOL     OW13324   6.562   5.593   0.786
 4142SOL    HW113325   6.538   5.570   0.880
 4142SOL    HW213326   6.641   5.539   0.757
 4143SOL     OW13327   0.444   2.900   0.326
 4143SOL    HW113328   0.480   2.978   0.274
 4143SOL    HW213329   0.348   2.884   0.301
 4144SOL     OW13330   4.846   3.833   6.311
 4144SOL    HW113331   4.865   3.891   6.389
 4144SOL    HW213332   4.922   3.770   6.296
 4145SOL     OW13333   6.743   5.737   0.949
 4145SOL    HW113334   6.791   5.658   0.988
 4145SOL    HW213335   6.667   5.705   0.893
 4146SOL     OW13336   6.788   1.275   5.486
 4146SOL    HW113337   6.875   1.322   5.497
 4146SOL    HW213338   6.716   1.342   5.468
 4147SOL     OW13339   4.780   3.511   5.628
 4147SOL    HW113340   4.737   3.442   5.687
 4147SOL    HW213341   4.827   3.465   5.553
 4148SOL     OW13342   0.797   0.227   4.882
 4148SOL    HW113343   0.711   0.235   4.932
 4148SOL    HW213344   0.809   0.133   4.850
 4149SOL     OW13345   0.204   2.459   0.618
 4149SOL    HW113346   0.128   2.402   0.586
 4149SOL    HW213347   0.201   2.547   0.570
 4150SOL     OW13348   0.337   1.046   5.581
 4150SOL    HW113349   0.298   0.980   5.517
 4150SOL    HW213350   0.412   1.096   5.536
 4151SOL     OW13351   3.813   6.349   6.137
 4151SOL    HW113352   3.866   6.270   6.169
 4151SOL    HW213353   3.828   6.426   6.199
 4152SOL     OW13354   2.793   6.215   1.320
 4152SOL    HW113355   2.834   6.173   1.239
 4152SOL    HW213356   2.773   6.144   1.388
 4153SOL     OW13357   4.095   4.446   6.771
 4153SOL    HW113358   4.059   4.485   6.856
 4153SOL    HW213359   4.021   4.398   6.723
 4154SOL     OW13360   0.711   4.705   4.418
 4154SOL    HW113361   0.673   4.704   4.325
 4154SOL    HW213362   0.675   4.626   4.469
 4155SOL     OW13363   6.669   1.835   2.445
 4155SOL    HW113364   6.612   1.759   2.414
 4155SOL    HW213365   6.614   1.896   2.502
 4156SOL     OW13366   5.026   6.434   4.970
 4156SOL    HW113367   5.010   6.353   4.914
 4156SOL    HW213368   4.952   6.500   4.957
 4157SOL     OW13369   4.210   6.353   4.122
 4157SOL    HW113370   4.167   6.359   4.213
 4157SOL    HW213371   4.268   6.272   4.119
 4158SOL     OW13372   1.626   4.796   3.371
 4158SOL    HW113373   1.706   4.743   3.345
 4158SOL    HW213374   1.571   4.744   3.436
 4159SOL     OW13375   2.251   2.968   3.998
 4159SOL    HW113376   2.210   3.025   4.068
 4159SOL    HW213377   2.344   2.942   4.025
 4160SOL     OW13378   6.268   0.762   0.814
 4160SOL    HW113379   6.358   0.792   0.784
 4160SOL    HW213380   6.214   0.735   0.734
 4161SOL     OW13381   1.211   0.724   6.896
 4161SOL    HW113382   1.177   0.709   6.988
 4161SOL    HW213383   1.135   0.747   6.835
 4162SOL     OW13384   6.242   6.429   5.861
 4162SOL    HW113385   6.233   6.473   5.950
 4162SOL    HW213386   6.165   6.456   5.803
 4163SOL     OW13387   6.258   7.011   3.146
 4163SOL    HW113388   6.290   6.975   3.234
 4163SOL    HW213389   6.325   0.056   3.110
 4164SOL     OW13390   1.310   6.650   6.676
 4164SOL    HW113391   1.256   6.660   6.592
 4164SOL    HW213392   1.400   6.693   6.663
 4165SOL     OW13393   4.432   7.014   0.029
 4165SOL    HW113394   4.436   6.920   0.064
 4165SOL    HW213395   4.383   0.052   0.095
 4166SOL     OW13396   5.796   4.256   1.028
 4166SOL    HW113397   5.878   4.217   0.986
 4166SOL    HW213398   5.759   4.328   0.970
 4167SOL     OW13399   1.286   4.324   1.162
 4167SOL    HW113400   1.295   4.306   1.259
 4167SOL    HW213401   1.336   4.255   1.110
 4168SOL     OW13402   6.641   5.136   1.363
 4168SOL    HW113403   6.689   5.220   1.339
 4168SOL    HW213404   6.693   5.087   1.433
 4169SOL     OW13405   6.006   3.815   3.950
 4169SOL    HW113406   6.027   3.874   4.028
 4169SOL    HW213407   6.072   3.740   3.946
 4170SOL     OW13408   2.924   3.782   4.973
 4170SOL    HW113409   2.947   3.837   5.054
 4170SOL    HW213410   2.827   3.795   4.951
 4171SOL     OW13411   4.924   4.819   1.453
 4171SOL    HW113412   4.942   4.751   1.383
 4171SOL    HW213413   4.929   4.911   1.413
 4172SOL     OW13414   0.270   1.586   6.057
 4172SOL    HW113415   0.220   1.604   5.972
 4172SOL    HW213416   0.265   1.666   6.117
 4173SOL     OW13417   5.444   3.679   5.355
 4173SOL    HW113418   5.467   3.720   5.266
 4173SOL    HW213419   5.404   3.588   5.340
 4174SOL     OW13420   5.372   0.504   3.358
 4174SOL    HW113421   5.453   0.503   3.299
 4174SOL    HW213422   5.291   0.520   3.303
 4175SOL     OW13423   2.000   5.889   4.933
 4175SOL    HW113424   1.905   5.883   4.901
 4175SOL    HW213425   2.016   5.817   5.001
 4176SOL     OW13426   2.635   6.622   1.990
 4176SOL    HW113427   2.552   6.577   2.023
 4176SOL    HW213428   2.705   6.552   1.970
 4177SOL     OW13429   6.724   4.427   4.432
 4177SOL    HW113430   6.647   4.383   4.387
 4177SOL    HW213431   6.691   4.481   4.510
 4178SOL     OW13432   4.446   1.182   4.119
 4178SOL    HW113433   4.492   1.270   4.110
 4178SOL    HW213434   4.348   1.193   4.101
 4179SOL     OW13435   5.463   2.336   3.515
 4179SOL    HW113436   5.426   2.392   3.441
 4179SOL    HW213437   5.529   2.390   3.568
 4180SOL     OW13438   5.475   3.678   1.515
 4180SOL    HW113439   5.517   3.599   1.471
 4180SOL    HW213440   5.477   3.666   1.614
 4181SOL     OW13441   2.031   2.146   6.399
 4181SOL    HW113442   1.978   2.203   6.460
 4181SOL    HW213443   2.051   2.059   6.444
 4182SOL     OW13444   0.130   6.462   2.811
 4182SOL    HW113445   0.058   6.500   2.753
 4182SOL    HW213446   0.145   6.367   2.786
 4183SOL     OW13447   4.486   0.408   0.644
 4183SOL    HW113448   4.482   0.351   0.562
 4183SOL    HW213449   4.447   0.358   0.722
 4184SOL     OW13450   4.791   5.256   1.400
 4184SOL    HW113451   4.745   5.327   1.454
 4184SOL    HW213452   4.803   5.174   1.456
 4185SOL     OW13453   1.025   5.834   2.208
 4185SOL    HW113454   1.083   5.832   2.126
 4185SOL    HW213455   0.932   5.860   2.182
 4186SOL     OW13456   1.733   4.551   1.048
 4186SOL    HW113457   1.800   4.564   1.120
 4186SOL    HW213458   1.742   4.625   0.980
 4187SOL     OW13459   3.466   4.187   5.987
 4187SOL    HW113460   3.485   4.138   6.072
 4187SOL    HW213461   3.468   4.124   5.910
 4188SOL     OW13462   4.871   6.998   4.045
 4188SOL    HW113463   4.956   6.946   4.032
 4188SOL    HW213464   4.893   0.073   4.064
 4189SOL     OW13465   3.175   0.739   5.316
 4189SOL    HW113466   3.134   0.829   5.302
 4189SOL    HW213467   3.150   0.705   5.407
 4190SOL     OW13468   1.150   0.329   6.911
 4190SOL    HW113469   1.106   0.298   6.995
 4190SOL    HW213470   1.095   0.300   6.832
 4191SOL     OW13471   5.882   3.605   2.989
 4191SOL    HW113472   5.810   3.615   2.920
 4191SOL    HW213473   5.909   3.696   3.022
 4192SOL     OW13474   0.095   0.437   3.366
 4192SOL    HW113475   0.127   0.497   3.439
 4192SOL    HW213476   0.149   0.453   3.284
 4193SOL     OW13477   2.307   6.763   2.216
 4193SOL    HW113478   2.226   6.757   2.274
 4193SOL    HW213479   2.382   6.804   2.267
 4194SOL     OW13480   6.050   1.137   5.524
 4194SOL    HW113481   6.103   1.186   5.593
 4194SOL    HW213482   6.030   1.198   5.448
 4195SOL     OW13483   3.710   0.989   1.359
 4195SOL    HW113484   3.652   1.068   1.342
 4195SOL    HW213485   3.795   1.019   1.402
 4196SOL     OW13486   5.795   2.155   3.815
 4196SOL    HW113487   5.730   2.200   3.877
 4196SOL    HW213488   5.812   2.061   3.847
 4197SOL     OW13489   4.570   5.243   5.453
 4197SOL    HW113490   4.564   5.156   5.503
 4197SOL    HW213491   4.580   5.225   5.355
 4198SOL     OW13492   5.456   3.169   6.454
 4198SOL    HW113493   5.514   3.231   6.400
 4198SOL    HW213494   5.363   3.169   6.417
 4199SOL     OW13495   2.036   3.709   6.328
 4199SOL    HW113496   2.042   3.790   6.386
 4199SOL    HW213497   2.010   3.736   6.235
 4200SOL     OW13498   3.495   6.901   5.166
 4200SOL    HW113499   3.582   6.933   5.130
 4200SOL    HW213500   3.420   6.945   5.116
 4201SOL     OW13501   5.796   5.753   4.047
 4201SOL    HW113502   5.719   5.728   4.105
 4201SOL    HW213503   5.867   5.682   4.053
 4202SOL     OW13504   4.372   5.811   5.446
 4202SOL    HW113505   4.461   5.858   5.441
 4202SOL    HW213506   4.299   5.876   5.428
 4203SOL     OW13507   4.872   5.428   2.082
 4203SOL    HW113508   4.863   5.486   2.163
 4203SOL    HW213509   4.814   5.464   2.009
 4204SOL     OW13510   3.654   3.172   1.976
 4204SOL    HW113511   3.729   3.134   2.029
 4204SOL    HW213512   3.567   3.154   2.023
 4205SOL     OW13513   3.747   5.277   4.293
 4205SOL    HW113514   3.801   5.361   4.282
 4205SOL    HW213515   3.808   5.199   4.305
 4206SOL     OW13516   5.903   0.653   5.746
 4206SOL    HW113517   5.828   0.666   5.681
 4206SOL    HW213518   5.965   0.583   5.711
 4207SOL     OW13519   2.397   1.516   1.525
 4207SOL    HW113520   2.393   1.425   1.486
 4207SOL    HW213521   2.350   1.517   1.613
 4208SOL     OW13522   0.790   2.336   6.365
 4208SOL    HW113523   0.741   2.412   6.407
 4208SOL    HW213524   0.884   2.334   6.399
 4209SOL     OW13525   1.175   1.239   4.698
 4209SOL    HW113526   1.083   1.206   4.718
 4209SOL    HW213527   1.241   1.193   4.757
 4210SOL     OW13528   2.888   3.334   1.861
 4210SOL    HW113529   2.917   3.412   1.805
 4210SOL    HW213530   2.801   3.299   1.827
 4211SOL     OW13531   4.457   5.914   5.185
 4211SOL    HW113532   4.539   5.940   5.237
 4211SOL    HW213533   4.478   5.913   5.087
 4212SOL     OW13534   5.959   2.198   2.249
 4212SOL    HW113535   5.892   2.192   2.323
 4212SOL    HW213536   5.915   2.230   2.165
 4213SOL     OW13537   2.157   1.284   2.900
 4213SOL    HW113538   2.232   1.297   2.835
 4213SOL    HW213539   2.109   1.198   2.879
 4214SOL     OW13540   0.367   4.153   5.639
 4214SOL    HW113541   0.318   4.137   5.553
 4214SOL    HW213542   0.435   4.082   5.653
 4215SOL     OW13543   6.489   5.353   4.512
 4215SOL    HW113544   6.541   5.393   4.587
 4215SOL    HW213545   6.531   5.379   4.425
 4216SOL     OW13546   1.463   1.701   2.438
 4216SOL    HW113547   1.377   1.750   2.425
 4216SOL    HW213548   1.527   1.727   2.366
 4217SOL     OW13549   5.942   6.937   2.520
 4217SOL    HW113550   5.908   6.853   2.478
 4217SOL    HW213551   5.968   6.919   2.615
 4218SOL     OW13552   5.088   0.028   1.130
 4218SOL    HW113553   4.999   0.021   1.175
 4218SOL    HW213554   5.092   0.112   1.076
 4219SOL     OW13555   2.934   5.818   4.905
 4219SOL    HW113556   3.003   5.747   4.888
 4219SOL    HW213557   2.911   5.820   5.002
 4220SOL     OW13558   6.329   2.625   3.610
 4220SOL    HW113559   6.315   2.722   3.631
 4220SOL    HW213560   6.331   2.613   3.511
 4221SOL     OW13561   6.110   5.593   6.421
 4221SOL    HW113562   6.016   5.561   6.409
 4221SOL    HW213563   6.174   5.522   6.392
 4222SOL     OW13564   6.046   2.579   2.269
 4222SOL    HW113565   6.091   2.530   2.343
 4222SOL    HW213566   6.087   2.670   2.259
 4223SOL     OW13567   2.969   3.291   4.280
 4223SOL    HW113568   2.929   3.382   4.268
 4223SOL    HW213569   2.901   3.231   4.322
 4224SOL     OW13570   4.894   3.287   3.678
 4224SOL    HW113571   4.852   3.196   3.672
 4224SOL    HW213572   4.893   3.317   3.774
 4225SOL     OW13573   4.905   0.565   5.367
 4225SOL    HW113574   4.899   0.628   5.290
 4225SOL    HW213575   4.932   0.615   5.449
 4226SOL     OW13576   1.449   0.372   3.238
 4226SOL    HW113577   1.400   0.285   3.235
 4226SOL    HW213578   1.391   0.442   3.281
 4227SOL     OW13579   3.314   4.965   6.819
 4227SOL    HW113580   3.373   4.974   6.899
 4227SOL    HW213581   3.223   4.936   6.847
 4228SOL     OW13582   6.286   4.389   2.902
 4228SOL    HW113583   6.265   4.406   2.999
 4228SOL    HW213584   6.279   4.291   2.884
 4229SOL     OW13585   4.191   4.535   5.918
 4229SOL    HW113586   4.273   4.483   5.945
 4229SOL    HW213587   4.211   4.632   5.924
 4230SOL     OW13588   2.654   0.774   4.300
 4230SOL    HW113589   2.609   0.706   4.358
 4230SOL    HW213590   2.693   0.847   4.357
 4231SOL     OW13591   5.298   6.650   4.923
 4231SOL    HW113592   5.350   6.698   4.993
 4231SOL    HW213593   5.212   6.616   4.961
 4232SOL     OW13594   0.441   5.169   1.636
 4232SOL    HW113595   0.431   5.269   1.636
 4232SOL    HW213596   0.525   5.143   1.682
 4233SOL     OW13597   6.766   0.338   0.007
 4233SOL    HW113598   6.707   0.376   6.955
 4233SOL    HW213599   6.806   0.413   0.060
 4234SOL     OW13600   1.304   0.086   5.560
 4234SOL    HW113601   1.401   0.110   5.562
 4234SOL    HW213602   1.258   0.141   5.490
 4235SOL     OW13603   6.278   4.209   5.229
 4235SOL    HW113604   6.260   4.113   5.207
 4235SOL    HW213605   6.345   4.213   5.303
 4236SOL     OW13606   6.889   3.085   3.042
 4236SOL    HW113607   6.960   3.103   2.974
 4236SOL    HW213608   6.868   2.988   3.044
 4237SOL     OW13609   6.216   4.396   4.058
 4237SOL    HW113610   6.162   4.354   3.985
 4237SOL    HW213611   6.267   4.474   4.021
 4238SOL     OW13612   4.209   4.772   3.943
 4238SOL    HW113613   4.234   4.735   3.854
 4238SOL    HW213614   4.293   4.792   3.995
 4239SOL     OW13615   5.419   0.353   4.177
 4239SOL    HW113616   5.326   0.362   4.213
 4239SOL    HW213617   5.446   0.439   4.133
 4240SOL     OW13618   2.082   6.636   6.703
 4240SOL    HW113619   2.086   6.543   6.668
 4240SOL    HW213620   2.146   6.646   6.779
 4241SOL     OW13621   5.353   0.573   0.936
 4241SOL    HW113622   5.270   0.544   0.889
 4241SOL    HW213623   5.358   0.528   1.025
 4242SOL     OW13624   2.009   6.821   3.448
 4242SOL    HW113625   1.964   6.841   3.535
 4242SOL    HW213626   2.108   6.815   3.462
 4243SOL     OW13627   0.842   4.029   3.084
 4243SOL    HW113628   0.852   3.948   3.143
 4243SOL    HW213629   0.765   4.015   3.022
 4244SOL     OW13630   4.594   5.692   1.124
 4244SOL    HW113631   4.551   5.624   1.184
 4244SOL    HW213632   4.680   5.656   1.090
 4245SOL     OW13633   6.915   1.981   6.704
 4245SOL    HW113634   6.971   1.900   6.690
 4245SOL    HW213635   6.951   2.057   6.649
 4246SOL     OW13636   5.884   3.030   3.448
 4246SOL    HW113637   5.876   3.115   3.395
 4246SOL    HW213638   5.925   2.959   3.391
 4247SOL     OW13639   2.023   5.059   4.475
 4247SOL    HW113640   2.035   5.079   4.572
 4247SOL    HW213641   2.076   4.978   4.451
 4248SOL     OW13642   1.618   1.023   3.268
 4248SOL    HW113643   1.695   1.085   3.255
 4248SOL    HW213644   1.539   1.074   3.302
 4249SOL     OW13645   6.538   1.779   3.337
 4249SOL    HW113646   6.506   1.831   3.258
 4249SOL    HW213647   6.470   1.708   3.360
 4250SOL     OW13648   0.632   5.941   3.944
 4250SOL    HW113649   0.603   5.957   4.038
 4250SOL    HW213650   0.556   5.901   3.892
 4251SOL     OW13651   6.234   2.643   7.008
 4251SOL    HW113652   6.235   2.548   0.020
 4251SOL    HW213653   6.174   2.651   6.929
 4252SOL     OW13654   5.749   6.052   5.988
 4252SOL    HW113655   5.838   6.053   6.034
 4252SOL    HW213656   5.702   6.139   6.003
 4253SOL     OW13657   3.702   6.273   2.572
 4253SOL    HW113658   3.795   6.286   2.539
 4253SOL    HW213659   3.641   6.252   2.495
 4254SOL     OW13660   2.360   4.750   1.737
 4254SOL    HW113661   2.418   4.810   1.793
 4254SOL    HW213662   2.414   4.714   1.661
 4255SOL     OW13663   0.228   3.419   4.219
 4255SOL    HW113664   0.302   3.358   4.190
 4255SOL    HW213665   0.154   3.416   4.151
 4256SOL     OW13666   1.192   5.702   1.908
 4256SOL    HW113667   1.245   5.778   1.947
 4256SOL    HW213668   1.179   5.718   1.810
 4257SOL     OW13669   6.004   0.740   4.520
 4257SOL    HW113670   6.101   0.755   4.538
 4257SOL    HW213671   5.951   0.768   4.600
 4258SOL     OW13672   3.603   5.825   1.346
 4258SOL    HW113673   3.532   5.754   1.347
 4258SOL    HW213674   3.569   5.906   1.393
 4259SOL     OW13675   2.133   6.465   1.404
 4259SOL    HW113676   2.154   6.538   1.340
 4259SOL    HW213677   2.171   6.487   1.494
 4260SOL     OW13678   5.098   6.851   3.987
 4260SOL    HW113679   5.143   6.812   3.906
 4260SOL    HW213680   5.166   6.870   4.057
 4261SOL     OW13681   1.679   0.078   3.314
 4261SOL    HW113682   1.676   0.177   3.325
 4261SOL    HW213683   1.661   0.033   3.401
 4262SOL     OW13684   1.490   3.972   5.847
 4262SOL    HW113685   1.466   4.058   5.893
 4262SOL    HW213686   1.407   3.927   5.815
 4263SOL     OW13687   2.830   1.047   3.465
 4263SOL    HW113688   2.840   1.142   3.435
 4263SOL    HW213689   2.886   1.031   3.546
 4264SOL     OW13690   5.882   1.406   4.090
 4264SOL    HW113691   5.873   1.307   4.107
 4264SOL    HW213692   5.790   1.446   4.082
 4265SOL     OW13693   3.484   0.761   0.861
 4265SOL    HW113694   3.536   0.833   0.907
 4265SOL    HW213695   3.387   0.770   0.884
 4266SOL     OW13696   1.201   0.034   6.957
 4266SOL    HW113697   1.301   0.036   6.958
 4266SOL    HW213698   1.167   0.015   0.029
 4267SOL     OW13699   1.886   4.015   4.047
 4267SOL    HW113700   1.837   3.947   4.102
 4267SOL    HW213701   1.978   4.029   4.085
 4268SOL     OW13702   1.984   5.410   6.870
 4268SOL    HW113703   2.040   5.361   6.804
 4268SOL    HW213704   2.034   5.490   6.903
 4269SOL     OW13705   3.145   1.357   3.836
 4269SOL    HW113706   3.115   1.373   3.930
 4269SOL    HW213707   3.188   1.267   3.829
 4270SOL     OW13708   3.224   3.049   1.555
 4270SOL    HW113709   3.213   3.121   1.624
 4270SOL    HW213710   3.211   2.959   1.598
 4271SOL     OW13711   6.974   0.710   0.383
 4271SOL    HW113712   7.004   0.686   0.476
 4271SOL    HW213713   6.915   0.790   0.387
 4272SOL     OW13714   6.953   3.167   4.671
 4272SOL    HW113715   6.879   3.111   4.708
 4272SOL    HW213716   7.001   3.213   4.745
 4273SOL     OW13717   4.980   6.162   5.076
 4273SOL    HW113718   5.068   6.117   5.060
 4273SOL    HW213719   4.991   6.231   5.147
 4274SOL     OW13720   0.905   0.229   1.548
 4274SOL    HW113721   0.812   0.233   1.509
 4274SOL    HW213722   0.937   0.135   1.549
 4275SOL     OW13723   0.468   1.938   4.374
 4275SOL    HW113724   0.503   2.031   4.366
 4275SOL    HW213725   0.541   1.873   4.351
 4276SOL     OW13726   2.616   5.491   3.677
 4276SOL    HW113727   2.705   5.446   3.667
 4276SOL    HW213728   2.543   5.423   3.666
 4277SOL     OW13729   6.854   4.136   3.117
 4277SOL    HW113730   6.905   4.087   3.046
 4277SOL    HW213731   6.756   4.124   3.101
 4278SOL     OW13732   0.372   6.913   3.328
 4278SOL    HW113733   0.421   6.952   3.406
 4278SOL    HW213734   0.279   6.889   3.356
 4279SOL     OW13735   1.362   0.963   2.200
 4279SOL    HW113736   1.417   1.012   2.132
 4279SOL    HW213737   1.267   0.992   2.194
 4280SOL     OW13738   6.363   6.724   5.747
 4280SOL    HW113739   6.350   6.755   5.840
 4280SOL    HW213740   6.439   6.659   5.744
 4281SOL     OW13741   5.119   4.824   3.838
 4281SOL    HW113742   5.107   4.923   3.843
 4281SOL    HW213743   5.190   4.796   3.903
 4282SOL     OW13744   3.216   4.668   1.113
 4282SOL    HW113745   3.303   4.680   1.162
 4282SOL    HW213746   3.233   4.669   1.015
 4283SOL     OW13747   4.584   1.245   3.656
 4283SOL    HW113748   4.510   1.282   3.712
 4283SOL    HW213749   4.572   1.146   3.647
 4284SOL     OW13750   4.417   5.807   0.198
 4284SOL    HW113751   4.507   5.783   0.162
 4284SOL    HW213752   4.349   5.800   0.125
 4285SOL     OW13753   2.442   1.053   5.925
 4285SOL    HW113754   2.440   1.089   6.018
 4285SOL    HW213755   2.496   0.969   5.923
 4286SOL     OW13756   6.492   0.224   6.237
 4286SOL    HW113757   6.443   0.311   6.235
 4286SOL    HW213758   6.478   0.180   6.326
 4287SOL     OW13759   4.826   1.411   5.959
 4287SOL    HW113760   4.817   1.380   5.864
 4287SOL    HW213761   4.846   1.509   5.960
 4288SOL     OW13762   0.553   5.937   3.063
 4288SOL    HW113763   0.505   6.008   3.011
 4288SOL    HW213764   0.524   5.941   3.158
 4289SOL     OW13765   1.539   2.217   6.078
 4289SOL    HW113766   1.487   2.144   6.123
 4289SOL    HW213767   1.478   2.271   6.020
 4290SOL     OW13768   0.371   6.451   4.685
 4290SOL    HW113769   0.289   6.459   4.628
 4290SOL    HW213770   0.369   6.521   4.757
 4291SOL     OW13771   4.954   3.417   6.330
 4291SOL    HW113772   4.926   3.447   6.239
 4291SOL    HW213773   4.928   3.321   6.342
 4292SOL     OW13774   6.406   3.167   6.958
 4292SOL    HW113775   6.397   3.243   6.894
 4292SOL    HW213776   6.375   3.082   6.915
 4293SOL     OW13777   3.972   3.944   6.486
 4293SOL    HW113778   3.948   3.976   6.578
 4293SOL    HW213779   3.927   4.003   6.418
 4294SOL     OW13780   2.355   1.942   6.332
 4294SOL    HW113781   2.361   2.005   6.255
 4294SOL    HW213782   2.391   1.853   6.305
 4295SOL     OW13783   4.718   6.611   3.009
 4295SOL    HW113784   4.639   6.550   3.006
 4295SOL    HW213785   4.768   6.605   2.923
 4296SOL     OW13786   3.107   0.221   0.749
 4296SOL    HW113787   3.033   0.251   0.809
 4296SOL    HW213788   3.194   0.229   0.797
 4297SOL     OW13789   6.655   6.401   2.512
 4297SOL    HW113790   6.731   6.395   2.577
 4297SOL    HW213791   6.650   6.495   2.476
 4298SOL     OW13792   3.725   6.638   2.260
 4298SOL    HW113793   3.635   6.613   2.297
 4298SOL    HW213794   3.793   6.574   2.294
 4299SOL     OW13795   0.844   3.362   0.399
 4299SOL    HW113796   0.801   3.360   0.309
 4299SOL    HW213797   0.819   3.447   0.446
 4300SOL     OW13798   2.750   0.255   0.419
 4300SOL    HW113799   2.741   0.159   0.444
 4300SOL    HW213800   2.841   0.288   0.446
 4301SOL     OW13801   3.722   0.293   1.422
 4301SOL    HW113802   3.756   0.210   1.467
 4301SOL    HW213803   3.730   0.282   1.323
 4302SOL     OW13804   6.199   0.395   0.074
 4302SOL    HW113805   6.281   0.349   0.108
 4302SOL    HW213806   6.144   0.424   0.152
 4303SOL     OW13807   0.270   4.607   3.527
 4303SOL    HW113808   0.256   4.654   3.614
 4303SOL    HW213809   0.208   4.644   3.458
 4304SOL     OW13810   3.707   4.075   1.976
 4304SOL    HW113811   3.629   4.136   1.970
 4304SOL    HW213812   3.697   4.015   2.055
 4305SOL     OW13813   0.883   6.567   5.182
 4305SOL    HW113814   0.895   6.607   5.273
 4305SOL    HW213815   0.934   6.482   5.176
 4306SOL     OW13816   4.958   4.667   5.084
 4306SOL    HW113817   5.041   4.664   5.028
 4306SOL    HW213818   4.908   4.751   5.066
 4307SOL     OW13819   5.591   3.205   5.691
 4307SOL    HW113820   5.656   3.260   5.743
 4307SOL    HW213821   5.575   3.118   5.738
 4308SOL     OW13822   5.581   5.093   1.325
 4308SOL    HW113823   5.601   5.185   1.357
 4308SOL    HW213824   5.602   5.086   1.227
 4309SOL     OW13825   1.169   3.052   0.581
 4309SOL    HW113826   1.167   3.147   0.551
 4309SOL    HW213827   1.086   3.005   0.550
 4310SOL     OW13828   1.330   2.946   2.243
 4310SOL    HW113829   1.311   2.940   2.145
 4310SOL    HW213830   1.419   2.904   2.261
 4311SOL     OW13831   0.859   6.788   2.330
 4311SOL    HW113832   0.870   6.749   2.421
 4311SOL    HW213833   0.934   6.756   2.271
 4312SOL     OW13834   1.378   5.590   2.697
 4312SOL    HW113835   1.475   5.608   2.715
 4312SOL    HW213836   1.322   5.662   2.737
 4313SOL     OW13837   3.230   2.617   6.995
 4313SOL    HW113838   3.257   2.608   6.899
 4313SOL    HW213839   3.312   2.635   0.030
 4314SOL     OW13840   6.095   2.111   5.243
 4314SOL    HW113841   6.036   2.089   5.320
 4314SOL    HW213842   6.061   2.065   5.161
 4315SOL     OW13843   1.901   1.550   3.906
 4315SOL    HW113844   1.901   1.514   3.812
 4315SOL    HW213845   1.927   1.646   3.905
 4316SOL     OW13846   5.079   6.793   2.459
 4316SOL    HW113847   5.118   6.832   2.375
 4316SOL    HW213848   5.083   6.862   2.531
 4317SOL     OW13849   4.644   0.814   5.508
 4317SOL    HW113850   4.575   0.783   5.443
 4317SOL    HW213851   4.664   0.911   5.492
 4318SOL     OW13852   0.644   0.952   4.426
 4318SOL    HW113853   0.676   0.857   4.426
 4318SOL    HW213854   0.716   1.012   4.460
 4319SOL     OW13855   1.760   1.948   1.121
 4319SOL    HW113856   1.797   2.041   1.133
 4319SOL    HW213857   1.678   1.937   1.177
 4320SOL     OW13858   4.207   6.285   1.119
 4320SOL    HW113859   4.203   6.384   1.106
 4320SOL    HW213860   4.164   6.240   1.040
 4321SOL     OW13861   0.032   4.866   3.139
 4321SOL    HW113862   6.992   4.787   3.129
 4321SOL    HW213863   0.031   4.896   3.235
 4322SOL     OW13864   6.614   3.623   5.491
 4322SOL    HW113865   6.629   3.690   5.564
 4322SOL    HW213866   6.668   3.541   5.509
 4323SOL     OW13867   4.231   5.499   6.939
 4323SOL    HW113868   4.146   5.510   6.991
 4323SOL    HW213869   4.235   5.407   6.901
 4324SOL     OW13870   6.734   3.947   5.399
 4324SOL    HW113871   6.638   3.972   5.412
 4324SOL    HW213872   6.788   3.983   5.475
 4325SOL     OW13873   2.733   1.914   2.134
 4325SOL    HW113874   2.701   1.907   2.229
 4325SOL    HW213875   2.794   1.836   2.115
 4326SOL     OW13876   5.866   3.215   2.329
 4326SOL    HW113877   5.814   3.296   2.355
 4326SOL    HW213878   5.828   3.176   2.245
 4327SOL     OW13879   3.710   5.607   3.413
 4327SOL    HW113880   3.755   5.629   3.499
 4327SOL    HW213881   3.725   5.510   3.391
 4328SOL     OW13882   6.072   4.383   4.722
 4328SOL    HW113883   6.166   4.414   4.711
 4328SOL    HW213884   6.069   4.283   4.718
 4329SOL     OW13885   6.141   3.458   5.417
 4329SOL    HW113886   6.099   3.372   5.388
 4329SOL    HW213887   6.132   3.468   5.517
 4330SOL     OW13888   1.847   6.365   4.751
 4330SOL    HW113889   1.916   6.352   4.680
 4330SOL    HW213890   1.815   6.276   4.784
 4331SOL     OW13891   0.259   0.264   1.338
 4331SOL    HW113892   0.206   0.302   1.263
 4331SOL    HW213893   0.352   0.300   1.335
 4332SOL     OW13894   5.956   3.626   2.606
 4332SOL    HW113895   5.890   3.637   2.681
 4332SOL    HW213896   6.026   3.561   2.634
 4333SOL     OW13897   4.240   2.069   5.066
 4333SOL    HW113898   4.203   2.133   4.999
 4333SOL    HW213899   4.340   2.072   5.063
 4334SOL     OW13900   1.270   2.814   2.531
 4334SOL    HW113901   1.268   2.866   2.617
 4334SOL    HW213902   1.343   2.849   2.473
 4335SOL     OW13903   3.685   3.106   1.261
 4335SOL    HW113904   3.741   3.035   1.303
 4335SOL    HW213905   3.593   3.104   1.300
 4336SOL     OW13906   1.909   4.642   4.986
 4336SOL    HW113907   1.898   4.663   4.888
 4336SOL    HW213908   1.966   4.561   4.997
 4337SOL     OW13909   1.671   5.948   2.034
 4337SOL    HW113910   1.710   5.886   2.101
 4337SOL    HW213911   1.722   6.034   2.033
 4338SOL     OW13912   5.964   0.493   6.338
 4338SOL    HW113913   5.901   0.420   6.363
 4338SOL    HW213914   6.049   0.483   6.390
 4339SOL     OW13915   3.534   2.937   6.314
 4339SOL    HW113916   3.563   3.024   6.355
 4339SOL    HW213917   3.455   2.953   6.255
 4340SOL     OW13918   5.796   3.234   1.322
 4340SOL    HW113919   5.718   3.243   1.260
 4340SOL    HW213920   5.794   3.144   1.365
 4341SOL     OW13921   1.287   4.834   1.847
 4341SOL    HW113922   1.243   4.834   1.757
 4341SOL    HW213923   1.353   4.908   1.852
 4342SOL     OW13924   4.847   3.736   2.869
 4342SOL    HW113925   4.839   3.831   2.840
 4342SOL    HW213926   4.883   3.731   2.962
 4343SOL     OW13927   3.243   6.484   6.090
 4343SOL    HW113928   3.314   6.445   6.148
 4343SOL    HW213929   3.196   6.557   6.139
 4344SOL     OW13930   0.845   3.110   3.553
 4344SOL    HW113931   0.747   3.091   3.546
 4344SOL    HW213932   0.880   3.135   3.463
 4345SOL     OW13933   2.962   3.344   3.059
 4345SOL    HW113934   2.892   3.281   3.027
 4345SOL    HW213935   2.954   3.355   3.158
 4346SOL     OW13936   2.293   2.568   1.880
 4346SOL    HW113937   2.280   2.476   1.845
 4346SOL    HW213938   2.343   2.564   1.967
 4347SOL     OW13939   6.462   5.912   2.473
 4347SOL    HW113940   6.408   5.910   2.557
 4347SOL    HW213941   6.517   5.996   2.470
 4348SOL     OW13942   0.379   5.746   4.645
 4348SOL    HW113943   0.333   5.801   4.575
 4348SOL    HW213944   0.467   5.714   4.610
 4349SOL     OW13945   0.023   3.471   3.770
 4349SOL    HW113946   0.075   3.400   3.723
 4349SOL    HW213947   6.958   3.489   3.721
 4350SOL     OW13948   5.065   2.254   4.741
 4350SOL    HW113949   5.032   2.161   4.730
 4350SOL    HW213950   5.164   2.253   4.755
 4351SOL     OW13951   1.679   6.031   1.344
 4351SOL    HW113952   1.687   6.108   1.407
 4351SOL    HW213953   1.665   5.947   1.397
 4352SOL     OW13954   5.840   3.755   1.442
 4352SOL    HW113955   5.904   3.739   1.517
 4352SOL    HW213956   5.788   3.672   1.423
 4353SOL     OW13957   3.076   4.043   6.978
 4353SOL    HW113958   3.067   3.965   6.916
 4353SOL    HW213959   2.987   4.089   6.986
 4354SOL     OW13960   0.807   1.350   5.938
 4354SOL    HW113961   0.720   1.300   5.938
 4354SOL    HW213962   0.878   1.294   5.896
 4355SOL     OW13963   1.276   6.871   3.130
 4355SOL    HW113964   1.203   6.885   3.197
 4355SOL    HW213965   1.254   6.792   3.072
 4356SOL     OW13966   4.167   3.482   5.292
 4356SOL    HW113967   4.074   3.517   5.280
 4356SOL    HW213968   4.231   3.559   5.294
 4357SOL     OW13969   0.100   1.625   1.101
 4357SOL    HW113970   0.008   1.585   1.092
 4357SOL    HW213971   0.123   1.673   1.016
 4358SOL     OW13972   0.168   0.032   0.386
 4358SOL    HW113973   0.229   7.000   0.445
 4358SOL    HW213974   0.074   0.025   0.421
 4359SOL     OW13975   1.633   0.368   6.836
 4359SOL    HW113976   1.607   0.296   6.772
 4359SOL    HW213977   1.560   0.436   6.842
 4360SOL     OW13978   1.066   2.123   4.171
 4360SOL    HW113979   1.094   2.030   4.196
 4360SOL    HW213980   1.014   2.119   4.085
 4361SOL     OW13981   1.977   3.061   1.660
 4361SOL    HW113982   1.945   3.156   1.664
 4361SOL    HW213983   2.077   3.061   1.650
 4362SOL     OW13984   0.495   5.937   4.196
 4362SOL    HW113985   0.455   5.850   4.166
 4362SOL    HW213986   0.581   5.919   4.244
 4363SOL     OW13987   4.133   1.299   1.787
 4363SOL    HW113988   4.067   1.365   1.751
 4363SOL    HW213989   4.085   1.227   1.836
 4364SOL     OW13990   3.094   3.532   2.659
 4364SOL    HW113991   3.080   3.433   2.656
 4364SOL    HW213992   3.012   3.576   2.697
 4365SOL     OW13993   2.911   1.719   2.087
 4365SOL    HW113994   2.911   1.637   2.145
 4365SOL    HW213995   2.900   1.693   1.991
 4366SOL     OW13996   6.185   6.255   6.166
 4366SOL    HW113997   6.280   6.235   6.139
 4366SOL    HW213998   6.130   6.172   6.158
 4367SOL     OW13999   3.259   5.113   2.768
 4367SOL    HW114000   3.162   5.135   2.778
 4367SOL    HW214001   3.277   5.023   2.808
 4368SOL     OW14002   4.200   5.630   3.009
 4368SOL    HW114003   4.154   5.588   3.088
 4368SOL    HW214004   4.134   5.647   2.937
 4369SOL     OW14005   5.143   5.566   3.395
 4369SOL    HW114006   5.126   5.649   3.343
 4369SOL    HW214007   5.059   5.537   3.441
 4370SOL     OW14008   3.322   3.991   1.602
 4370SOL    HW114009   3.412   3.969   1.564
 4370SOL    HW214010   3.332   4.021   1.697
 4371SOL     OW14011   2.059   1.590   2.586
 4371SOL    HW114012   2.011   1.523   2.529
 4371SOL    HW214013   2.149   1.609   2.546
 4372SOL     OW14014   2.024   3.195   3.961
 4372SOL    HW114015   2.061   3.124   4.020
 4372SOL    HW214016   2.011   3.159   3.868
 4373SOL     OW14017   4.321   1.266   6.076
 4373SOL    HW114018   4.421   1.259   6.068
 4373SOL    HW214019   4.298   1.339   6.141
 4374SOL     OW14020   1.922   1.936   1.592
 4374SOL    HW114021   1.856   2.005   1.622
 4374SOL    HW214022   1.942   1.949   1.495
 4375SOL     OW14023   3.832   6.488   2.935
 4375SOL    HW114024   3.789   6.406   2.974
 4375SOL    HW214025   3.794   6.507   2.845
 4376SOL     OW14026   6.365   0.149   1.590
 4376SOL    HW114027   6.339   0.066   1.541
 4376SOL    HW214028   6.464   0.160   1.587
 4377SOL     OW14029   6.337   5.188   6.929
 4377SOL    HW114030   6.331   5.129   7.010
 4377SOL    HW214031   6.265   5.257   6.932
 4378SOL     OW14032   0.922   4.683   2.112
 4378SOL    HW114033   0.970   4.651   2.194
 4378SOL    HW214034   0.886   4.775   2.128
 4379SOL     OW14035   2.491   1.004   2.361
 4379SOL    HW114036   2.420   0.994   2.292
 4379SOL    HW214037   2.471   0.944   2.438
 4380SOL     OW14038   2.375   5.612   5.087
 4380SOL    HW114039   2.450   5.669   5.055
 4380SOL    HW214040   2.389   5.517   5.059
 4381SOL     OW14041   2.618   4.586   4.521
 4381SOL    HW114042   2.623   4.487   4.508
 4381SOL    HW214043   2.595   4.606   4.616
 4382SOL     OW14044   5.984   4.285   5.591
 4382SOL    HW114045   6.029   4.363   5.548
 4382SOL    HW214046   5.888   4.307   5.609
 4383SOL     OW14047   0.512   1.837   5.692
 4383SOL    HW114048   0.567   1.779   5.631
 4383SOL    HW214049   0.573   1.899   5.742
 4384SOL     OW14050   5.013   0.922   6.582
 4384SOL    HW114051   5.025   0.921   6.681
 4384SOL    HW214052   5.051   1.007   6.545
 4385SOL     OW14053   0.190   2.388   4.074
 4385SOL    HW114054   0.186   2.427   4.166
 4385SOL    HW214055   0.240   2.451   4.013
 4386SOL     OW14056   1.148   3.863   6.220
 4386SOL    HW114057   1.206   3.935   6.182
 4386SOL    HW214058   1.198   3.776   6.221
 4387SOL     OW14059   0.349   2.173   1.993
 4387SOL    HW114060   0.423   2.157   1.927
 4387SOL    HW214061   0.389   2.194   2.082
 4388SOL     OW14062   4.355   1.007   6.273
 4388SOL    HW114063   4.315   1.046   6.190
 4388SOL    HW214064   4.290   1.014   6.348
 4389SOL     OW14065   5.738   2.628   0.623
 4389SOL    HW114066   5.703   2.688   0.551
 4389SOL    HW214067   5.689   2.645   0.708
 4390SOL     OW14068   4.142   2.278   1.900
 4390SOL    HW114069   4.141   2.319   1.809
 4390SOL    HW214070   4.237   2.267   1.931
 4391SOL     OW14071   1.412   6.071   6.458
 4391SOL    HW114072   1.488   6.046   6.398
 4391SOL    HW214073   1.448   6.108   6.544
 4392SOL     OW14074   5.592   4.293   5.247
 4392SOL    HW114075   5.500   4.281   5.284
 4392SOL    HW214076   5.640   4.206   5.245
 4393SOL     OW14077   4.688   6.227   2.501
 4393SOL    HW114078   4.652   6.234   2.594
 4393SOL    HW214079   4.676   6.315   2.455
 4394SOL     OW14080   5.955   5.678   2.760
 4394SOL    HW114081   5.906   5.611   2.815
 4394SOL    HW214082   5.912   5.684   2.669
 4395SOL     OW14083   4.030   2.440   1.074
 4395SOL    HW114084   4.034   2.533   1.039
 4395SOL    HW214085   4.096   2.429   1.148
 4396SOL     OW14086   2.288   1.807   3.961
 4396SOL    HW114087   2.308   1.737   3.892
 4396SOL    HW214088   2.357   1.803   4.033
 4397SOL     OW14089   6.926   1.663   3.947
 4397SOL    HW114090   6.951   1.758   3.927
 4397SOL    HW214091   6.994   1.624   4.009
 4398SOL     OW14092   1.448   4.679   4.755
 4398SOL    HW114093   1.528   4.626   4.783
 4398SOL    HW214094   1.387   4.621   4.701
 4399SOL     OW14095   2.204   0.875   1.505
 4399SOL    HW114096   2.212   0.948   1.572
 4399SOL    HW214097   2.199   0.914   1.413
 4400SOL     OW14098   1.970   6.729   4.962
 4400SOL    HW114099   1.995   6.804   4.901
 4400SOL    HW214100   2.004   6.748   5.054
 4401SOL     OW14101   5.695   5.819   6.198
 4401SOL    HW114102   5.627   5.803   6.126
 4401SOL    HW214103   5.752   5.897   6.174
 4402SOL     OW14104   1.819   6.136   3.096
 4402SOL    HW114105   1.879   6.120   3.174
 4402SOL    HW214106   1.768   6.221   3.109
 4403SOL     OW14107   0.141   6.865   3.453
 4403SOL    HW114108   0.098   6.867   3.363
 4403SOL    HW214109   0.148   6.958   3.489
 4404SOL     OW14110   1.154   3.615   5.212
 4404SOL    HW114111   1.248   3.649   5.217
 4404SOL    HW214112   1.113   3.639   5.124
 4405SOL     OW14113   3.091   4.668   6.908
 4405SOL    HW114114   3.146   4.704   6.983
 4405SOL    HW214115   3.051   4.744   6.857
 4406SOL     OW14116   4.921   4.553   0.981
 4406SOL    HW114117   5.005   4.564   1.033
 4406SOL    HW214118   4.890   4.458   0.986
 4407SOL     OW14119   0.276   5.104   1.163
 4407SOL    HW114120   0.181   5.079   1.182
 4407SOL    HW214121   0.281   5.201   1.139
 4408SOL     OW14122   4.989   0.963   0.483
 4408SOL    HW114123   5.014   0.956   0.386
 4408SOL    HW214124   4.948   0.877   0.513
 4409SOL     OW14125   3.744   0.997   1.730
 4409SOL    HW114126   3.771   1.058   1.655
 4409SOL    HW214127   3.716   0.909   1.692
 4410SOL     OW14128   2.235   4.369   0.042
 4410SOL    HW114129   2.217   4.272   0.025
 4410SOL    HW214130   2.153   4.411   0.082
 4411SOL     OW14131   4.085   3.446   3.147
 4411SOL    HW114132   4.037   3.366   3.183
 4411SOL    HW214133   4.143   3.486   3.218
 4412SOL     OW14134   3.524   1.733   4.463
 4412SOL    HW114135   3.556   1.827   4.448
 4412SOL    HW214136   3.519   1.715   4.561
 4413SOL     OW14137   4.769   5.801   5.073
 4413SOL    HW114138   4.713   5.721   5.093
 4413SOL    HW214139   4.714   5.868   5.023
 4414SOL     OW14140   4.569   4.802   1.791
 4414SOL    HW114141   4.654   4.834   1.750
 4414SOL    HW214142   4.589   4.733   1.861
 4415SOL     OW14143   4.326   3.632   6.684
 4415SOL    HW114144   4.343   3.714   6.739
 4415SOL    HW214145   4.407   3.610   6.630
 4416SOL     OW14146   2.697   1.334   4.373
 4416SOL    HW114147   2.619   1.329   4.311
 4416SOL    HW214148   2.675   1.286   4.458
 4417SOL     OW14149   6.530   4.473   2.248
 4417SOL    HW114150   6.577   4.482   2.336
 4417SOL    HW214151   6.458   4.542   2.242
 4418SOL     OW14152   4.740   6.817   4.467
 4418SOL    HW114153   4.744   6.824   4.367
 4418SOL    HW214154   4.824   6.856   4.506
 4419SOL     OW14155   5.398   5.561   0.701
 4419SOL    HW114156   5.336   5.541   0.626
 4419SOL    HW214157   5.364   5.639   0.753
 4420SOL     OW14158   5.167   1.908   0.657
 4420SOL    HW114159   5.216   1.848   0.719
 4420SOL    HW214160   5.191   1.885   0.562
 4421SOL     OW14161   1.835   1.174   3.224
 4421SOL    HW114162   1.918   1.120   3.214
 4421SOL    HW214163   1.839   1.253   3.163
 4422SOL     OW14164   2.478   3.788   5.592
 4422SOL    HW114165   2.419   3.710   5.571
 4422SOL    HW214166   2.553   3.759   5.650
 4423SOL     OW14167   1.305   2.664   5.491
 4423SOL    HW114168   1.239   2.604   5.447
 4423SOL    HW214169   1.289   2.664   5.590
 4424SOL     OW14170   5.751   6.545   3.772
 4424SOL    HW114171   5.850   6.543   3.790
 4424SOL    HW214172   5.706   6.477   3.830
 4425SOL     OW14173   3.637   5.674   5.802
 4425SOL    HW114174   3.652   5.772   5.791
 4425SOL    HW214175   3.677   5.625   5.724
 4426SOL     OW14176   6.467   1.592   4.379
 4426SOL    HW114177   6.521   1.522   4.425
 4426SOL    HW214178   6.448   1.667   4.443
 4427SOL     OW14179   0.095   6.990   2.471
 4427SOL    HW114180   0.156   0.034   2.518
 4427SOL    HW214181   0.098   6.902   2.517
 4428SOL     OW14182   2.857   5.125   3.096
 4428SOL    HW114183   2.942   5.073   3.086
 4428SOL    HW214184   2.849   5.159   3.190
 4429SOL     OW14185   2.625   0.556   3.797
 4429SOL    HW114186   2.577   0.629   3.845
 4429SOL    HW214187   2.636   0.478   3.858
 4430SOL     OW14188   5.174   3.123   3.599
 4430SOL    HW114189   5.099   3.189   3.596
 4430SOL    HW214190   5.139   3.031   3.582
 4431SOL     OW14191   1.666   1.850   2.033
 4431SOL    HW114192   1.754   1.887   2.005
 4431SOL    HW214193   1.593   1.908   1.997
 4432SOL     OW14194   3.035   3.948   3.766
 4432SOL    HW114195   3.128   3.983   3.759
 4432SOL    HW214196   2.997   3.934   3.675
 4433SOL     OW14197   6.140   0.449   4.543
 4433SOL    HW114198   6.046   0.451   4.578
 4433SOL    HW214199   6.163   0.356   4.514
 4434SOL     OW14200   4.767   1.420   3.943
 4434SOL    HW114201   4.837   1.452   4.006
 4434SOL    HW214202   4.678   1.458   3.970
 4435SOL     OW14203   4.330   3.526   0.956
 4435SOL    HW114204   4.254   3.496   1.013
 4435SOL    HW214205   4.389   3.588   1.008
 4436SOL     OW14206   2.951   2.404   0.361
 4436SOL    HW114207   2.999   2.318   0.378
 4436SOL    HW214208   2.916   2.440   0.447
 4437SOL     OW14209   4.984   1.526   3.483
 4437SOL    HW114210   5.016   1.563   3.396
 4437SOL    HW214211   4.955   1.431   3.470
 4438SOL     OW14212   3.983   1.918   6.546
 4438SOL    HW114213   3.961   1.930   6.449
 4438SOL    HW214214   3.908   1.953   6.601
 4439SOL     OW14215   0.550   5.434   1.394
 4439SOL    HW114216   0.621   5.502   1.377
 4439SOL    HW214217   0.502   5.456   1.479
 4440SOL     OW14218   1.579   5.122   6.794
 4440SOL    HW114219   1.562   5.197   6.731
 4440SOL    HW214220   1.678   5.110   6.806
 4441SOL     OW14221   6.708   1.535   1.921
 4441SOL    HW114222   6.760   1.564   1.841
 4441SOL    HW214223   6.618   1.579   1.920
 4442SOL     OW14224   3.038   5.800   3.979
 4442SOL    HW114225   2.997   5.770   4.065
 4442SOL    HW214226   3.122   5.849   3.997
 4443SOL     OW14227   0.841   2.953   6.896
 4443SOL    HW114228   0.836   3.035   6.840
 4443SOL    HW214229   0.898   2.885   6.850
 4444SOL     OW14230   3.528   5.796   6.331
 4444SOL    HW114231   3.433   5.828   6.328
 4444SOL    HW214232   3.529   5.699   6.353
 4445SOL     OW14233   0.060   0.160   0.685
 4445SOL    HW114234   0.158   0.148   0.666
 4445SOL    HW214235   0.006   0.105   0.622
 4446SOL     OW14236   5.655   1.553   1.522
 4446SOL    HW114237   5.592   1.486   1.484
 4446SOL    HW214238   5.669   1.627   1.456
 4447SOL     OW14239   5.610   3.748   6.103
 4447SOL    HW114240   5.553   3.732   6.023
 4447SOL    HW214241   5.687   3.807   6.078
 4448SOL     OW14242   3.190   3.924   0.867
 4448SOL    HW114243   3.176   3.826   0.880
 4448SOL    HW214244   3.278   3.940   0.822
 4449SOL     OW14245   4.516   0.369   6.192
 4449SOL    HW114246   4.605   0.409   6.216
 4449SOL    HW214247   4.515   0.273   6.217
 4450SOL     OW14248   3.276   2.947   3.948
 4450SOL    HW114249   3.205   3.009   3.913
 4450SOL    HW214250   3.340   2.926   3.875
 4451SOL     OW14251   5.590   4.190   2.714
 4451SOL    HW114252   5.498   4.155   2.698
 4451SOL    HW214253   5.589   4.252   2.792
 4452SOL     OW14254   5.498   6.319   4.939
 4452SOL    HW114255   5.400   6.310   4.954
 4452SOL    HW214256   5.532   6.237   4.891
 4453SOL     OW14257   6.774   2.555   0.262
 4453SOL    HW114258   6.696   2.589   0.209
 4453SOL    HW214259   6.742   2.486   0.327
 4454SOL     OW14260   5.102   2.768   0.304
 4454SOL    HW114261   5.009   2.767   0.342
 4454SOL    HW214262   5.142   2.677   0.310
 4455SOL     OW14263   3.217   0.005   6.783
 4455SOL    HW114264   3.276   0.042   6.711
 4455SOL    HW214265   3.268   0.000   6.869
 4456SOL     OW14266   2.249   4.937   2.541
 4456SOL    HW114267   2.280   4.962   2.449
 4456SOL    HW214268   2.268   5.013   2.603
 4457SOL     OW14269   4.112   2.411   0.411
 4457SOL    HW114270   4.168   2.456   0.341
 4457SOL    HW214271   4.125   2.312   0.405
 4458SOL     OW14272   1.632   4.094   6.719
 4458SOL    HW114273   1.688   4.160   6.668
 4458SOL    HW214274   1.538   4.127   6.723
 4459SOL     OW14275   5.480   0.025   3.479
 4459SOL    HW114276   5.575   7.013   3.479
 4459SOL    HW214277   5.455   0.054   3.572
 4460SOL     OW14278   2.512   2.683   5.691
 4460SOL    HW114279   2.497   2.728   5.602
 4460SOL    HW214280   2.582   2.734   5.742
 4461SOL     OW14281   1.032   0.285   2.345
 4461SOL    HW114282   1.088   0.270   2.426
 4461SOL    HW214283   0.989   0.199   2.318
 4462SOL     OW14284   6.919   3.642   1.025
 4462SOL    HW114285   6.889   3.577   0.955
 4462SOL    HW214286   7.019   3.651   1.022
 4463SOL     OW14287   2.646   2.953   6.904
 4463SOL    HW114288   2.709   2.909   6.968
 4463SOL    HW214289   2.564   2.898   6.894
 4464SOL     OW14290   6.090   5.302   6.894
 4464SOL    HW114291   6.076   5.376   6.829
 4464SOL    HW214292   6.026   5.311   6.971
 4465SOL     OW14293   2.446   5.963   3.482
 4465SOL    HW114294   2.378   6.032   3.505
 4465SOL    HW214295   2.418   5.874   3.519
 4466SOL     OW14296   1.408   0.546   2.699
 4466SOL    HW114297   1.380   0.534   2.604
 4466SOL    HW214298   1.340   0.504   2.760
 4467SOL     OW14299   0.969   6.206   3.559
 4467SOL    HW114300   1.035   6.282   3.558
 4467SOL    HW214301   1.014   6.122   3.531
 4468SOL     OW14302   0.839   1.904   6.945
 4468SOL    HW114303   0.781   1.847   6.887
 4468SOL    HW214304   0.828   2.000   6.919
 4469SOL     OW14305   3.272   0.260   1.281
 4469SOL    HW114306   3.334   0.315   1.336
 4469SOL    HW214307   3.272   0.166   1.315
 4470SOL     OW14308   6.041   3.578   1.302
 4470SOL    HW114309   5.942   3.582   1.287
 4470SOL    HW214310   6.061   3.607   1.395
 4471SOL     OW14311   0.462   2.602   0.476
 4471SOL    HW114312   0.537   2.629   0.417
 4471SOL    HW214313   0.441   2.505   0.461
 4472SOL     OW14314   1.757   3.323   3.867
 4472SOL    HW114315   1.846   3.280   3.886
 4472SOL    HW214316   1.754   3.350   3.771
 4473SOL     OW14317   6.718   1.641   4.206
 4473SOL    HW114318   6.667   1.703   4.266
 4473SOL    HW214319   6.796   1.689   4.167
 4474SOL     OW14320   2.950   1.380   1.891
 4474SOL    HW114321   2.975   1.423   1.804
 4474SOL    HW214322   3.020   1.314   1.917
 4475SOL     OW14323   1.867   4.166   2.479
 4475SOL    HW114324   1.886   4.262   2.458
 4475SOL    HW214325   1.833   4.158   2.572
 4476SOL     OW14326   4.949   6.171   4.219
 4476SOL    HW114327   5.005   6.094   4.187
 4476SOL    HW214328   4.938   6.238   4.145
 4477SOL     OW14329   1.758   6.889   6.438
 4477SOL    HW114330   1.706   6.866   6.355
 4477SOL    HW214331   1.835   6.947   6.414
 4478SOL     OW14332   3.079   6.190   2.582
 4478SOL    HW114333   3.022   6.130   2.526
 4478SOL    HW214334   3.021   6.259   2.625
 4479SOL     OW14335   0.793   0.660   0.528
 4479SOL    HW114336   0.713   0.638   0.472
 4479SOL    HW214337   0.786   0.611   0.615
 4480SOL     OW14338   2.154   3.885   4.733
 4480SOL    HW114339   2.135   3.813   4.800
 4480SOL    HW214340   2.244   3.924   4.751
 4481SOL     OW14341   2.801   0.142   4.891
 4481SOL    HW114342   2.729   0.074   4.907
 4481SOL    HW214343   2.890   0.100   4.906
 4482SOL     OW14344   0.790   3.874   4.305
 4482SOL    HW114345   0.761   3.799   4.246
 4482SOL    HW214346   0.711   3.911   4.354
 4483SOL     OW14347   6.007   3.343   1.131
 4483SOL    HW114348   5.972   3.275   1.195
 4483SOL    HW214349   6.029   3.427   1.180
 4484SOL     OW14350   3.171   2.112   5.226
 4484SOL    HW114351   3.189   2.037   5.163
 4484SOL    HW214352   3.121   2.184   5.179
 4485SOL     OW14353   5.339   2.524   6.052
 4485SOL    HW114354   5.336   2.622   6.031
 4485SOL    HW214355   5.329   2.471   5.968
 4486SOL     OW14356   5.770   3.453   4.409
 4486SOL    HW114357   5.679   3.479   4.376
 4486SOL    HW214358   5.766   3.363   4.452
 4487SOL     OW14359   2.414   3.235   6.750
 4487SOL    HW114360   2.385   3.238   6.654
 4487SOL    HW214361   2.349   3.181   6.803
 4488SOL     OW14362   5.779   2.830   5.583
 4488SOL    HW114363   5.704   2.836   5.650
 4488SOL    HW214364   5.741   2.808   5.493
 4489SOL     OW14365   4.972   6.296   4.467
 4489SOL    HW114366   5.066   6.327   4.484
 4489SOL    HW214367   4.966   6.254   4.377
 4490SOL     OW14368   5.542   2.276   1.967
 4490SOL    HW114369   5.477   2.289   1.892
 4490SOL    HW214370   5.586   2.187   1.957
 4491SOL     OW14371   0.606   2.753   3.665
 4491SOL    HW114372   0.706   2.750   3.661
 4491SOL    HW214373   0.569   2.729   3.575
 4492SOL     OW14374   5.290   3.907   0.893
 4492SOL    HW114375   5.386   3.933   0.889
 4492SOL    HW214376   5.254   3.926   0.985
 4493SOL     OW14377   4.524   5.421   5.666
 4493SOL    HW114378   4.429   5.396   5.682
 4493SOL    HW214379   4.556   5.378   5.582
 4494SOL     OW14380   0.216   1.783   6.265
 4494SOL    HW114381   0.262   1.853   6.319
 4494SOL    HW214382   0.139   1.825   6.215
 4495SOL     OW14383   5.142   6.584   3.630
 4495SOL    HW114384   5.112   6.520   3.559
 4495SOL    HW214385   5.157   6.674   3.589
 4496SOL     OW14386   4.985   5.739   0.644
 4496SOL    HW114387   4.934   5.800   0.705
 4496SOL    HW214388   4.998   5.651   0.689
 4497SOL     OW14389   4.640   0.185   0.034
 4497SOL    HW114390   4.686   0.159   0.119
 4497SOL    HW214391   4.560   0.126   0.021
 4498SOL     OW14392   0.483   3.133   5.970
 4498SOL    HW114393   0.428   3.066   5.920
 4498SOL    HW214394   0.431   3.167   6.048
 4499SOL     OW14395   6.878   3.723   4.175
 4499SOL    HW114396   6.899   3.694   4.268
 4499SOL    HW214397   6.944   3.794   4.147
 4500SOL     OW14398   3.213   3.428   4.008
 4500SOL    HW114399   3.228   3.418   4.107
 4500SOL    HW214400   3.277   3.369   3.959
 4501SOL     OW14401   0.200   3.283   5.899
 4501SOL    HW114402   0.235   3.272   5.992
 4501SOL    HW214403   0.254   3.351   5.851
 4502SOL     OW14404   1.862   2.617   6.448
 4502SOL    HW114405   1.854   2.655   6.356
 4502SOL    HW214406   1.896   2.687   6.510
 4503SOL     OW14407   3.027   0.409   2.596
 4503SOL    HW114408   3.045   0.499   2.636
 4503SOL    HW214409   2.968   0.419   2.517
 4504SOL     OW14410   6.274   1.671   5.197
 4504SOL    HW114411   6.257   1.737   5.271
 4504SOL    HW214412   6.222   1.698   5.116
 4505SOL     OW14413   6.646   5.585   3.816
 4505SOL    HW114414   6.590   5.600   3.735
 4505SOL    HW214415   6.666   5.673   3.860
 4506SOL     OW14416   4.929   2.681   4.657
 4506SOL    HW114417   4.837   2.681   4.617
 4506SOL    HW214418   4.931   2.745   4.734
 4507SOL     OW14419   5.003   3.762   1.509
 4507SOL    HW114420   5.013   3.715   1.597
 4507SOL    HW214421   5.036   3.856   1.518
 4508SOL     OW14422   0.605   4.914   6.378
 4508SOL    HW114423   0.615   4.817   6.355
 4508SOL    HW214424   0.696   4.955   6.385
 4509SOL     OW14425   4.962   2.498   3.654
 4509SOL    HW114426   4.936   2.536   3.743
 4509SOL    HW214427   4.907   2.541   3.583
 4510SOL     OW14428   5.686   6.473   5.466
 4510SOL    HW114429   5.677   6.374   5.477
 4510SOL    HW214430   5.640   6.502   5.382
 4511SOL     OW14431   0.072   3.240   6.520
 4511SOL    HW114432   0.124   3.323   6.498
 4511SOL    HW214433   0.130   3.177   6.572
 4512SOL     OW14434   2.183   6.532   6.145
 4512SOL    HW114435   2.085   6.518   6.157
 4512SOL    HW214436   2.231   6.445   6.158
 4513SOL     OW14437   5.163   6.467   0.461
 4513SOL    HW114438   5.130   6.382   0.503
 4513SOL    HW214439   5.134   6.545   0.516
 4514SOL     OW14440   4.418   0.567   4.680
 4514SOL    HW114441   4.387   0.591   4.772
 4514SOL    HW214442   4.458   0.476   4.681
 4515SOL     OW14443   6.684   4.260   5.879
 4515SOL    HW114444   6.751   4.186   5.871
 4515SOL    HW214445   6.615   4.250   5.807
 4516SOL     OW14446   1.475   1.237   6.042
 4516SOL    HW114447   1.499   1.198   6.131
 4516SOL    HW214448   1.419   1.319   6.056
 4517SOL     OW14449   2.314   0.359   6.721
 4517SOL    HW114450   2.230   0.350   6.774
 4517SOL    HW214451   2.308   0.440   6.662
 4518SOL     OW14452   6.743   1.440   3.402
 4518SOL    HW114453   6.768   1.536   3.386
 4518SOL    HW214454   6.665   1.416   3.344
 4519SOL     OW14455   6.058   0.493   1.808
 4519SOL    HW114456   6.118   0.417   1.788
 4519SOL    HW214457   6.063   0.561   1.734
 4520SOL     OW14458   5.521   5.500   3.133
 4520SOL    HW114459   5.431   5.464   3.106
 4520SOL    HW214460   5.509   5.577   3.196
 4521SOL     OW14461   4.997   2.251   5.086
 4521SOL    HW114462   5.077   2.196   5.062
 4521SOL    HW214463   4.915   2.211   5.045
 4522SOL     OW14464   5.195   0.247   3.675
 4522SOL    HW114465   5.202   0.223   3.578
 4522SOL    HW214466   5.265   0.197   3.726
 4523SOL     OW14467   0.950   4.635   0.221
 4523SOL    HW114468   1.020   4.600   0.158
 4523SOL    HW214469   0.970   4.731   0.242
 4524SOL     OW14470   5.240   2.489   5.416
 4524SOL    HW114471   5.244   2.550   5.495
 4524SOL    HW214472   5.304   2.520   5.346
 4525SOL     OW14473   6.300   1.604   3.265
 4525SOL    HW114474   6.208   1.605   3.304
 4525SOL    HW214475   6.294   1.602   3.165
 4526SOL     OW14476   4.963   0.683   0.596
 4526SOL    HW114477   4.941   0.587   0.616
 4526SOL    HW214478   5.023   0.687   0.516
 4527SOL     OW14479   4.052   1.227   4.079
 4527SOL    HW114480   4.100   1.216   4.166
 4527SOL    HW214481   4.099   1.296   4.024
 4528SOL     OW14482   5.013   6.468   0.220
 4528SOL    HW114483   4.996   6.373   0.191
 4528SOL    HW214484   5.083   6.468   0.292
 4529SOL     OW14485   3.589   1.408   3.717
 4529SOL    HW114486   3.657   1.403   3.790
 4529SOL    HW214487   3.597   1.327   3.659
 4530SOL     OW14488   7.016   3.578   5.602
 4530SOL    HW114489   7.013   3.482   5.576
 4530SOL    HW214490   0.070   3.624   5.552
 4531SOL     OW14491   0.147   3.315   3.399
 4531SOL    HW114492   0.216   3.263   3.348
 4531SOL    HW214493   0.172   3.318   3.496
 4532SOL     OW14494   0.358   1.345   2.252
 4532SOL    HW114495   0.339   1.373   2.158
 4532SOL    HW214496   0.304   1.263   2.274
 4533SOL     OW14497   1.316   0.144   3.186
 4533SOL    HW114498   1.225   0.184   3.180
 4533SOL    HW214499   1.326   0.072   3.118
 4534SOL     OW14500   6.070   3.318   4.079
 4534SOL    HW114501   6.040   3.235   4.032
 4534SOL    HW214502   6.161   3.344   4.047
 4535SOL     OW14503   4.289   1.969   2.802
 4535SOL    HW114504   4.308   2.053   2.853
 4535SOL    HW214505   4.350   1.897   2.833
 4536SOL     OW14506   4.307   2.376   4.436
 4536SOL    HW114507   4.235   2.339   4.495
 4536SOL    HW214508   4.284   2.359   4.341
 4537SOL     OW14509   3.715   3.471   5.979
 4537SOL    HW114510   3.810   3.446   6.000
 4537SOL    HW214511   3.662   3.474   6.064
 4538SOL     OW14512   2.598   1.551   3.902
 4538SOL    HW114513   2.569   1.646   3.916
 4538SOL    HW214514   2.672   1.529   3.964
 4539SOL     OW14515   2.463   1.388   4.198
 4539SOL    HW114516   2.377   1.359   4.240
 4539SOL    HW214517   2.456   1.379   4.099
 4540SOL     OW14518   3.122   3.048   4.181
 4540SOL    HW114519   3.044   3.094   4.139
 4540SOL    HW214520   3.172   2.995   4.112
 4541SOL     OW14521   5.512   1.372   6.701
 4541SOL    HW114522   5.599   1.324   6.689
 4541SOL    HW214523   5.460   1.368   6.616
 4542SOL     OW14524   5.773   6.807   1.798
 4542SOL    HW114525   5.674   6.794   1.801
 4542SOL    HW214526   5.794   6.904   1.813
 4543SOL     OW14527   4.384   2.141   0.205
 4543SOL    HW114528   4.463   2.096   0.247
 4543SOL    HW214529   4.392   2.136   0.106
 4544SOL     OW14530   2.916   6.302   5.575
 4544SOL    HW114531   2.892   6.384   5.628
 4544SOL    HW214532   2.901   6.220   5.630
 4545SOL     OW14533   5.163   2.467   5.048
 4545SOL    HW114534   5.227   2.467   4.970
 4545SOL    HW214535   5.093   2.397   5.033
 4546SOL     OW14536   1.153   0.462   6.371
 4546SOL    HW114537   1.057   0.481   6.350
 4546SOL    HW214538   1.177   0.505   6.458
 4547SOL     OW14539   6.604   2.439   3.068
 4547SOL    HW114540   6.505   2.429   3.074
 4547SOL    HW214541   6.627   2.493   2.987
 4548SOL     OW14542   1.198   4.752   4.856
 4548SOL    HW114543   1.138   4.671   4.857
 4548SOL    HW214544   1.280   4.732   4.802
 4549SOL     OW14545   6.213   3.396   2.615
 4549SOL    HW114546   6.222   3.421   2.518
 4549SOL    HW214547   6.300   3.359   2.648
 4550SOL     OW14548   0.713   6.310   3.048
 4550SOL    HW114549   0.656   6.387   3.019
 4550SOL    HW214550   0.694   6.289   3.144
 4551SOL     OW14551   0.210   2.103   5.289
 4551SOL    HW114552   0.137   2.152   5.240
 4551SOL    HW214553   0.254   2.038   5.227
 4552SOL     OW14554   0.083   2.443   6.272
 4552SOL    HW114555   0.112   2.353   6.241
 4552SOL    HW214556   0.003   2.434   6.331
 4553SOL     OW14557   3.519   4.367   0.475
 4553SOL    HW114558   3.528   4.463   0.501
 4553SOL    HW214559   3.610   4.326   0.467
 4554SOL     OW14560   4.036   0.876   1.511
 4554SOL    HW114561   4.055   0.972   1.532
 4554SOL    HW214562   4.102   0.818   1.559
 4555SOL     OW14563   3.326   1.999   5.834
 4555SOL    HW114564   3.407   1.989   5.892
 4555SOL    HW214565   3.249   1.950   5.875
 4556SOL     OW14566   4.638   2.301   3.403
 4556SOL    HW114567   4.619   2.375   3.339
 4556SOL    HW214568   4.669   2.339   3.491
 4557SOL     OW14569   5.134   6.519   5.403
 4557SOL    HW114570   5.072   6.597   5.395
 4557SOL    HW214571   5.223   6.543   5.364
 4558SOL     OW14572   6.478   3.995   5.950
 4558SOL    HW114573   6.452   4.084   5.986
 4558SOL    HW214574   6.454   3.990   5.853
 4559SOL     OW14575   1.309   5.480   1.292
 4559SOL    HW114576   1.283   5.424   1.213
 4559SOL    HW214577   1.374   5.430   1.348
 4560SOL     OW14578   5.639   4.352   3.568
 4560SOL    HW114579   5.737   4.370   3.556
 4560SOL    HW214580   5.596   4.432   3.611
 4561SOL     OW14581   3.232   0.952   1.268
 4561SOL    HW114582   3.277   0.896   1.337
 4561SOL    HW214583   3.299   0.989   1.204
 4562SOL     OW14584   3.124   6.020   4.975
 4562SOL    HW114585   3.204   5.960   4.982
 4562SOL    HW214586   3.054   5.977   4.918
 4563SOL     OW14587   6.543   3.901   6.863
 4563SOL    HW114588   6.451   3.940   6.865
 4563SOL    HW214589   6.609   3.968   6.897
 4564SOL     OW14590   0.746   6.091   0.862
 4564SOL    HW114591   0.828   6.136   0.827
 4564SOL    HW214592   0.692   6.157   0.916
 4565SOL     OW14593   0.169   1.476   5.619
 4565SOL    HW114594   0.087   1.526   5.591
 4565SOL    HW214595   0.147   1.378   5.628
 4566SOL     OW14596   6.892   0.820   1.134
 4566SOL    HW114597   6.970   0.878   1.109
 4566SOL    HW214598   6.829   0.872   1.191
 4567SOL     OW14599   0.627   0.815   0.020
 4567SOL    HW114600   0.694   0.746   7.014
 4567SOL    HW214601   0.674   0.899   0.047
 4568SOL     OW14602   1.659   4.458   5.410
 4568SOL    HW114603   1.584   4.423   5.354
 4568SOL    HW214604   1.634   4.547   5.447
 4569SOL     OW14605   2.255   1.422   3.383
 4569SOL    HW114606   2.221   1.392   3.294
 4569SOL    HW214607   2.345   1.382   3.400
 4570SOL     OW14608   0.248   4.999   3.044
 4570SOL    HW114609   0.172   4.974   3.103
 4570SOL    HW214610   0.218   4.994   2.948
 4571SOL     OW14611   3.710   3.325   5.216
 4571SOL    HW114612   3.615   3.349   5.197
 4571SOL    HW214613   3.724   3.321   5.315
 4572SOL     OW14614   0.839   6.219   6.208
 4572SOL    HW114615   0.766   6.278   6.173
 4572SOL    HW214616   0.919   6.274   6.230
 4573SOL     OW14617   6.120   6.134   0.393
 4573SOL    HW114618   6.201   6.076   0.382
 4573SOL    HW214619   6.049   6.084   0.442
 4574SOL     OW14620   6.929   4.211   0.971
 4574SOL    HW114621   7.013   4.221   1.024
 4574SOL    HW214622   6.917   4.292   0.913
 4575SOL     OW14623   6.522   1.979   6.819
 4575SOL    HW114624   6.594   2.031   6.774
 4575SOL    HW214625   6.471   1.927   6.750
 4576SOL     OW14626   2.725   6.360   6.529
 4576SOL    HW114627   2.783   6.441   6.541
 4576SOL    HW214628   2.711   6.343   6.432
 4577SOL     OW14629   0.213   2.915   3.302
 4577SOL    HW114630   0.233   2.906   3.400
 4577SOL    HW214631   0.204   2.825   3.261
 4578SOL     OW14632   0.594   3.772   3.613
 4578SOL    HW114633   0.616   3.691   3.558
 4578SOL    HW214634   0.585   3.746   3.709
 4579SOL     OW14635   5.196   1.328   2.902
 4579SOL    HW114636   5.267   1.351   2.836
 4579SOL    HW214637   5.232   1.342   2.995
 4580SOL     OW14638   5.726   5.590   0.190
 4580SOL    HW114639   5.803   5.599   0.254
 4580SOL    HW214640   5.714   5.677   0.141
 4581SOL     OW14641   3.258   5.359   2.939
 4581SOL    HW114642   3.230   5.437   2.882
 4581SOL    HW214643   3.279   5.281   2.881
 4582SOL     OW14644   6.249   6.746   4.816
 4582SOL    HW114645   6.209   6.825   4.863
 4582SOL    HW214646   6.205   6.662   4.847
 4583SOL     OW14647   2.646   1.135   4.841
 4583SOL    HW114648   2.679   1.208   4.900
 4583SOL    HW214649   2.613   1.059   4.898
 4584SOL     OW14650   0.470   5.637   5.480
 4584SOL    HW114651   0.529   5.577   5.536
 4584SOL    HW214652   0.410   5.581   5.423
 4585SOL     OW14653   2.974   6.673   3.161
 4585SOL    HW114654   3.024   6.611   3.222
 4585SOL    HW214655   2.963   6.762   3.206
 4586SOL     OW14656   3.652   4.941   0.791
 4586SOL    HW114657   3.606   5.019   0.833
 4586SOL    HW214658   3.745   4.968   0.765
 4587SOL     OW14659   4.451   3.249   1.691
 4587SOL    HW114660   4.458   3.149   1.694
 4587SOL    HW214661   4.354   3.275   1.692
 4588SOL     OW14662   3.682   3.993   5.265
 4588SOL    HW114663   3.690   4.002   5.364
 4588SOL    HW214664   3.712   4.078   5.221
 4589SOL     OW14665   5.976   1.359   2.140
 4589SOL    HW114666   6.071   1.379   2.115
 4589SOL    HW214667   5.936   1.296   2.074
 4590SOL     OW14668   4.323   6.402   2.365
 4590SOL    HW114669   4.236   6.441   2.333
 4590SOL    HW214670   4.307   6.312   2.405
 4591SOL     OW14671   0.797   6.098   5.090
 4591SOL    HW114672   0.859   6.118   5.013
 4591SOL    HW214673   0.850   6.087   5.174
 4592SOL     OW14674   3.843   2.737   1.690
 4592SOL    HW114675   3.855   2.661   1.627
 4592SOL    HW214676   3.924   2.796   1.689
 4593SOL     OW14677   4.430   5.608   4.003
 4593SOL    HW114678   4.496   5.556   3.949
 4593SOL    HW214679   4.374   5.664   3.942
 4594SOL     OW14680   3.365   2.239   1.235
 4594SOL    HW114681   3.359   2.163   1.170
 4594SOL    HW214682   3.423   2.212   1.312
 4595SOL     OW14683   3.630   2.942   5.561
 4595SOL    HW114684   3.584   2.955   5.473
 4595SOL    HW214685   3.680   2.856   5.560
 4596SOL     OW14686   6.349   6.547   2.469
 4596SOL    HW114687   6.315   6.500   2.387
 4596SOL    HW214688   6.408   6.623   2.442
 4597SOL     OW14689   4.451   4.516   0.126
 4597SOL    HW114690   4.518   4.563   0.069
 4597SOL    HW214691   4.485   4.511   0.220
 4598SOL     OW14692   1.716   5.402   6.890
 4598SOL    HW114693   1.813   5.417   6.871
 4598SOL    HW214694   1.668   5.381   6.805
 4599SOL     OW14695   1.740   4.338   0.895
 4599SOL    HW114696   1.716   4.422   0.943
 4599SOL    HW214697   1.802   4.358   0.819
 4600SOL     OW14698   2.277   5.937   5.844
 4600SOL    HW114699   2.190   5.956   5.799
 4600SOL    HW214700   2.328   5.869   5.790
 4601SOL     OW14701   1.817   0.774   5.395
 4601SOL    HW114702   1.843   0.687   5.355
 4601SOL    HW214703   1.769   0.829   5.326
 4602SOL     OW14704   1.196   5.677   0.620
 4602SOL    HW114705   1.119   5.652   0.679
 4602SOL    HW214706   1.219   5.600   0.560
 4603SOL     OW14707   4.031   0.030   1.397
 4603SOL    HW114708   3.983   0.045   1.483
 4603SOL    HW214709   4.099   6.977   1.408
 4604SOL     OW14710   4.912   0.799   1.274
 4604SOL    HW114711   4.965   0.873   1.231
 4604SOL    HW214712   4.818   0.829   1.287
 4605SOL     OW14713   5.042   0.916   2.897
 4605SOL    HW114714   4.997   1.005   2.884
 4605SOL    HW214715   4.975   0.850   2.931
 4606SOL     OW14716   6.911   0.287   2.232
 4606SOL    HW114717   6.884   0.343   2.311
 4606SOL    HW214718   6.831   0.240   2.195
 4607SOL     OW14719   2.717   3.074   0.768
 4607SOL    HW114720   2.742   2.997   0.709
 4607SOL    HW214721   2.674   3.040   0.851
 4608SOL     OW14722   1.647   5.603   3.931
 4608SOL    HW114723   1.692   5.608   4.021
 4608SOL    HW214724   1.570   5.539   3.936
 4609SOL     OW14725   4.152   5.682   5.942
 4609SOL    HW114726   4.106   5.617   5.882
 4609SOL    HW214727   4.090   5.756   5.967
 4610SOL     OW14728   6.708   2.257   0.399
 4610SOL    HW114729   6.722   2.237   0.302
 4610SOL    HW214730   6.611   2.245   0.422
 4611SOL     OW14731   6.033   5.338   5.928
 4611SOL    HW114732   6.069   5.426   5.895
 4611SOL    HW214733   5.998   5.349   6.021
 4612SOL     OW14734   1.296   6.176   0.479
 4612SOL    HW114735   1.357   6.126   0.541
 4612SOL    HW214736   1.342   6.258   0.446
 4613SOL     OW14737   2.600   5.206   2.511
 4613SOL    HW114738   2.537   5.139   2.474
 4613SOL    HW214739   2.579   5.296   2.474
 4614SOL     OW14740   1.229   4.457   5.505
 4614SOL    HW114741   1.204   4.512   5.584
 4614SOL    HW214742   1.233   4.516   5.424
 4615SOL     OW14743   2.152   0.826   0.378
 4615SOL    HW114744   2.232   0.833   0.319
 4615SOL    HW214745   2.161   0.745   0.436
 4616SOL     OW14746   6.426   0.107   5.904
 4616SOL    HW114747   6.354   0.117   5.973
 4616SOL    HW214748   6.513   0.138   5.942
 4617SOL     OW14749   1.365   2.602   2.843
 4617SOL    HW114750   1.428   2.667   2.800
 4617SOL    HW214751   1.339   2.533   2.775
 4618SOL     OW14752   1.939   2.277   5.507
 4618SOL    HW114753   2.025   2.326   5.495
 4618SOL    HW214754   1.933   2.242   5.600
 4619SOL     OW14755   4.042   6.189   3.277
 4619SOL    HW114756   4.068   6.272   3.326
 4619SOL    HW214757   4.112   6.168   3.208
 4620SOL     OW14758   3.341   4.006   6.818
 4620SOL    HW114759   3.324   3.937   6.747
 4620SOL    HW214760   3.253   4.039   6.853
 4621SOL     OW14761   5.506   1.667   3.570
 4621SOL    HW114762   5.502   1.585   3.513
 4621SOL    HW214763   5.474   1.746   3.516
 4622SOL     OW14764   0.342   3.017   0.833
 4622SOL    HW114765   0.439   3.009   0.854
 4622SOL    HW214766   0.293   3.055   0.912
 4623SOL     OW14767   0.514   5.458   1.126
 4623SOL    HW114768   0.544   5.446   1.220
 4623SOL    HW214769   0.442   5.528   1.122
 4624SOL     OW14770   4.872   6.845   3.132
 4624SOL    HW114771   4.827   6.766   3.091
 4624SOL    HW214772   4.831   6.929   3.097
 4625SOL     OW14773   1.841   4.610   6.777
 4625SOL    HW114774   1.885   4.696   6.803
 4625SOL    HW214775   1.911   4.540   6.762
 4626SOL     OW14776   6.016   5.238   1.354
 4626SOL    HW114777   6.005   5.139   1.367
 4626SOL    HW214778   5.943   5.286   1.402
 4627SOL     OW14779   3.524   6.027   4.228
 4627SOL    HW114780   3.615   6.030   4.270
 4627SOL    HW214781   3.516   6.101   4.162
 4628SOL     OW14782   6.006   4.185   3.516
 4628SOL    HW114783   5.932   4.185   3.584
 4628SOL    HW214784   5.986   4.253   3.446
 4629SOL     OW14785   2.200   5.158   5.963
 4629SOL    HW114786   2.105   5.134   5.986
 4629SOL    HW214787   2.251   5.074   5.944
 4630SOL     OW14788   3.858   5.664   2.984
 4630SOL    HW114789   3.895   5.599   3.050
 4630SOL    HW214790   3.913   5.748   2.985
 4631SOL     OW14791   2.766   6.451   3.492
 4631SOL    HW114792   2.852   6.500   3.506
 4631SOL    HW214793   2.759   6.376   3.557
 4632SOL     OW14794   4.754   4.307   3.116
 4632SOL    HW114795   4.795   4.216   3.116
 4632SOL    HW214796   4.715   4.327   3.026
 4633SOL     OW14797   6.017   1.748   3.557
 4633SOL    HW114798   5.926   1.778   3.586
 4633SOL    HW214799   6.066   1.710   3.636
 4634SOL     OW14800   2.256   4.506   6.472
 4634SOL    HW114801   2.322   4.457   6.529
 4634SOL    HW214802   2.183   4.444   6.446
 4635SOL     OW14803   6.136   3.224   2.268
 4635SOL    HW114804   6.044   3.217   2.305
 4635SOL    HW214805   6.135   3.206   2.169
 4636SOL     OW14806   2.121   5.268   0.121
 4636SOL    HW114807   2.025   5.260   0.092
 4636SOL    HW214808   2.130   5.344   0.186
 4637SOL     OW14809   1.893   0.937   0.425
 4637SOL    HW114810   1.983   0.895   0.412
 4637SOL    HW214811   1.884   1.015   0.363
 4638SOL     OW14812   3.392   3.183   6.041
 4638SOL    HW114813   3.365   3.095   6.079
 4638SOL    HW214814   3.362   3.257   6.101
 4639SOL     OW14815   2.050   4.775   5.253
 4639SOL    HW114816   2.139   4.732   5.266
 4639SOL    HW214817   2.019   4.761   5.159
 4640SOL     OW14818   4.960   5.121   3.419
 4640SOL    HW114819   4.890   5.056   3.390
 4640SOL    HW214820   4.982   5.183   3.344
 4641SOL     OW14821   2.618   5.783   4.055
 4641SOL    HW114822   2.694   5.749   4.109
 4641SOL    HW214823   2.637   5.877   4.026
 4642SOL     OW14824   0.994   6.681   5.475
 4642SOL    HW114825   0.898   6.657   5.487
 4642SOL    HW214826   1.014   6.764   5.526
 4643SOL     OW14827   5.494   2.431   0.851
 4643SOL    HW114828   5.460   2.377   0.928
 4643SOL    HW214829   5.570   2.489   0.882
 4644SOL     OW14830   1.215   4.959   4.560
 4644SOL    HW114831   1.233   5.054   4.584
 4644SOL    HW214832   1.118   4.947   4.538
 4645SOL     OW14833   1.499   0.399   4.309
 4645SOL    HW114834   1.527   0.406   4.404
 4645SOL    HW214835   1.575   0.366   4.254
 4646SOL     OW14836   2.714   6.560   3.076
 4646SOL    HW114837   2.799   6.595   3.114
 4646SOL    HW214838   2.713   6.460   3.081
 4647SOL     OW14839   0.950   6.486   3.152
 4647SOL    HW114840   0.939   6.522   3.059
 4647SOL    HW214841   0.866   6.439   3.179
 4648SOL     OW14842   4.115   0.289   1.363
 4648SOL    HW114843   4.065   0.202   1.362
 4648SOL    HW214844   4.108   0.333   1.274
 4649SOL     OW14845   5.121   6.685   5.791
 4649SOL    HW114846   5.205   6.662   5.840
 4649SOL    HW214847   5.062   6.604   5.785
 4650SOL     OW14848   3.868   5.734   3.654
 4650SOL    HW114849   3.934   5.708   3.583
 4650SOL    HW214850   3.918   5.768   3.734
 4651SOL     OW14851   6.782   1.775   0.827
 4651SOL    HW114852   6.861   1.803   0.772
 4651SOL    HW214853   6.789   1.814   0.918
 4652SOL     OW14854   0.664   0.111   4.027
 4652SOL    HW114855   0.647   0.200   3.986
 4652SOL    HW214856   0.586   0.085   4.084
 4653SOL     OW14857   6.575   5.481   6.790
 4653SOL    HW114858   6.538   5.483   6.882
 4653SOL    HW214859   6.626   5.395   6.777
 4654SOL     OW14860   0.587   0.103   0.177
 4654SOL    HW114861   0.550   0.019   0.217
 4654SOL    HW214862   0.654   0.079   0.107
 4655SOL     OW14863   6.558   4.825   1.995
 4655SOL    HW114864   6.558   4.886   1.915
 4655SOL    HW214865   6.518   4.873   2.073
 4656SOL     OW14866   1.175   6.720   3.456
 4656SOL    HW114867   1.232   6.789   3.501
 4656SOL    HW214868   1.079   6.742   3.470
 4657SOL     OW14869   4.834   0.128   1.612
 4657SOL    HW114870   4.745   0.110   1.572
 4657SOL    HW214871   4.877   0.205   1.566
 4658SOL     OW14872   3.557   1.129   2.369
 4658SOL    HW114873   3.533   1.180   2.451
 4658SOL    HW214874   3.641   1.167   2.329
 4659SOL     OW14875   2.750   3.857   5.896
 4659SOL    HW114876   2.693   3.936   5.917
 4659SOL    HW214877   2.739   3.788   5.967
 4660SOL     OW14878   1.158   2.612   5.049
 4660SOL    HW114879   1.160   2.537   5.116
 4660SOL    HW214880   1.178   2.698   5.096
 4661SOL     OW14881   3.796   4.487   5.546
 4661SOL    HW114882   3.878   4.488   5.604
 4661SOL    HW214883   3.792   4.401   5.496
 4662SOL     OW14884   4.678   0.838   4.976
 4662SOL    HW114885   4.760   0.864   4.924
 4662SOL    HW214886   4.661   0.741   4.964
 4663SOL     OW14887   0.383   1.605   2.408
 4663SOL    HW114888   0.317   1.672   2.376
 4663SOL    HW214889   0.354   1.513   2.379
 4664SOL     OW14890   1.947   2.377   0.272
 4664SOL    HW114891   1.954   2.278   0.276
 4664SOL    HW214892   2.018   2.413   0.211
 4665SOL     OW14893   4.406   6.922   0.538
 4665SOL    HW114894   4.335   6.861   0.573
 4665SOL    HW214895   4.412   6.913   0.439
 4666SOL     OW14896   1.764   1.596   0.208
 4666SOL    HW114897   1.767   1.623   0.304
 4666SOL    HW214898   1.851   1.552   0.184
 4667SOL     OW14899   6.527   4.296   1.015
 4667SOL    HW114900   6.578   4.335   0.938
 4667SOL    HW214901   6.581   4.304   1.099
 4668SOL     OW14902   6.817   2.843   3.641
 4668SOL    HW114903   6.802   2.821   3.737
 4668SOL    HW214904   6.748   2.798   3.585
 4669SOL     OW14905   3.413   6.615   0.726
 4669SOL    HW114906   3.432   6.549   0.653
 4669SOL    HW214907   3.321   6.652   0.715
 4670SOL     OW14908   3.363   1.209   4.800
 4670SOL    HW114909   3.311   1.266   4.864
 4670SOL    HW214910   3.393   1.266   4.723
 4671SOL     OW14911   6.441   2.603   2.274
 4671SOL    HW114912   6.529   2.647   2.259
 4671SOL    HW214913   6.441   2.513   2.231
 4672SOL     OW14914   2.361   4.705   6.078
 4672SOL    HW114915   2.339   4.746   6.167
 4672SOL    HW214916   2.329   4.765   6.005
 4673SOL     OW14917   4.973   0.166   0.891
 4673SOL    HW114918   4.928   0.080   0.914
 4673SOL    HW214919   5.054   0.148   0.835
 4674SOL     OW14920   5.068   6.183   6.535
 4674SOL    HW114921   5.156   6.147   6.508
 4674SOL    HW214922   5.027   6.124   6.605
 4675SOL     OW14923   0.596   3.392   6.767
 4675SOL    HW114924   0.535   3.433   6.699
 4675SOL    HW214925   0.573   3.426   6.858
 4676SOL     OW14926   0.132   5.981   4.026
 4676SOL    HW114927   0.063   6.038   4.071
 4676SOL    HW214928   0.188   5.935   4.095
 4677SOL     OW14929   2.016   2.001   1.334
 4677SOL    HW114930   2.091   1.940   1.309
 4677SOL    HW214931   1.967   2.028   1.251
 4678SOL     OW14932   2.412   4.483   2.860
 4678SOL    HW114933   2.341   4.553   2.849
 4678SOL    HW214934   2.409   4.420   2.783
 4679SOL     OW14935   4.445   0.302   1.739
 4679SOL    HW114936   4.357   0.287   1.693
 4679SOL    HW214937   4.492   0.214   1.751
 4680SOL     OW14938   3.462   1.085   6.650
 4680SOL    HW114939   3.368   1.062   6.626
 4680SOL    HW214940   3.464   1.132   6.739
 4681SOL     OW14941   4.877   4.910   0.377
 4681SOL    HW114942   4.914   4.901   0.470
 4681SOL    HW214943   4.814   4.835   0.359
 4682SOL     OW14944   4.648   4.333   5.785
 4682SOL    HW114945   4.572   4.364   5.842
 4682SOL    HW214946   4.615   4.265   5.720
 4683SOL     OW14947   5.822   5.702   2.321
 4683SOL    HW114948   5.886   5.626   2.307
 4683SOL    HW214949   5.760   5.681   2.396
 4684SOL     OW14950   4.409   6.761   5.372
 4684SOL    HW114951   4.408   6.696   5.447
 4684SOL    HW214952   4.498   6.809   5.370
 4685SOL     OW14953   1.961   4.638   6.358
 4685SOL    HW114954   2.017   4.558   6.338
 4685SOL    HW214955   1.961   4.699   6.279
 4686SOL     OW14956   4.310   6.065   0.265
 4686SOL    HW114957   4.325   5.975   0.225
 4686SOL    HW214958   4.354   6.135   0.208
 4687SOL     OW14959   4.772   2.941   4.183
 4687SOL    HW114960   4.780   2.841   4.175
 4687SOL    HW214961   4.741   2.964   4.275
 4688SOL     OW14962   5.657   2.775   5.353
 4688SOL    HW114963   5.701   2.831   5.283
 4688SOL    HW214964   5.617   2.694   5.310
 4689SOL     OW14965   5.874   1.115   1.197
 4689SOL    HW114966   5.954   1.084   1.248
 4689SOL    HW214967   5.902   1.184   1.130
 4690SOL     OW14968   2.157   0.577   1.044
 4690SOL    HW114969   2.066   0.544   1.017
 4690SOL    HW214970   2.225   0.508   1.023
 4691SOL     OW14971   3.560   3.879   0.316
 4691SOL    HW114972   3.529   3.973   0.304
 4691SOL    HW214973   3.526   3.843   0.403
 4692SOL     OW14974   5.963   5.079   2.878
 4692SOL    HW114975   6.053   5.122   2.867
 4692SOL    HW214976   5.927   5.101   2.968
 4693SOL     OW14977   1.266   0.641   3.818
 4693SOL    HW114978   1.204   0.569   3.850
 4693SOL    HW214979   1.359   0.605   3.811
 4694SOL     OW14980   2.423   2.041   0.415
 4694SOL    HW114981   2.359   2.017   0.342
 4694SOL    HW214982   2.373   2.057   0.500
 4695SOL     OW14983   1.405   5.463   0.889
 4695SOL    HW114984   1.374   5.548   0.931
 4695SOL    HW214985   1.426   5.396   0.960
 4696SOL     OW14986   0.487   5.773   6.147
 4696SOL    HW114987   0.533   5.810   6.228
 4696SOL    HW214988   0.398   5.818   6.136
 4697SOL     OW14989   1.042   3.759   2.367
 4697SOL    HW114990   1.135   3.745   2.400
 4697SOL    HW214991   1.039   3.743   2.268
 4698SOL     OW14992   4.409   6.315   3.247
 4698SOL    HW114993   4.424   6.235   3.304
 4698SOL    HW214994   4.412   6.398   3.303
 4699SOL     OW14995   0.511   6.470   2.938
 4699SOL    HW114996   0.421   6.496   2.972
 4699SOL    HW214997   0.525   6.510   2.847
 4700SOL     OW14998   6.217   2.206   2.127
 4700SOL    HW114999   6.128   2.223   2.170
 4700SOL    HW215000   6.286   2.267   2.166
 4701SOL     OW15001   3.266   1.878   0.498
 4701SOL    HW115002   3.299   1.920   0.583
 4701SOL    HW215003   3.297   1.932   0.420
 4702SOL     OW15004   4.468   4.967   0.602
 4702SOL    HW115005   4.446   4.923   0.689
 4702SOL    HW215006   4.562   5.001   0.605
 4703SOL     OW15007   1.344   6.606   2.962
 4703SOL    HW115008   1.289   6.524   2.978
 4703SOL    HW215009   1.394   6.630   3.045
 4704SOL     OW15010   6.703   5.991   6.647
 4704SOL    HW115011   6.758   6.074   6.640
 4704SOL    HW215012   6.726   5.943   6.732
 4705SOL     OW15013   3.506   2.252   0.754
 4705SOL    HW115014   3.484   2.298   0.668
 4705SOL    HW215015   3.501   2.153   0.740
 4706SOL     OW15016   1.683   0.791   0.333
 4706SOL    HW115017   1.700   0.747   0.245
 4706SOL    HW215018   1.771   0.815   0.375
 4707SOL     OW15019   1.102   6.586   1.840
 4707SOL    HW115020   1.009   6.611   1.867
 4707SOL    HW215021   1.149   6.666   1.803
 4708SOL     OW15022   0.988   1.992   5.654
 4708SOL    HW115023   0.961   2.087   5.667
 4708SOL    HW215024   1.083   1.980   5.684
 4709SOL     OW15025   4.780   5.372   5.056
 4709SOL    HW115026   4.737   5.463   5.061
 4709SOL    HW215027   4.879   5.381   5.057
 4710SOL     OW15028   5.827   6.787   6.230
 4710SOL    HW115029   5.730   6.807   6.214
 4710SOL    HW215030   5.864   6.853   6.296
 4711SOL     OW15031   6.559   1.590   2.352
 4711SOL    HW115032   6.612   1.506   2.345
 4711SOL    HW215033   6.522   1.614   2.262
 4712SOL     OW15034   3.287   4.837   6.503
 4712SOL    HW115035   3.333   4.913   6.549
 4712SOL    HW215036   3.195   4.866   6.476
 4713SOL     OW15037   4.342   5.564   0.820
 4713SOL    HW115038   4.302   5.640   0.768
 4713SOL    HW215039   4.438   5.582   0.837
 4714SOL     OW15040   0.343   1.167   6.080
 4714SOL    HW115041   0.281   1.098   6.043
 4714SOL    HW215042   0.293   1.226   6.143
 4715SOL     OW15043   6.223   3.303   1.559
 4715SOL    HW115044   6.316   3.319   1.524
 4715SOL    HW215045   6.214   3.345   1.650
 4716SOL     OW15046   4.481   6.615   5.599
 4716SOL    HW115047   4.551   6.548   5.572
 4716SOL    HW215048   4.438   6.586   5.684
 4717SOL     OW15049   1.006   5.607   5.295
 4717SOL    HW115050   1.052   5.657   5.222
 4717SOL    HW215051   1.044   5.635   5.384
 4718SOL     OW15052   5.180   1.988   1.152
 4718SOL    HW115053   5.200   2.032   1.064
 4718SOL    HW215054   5.114   1.914   1.138
 4719SOL     OW15055   4.903   3.939   2.507
 4719SOL    HW115056   4.875   3.933   2.603
 4719SOL    HW215057   4.853   4.014   2.463
 4720SOL     OW15058   1.919   5.189   6.012
 4720SOL    HW115059   1.926   5.217   6.108
 4720SOL    HW215060   1.871   5.259   5.960
 4721SOL     OW15061   6.354   1.901   1.603
 4721SOL    HW115062   6.395   1.976   1.653
 4721SOL    HW215063   6.300   1.844   1.666
 4722SOL     OW15064   1.051   6.235   6.555
 4722SOL    HW115065   1.087   6.142   6.564
 4722SOL    HW215066   1.111   6.299   6.603
 4723SOL     OW15067   3.087   3.558   4.906
 4723SOL    HW115068   3.034   3.635   4.941
 4723SOL    HW215069   3.082   3.482   4.972
 4724SOL     OW15070   0.216   0.120   4.246
 4724SOL    HW115071   0.168   0.163   4.323
 4724SOL    HW215072   0.152   0.060   4.197
 4725SOL     OW15073   6.513   4.993   0.345
 4725SOL    HW115074   6.456   5.023   0.268
 4725SOL    HW215075   6.455   4.982   0.426
 4726SOL     OW15076   1.360   3.333   6.205
 4726SOL    HW115077   1.384   3.366   6.113
 4726SOL    HW215078   1.320   3.408   6.257
 4727SOL     OW15079   0.213   5.972   1.149
 4727SOL    HW115080   0.133   5.945   1.095
 4727SOL    HW215081   0.239   5.897   1.210
 4728SOL     OW15082   6.581   1.131   3.094
 4728SOL    HW115083   6.494   1.116   3.048
 4728SOL    HW215084   6.611   1.225   3.080
 4729SOL     OW15085   5.006   0.819   0.212
 4729SOL    HW115086   5.014   0.736   0.267
 4729SOL    HW215087   4.924   0.813   0.155
 4730SOL     OW15088   3.393   5.823   5.565
 4730SOL    HW115089   3.376   5.918   5.588
 4730SOL    HW215090   3.491   5.810   5.545
 4731SOL     OW15091   3.187   0.854   0.901
 4731SOL    HW115092   3.149   0.905   0.979
 4731SOL    HW215093   3.136   0.876   0.818
 4732SOL     OW15094   0.504   2.982   5.132
 4732SOL    HW115095   0.436   3.045   5.096
 4732SOL    HW215096   0.588   2.989   5.079
 4733SOL     OW15097   1.386   4.257   3.427
 4733SOL    HW115098   1.349   4.189   3.365
 4733SOL    HW215099   1.317   4.328   3.443
 4734SOL     OW15100   4.592   3.548   0.580
 4734SOL    HW115101   4.615   3.454   0.601
 4734SOL    HW215102   4.492   3.557   0.570
 4735SOL     OW15103   6.439   5.635   4.200
 4735SOL    HW115104   6.387   5.642   4.115
 4735SOL    HW215105   6.423   5.717   4.255
 4736SOL     OW15106   5.636   1.779   5.308
 4736SOL    HW115107   5.734   1.781   5.330
 4736SOL    HW215108   5.617   1.702   5.247
 4737SOL     OW15109   2.583   4.325   0.263
 4737SOL    HW115110   2.521   4.390   0.219
 4737SOL    HW215111   2.538   4.236   0.271
 4738SOL     OW15112   3.067   6.233   3.245
 4738SOL    HW115113   3.126   6.168   3.294
 4738SOL    HW215114   2.974   6.228   3.282
 4739SOL     OW15115   5.400   1.432   3.241
 4739SOL    HW115116   5.300   1.434   3.237
 4739SOL    HW215117   5.438   1.488   3.167
 4740SOL     OW15118   0.673   0.296   0.723
 4740SOL    HW115119   0.612   0.375   0.733
 4740SOL    HW215120   0.740   0.314   0.651
 4741SOL     OW15121   4.499   3.335   1.442
 4741SOL    HW115122   4.412   3.384   1.447
 4741SOL    HW215123   4.526   3.304   1.533
 4742SOL     OW15124   3.287   6.673   1.719
 4742SOL    HW115125   3.221   6.603   1.749
 4742SOL    HW215126   3.370   6.666   1.774
 4743SOL     OW15127   1.619   2.426   5.692
 4743SOL    HW115128   1.651   2.481   5.615
 4743SOL    HW215129   1.523   2.404   5.680
 4744SOL     OW15130   2.632   3.572   5.857
 4744SOL    HW115131   2.717   3.548   5.906
 4744SOL    HW215132   2.561   3.505   5.881
 4745SOL     OW15133   2.307   5.470   5.384
 4745SOL    HW115134   2.391   5.426   5.415
 4745SOL    HW215135   2.326   5.520   5.299
 4746SOL     OW15136   6.271   6.293   2.566
 4746SOL    HW115137   6.284   6.389   2.543
 4746SOL    HW215138   6.255   6.240   2.483
 4747SOL     OW15139   1.670   3.868   6.414
 4747SOL    HW115140   1.587   3.904   6.458
 4747SOL    HW215141   1.737   3.845   6.484
 4748SOL     OW15142   1.710   5.597   1.156
 4748SOL    HW115143   1.679   5.506   1.130
 4748SOL    HW215144   1.771   5.591   1.234
 4749SOL     OW15145   3.191   6.369   5.764
 4749SOL    HW115146   3.290   6.362   5.748
 4749SOL    HW215147   3.158   6.285   5.808
 4750SOL     OW15148   0.451   3.079   3.988
 4750SOL    HW115149   0.493   3.080   3.897
 4750SOL    HW215150   0.495   3.010   4.045
 4751SOL     OW15151   2.201   3.226   0.096
 4751SOL    HW115152   2.287   3.274   0.078
 4751SOL    HW215153   2.128   3.293   0.110
 4752SOL     OW15154   3.042   0.106   0.241
 4752SOL    HW115155   3.109   0.031   0.248
 4752SOL    HW215156   3.013   0.134   0.333
 4753SOL     OW15157   5.112   0.083   4.336
 4753SOL    HW115158   5.089   0.155   4.270
 4753SOL    HW215159   5.186   0.027   4.300
 4754SOL     OW15160   5.977   0.260   5.804
 4754SOL    HW115161   6.019   0.170   5.819
 4754SOL    HW215162   5.976   0.280   5.706
 4755SOL     OW15163   2.727   0.630   0.572
 4755SOL    HW115164   2.705   0.661   0.479
 4755SOL    HW215165   2.752   0.708   0.629
 4756SOL     OW15166   6.017   2.688   0.637
 4756SOL    HW115167   6.053   2.699   0.544
 4756SOL    HW215168   5.922   2.659   0.632
 4757SOL     OW15169   1.407   2.158   2.180
 4757SOL    HW115170   1.340   2.226   2.211
 4757SOL    HW215171   1.467   2.134   2.256
 4758SOL     OW15172   3.107   6.318   4.919
 4758SOL    HW115173   3.160   6.380   4.977
 4758SOL    HW215174   3.131   6.223   4.942
 4759SOL     OW15175   5.745   5.251   4.977
 4759SOL    HW115176   5.785   5.234   5.067
 4759SOL    HW215177   5.803   5.208   4.907
 4760SOL     OW15178   3.418   2.051   1.035
 4760SOL    HW115179   3.518   2.043   1.024
 4760SOL    HW215180   3.384   1.971   1.084
 4761SOL     OW15181   0.603   7.002   6.575
 4761SOL    HW115182   0.623   6.908   6.546
 4761SOL    HW215183   0.519   7.003   6.629
 4762SOL     OW15184   2.340   5.167   2.980
 4762SOL    HW115185   2.440   5.173   2.985
 4762SOL    HW215186   2.301   5.195   3.068
 4763SOL     OW15187   6.039   6.334   3.618
 4763SOL    HW115188   6.110   6.284   3.568
 4763SOL    HW215189   5.981   6.384   3.554
 4764SOL     OW15190   4.565   4.088   5.614
 4764SOL    HW115191   4.640   4.127   5.559
 4764SOL    HW215192   4.482   4.143   5.600
 4765SOL     OW15193   5.011   6.903   4.500
 4765SOL    HW115194   5.041   6.988   4.456
 4765SOL    HW215195   5.087   6.838   4.503
 4766SOL     OW15196   4.429   0.003   3.932
 4766SOL    HW115197   4.457   0.008   4.028
 4766SOL    HW215198   4.461   0.085   3.884
 4767SOL     OW15199   3.961   5.610   6.316
 4767SOL    HW115200   3.880   5.557   6.289
 4767SOL    HW215201   3.933   5.702   6.342
 4768SOL     OW15202   4.490   2.104   5.033
 4768SOL    HW115203   4.523   2.107   5.127
 4768SOL    HW215204   4.566   2.120   4.970
 4769SOL     OW15205   4.487   5.245   0.994
 4769SOL    HW115206   4.409   5.205   0.946
 4769SOL    HW215207   4.463   5.259   1.090
 4770SOL     OW15208   1.345   6.864   3.750
 4770SOL    HW115209   1.264   6.891   3.698
 4770SOL    HW215210   1.337   6.768   3.777
 4771SOL     OW15211   3.584   5.147   5.506
 4771SOL    HW115212   3.573   5.159   5.604
 4771SOL    HW215213   3.525   5.073   5.475
 4772SOL     OW15214   2.397   5.668   1.883
 4772SOL    HW115215   2.396   5.719   1.797
 4772SOL    HW215216   2.305   5.633   1.902
 4773SOL     OW15217   6.502   5.258   4.885
 4773SOL    HW115218   6.511   5.158   4.892
 4773SOL    HW215219   6.539   5.289   4.798
 4774SOL     OW15220   1.183   2.574   1.535
 4774SOL    HW115221   1.261   2.615   1.487
 4774SOL    HW215222   1.205   2.566   1.632
 4775SOL     OW15223   4.931   6.875   2.825
 4775SOL    HW115224   4.932   6.953   2.888
 4775SOL    HW215225   5.024   6.839   2.816
 4776SOL     OW15226   1.491   6.630   4.569
 4776SOL    HW115227   1.574   6.648   4.622
 4776SOL    HW215228   1.504   6.662   4.475
 4777SOL     OW15229   3.026   4.708   1.304
 4777SOL    HW115230   2.949   4.654   1.270
 4777SOL    HW215231   3.098   4.710   1.234
 4778SOL     OW15232   5.585   2.269   2.372
 4778SOL    HW115233   5.534   2.325   2.306
 4778SOL    HW215234   5.521   2.213   2.424
 4779SOL     OW15235   6.453   6.153   2.233
 4779SOL    HW115236   6.516   6.094   2.183
 4779SOL    HW215237   6.493   6.243   2.244
 4780SOL     OW15238   0.298   0.225   0.196
 4780SOL    HW115239   0.390   0.185   0.188
 4780SOL    HW215240   0.245   0.172   0.263
 4781SOL     OW15241   3.189   6.323   1.379
 4781SOL    HW115242   3.176   6.224   1.379
 4781SOL    HW215243   3.153   6.362   1.463
 4782SOL     OW15244   4.797   6.272   0.543
 4782SOL    HW115245   4.894   6.267   0.521
 4782SOL    HW215246   4.743   6.239   0.466
 4783SOL     OW15247   4.312   4.337   6.998
 4783SOL    HW115248   4.303   4.378   6.907
 4783SOL    HW215249   4.363   4.399   0.038
 4784SOL     OW15250   6.484   3.914   6.450
 4784SOL    HW115251   6.388   3.927   6.474
 4784SOL    HW215252   6.496   3.825   6.406
 4785SOL     OW15253   6.463   5.336   1.412
 4785SOL    HW115254   6.411   5.396   1.351
 4785SOL    HW215255   6.476   5.247   1.367
 4786SOL     OW15256   2.565   2.185   1.779
 4786SOL    HW115257   2.575   2.089   1.806
 4786SOL    HW215258   2.653   2.219   1.747
 4787SOL     OW15259   3.069   2.097   3.532
 4787SOL    HW115260   3.112   2.006   3.534
 4787SOL    HW215261   3.055   2.130   3.625
 4788SOL     OW15262   1.090   5.189   6.111
 4788SOL    HW115263   1.073   5.264   6.174
 4788SOL    HW215264   1.023   5.116   6.126
 4789SOL     OW15265   5.540   0.757   0.118
 4789SOL    HW115266   5.612   0.766   0.050
 4789SOL    HW215267   5.567   0.689   0.187
 4790SOL     OW15268   0.437   2.712   6.170
 4790SOL    HW115269   0.391   2.665   6.245
 4790SOL    HW215270   0.401   2.805   6.162
 4791SOL     OW15271   6.136   2.262   1.564
 4791SOL    HW115272   6.108   2.353   1.533
 4791SOL    HW215273   6.231   2.265   1.596
 4792SOL     OW15274   1.824   3.698   2.697
 4792SOL    HW115275   1.859   3.651   2.778
 4792SOL    HW215276   1.816   3.633   2.622
 4793SOL     OW15277   1.368   2.555   5.983
 4793SOL    HW115278   1.467   2.565   5.970
 4793SOL    HW215279   1.352   2.482   6.050
 4794SOL     OW15280   4.916   1.013   3.339
 4794SOL    HW115281   4.913   1.110   3.362
 4794SOL    HW215282   5.007   0.977   3.361
 4795SOL     OW15283   6.413   1.508   2.824
 4795SOL    HW115284   6.427   1.461   2.737
 4795SOL    HW215285   6.386   1.603   2.807
 4796SOL     OW15286   5.032   2.470   6.361
 4796SOL    HW115287   5.034   2.387   6.305
 4796SOL    HW215288   5.002   2.547   6.305
 4797SOL     OW15289   1.625   6.170   5.445
 4797SOL    HW115290   1.699   6.106   5.422
 4797SOL    HW215291   1.570   6.188   5.363
 4798SOL     OW15292   0.198   2.645   5.188
 4798SOL    HW115293   0.298   2.652   5.188
 4798SOL    HW215294   0.160   2.723   5.136
 4799SOL     OW15295   4.765   2.363   6.763
 4799SOL    HW115296   4.677   2.345   6.718
 4799SOL    HW215297   4.823   2.416   6.702
 4800SOL     OW15298   2.657   3.485   5.592
 4800SOL    HW115299   2.631   3.519   5.682
 4800SOL    HW215300   2.755   3.464   5.591
 4801SOL     OW15301   2.796   2.435   0.833
 4801SOL    HW115302   2.829   2.410   0.924
 4801SOL    HW215303   2.872   2.469   0.778
 4802SOL     OW15304   0.893   6.480   2.190
 4802SOL    HW115305   0.880   6.406   2.124
 4802SOL    HW215306   0.991   6.491   2.209
 4803SOL     OW15307   1.458   6.302   0.737
 4803SOL    HW115308   1.531   6.370   0.734
 4803SOL    HW215309   1.496   6.212   0.714
 4804SOL     OW15310   5.070   5.381   6.491
 4804SOL    HW115311   5.002   5.395   6.418
 4804SOL    HW215312   5.135   5.457   6.492
 4805SOL     OW15313   6.157   0.002   1.117
 4805SOL    HW115314   6.061   0.002   1.142
 4805SOL    HW215315   6.193   0.095   1.123
 4806SOL     OW15316   0.639   4.567   2.686
 4806SOL    HW115317   0.558   4.526   2.728
 4806SOL    HW215318   0.704   4.494   2.661
 4807SOL     OW15319   1.336   4.729   0.621
 4807SOL    HW115320   1.265   4.768   0.680
 4807SOL    HW215321   1.414   4.699   0.677
 4808SOL     OW15322   6.294   3.776   6.768
 4808SOL    HW115323   6.367   3.711   6.749
 4808SOL    HW215324   6.268   3.770   6.864
 4809SOL     OW15325   3.538   3.973   6.559
 4809SOL    HW115326   3.623   3.923   6.578
 4809SOL    HW215327   3.470   3.952   6.630
 4810SOL     OW15328   1.099   5.194   2.167
 4810SOL    HW115329   1.066   5.149   2.084
 4810SOL    HW215330   1.179   5.250   2.146
 4811SOL     OW15331   1.913   4.888   2.143
 4811SOL    HW115332   1.969   4.811   2.113
 4811SOL    HW215333   1.844   4.856   2.208
 4812SOL     OW15334   0.253   5.189   5.335
 4812SOL    HW115335   0.188   5.201   5.260
 4812SOL    HW215336   0.314   5.113   5.315
 4813SOL     OW15337   5.188   2.086   0.902
 4813SOL    HW115338   5.100   2.132   0.889
 4813SOL    HW215339   5.206   2.026   0.824
 4814SOL     OW15340   5.467   4.231   0.571
 4814SOL    HW115341   5.478   4.301   0.500
 4814SOL    HW215342   5.397   4.261   0.636
 4815SOL     OW15343   5.592   4.368   2.943
 4815SOL    HW115344   5.651   4.437   2.900
 4815SOL    HW215345   5.645   4.314   3.008
 4816SOL     OW15346   0.296   5.283   2.424
 4816SOL    HW115347   0.264   5.189   2.424
 4816SOL    HW215348   0.266   5.329   2.508
 4817SOL     OW15349   1.274   2.073   6.518
 4817SOL    HW115350   1.319   2.158   6.545
 4817SOL    HW215351   1.340   1.998   6.524
 4818SOL     OW15352   0.899   0.576   5.070
 4818SOL    HW115353   0.860   0.522   4.995
 4818SOL    HW215354   0.828   0.594   5.139
 4819SOL     OW15355   1.067   2.494   0.001
 4819SOL    HW115356   1.106   2.574   6.975
 4819SOL    HW215357   1.112   2.411   6.987
 4820SOL     OW15358   6.960   2.574   1.063
 4820SOL    HW115359   6.981   2.626   1.145
 4820SOL    HW215360   6.976   2.476   1.079
 4821SOL     OW15361   1.226   6.064   2.245
 4821SOL    HW115362   1.148   6.062   2.308
 4821SOL    HW215363   1.311   6.067   2.297
 4822SOL     OW15364   1.292   3.304   4.790
 4822SOL    HW115365   1.375   3.345   4.829
 4822SOL    HW215366   1.315   3.214   4.751
 4823SOL     OW15367   1.593   1.409   4.201
 4823SOL    HW115368   1.525   1.385   4.131
 4823SOL    HW215369   1.595   1.508   4.213
 4824SOL     OW15370   4.755   2.229   5.389
 4824SOL    HW115371   4.842   2.268   5.418
 4824SOL    HW215372   4.772   2.147   5.333
 4825SOL     OW15373   1.202   2.523   4.534
 4825SOL    HW115374   1.245   2.612   4.516
 4825SOL    HW215375   1.222   2.461   4.458
 4826SOL     OW15376   5.492   0.524   0.559
 4826SOL    HW115377   5.463   0.619   0.564
 4826SOL    HW215378   5.412   0.464   0.562
 4827SOL     OW15379   6.467   1.982   0.589
 4827SOL    HW115380   6.489   1.946   0.680
 4827SOL    HW215381   6.404   2.059   0.599
 4828SOL     OW15382   4.873   1.470   1.064
 4828SOL    HW115383   4.970   1.491   1.052
 4828SOL    HW215384   4.841   1.508   1.151
 4829SOL     OW15385   3.522   0.641   6.147
 4829SOL    HW115386   3.469   0.588   6.214
 4829SOL    HW215387   3.460   0.701   6.096
 4830SOL     OW15388   3.473   5.677   3.983
 4830SOL    HW115389   3.423   5.758   4.014
 4830SOL    HW215390   3.519   5.697   3.897
 4831SOL     OW15391   1.585   4.843   5.404
 4831SOL    HW115392   1.684   4.837   5.421
 4831SOL    HW215393   1.569   4.865   5.308
 4832SOL     OW15394   3.256   4.044   3.607
 4832SOL    HW115395   3.316   4.118   3.576
 4832SOL    HW215396   3.192   4.021   3.533
 4833SOL     OW15397   6.205   1.773   2.789
 4833SOL    HW115398   6.124   1.832   2.787
 4833SOL    HW215399   6.234   1.753   2.696
 4834SOL     OW15400   2.561   5.472   2.460
 4834SOL    HW115401   2.628   5.545   2.477
 4834SOL    HW215402   2.469   5.510   2.469
 4835SOL     OW15403   5.903   3.137   5.962
 4835SOL    HW115404   5.829   3.177   6.015
 4835SOL    HW215405   5.918   3.192   5.880
 4836SOL     OW15406   5.024   1.990   4.622
 4836SOL    HW115407   5.075   1.978   4.537
 4836SOL    HW215408   5.011   1.902   4.666
 4837SOL     OW15409   6.927   3.297   2.631
 4837SOL    HW115410   7.007   3.351   2.605
 4837SOL    HW215411   6.895   3.327   2.721
 4838SOL     OW15412   2.331   5.956   0.257
 4838SOL    HW115413   2.387   5.911   0.188
 4838SOL    HW215414   2.305   6.047   0.225
 4839SOL     OW15415   1.148   3.121   0.212
 4839SOL    HW115416   1.239   3.124   0.171
 4839SOL    HW215417   1.141   3.191   0.282
 4840SOL     OW15418   6.306   4.593   5.954
 4840SOL    HW115419   6.291   4.498   5.925
 4840SOL    HW215420   6.235   4.651   5.913
 4841SOL     OW15421   2.434   4.842   3.126
 4841SOL    HW115422   2.354   4.847   3.186
 4841SOL    HW215423   2.404   4.849   3.031
 4842SOL     OW15424   2.558   5.035   3.496
 4842SOL    HW115425   2.569   4.936   3.491
 4842SOL    HW215426   2.569   5.074   3.405
 4843SOL     OW15427   6.732   2.648   1.500
 4843SOL    HW115428   6.772   2.561   1.469
 4843SOL    HW215429   6.722   2.710   1.423
 4844SOL     OW15430   0.113   4.045   5.466
 4844SOL    HW115431   0.115   4.138   5.501
 4844SOL    HW215432   0.028   4.000   5.496
 4845SOL     OW15433   4.589   5.054   6.201
 4845SOL    HW115434   4.500   5.021   6.232
 4845SOL    HW215435   4.590   5.154   6.202
 4846SOL     OW15436   0.272   1.698   3.803
 4846SOL    HW115437   0.306   1.766   3.738
 4846SOL    HW215438   0.193   1.734   3.852
 4847SOL     OW15439   2.521   1.660   5.563
 4847SOL    HW115440   2.457   1.733   5.541
 4847SOL    HW215441   2.586   1.648   5.487
 4848SOL     OW15442   2.387   1.333   4.857
 4848SOL    HW115443   2.480   1.310   4.884
 4848SOL    HW215444   2.389   1.397   4.780
 4849SOL     OW15445   1.885   5.899   0.802
 4849SOL    HW115446   1.858   5.855   0.887
 4849SOL    HW215447   1.838   5.986   0.793
 4850SOL     OW15448   5.173   0.990   1.212
 4850SOL    HW115449   5.181   0.924   1.287
 4850SOL    HW215450   5.235   0.964   1.138
 4851SOL     OW15451   3.509   5.440   5.815
 4851SOL    HW115452   3.570   5.499   5.763
 4851SOL    HW215453   3.421   5.434   5.768
 4852SOL     OW15454   2.660   5.683   5.079
 4852SOL    HW115455   2.609   5.701   5.163
 4852SOL    HW215456   2.741   5.627   5.101
 4853SOL     OW15457   3.738   1.740   3.481
 4853SOL    HW115458   3.710   1.733   3.576
 4853SOL    HW215459   3.834   1.768   3.477
 4854SOL     OW15460   4.890   6.937   1.800
 4854SOL    HW115461   4.877   0.003   1.752
 4854SOL    HW215462   4.955   6.950   1.875
 4855SOL     OW15463   6.190   3.867   5.181
 4855SOL    HW115464   6.108   3.871   5.124
 4855SOL    HW215465   6.262   3.818   5.132
 4856SOL     OW15466   1.044   3.027   2.931
 4856SOL    HW115467   1.010   2.941   2.968
 4856SOL    HW215468   1.126   3.010   2.877
 4857SOL     OW15469   3.195   1.735   3.205
 4857SOL    HW115470   3.176   1.644   3.167
 4857SOL    HW215471   3.125   1.800   3.174
 4858SOL     OW15472   0.134   6.554   4.557
 4858SOL    HW115473   0.127   6.482   4.626
 4858SOL    HW215474   0.043   6.570   4.517
 4859SOL     OW15475   0.598   5.417   1.860
 4859SOL    HW115476   0.656   5.456   1.932
 4859SOL    HW215477   0.650   5.347   1.811
 4860SOL     OW15478   4.144   4.846   0.100
 4860SOL    HW115479   4.048   4.818   0.100
 4860SOL    HW215480   4.158   4.920   0.165
 4861SOL     OW15481   5.675   5.731   6.543
 4861SOL    HW115482   5.611   5.688   6.607
 4861SOL    HW215483   5.717   5.660   6.486
 4862SOL     OW15484   2.442   4.426   4.743
 4862SOL    HW115485   2.511   4.376   4.796
 4862SOL    HW215486   2.452   4.524   4.760
 4863SOL     OW15487   4.914   3.224   2.763
 4863SOL    HW115488   4.900   3.297   2.696
 4863SOL    HW215489   4.904   3.135   2.718
 4864SOL     OW15490   3.742   1.623   1.666
 4864SOL    HW115491   3.789   1.711   1.659
 4864SOL    HW215492   3.693   1.605   1.581
 4865SOL     OW15493   2.554   6.037   5.022
 4865SOL    HW115494   2.541   5.959   4.961
 4865SOL    HW215495   2.608   6.009   5.102
 4866SOL     OW15496   5.514   4.680   0.991
 4866SOL    HW115497   5.501   4.690   0.892
 4866SOL    HW215498   5.527   4.771   1.031
 4867SOL     OW15499   4.444   5.525   3.569
 4867SOL    HW115500   4.452   5.555   3.474
 4867SOL    HW215501   4.393   5.593   3.621
 4868SOL     OW15502   0.266   5.746   1.735
 4868SOL    HW115503   0.299   5.675   1.798
 4868SOL    HW215504   0.334   5.818   1.727
 4869SOL     OW15505   0.118   2.632   0.874
 4869SOL    HW115506   0.213   2.634   0.903
 4869SOL    HW215507   0.061   2.591   0.946
 4870SOL     OW15508   5.029   5.282   1.784
 4870SOL    HW115509   5.083   5.276   1.701
 4870SOL    HW215510   4.950   5.221   1.777
 4871SOL     OW15511   0.512   0.602   4.644
 4871SOL    HW115512   0.418   0.616   4.615
 4871SOL    HW215513   0.562   0.553   4.572
 4872SOL     OW15514   0.794   6.434   4.186
 4872SOL    HW115515   0.849   6.502   4.137
 4872SOL    HW215516   0.855   6.373   4.238
 4873SOL     OW15517   0.244   4.745   3.747
 4873SOL    HW115518   0.234   4.839   3.782
 4873SOL    HW215519   0.339   4.716   3.760
 4874SOL     OW15520   5.885   3.638   2.330
 4874SOL    HW115521   5.926   3.647   2.420
 4874SOL    HW215522   5.958   3.633   2.261
 4875SOL     OW15523   5.533   3.058   0.809
 4875SOL    HW115524   5.492   3.149   0.808
 4875SOL    HW215525   5.480   2.998   0.748
 4876SOL     OW15526   6.088   0.522   4.995
 4876SOL    HW115527   6.018   0.582   4.956
 4876SOL    HW215528   6.044   0.442   5.034
 4877SOL     OW15529   6.713   1.512   0.728
 4877SOL    HW115530   6.747   1.605   0.743
 4877SOL    HW215531   6.776   1.462   0.669
 4878SOL     OW15532   6.948   1.955   2.378
 4878SOL    HW115533   6.864   1.903   2.393
 4878SOL    HW215534   6.990   1.977   2.467
 4879SOL     OW15535   4.337   4.920   3.241
 4879SOL    HW115536   4.270   4.864   3.290
 4879SOL    HW215537   4.304   5.014   3.236
 4880SOL     OW15538   5.120   2.863   6.550
 4880SOL    HW115539   5.021   2.853   6.542
 4880SOL    HW215540   5.159   2.779   6.587
 4881SOL     OW15541   2.100   5.662   6.933
 4881SOL    HW115542   2.167   5.712   6.877
 4881SOL    HW215543   2.111   5.688   0.009
 4882SOL     OW15544   6.119   1.149   5.246
 4882SOL    HW115545   6.171   1.230   5.272
 4882SOL    HW215546   6.022   1.173   5.236
 4883SOL     OW15547   4.931   4.707   2.432
 4883SOL    HW115548   5.024   4.674   2.413
 4883SOL    HW215549   4.879   4.634   2.476
 4884SOL     OW15550   4.429   0.154   0.708
 4884SOL    HW115551   4.450   0.079   0.644
 4884SOL    HW215552   4.337   0.141   0.746
 4885SOL     OW15553   2.941   6.379   2.766
 4885SOL    HW115554   2.924   6.337   2.854
 4885SOL    HW215555   3.024   6.435   2.770
 4886SOL     OW15556   0.449   6.518   6.099
 4886SOL    HW115557   0.394   6.494   6.019
 4886SOL    HW215558   0.404   6.592   6.149
 4887SOL     OW15559   0.121   1.453   2.899
 4887SOL    HW115560   0.126   1.374   2.839
 4887SOL    HW215561   0.212   1.472   2.938
 4888SOL     OW15562   1.804   6.427   3.864
 4888SOL    HW115563   1.855   6.500   3.818
 4888SOL    HW215564   1.862   6.346   3.871
 4889SOL     OW15565   0.474   1.710   0.092
 4889SOL    HW115566   0.407   1.725   0.166
 4889SOL    HW215567   0.565   1.702   0.132
 4890SOL     OW15568   0.359   1.940   4.632
 4890SOL    HW115569   0.262   1.929   4.655
 4890SOL    HW215570   0.371   1.929   4.534
 4891SOL     OW15571   1.088   5.818   7.014
 4891SOL    HW115572   1.160   5.776   0.050
 4891SOL    HW215573   1.049   5.896   0.043
 4892SOL     OW15574   2.418   5.938   2.357
 4892SOL    HW115575   2.425   5.874   2.434
 4892SOL    HW215576   2.405   6.031   2.393
 4893SOL     OW15577   6.739   4.350   6.481
 4893SOL    HW115578   6.835   4.347   6.511
 4893SOL    HW215579   6.691   4.421   6.532
 4894SOL     OW15580   2.609   0.125   2.260
 4894SOL    HW115581   2.579   0.070   2.338
 4894SOL    HW215582   2.591   0.221   2.277
 4895SOL     OW15583   0.683   4.423   1.328
 4895SOL    HW115584   0.768   4.470   1.352
 4895SOL    HW215585   0.694   4.377   1.240
 4896SOL     OW15586   2.973   5.162   2.834
 4896SOL    HW115587   2.928   5.112   2.760
 4896SOL    HW215588   2.917   5.157   2.917
 4897SOL     OW15589   2.778   4.942   5.778
 4897SOL    HW115590   2.746   4.980   5.865
 4897SOL    HW215591   2.865   4.895   5.792
 4898SOL     OW15592   5.916   1.666   5.087
 4898SOL    HW115593   6.009   1.673   5.051
 4898SOL    HW215594   5.851   1.695   5.016
 4899SOL     OW15595   6.547   4.537   2.510
 4899SOL    HW115596   6.472   4.492   2.558
 4899SOL    HW215597   6.635   4.502   2.544
 4900SOL     OW15598   1.788   6.210   5.847
 4900SOL    HW115599   1.753   6.277   5.782
 4900SOL    HW215600   1.879   6.236   5.877
 4901SOL     OW15601   2.489   6.580   5.324
 4901SOL    HW115602   2.441   6.655   5.279
 4901SOL    HW215603   2.493   6.501   5.262
 4902SOL     OW15604   2.256   2.682   4.186
 4902SOL    HW115605   2.177   2.713   4.132
 4902SOL    HW215606   2.274   2.747   4.259
 4903SOL     OW15607   3.448   6.277   6.791
 4903SOL    HW115608   3.465   6.213   6.716
 4903SOL    HW215609   3.491   6.365   6.769
 4904SOL     OW15610   1.947   6.825   4.245
 4904SOL    HW115611   1.982   6.905   4.195
 4904SOL    HW215612   2.010   6.749   4.234
 4905SOL     OW15613   4.483   2.316   2.437
 4905SOL    HW115614   4.461   2.412   2.454
 4905SOL    HW215615   4.416   2.277   2.373
 4906SOL     OW15616   3.663   0.761   6.899
 4906SOL    HW115617   3.586   0.790   6.843
 4906SOL    HW215618   3.748   0.793   6.858
 4907SOL     OW15619   4.256   6.374   2.698
 4907SOL    HW115620   4.242   6.291   2.753
 4907SOL    HW215621   4.167   6.408   2.666
 4908SOL     OW15622   3.968   5.454   7.001
 4908SOL    HW115623   3.969   5.354   6.993
 4908SOL    HW215624   3.925   5.480   0.068
 4909SOL     OW15625   6.098   0.197   6.720
 4909SOL    HW115626   6.103   0.108   6.766
 4909SOL    HW215627   6.105   0.183   6.621
 4910SOL     OW15628   5.602   7.014   5.303
 4910SOL    HW115629   5.617   6.987   5.208
 4910SOL    HW215630   5.558   0.084   5.305
 4911SOL     OW15631   0.001   2.506   5.553
 4911SOL    HW115632   0.091   2.463   5.564
 4911SOL    HW215633   6.974   2.508   5.641
 4912SOL     OW15634   5.324   1.711   1.467
 4912SOL    HW115635   5.347   1.766   1.387
 4912SOL    HW215636   5.331   1.614   1.443
 4913SOL     OW15637   3.786   3.389   3.868
 4913SOL    HW115638   3.880   3.365   3.846
 4913SOL    HW215639   3.784   3.446   3.951
 4914SOL     OW15640   3.415   0.810   4.933
 4914SOL    HW115641   3.387   0.715   4.939
 4914SOL    HW215642   3.389   0.848   4.845
 4915SOL     OW15643   4.459   0.293   4.654
 4915SOL    HW115644   4.555   0.272   4.631
 4915SOL    HW215645   4.437   0.252   4.743
 4916SOL     OW15646   1.983   1.515   3.294
 4916SOL    HW115647   1.969   1.440   3.229
 4916SOL    HW215648   2.072   1.503   3.339
 4917SOL     OW15649   1.696   3.864   0.234
 4917SOL    HW115650   1.679   3.960   0.209
 4917SOL    HW215651   1.622   3.807   0.200
 4918SOL     OW15652   2.914   0.231   2.769
 4918SOL    HW115653   2.980   0.279   2.712
 4918SOL    HW215654   2.940   0.134   2.775
 4919SOL     OW15655   2.192   2.235   2.502
 4919SOL    HW115656   2.177   2.136   2.491
 4919SOL    HW215657   2.257   2.251   2.577
 4920SOL     OW15658   4.275   0.160   0.180
 4920SOL    HW115659   4.213   0.203   0.114
 4920SOL    HW215660   4.224   0.138   0.263
 4921SOL     OW15661   2.313   4.505   1.195
 4921SOL    HW115662   2.334   4.530   1.101
 4921SOL    HW215663   2.254   4.424   1.196
 4922SOL     OW15664   1.140   3.374   5.326
 4922SOL    HW115665   1.136   3.459   5.273
 4922SOL    HW215666   1.185   3.303   5.273
 4923SOL     OW15667   4.769   0.989   0.958
 4923SOL    HW115668   4.839   1.057   0.977
 4923SOL    HW215669   4.729   0.957   1.044
 4924SOL     OW15670   2.136   3.288   5.255
 4924SOL    HW115671   2.213   3.264   5.314
 4924SOL    HW215672   2.078   3.207   5.242
 4925SOL     OW15673   6.283   6.504   0.442
 4925SOL    HW115674   6.213   6.571   0.466
 4925SOL    HW215675   6.306   6.450   0.524
 4926SOL     OW15676   5.274   2.738   1.360
 4926SOL    HW115677   5.268   2.673   1.436
 4926SOL    HW215678   5.250   2.829   1.392
 4927SOL     OW15679   4.154   3.446   3.415
 4927SOL    HW115680   4.062   3.469   3.446
 4927SOL    HW215681   4.203   3.400   3.489
 4928SOL     OW15682   0.344   6.935   6.689
 4928SOL    HW115683   0.299   6.969   6.606
 4928SOL    HW215684   0.313   6.842   6.708
 4929SOL     OW15685   1.008   4.269   5.136
 4929SOL    HW115686   1.037   4.325   5.214
 4929SOL    HW215687   0.917   4.297   5.107
 4930SOL     OW15688   6.755   0.265   1.034
 4930SOL    HW115689   6.727   0.358   1.008
 4930SOL    HW215690   6.851   0.251   1.009
 4931SOL     OW15691   0.720   6.657   0.321
 4931SOL    HW115692   0.724   6.557   0.323
 4931SOL    HW215693   0.641   6.686   0.268
 4932SOL     OW15694   2.166   3.338   1.686
 4932SOL    HW115695   2.263   3.358   1.695
 4932SOL    HW215696   2.127   3.322   1.777
 4933SOL     OW15697   1.982   0.361   4.311
 4933SOL    HW115698   2.077   0.330   4.303
 4933SOL    HW215699   1.923   0.283   4.333
 4934SOL     OW15700   1.141   5.135   3.975
 4934SOL    HW115701   1.068   5.173   4.032
 4934SOL    HW215702   1.149   5.189   3.891
 4935SOL     OW15703   1.950   1.032   0.100
 4935SOL    HW115704   1.869   1.034   0.042
 4935SOL    HW215705   1.940   1.098   0.174
 4936SOL     OW15706   1.832   5.949   2.508
 4936SOL    HW115707   1.741   5.928   2.544
 4936SOL    HW215708   1.900   5.891   2.554
 4937SOL     OW15709   0.500   3.769   5.760
 4937SOL    HW115710   0.404   3.788   5.745
 4937SOL    HW215711   0.556   3.838   5.715
 4938SOL     OW15712   3.627   5.172   2.003
 4938SOL    HW115713   3.596   5.256   2.048
 4938SOL    HW215714   3.567   5.096   2.030
 4939SOL     OW15715   0.920   2.033   2.770
 4939SOL    HW115716   0.980   2.076   2.702
 4939SOL    HW215717   0.827   2.029   2.734
 4940SOL     OW15718   6.527   1.790   5.184
 4940SOL    HW115719   6.536   1.802   5.283
 4940SOL    HW215720   6.435   1.758   5.162
 4941SOL     OW15721   3.853   2.784   5.347
 4941SOL    HW115722   3.914   2.861   5.329
 4941SOL    HW215723   3.883   2.705   5.293
 4942SOL     OW15724   5.230   3.645   4.046
 4942SOL    HW115725   5.241   3.574   3.976
 4942SOL    HW215726   5.320   3.670   4.083
 4943SOL     OW15727   5.510   3.736   6.548
 4943SOL    HW115728   5.592   3.731   6.491
 4943SOL    HW215729   5.482   3.831   6.556
 4944SOL     OW15730   2.431   3.993   1.259
 4944SOL    HW115731   2.431   3.987   1.359
 4944SOL    HW215732   2.457   3.905   1.220
 4945SOL     OW15733   1.397   0.645   4.462
 4945SOL    HW115734   1.356   0.583   4.529
 4945SOL    HW215735   1.353   0.630   4.373
 4946SOL     OW15736   1.061   5.329   0.417
 4946SOL    HW115737   0.999   5.361   0.489
 4946SOL    HW215738   1.135   5.395   0.405
 4947SOL     OW15739   2.491   1.124   1.815
 4947SOL    HW115740   2.530   1.067   1.887
 4947SOL    HW215741   2.547   1.206   1.803
 4948SOL     OW15742   1.829   2.757   3.080
 4948SOL    HW115743   1.772   2.793   3.154
 4948SOL    HW215744   1.853   2.662   3.101
 4949SOL     OW15745   7.020   3.567   5.186
 4949SOL    HW115746   6.980   3.616   5.108
 4949SOL    HW215747   6.979   3.603   5.271
 4950SOL     OW15748   1.929   4.436   5.390
 4950SOL    HW115749   1.831   4.456   5.396
 4950SOL    HW215750   1.949   4.353   5.442
 4951SOL     OW15751   6.189   6.763   4.545
 4951SOL    HW115752   6.209   6.743   4.641
 4951SOL    HW215753   6.247   6.706   4.486
 4952SOL     OW15754   0.750   6.828   6.278
 4952SOL    HW115755   0.739   6.921   6.241
 4952SOL    HW215756   0.806   6.832   6.361
 4953SOL     OW15757   1.905   0.221   3.824
 4953SOL    HW115758   1.924   0.311   3.862
 4953SOL    HW215759   1.815   0.190   3.855
 4954SOL     OW15760   2.823   3.738   6.672
 4954SOL    HW115761   2.781   3.828   6.656
 4954SOL    HW215762   2.752   3.672   6.696
 4955SOL     OW15763   3.074   6.067   6.981
 4955SOL    HW115764   3.032   6.137   0.019
 4955SOL    HW215765   3.120   6.000   0.019
 4956SOL     OW15766   2.457   7.011   5.364
 4956SOL    HW115767   2.546   0.020   5.329
 4956SOL    HW215768   2.406   0.071   5.397
 4957SOL     OW15769   5.766   3.615   0.707
 4957SOL    HW115770   5.753   3.644   0.612
 4957SOL    HW215771   5.680   3.627   0.757
 4958SOL     OW15772   1.960   5.734   5.866
 4958SOL    HW115773   2.001   5.646   5.843
 4958SOL    HW215774   1.866   5.720   5.897
 4959SOL     OW15775   6.176   1.542   1.544
 4959SOL    HW115776   6.080   1.515   1.543
 4959SOL    HW215777   6.182   1.642   1.541
 4960SOL     OW15778   4.419   4.541   3.823
 4960SOL    HW115779   4.494   4.605   3.837
 4960SOL    HW215780   4.375   4.521   3.910
 4961SOL     OW15781   2.703   0.585   6.037
 4961SOL    HW115782   2.791   0.569   6.082
 4961SOL    HW215783   2.658   0.498   6.019
 4962SOL     OW15784   5.644   2.871   0.984
 4962SOL    HW115785   5.617   2.952   0.932
 4962SOL    HW215786   5.572   2.847   1.049
 4963SOL     OW15787   1.713   5.171   0.869
 4963SOL    HW115788   1.742   5.149   0.776
 4963SOL    HW215789   1.710   5.087   0.923
 4964SOL     OW15790   1.957   0.169   4.758
 4964SOL    HW115791   1.892   0.224   4.810
 4964SOL    HW215792   1.909   0.123   4.682
 4965SOL     OW15793   1.090   6.762   2.792
 4965SOL    HW115794   1.181   6.729   2.767
 4965SOL    HW215795   1.032   6.685   2.817
 4966SOL     OW15796   2.829   6.665   4.913
 4966SOL    HW115797   2.769   6.721   4.856
 4966SOL    HW215798   2.785   6.578   4.931
 4967SOL     OW15799   3.019   5.317   5.822
 4967SOL    HW115800   3.040   5.402   5.869
 4967SOL    HW215801   2.920   5.304   5.819
 4968SOL     OW15802   0.420   1.232   3.555
 4968SOL    HW115803   0.462   1.313   3.597
 4968SOL    HW215804   0.329   1.219   3.593
 4969SOL     OW15805   0.908   6.136   2.669
 4969SOL    HW115806   0.940   6.106   2.759
 4969SOL    HW215807   0.876   6.057   2.617
 4970SOL     OW15808   2.065   1.581   1.353
 4970SOL    HW115809   1.973   1.620   1.358
 4970SOL    HW215810   2.120   1.615   1.429
 4971SOL     OW15811   6.269   5.787   3.237
 4971SOL    HW115812   6.293   5.856   3.168
 4971SOL    HW215813   6.170   5.775   3.238
 4972SOL     OW15814   1.044   3.899   0.536
 4972SOL    HW115815   0.946   3.885   0.526
 4972SOL    HW215816   1.093   3.846   0.467
 4973SOL     OW15817   0.428   0.185   1.668
 4973SOL    HW115818   0.414   0.096   1.624
 4973SOL    HW215819   0.343   0.238   1.663
 4974SOL     OW15820   6.084   5.066   0.502
 4974SOL    HW115821   6.099   5.162   0.526
 4974SOL    HW215822   6.060   5.059   0.405
 4975SOL     OW15823   5.308   4.030   0.477
 4975SOL    HW115824   5.287   3.966   0.551
 4975SOL    HW215825   5.359   4.107   0.513
 4976SOL     OW15826   1.339   0.883   4.982
 4976SOL    HW115827   1.327   0.980   4.963
 4976SOL    HW215828   1.250   0.837   4.979
 4977SOL     OW15829   4.268   5.251   6.777
 4977SOL    HW115830   4.361   5.282   6.798
 4977SOL    HW215831   4.271   5.184   6.703
 4978SOL     OW15832   5.304   4.778   4.402
 4978SOL    HW115833   5.293   4.859   4.345
 4978SOL    HW215834   5.225   4.717   4.390
 4979SOL     OW15835   6.897   6.853   6.552
 4979SOL    HW115836   6.948   6.936   6.533
 4979SOL    HW215837   6.947   6.774   6.515
 4980SOL     OW15838   5.699   5.573   2.568
 4980SOL    HW115839   5.638   5.556   2.645
 4980SOL    HW215840   5.709   5.489   2.514
 4981SOL     OW15841   3.577   5.535   2.468
 4981SOL    HW115842   3.514   5.519   2.544
 4981SOL    HW215843   3.670   5.546   2.503
 4982SOL     OW15844   2.858   2.437   5.851
 4982SOL    HW115845   2.793   2.449   5.776
 4982SOL    HW215846   2.949   2.467   5.822
 4983SOL     OW15847   5.653   3.967   4.811
 4983SOL    HW115848   5.568   3.949   4.762
 4983SOL    HW215849   5.632   4.006   4.900
 4984SOL     OW15850   4.816   4.003   2.776
 4984SOL    HW115851   4.903   4.052   2.780
 4984SOL    HW215852   4.744   4.066   2.747
 4985SOL     OW15853   5.840   6.539   3.444
 4985SOL    HW115854   5.772   6.574   3.379
 4985SOL    HW215855   5.801   6.536   3.536
 4986SOL     OW15856   6.579   5.268   0.287
 4986SOL    HW115857   6.634   5.187   0.309
 4986SOL    HW215858   6.587   5.287   0.189
 4987SOL     OW15859   1.147   6.394   2.300
 4987SOL    HW115860   1.215   6.442   2.355
 4987SOL    HW215861   1.154   6.296   2.316
 4988SOL     OW15862   6.126   0.909   2.832
 4988SOL    HW115863   6.125   0.988   2.771
 4988SOL    HW215864   6.220   0.888   2.857
 4989SOL     OW15865   5.254   6.930   1.563
 4989SOL    HW115866   5.232   6.846   1.612
 4989SOL    HW215867   5.244   7.008   1.626
 4990SOL     OW15868   3.023   2.403   6.444
 4990SOL    HW115869   3.114   2.434   6.415
 4990SOL    HW215870   3.033   2.335   6.517
 4991SOL     OW15871   6.436   5.196   3.588
 4991SOL    HW115872   6.506   5.143   3.541
 4991SOL    HW215873   6.478   5.252   3.659
 4992SOL     OW15874   5.307   0.566   2.188
 4992SOL    HW115875   5.370   0.492   2.167
 4992SOL    HW215876   5.223   0.529   2.227
 4993SOL     OW15877   3.918   6.305   4.766
 4993SOL    HW115878   3.911   6.221   4.821
 4993SOL    HW215879   4.011   6.314   4.731
 4994SOL     OW15880   2.057   6.232   4.594
 4994SOL    HW115881   2.062   6.198   4.500
 4994SOL    HW215882   2.106   6.169   4.655
 4995SOL     OW15883   0.629   1.370   5.411
 4995SOL    HW115884   0.622   1.416   5.322
 4995SOL    HW215885   0.711   1.402   5.459
 4996SOL     OW15886   6.947   0.675   3.018
 4996SOL    HW115887   6.936   0.760   3.068
 4996SOL    HW215888   6.909   0.686   2.926
 4997SOL     OW15889   4.545   2.521   1.821
 4997SOL    HW115890   4.626   2.556   1.869
 4997SOL    HW215891   4.492   2.463   1.882
 4998SOL     OW15892   1.686   3.739   4.761
 4998SOL    HW115893   1.699   3.672   4.688
 4998SOL    HW215894   1.735   3.709   4.843
 4999SOL     OW15895   0.254   3.463   4.781
 4999SOL    HW115896   0.259   3.469   4.681
 4999SOL    HW215897   0.254   3.554   4.820
 5000SOL     OW15898   3.102   0.089   3.431
 5000SOL    HW115899   3.197   0.120   3.436
 5000SOL    HW215900   3.043   0.152   3.482
 5001SOL     OW15901   0.776   5.561   2.010
 5001SOL    HW115902   0.856   5.505   2.032
 5001SOL    HW215903   0.806   5.654   1.988
 5002SOL     OW15904   0.368   4.624   2.072
 5002SOL    HW115905   0.315   4.675   2.141
 5002SOL    HW215906   0.465   4.649   2.080
 5003SOL     OW15907   3.593   6.030   2.959
 5003SOL    HW115908   3.666   6.031   2.890
 5003SOL    HW215909   3.540   5.946   2.949
 5004SOL     OW15910   2.301   4.472   5.837
 5004SOL    HW115911   2.397   4.493   5.854
 5004SOL    HW215912   2.294   4.392   5.778
 5005SOL     OW15913   2.776   3.357   6.107
 5005SOL    HW115914   2.833   3.391   6.033
 5005SOL    HW215915   2.832   3.307   6.172
 5006SOL     OW15916   5.679   1.039   1.636
 5006SOL    HW115917   5.611   0.971   1.663
 5006SOL    HW215918   5.682   1.046   1.537
 5007SOL     OW15919   0.155   6.955   1.296
 5007SOL    HW115920   0.136   0.028   1.330
 5007SOL    HW215921   0.243   6.924   1.333
 5008SOL     OW15922   6.133   6.044   1.617
 5008SOL    HW115923   6.126   6.124   1.677
 5008SOL    HW215924   6.128   6.074   1.521
 5009SOL     OW15925   0.213   2.206   6.835
 5009SOL    HW115926   0.300   2.252   6.856
 5009SOL    HW215927   0.232   2.115   6.799
 5010SOL     OW15928   4.380   2.630   0.714
 5010SOL    HW115929   4.294   2.587   0.742
 5010SOL    HW215930   4.455   2.594   0.770
 5011SOL     OW15931   1.931   4.857   1.351
 5011SOL    HW115932   1.892   4.769   1.323
 5011SOL    HW215933   1.875   4.896   1.424
 5012SOL     OW15934   6.128   2.759   4.649
 5012SOL    HW115935   6.124   2.818   4.568
 5012SOL    HW215936   6.134   2.816   4.731
 5013SOL     OW15937   5.428   1.528   6.200
 5013SOL    HW115938   5.446   1.430   6.199
 5013SOL    HW215939   5.430   1.561   6.295
 5014SOL     OW15940   6.350   4.325   0.724
 5014SOL    HW115941   6.274   4.370   0.677
 5014SOL    HW215942   6.337   4.226   0.723
 5015SOL     OW15943   4.921   1.148   5.080
 5015SOL    HW115944   4.945   1.112   5.170
 5015SOL    HW215945   4.945   1.245   5.076
 5016SOL     OW15946   1.658   3.015   5.262
 5016SOL    HW115947   1.752   2.991   5.286
 5016SOL    HW215948   1.595   2.966   5.323
 5017SOL     OW15949   1.509   2.893   1.284
 5017SOL    HW115950   1.475   2.875   1.376
 5017SOL    HW215951   1.608   2.881   1.281
 5018SOL     OW15952   1.091   4.692   2.348
 5018SOL    HW115953   1.181   4.648   2.345
 5018SOL    HW215954   1.078   4.735   2.438
 5019SOL     OW15955   2.090   5.839   5.654
 5019SOL    HW115956   2.065   5.767   5.589
 5019SOL    HW215957   2.042   5.824   5.740
 5020SOL     OW15958   6.247   6.923   6.230
 5020SOL    HW115959   6.346   6.924   6.215
 5020SOL    HW215960   6.224   6.845   6.289
 5021SOL     OW15961   1.021   1.376   0.529
 5021SOL    HW115962   1.050   1.463   0.568
 5021SOL    HW215963   0.930   1.387   0.487
 5022SOL     OW15964   1.763   2.645   1.323
 5022SOL    HW115965   1.785   2.739   1.299
 5022SOL    HW215966   1.839   2.585   1.296
 5023SOL     OW15967   0.581   4.020   1.538
 5023SOL    HW115968   0.582   4.009   1.439
 5023SOL    HW215969   0.652   3.963   1.579
 5024SOL     OW15970   6.230   5.916   1.226
 5024SOL    HW115971   6.305   5.947   1.285
 5024SOL    HW215972   6.222   5.978   1.148
 5025SOL     OW15973   4.332   2.298   3.431
 5025SOL    HW115974   4.335   2.346   3.343
 5025SOL    HW215975   4.425   2.287   3.466
 5026SOL     OW15976   6.819   6.165   5.597
 5026SOL    HW115977   6.869   6.149   5.511
 5026SOL    HW215978   6.729   6.123   5.592
 5027SOL     OW15979   6.528   6.652   1.305
 5027SOL    HW115980   6.458   6.688   1.243
 5027SOL    HW215981   6.484   6.614   1.386
 5028SOL     OW15982   0.436   1.804   2.792
 5028SOL    HW115983   0.536   1.808   2.788
 5028SOL    HW215984   0.406   1.712   2.766
 5029SOL     OW15985   6.082   2.865   2.250
 5029SOL    HW115986   6.112   2.885   2.343
 5029SOL    HW215987   5.988   2.896   2.238
 5030SOL     OW15988   0.280   6.178   6.712
 5030SOL    HW115989   0.292   6.080   6.700
 5030SOL    HW215990   0.231   6.216   6.633
 5031SOL     OW15991   6.596   1.514   5.975
 5031SOL    HW115992   6.500   1.506   6.000
 5031SOL    HW215993   6.652   1.459   6.037
 5032SOL     OW15994   2.585   2.009   5.566
 5032SOL    HW115995   2.567   2.001   5.664
 5032SOL    HW215996   2.650   2.083   5.550
 5033SOL     OW15997   2.469   0.009   6.284
 5033SOL    HW115998   2.440   7.013   6.378
 5033SOL    HW215999   2.388   0.022   6.226
 5034SOL     OW16000   6.339   6.922   3.375
 5034SOL    HW116001   6.327   6.823   3.372
 5034SOL    HW216002   6.310   6.957   3.464
 5035SOL     OW16003   6.868   4.022   5.632
 5035SOL    HW116004   6.888   4.086   5.706
 5035SOL    HW216005   6.802   3.953   5.664
 5036SOL     OW16006   6.990   4.902   6.658
 5036SOL    HW116007   6.919   4.970   6.639
 5036SOL    HW216008   6.988   4.879   6.755
 5037SOL     OW16009   5.171   4.478   1.763
 5037SOL    HW116010   5.208   4.474   1.856
 5037SOL    HW216011   5.182   4.570   1.726
 5038SOL     OW16012   3.126   3.266   5.501
 5038SOL    HW116013   3.075   3.342   5.461
 5038SOL    HW216014   3.224   3.288   5.501
 5039SOL     OW16015   1.931   3.795   5.759
 5039SOL    HW116016   1.940   3.726   5.687
 5039SOL    HW216017   1.856   3.770   5.820
 5040SOL     OW16018   1.324   6.480   6.145
 5040SOL    HW116019   1.300   6.514   6.236
 5040SOL    HW216020   1.336   6.381   6.148
 5041SOL     OW16021   1.206   1.962   2.091
 5041SOL    HW116022   1.213   1.931   1.996
 5041SOL    HW216023   1.277   2.030   2.109
 5042SOL     OW16024   6.398   3.509   0.316
 5042SOL    HW116025   6.494   3.507   0.289
 5042SOL    HW216026   6.345   3.450   0.255
 5043SOL     OW16027   3.764   0.190   6.791
 5043SOL    HW116028   3.685   0.149   6.835
 5043SOL    HW216029   3.778   0.283   6.826
 5044SOL     OW16030   0.307   5.926   0.594
 5044SOL    HW116031   0.302   5.909   0.496
 5044SOL    HW216032   0.381   5.990   0.613
 5045SOL     OW16033   6.159   6.443   6.370
 5045SOL    HW116034   6.174   6.355   6.324
 5045SOL    HW216035   6.101   6.429   6.450
 5046SOL     OW16036   3.310   3.960   2.661
 5046SOL    HW116037   3.351   4.036   2.611
 5046SOL    HW216038   3.317   3.877   2.606
 5047SOL     OW16039   1.041   4.053   2.597
 5047SOL    HW116040   0.995   4.042   2.685
 5047SOL    HW216041   0.978   4.028   2.523
 5048SOL     OW16042   1.084   1.219   2.831
 5048SOL    HW116043   1.154   1.196   2.899
 5048SOL    HW216044   1.128   1.232   2.742
 5049SOL     OW16045   5.276   2.016   6.939
 5049SOL    HW116046   5.197   2.074   6.957
 5049SOL    HW216047   5.255   1.922   6.966
 5050SOL     OW16048   2.127   0.382   1.329
 5050SOL    HW116049   2.154   0.287   1.342
 5050SOL    HW216050   2.041   0.387   1.278
 5051SOL     OW16051   4.382   3.918   1.209
 5051SOL    HW116052   4.426   3.992   1.259
 5051SOL    HW216053   4.307   3.955   1.153
 5052SOL     OW16054   2.547   1.441   5.758
 5052SOL    HW116055   2.523   1.347   5.733
 5052SOL    HW216056   2.526   1.502   5.681
 5053SOL     OW16057   1.855   3.848   3.817
 5053SOL    HW116058   1.757   3.832   3.802
 5053SOL    HW216059   1.868   3.893   3.905
 5054SOL     OW16060   3.391   4.886   3.905
 5054SOL    HW116061   3.426   4.867   3.997
 5054SOL    HW216062   3.295   4.913   3.911
 5055SOL     OW16063   1.358   2.379   5.648
 5055SOL    HW116064   1.310   2.467   5.654
 5055SOL    HW216065   1.366   2.352   5.553
 5056SOL     OW16066   5.439   3.957   6.972
 5056SOL    HW116067   5.457   3.859   6.958
 5056SOL    HW216068   5.483   3.987   0.036
 5057SOL     OW16069   0.840   6.749   3.616
 5057SOL    HW116070   0.751   6.784   3.585
 5057SOL    HW216071   0.887   6.705   3.539
 5058SOL     OW16072   3.267   4.279   5.263
 5058SOL    HW116073   3.197   4.211   5.286
 5058SOL    HW216074   3.327   4.243   5.193
 5059SOL     OW16075   6.702   0.682   3.174
 5059SOL    HW116076   6.768   0.689   3.099
 5059SOL    HW216077   6.736   0.618   3.243
 5060SOL     OW16078   0.264   1.951   5.777
 5060SOL    HW116079   0.349   1.906   5.748
 5060SOL    HW216080   0.201   1.956   5.700
 5061SOL     OW16081   4.794   2.844   1.035
 5061SOL    HW116082   4.722   2.840   1.104
 5061SOL    HW216083   4.822   2.752   1.010
 5062SOL     OW16084   6.401   0.211   3.084
 5062SOL    HW116085   6.405   0.214   2.984
 5062SOL    HW216086   6.492   0.190   3.120
 5063SOL     OW16087   1.081   6.802   2.524
 5063SOL    HW116088   1.122   6.884   2.483
 5063SOL    HW216089   1.090   6.806   2.623
 5064SOL     OW16090   5.226   3.828   0.634
 5064SOL    HW116091   5.278   3.845   0.718
 5064SOL    HW216092   5.249   3.738   0.598
 5065SOL     OW16093   2.824   0.536   5.428
 5065SOL    HW116094   2.824   0.482   5.343
 5065SOL    HW216095   2.778   0.485   5.500
 5066SOL     OW16096   5.282   4.327   2.628
 5066SOL    HW116097   5.296   4.399   2.695
 5066SOL    HW216098   5.315   4.358   2.539
 5067SOL     OW16099   4.504   1.211   1.543
 5067SOL    HW116100   4.571   1.225   1.470
 5067SOL    HW216101   4.498   1.114   1.565
 5068SOL     OW16102   2.748   3.931   0.782
 5068SOL    HW116103   2.743   3.889   0.872
 5068SOL    HW216104   2.840   3.965   0.765
 5069SOL     OW16105   1.728   3.817   5.263
 5069SOL    HW116106   1.749   3.912   5.282
 5069SOL    HW216107   1.776   3.787   5.181
 5070SOL     OW16108   4.953   4.287   4.288
 5070SOL    HW116109   4.921   4.195   4.310
 5070SOL    HW216110   5.010   4.321   4.363
 5071SOL     OW16111   4.675   2.311   4.699
 5071SOL    HW116112   4.744   2.372   4.739
 5071SOL    HW216113   4.721   2.231   4.661
 5072SOL     OW16114   1.129   6.751   0.901
 5072SOL    HW116115   1.066   6.674   0.911
 5072SOL    HW216116   1.212   6.720   0.855
 5073SOL     OW16117   0.284   6.428   2.525
 5073SOL    HW116118   0.326   6.419   2.434
 5073SOL    HW216119   0.187   6.450   2.514
 5074SOL     OW16120   2.962   3.336   0.286
 5074SOL    HW116121   2.919   3.410   0.336
 5074SOL    HW216122   2.947   3.249   0.334
 5075SOL     OW16123   1.184   1.666   6.238
 5075SOL    HW116124   1.160   1.642   6.332
 5075SOL    HW216125   1.194   1.765   6.230
 5076SOL     OW16126   3.779   0.721   0.568
 5076SOL    HW116127   3.810   0.792   0.632
 5076SOL    HW216128   3.683   0.700   0.586
 5077SOL     OW16129   0.486   3.542   5.131
 5077SOL    HW116130   0.490   3.578   5.038
 5077SOL    HW216131   0.552   3.467   5.140
 5078SOL     OW16132   0.957   1.789   3.500
 5078SOL    HW116133   1.013   1.710   3.473
 5078SOL    HW216134   0.889   1.808   3.429
 5079SOL     OW16135   2.207   3.878   5.747
 5079SOL    HW116136   2.112   3.855   5.770
 5079SOL    HW216137   2.236   3.958   5.800
 5080SOL     OW16138   6.495   6.440   6.143
 5080SOL    HW116139   6.571   6.416   6.082
 5080SOL    HW216140   6.477   6.364   6.205
 5081SOL     OW16141   3.639   2.981   4.451
 5081SOL    HW116142   3.709   2.974   4.523
 5081SOL    HW216143   3.563   2.920   4.473
 5082SOL     OW16144   5.465   5.811   6.041
 5082SOL    HW116145   5.445   5.895   5.991
 5082SOL    HW216146   5.410   5.736   6.004
 5083SOL     OW16147   2.566   0.313   2.991
 5083SOL    HW116148   2.613   0.240   3.042
 5083SOL    HW216149   2.634   0.381   2.962
 5084SOL     OW16150   0.906   4.936   4.066
 5084SOL    HW116151   0.987   4.935   4.126
 5084SOL    HW216152   0.932   4.971   3.976
 5085SOL     OW16153   4.732   3.127   6.714
 5085SOL    HW116154   4.715   3.049   6.653
 5085SOL    HW216155   4.826   3.159   6.702
 5086SOL     OW16156   0.107   5.846   3.418
 5086SOL    HW116157   0.153   5.814   3.500
 5086SOL    HW216158   0.111   5.946   3.415
 5087SOL     OW16159   0.062   5.401   3.267
 5087SOL    HW116160   0.133   5.423   3.334
 5087SOL    HW216161   0.000   5.479   3.257
 5088SOL     OW16162   5.643   1.528   4.605
 5088SOL    HW116163   5.620   1.498   4.512
 5088SOL    HW216164   5.733   1.492   4.630
 5089SOL     OW16165   5.498   3.019   3.355
 5089SOL    HW116166   5.522   2.951   3.424
 5089SOL    HW216167   5.574   3.031   3.291
 5090SOL     OW16168   1.778   3.385   3.103
 5090SOL    HW116169   1.807   3.380   3.198
 5090SOL    HW216170   1.813   3.306   3.053
 5091SOL     OW16171   1.691   6.330   2.699
 5091SOL    HW116172   1.729   6.248   2.743
 5091SOL    HW216173   1.594   6.314   2.678
 5092SOL     OW16174   3.185   3.088   1.294
 5092SOL    HW116175   3.180   3.045   1.384
 5092SOL    HW216176   3.177   3.019   1.223
 5093SOL     OW16177   3.309   1.524   1.476
 5093SOL    HW116178   3.267   1.606   1.437
 5093SOL    HW216179   3.337   1.463   1.402
 5094SOL     OW16180   1.129   6.409   5.005
 5094SOL    HW116181   1.090   6.355   5.080
 5094SOL    HW216182   1.077   6.493   4.993
 5095SOL     OW16183   0.221   2.505   4.695
 5095SOL    HW116184   0.195   2.598   4.671
 5095SOL    HW216185   0.183   2.481   4.784
 5096SOL     OW16186   4.350   3.288   0.692
 5096SOL    HW116187   4.289   3.217   0.655
 5096SOL    HW216188   4.359   3.276   0.791
 5097SOL     OW16189   1.598   0.368   0.274
 5097SOL    HW116190   1.601   0.271   0.250
 5097SOL    HW216191   1.575   0.378   0.371
 5098SOL     OW16192   1.366   0.554   1.119
 5098SOL    HW116193   1.373   0.500   1.202
 5098SOL    HW216194   1.284   0.528   1.069
 5099SOL     OW16195   0.203   0.332   6.243
 5099SOL    HW116196   0.148   0.391   6.184
 5099SOL    HW216197   0.199   0.238   6.209
 5100SOL     OW16198   4.388   6.562   5.131
 5100SOL    HW116199   4.369   6.509   5.048
 5100SOL    HW216200   4.322   6.637   5.139
 5101SOL     OW16201   4.185   6.801   0.421
 5101SOL    HW116202   4.088   6.780   0.408
 5101SOL    HW216203   4.235   6.717   0.441
 5102SOL     OW16204   5.665   0.360   5.147
 5102SOL    HW116205   5.602   0.285   5.168
 5102SOL    HW216206   5.704   0.395   5.231
 5103SOL     OW16207   0.552   0.727   4.043
 5103SOL    HW116208   0.503   0.725   3.955
 5103SOL    HW216209   0.642   0.768   4.030
 5104SOL     OW16210   2.395   6.509   2.162
 5104SOL    HW116211   2.410   6.590   2.220
 5104SOL    HW216212   2.325   6.451   2.203
 5105SOL     OW16213   3.946   2.985   0.089
 5105SOL    HW116214   3.892   3.015   0.168
 5105SOL    HW216215   3.991   2.899   0.112
 5106SOL     OW16216   3.757   0.540   1.805
 5106SOL    HW116217   3.686   0.609   1.816
 5106SOL    HW216218   3.794   0.545   1.712
 5107SOL     OW16219   4.111   0.837   0.454
 5107SOL    HW116220   4.179   0.910   0.446
 5107SOL    HW216221   4.053   0.838   0.372
 5108SOL     OW16222   2.932   3.705   3.648
 5108SOL    HW116223   2.907   3.609   3.662
 5108SOL    HW216224   3.028   3.718   3.671
 5109SOL     OW16225   0.764   1.071   0.614
 5109SOL    HW116226   0.755   1.168   0.595
 5109SOL    HW216227   0.766   1.020   0.528
 5110SOL     OW16228   0.690   0.280   6.630
 5110SOL    HW116229   0.686   0.234   6.541
 5110SOL    HW216230   0.627   0.358   6.630
 5111SOL     OW16231   1.352   0.899   6.106
 5111SOL    HW116232   1.394   0.927   6.192
 5111SOL    HW216233   1.414   0.918   6.030
 5112SOL     OW16234   0.787   0.411   2.494
 5112SOL    HW116235   0.704   0.361   2.468
 5112SOL    HW216236   0.865   0.375   2.443
 5113SOL     OW16237   2.273   0.011   2.115
 5113SOL    HW116238   2.260   6.940   2.155
 5113SOL    HW216239   2.231   0.014   2.024
 5114SOL     OW16240   3.678   2.844   0.270
 5114SOL    HW116241   3.625   2.821   0.351
 5114SOL    HW216242   3.675   2.943   0.254
 5115SOL     OW16243   2.284   4.816   4.690
 5115SOL    HW116244   2.239   4.731   4.717
 5115SOL    HW216245   2.278   4.828   4.591
 5116SOL     OW16246   5.353   6.148   6.474
 5116SOL    HW116247   5.420   6.074   6.482
 5116SOL    HW216248   5.400   6.233   6.450
 5117SOL     OW16249   1.451   4.864   4.423
 5117SOL    HW116250   1.366   4.884   4.472
 5117SOL    HW216251   1.431   4.839   4.329
 5118SOL     OW16252   4.770   6.559   0.832
 5118SOL    HW116253   4.736   6.585   0.923
 5118SOL    HW216254   4.822   6.635   0.793
 5119SOL     OW16255   5.236   0.839   1.412
 5119SOL    HW116256   5.223   0.871   1.506
 5119SOL    HW216257   5.213   0.742   1.407
 5120SOL     OW16258   5.123   1.190   3.457
 5120SOL    HW116259   5.136   1.217   3.552
 5120SOL    HW216260   5.188   1.119   3.433
 5121SOL     OW16261   2.474   2.445   0.213
 5121SOL    HW116262   2.517   2.416   0.299
 5121SOL    HW216263   2.490   2.542   0.199
 5122SOL     OW16264   3.262   0.885   3.975
 5122SOL    HW116265   3.183   0.833   3.945
 5122SOL    HW216266   3.282   0.863   4.071
 5123SOL     OW16267   5.944   3.313   4.701
 5123SOL    HW116268   5.868   3.261   4.661
 5123SOL    HW216269   6.028   3.259   4.694
 5124SOL     OW16270   2.519   5.142   5.382
 5124SOL    HW116271   2.605   5.115   5.339
 5124SOL    HW216272   2.539   5.184   5.471
 5125SOL     OW16273   6.318   3.143   4.482
 5125SOL    HW116274   6.418   3.142   4.476
 5125SOL    HW216275   6.281   3.209   4.417
 5126SOL     OW16276   6.267   5.219   6.109
 5126SOL    HW116277   6.317   5.305   6.117
 5126SOL    HW216278   6.173   5.238   6.081
 5127SOL     OW16279   6.843   3.876   0.065
 5127SOL    HW116280   6.920   3.834   0.113
 5127SOL    HW216281   6.834   3.838   6.993
 5128SOL     OW16282   6.975   6.781   0.420
 5128SOL    HW116283   6.988   6.685   0.444
 5128SOL    HW216284   6.934   6.787   0.329
 5129SOL     OW16285   5.047   0.509   2.312
 5129SOL    HW116286   5.033   0.586   2.249
 5129SOL    HW216287   5.086   0.543   2.397
 5130SOL     OW16288   1.250   5.918   4.376
 5130SOL    HW116289   1.158   5.949   4.397
 5130SOL    HW216290   1.293   5.979   4.310
 5131SOL     OW16291   3.023   4.843   3.394
 5131SOL    HW116292   2.966   4.856   3.475
 5131SOL    HW216293   3.119   4.855   3.418
 5132SOL     OW16294   3.318   1.477   6.153
 5132SOL    HW116295   3.348   1.381   6.154
 5132SOL    HW216296   3.394   1.535   6.122
 5133SOL     OW16297   2.608   5.737   5.967
 5133SOL    HW116298   2.540   5.806   5.992
 5133SOL    HW216299   2.684   5.740   6.031
 5134SOL     OW16300   6.843   0.003   2.496
 5134SOL    HW116301   6.935   6.994   2.467
 5134SOL    HW216302   6.842   0.101   2.514
 5135SOL     OW16303   6.291   3.745   3.632
 5135SOL    HW116304   6.246   3.831   3.657
 5135SOL    HW216305   6.373   3.734   3.688
 5136SOL     OW16306   5.933   0.763   6.005
 5136SOL    HW116307   5.903   0.712   5.924
 5136SOL    HW216308   5.866   0.834   6.026
 5137SOL     OW16309   5.501   3.095   5.024
 5137SOL    HW116310   5.510   2.995   5.017
 5137SOL    HW216311   5.429   3.117   5.091
 5138SOL     OW16312   3.946   3.859   3.753
 5138SOL    HW116313   3.867   3.809   3.715
 5138SOL    HW216314   3.984   3.919   3.683
 5139SOL     OW16315   1.174   6.933   4.834
 5139SOL    HW116316   1.231   7.015   4.843
 5139SOL    HW216317   1.205   6.864   4.899
 5140SOL     OW16318   3.114   2.090   5.477
 5140SOL    HW116319   3.113   2.187   5.501
 5140SOL    HW216320   3.125   2.079   5.379
 5141SOL     OW16321   6.617   3.840   1.569
 5141SOL    HW116322   6.566   3.878   1.492
 5141SOL    HW216323   6.642   3.745   1.549
 5142SOL     OW16324   6.126   6.848   5.395
 5142SOL    HW116325   6.203   6.835   5.458
 5142SOL    HW216326   6.132   6.781   5.321
 5143SOL     OW16327   0.808   4.055   5.239
 5143SOL    HW116328   0.793   3.958   5.255
 5143SOL    HW216329   0.864   4.067   5.157
 5144SOL     OW16330   1.665   3.774   5.899
 5144SOL    HW116331   1.596   3.723   5.950
 5144SOL    HW216332   1.622   3.847   5.848
 5145SOL     OW16333   3.973   6.467   6.677
 5145SOL    HW116334   4.053   6.427   6.631
 5145SOL    HW216335   3.920   6.519   6.611
 5146SOL     OW16336   3.634   3.945   4.963
 5146SOL    HW116337   3.734   3.948   4.966
 5146SOL    HW216338   3.599   3.908   5.049
 5147SOL     OW16339   5.953   4.942   3.305
 5147SOL    HW116340   6.048   4.932   3.275
 5147SOL    HW216341   5.895   4.960   3.225
 5148SOL     OW16342   0.303   0.516   2.103
 5148SOL    HW116343   0.396   0.482   2.114
 5148SOL    HW216344   0.304   0.616   2.094
 5149SOL     OW16345   6.059   5.248   4.099
 5149SOL    HW116346   5.974   5.298   4.085
 5149SOL    HW216347   6.048   5.153   4.068
 5150SOL     OW16348   2.278   4.301   3.994
 5150SOL    HW116349   2.304   4.294   3.898
 5150SOL    HW216350   2.343   4.360   4.042
 5151SOL     OW16351   6.408   4.055   1.651
 5151SOL    HW116352   6.338   4.112   1.608
 5151SOL    HW216353   6.494   4.064   1.601
 5152SOL     OW16354   1.503   5.741   6.443
 5152SOL    HW116355   1.468   5.801   6.371
 5152SOL    HW216356   1.497   5.788   6.531
 5153SOL     OW16357   1.325   2.025   0.804
 5153SOL    HW116358   1.242   2.076   0.782
 5153SOL    HW216359   1.383   2.019   0.722
 5154SOL     OW16360   1.551   2.794   6.517
 5154SOL    HW116361   1.578   2.743   6.435
 5154SOL    HW216362   1.519   2.885   6.491
 5155SOL     OW16363   4.234   1.291   0.755
 5155SOL    HW116364   4.175   1.218   0.791
 5155SOL    HW216365   4.303   1.251   0.695
 5156SOL     OW16366   5.276   4.425   4.663
 5156SOL    HW116367   5.374   4.444   4.651
 5156SOL    HW216368   5.265   4.342   4.717
 5157SOL     OW16369   3.413   2.020   2.383
 5157SOL    HW116370   3.482   2.087   2.352
 5157SOL    HW216371   3.324   2.065   2.388
 5158SOL     OW16372   3.100   2.193   0.410
 5158SOL    HW116373   3.190   2.153   0.393
 5158SOL    HW216374   3.069   2.166   0.501
 5159SOL     OW16375   5.895   4.044   6.540
 5159SOL    HW116376   5.914   3.947   6.559
 5159SOL    HW216377   5.799   4.055   6.516
 5160SOL     OW16378   6.686   5.859   3.537
 5160SOL    HW116379   6.613   5.795   3.513
 5160SOL    HW216380   6.772   5.808   3.548
 5161SOL     OW16381   1.122   2.841   0.137
 5161SOL    HW116382   1.115   2.937   0.163
 5161SOL    HW216383   1.056   2.822   0.064
 5162SOL     OW16384   1.061   5.170   2.469
 5162SOL    HW116385   1.012   5.251   2.500
 5162SOL    HW216386   1.102   5.188   2.380
 5163SOL     OW16387   3.860   0.079   0.909
 5163SOL    HW116388   3.839   0.115   1.000
 5163SOL    HW216389   3.778   0.035   0.872
 5164SOL     OW16390   3.099   3.123   6.549
 5164SOL    HW116391   3.043   3.068   6.611
 5164SOL    HW216392   3.079   3.220   6.561
 5165SOL     OW16393   1.286   4.490   6.660
 5165SOL    HW116394   1.227   4.420   6.700
 5165SOL    HW216395   1.377   4.453   6.644
 5166SOL     OW16396   1.518   4.821   2.909
 5166SOL    HW116397   1.437   4.827   2.968
 5166SOL    HW216398   1.600   4.818   2.966
 5167SOL     OW16399   6.465   4.469   4.913
 5167SOL    HW116400   6.542   4.407   4.925
 5167SOL    HW216401   6.496   4.564   4.924
 5168SOL     OW16402   5.096   2.571   3.157
 5168SOL    HW116403   5.156   2.598   3.082
 5168SOL    HW216404   5.050   2.486   3.134
 5169SOL     OW16405   4.804   1.825   3.465
 5169SOL    HW116406   4.900   1.815   3.492
 5169SOL    HW216407   4.757   1.738   3.477
 5170SOL     OW16408   1.288   3.493   5.531
 5170SOL    HW116409   1.244   3.421   5.477
 5170SOL    HW216410   1.373   3.460   5.569
 5171SOL     OW16411   0.155   4.644   5.517
 5171SOL    HW116412   0.057   4.637   5.534
 5171SOL    HW216413   0.201   4.678   5.599
 5172SOL     OW16414   1.291   4.514   3.376
 5172SOL    HW116415   1.227   4.528   3.301
 5172SOL    HW216416   1.384   4.509   3.340
 5173SOL     OW16417   4.002   4.361   6.013
 5173SOL    HW116418   4.043   4.284   6.062
 5173SOL    HW216419   4.075   4.419   5.976
 5174SOL     OW16420   2.280   6.276   4.261
 5174SOL    HW116421   2.222   6.196   4.275
 5174SOL    HW216422   2.306   6.314   4.350
 5175SOL     OW16423   2.593   3.621   6.754
 5175SOL    HW116424   2.502   3.662   6.749
 5175SOL    HW216425   2.622   3.616   6.850
 5176SOL     OW16426   4.826   4.744   6.753
 5176SOL    HW116427   4.834   4.843   6.762
 5176SOL    HW216428   4.880   4.700   6.825
 5177SOL     OW16429   4.752   6.533   1.636
 5177SOL    HW116430   4.691   6.503   1.710
 5177SOL    HW216431   4.787   6.453   1.588
 5178SOL     OW16432   1.235   4.513   1.558
 5178SOL    HW116433   1.153   4.570   1.556
 5178SOL    HW216434   1.306   4.556   1.502
 5179SOL     OW16435   4.741   4.442   3.924
 5179SOL    HW116436   4.710   4.418   3.832
 5179SOL    HW216437   4.718   4.537   3.943
 5180SOL     OW16438   3.477   0.586   1.316
 5180SOL    HW116439   3.437   0.676   1.335
 5180SOL    HW216440   3.577   0.593   1.318
 5181SOL     OW16441   6.481   0.021   0.949
 5181SOL    HW116442   6.450   0.045   1.041
 5181SOL    HW216443   6.518   0.102   0.904
 5182SOL     OW16444   4.597   4.522   1.872
 5182SOL    HW116445   4.499   4.518   1.849
 5182SOL    HW216446   4.611   4.476   1.960
 5183SOL     OW16447   4.038   1.785   2.804
 5183SOL    HW116448   4.106   1.859   2.807
 5183SOL    HW216449   4.071   1.707   2.856
 5184SOL     OW16450   2.371   1.586   3.018
 5184SOL    HW116451   2.420   1.619   3.099
 5184SOL    HW216452   2.320   1.661   2.977
 5185SOL     OW16453   5.140   0.260   2.848
 5185SOL    HW116454   5.165   0.242   2.943
 5185SOL    HW216455   5.217   0.302   2.801
 5186SOL     OW16456   6.511   2.786   5.911
 5186SOL    HW116457   6.600   2.790   5.958
 5186SOL    HW216458   6.472   2.878   5.906
 5187SOL     OW16459   1.293   5.220   5.281
 5187SOL    HW116460   1.315   5.127   5.251
 5187SOL    HW216461   1.222   5.258   5.222
 5188SOL     OW16462   6.085   5.799   1.699
 5188SOL    HW116463   6.092   5.797   1.798
 5188SOL    HW216464   6.122   5.885   1.664
 5189SOL     OW16465   5.018   6.130   0.237
 5189SOL    HW116466   5.017   6.033   0.259
 5189SOL    HW216467   5.021   6.142   0.138
 5190SOL     OW16468   1.412   3.563   3.212
 5190SOL    HW116469   1.327   3.567   3.266
 5190SOL    HW216470   1.394   3.595   3.119
 5191SOL     OW16471   3.473   5.761   2.882
 5191SOL    HW116472   3.398   5.710   2.841
 5191SOL    HW216473   3.532   5.799   2.809
 5192SOL     OW16474   1.897   6.033   1.190
 5192SOL    HW116475   1.831   6.046   1.263
 5192SOL    HW216476   1.984   6.000   1.228
 5193SOL     OW16477   4.745   5.930   5.745
 5193SOL    HW116478   4.682   5.858   5.719
 5193SOL    HW216479   4.832   5.918   5.697
 5194SOL     OW16480   3.487   2.703   0.045
 5194SOL    HW116481   3.559   2.744   0.101
 5194SOL    HW216482   3.435   2.775   7.019
 5195SOL     OW16483   0.288   0.563   4.299
 5195SOL    HW116484   0.299   0.657   4.266
 5195SOL    HW216485   0.274   0.564   4.398
 5196SOL     OW16486   4.293   0.028   2.309
 5196SOL    HW116487   4.316   6.996   2.391
 5196SOL    HW216488   4.343   0.115   2.309
 5197SOL     OW16489   1.388   3.914   6.447
 5197SOL    HW116490   1.411   4.009   6.468
 5197SOL    HW216491   1.300   3.891   6.488
 5198SOL     OW16492   4.406   5.314   3.243
 5198SOL    HW116493   4.473   5.296   3.316
 5198SOL    HW216494   4.314   5.311   3.281
 5199SOL     OW16495   0.514   5.628   0.617
 5199SOL    HW116496   0.415   5.627   0.632
 5199SOL    HW216497   0.561   5.610   0.704
 5200SOL     OW16498   6.852   4.007   5.130
 5200SOL    HW116499   6.816   4.030   5.221
 5200SOL    HW216500   6.776   3.983   5.069
 5201SOL     OW16501   0.689   6.833   3.234
 5201SOL    HW116502   0.733   6.832   3.144
 5201SOL    HW216503   0.689   6.926   3.270
 5202SOL     OW16504   5.798   2.796   6.569
 5202SOL    HW116505   5.821   2.810   6.666
 5202SOL    HW216506   5.742   2.873   6.537
 5203SOL     OW16507   1.993   2.117   6.985
 5203SOL    HW116508   1.962   2.044   0.027
 5203SOL    HW216509   1.925   2.190   6.984
 5204SOL     OW16510   4.064   5.565   0.390
 5204SOL    HW116511   4.156   5.571   0.352
 5204SOL    HW216512   4.069   5.530   0.483
 5205SOL     OW16513   2.293   0.006   0.725
 5205SOL    HW116514   2.311   6.934   0.690
 5205SOL    HW216515   2.213   0.045   0.678
 5206SOL     OW16516   0.245   3.877   5.693
 5206SOL    HW116517   0.278   3.828   5.612
 5206SOL    HW216518   0.212   3.968   5.667
 5207SOL     OW16519   0.845   5.727   4.148
 5207SOL    HW116520   0.797   5.788   4.211
 5207SOL    HW216521   0.894   5.782   4.079
 5208SOL     OW16522   3.648   1.732   0.133
 5208SOL    HW116523   3.579   1.663   0.112
 5208SOL    HW216524   3.674   1.724   0.229
 5209SOL     OW16525   5.947   5.867   3.838
 5209SOL    HW116526   5.900   5.952   3.812
 5209SOL    HW216527   5.887   5.811   3.894
 5210SOL     OW16528   6.090   2.995   5.670
 5210SOL    HW116529   6.127   2.955   5.586
 5210SOL    HW216530   6.046   2.924   5.724
 5211SOL     OW16531   4.070   3.186   4.260
 5211SOL    HW116532   4.142   3.189   4.191
 5211SOL    HW216533   3.998   3.123   4.231
 5212SOL     OW16534   6.446   1.564   0.676
 5212SOL    HW116535   6.417   1.506   0.752
 5212SOL    HW216536   6.545   1.555   0.662
 5213SOL     OW16537   5.107   3.749   6.535
 5213SOL    HW116538   5.136   3.783   6.445
 5213SOL    HW216539   5.168   3.787   6.605
 5214SOL     OW16540   5.399   1.621   6.451
 5214SOL    HW116541   5.416   1.592   6.545
 5214SOL    HW216542   5.360   1.713   6.451
 5215SOL     OW16543   5.348   5.208   3.365
 5215SOL    HW116544   5.335   5.250   3.455
 5215SOL    HW216545   5.428   5.148   3.367
 5216SOL     OW16546   4.055   6.119   2.139
 5216SOL    HW116547   3.955   6.123   2.135
 5216SOL    HW216548   4.093   6.204   2.105
 5217SOL     OW16549   3.971   5.505   4.018
 5217SOL    HW116550   4.034   5.438   3.978
 5217SOL    HW216551   3.987   5.511   4.117
 5218SOL     OW16552   1.264   0.560   3.341
 5218SOL    HW116553   1.335   0.631   3.348
 5218SOL    HW216554   1.205   0.580   3.263
 5219SOL     OW16555   3.762   0.642   6.387
 5219SOL    HW116556   3.766   0.583   6.307
 5219SOL    HW216557   3.751   0.587   6.469
 5220SOL     OW16558   1.506   5.267   2.912
 5220SOL    HW116559   1.507   5.230   2.819
 5220SOL    HW216560   1.545   5.359   2.912
 5221SOL     OW16561   5.706   2.187   4.372
 5221SOL    HW116562   5.629   2.182   4.309
 5221SOL    HW216563   5.699   2.113   4.440
 5222SOL     OW16564   2.173   0.044   4.243
 5222SOL    HW116565   2.245   7.003   4.211
 5222SOL    HW216566   2.214   0.122   4.289
 5223SOL     OW16567   5.346   0.491   1.197
 5223SOL    HW116568   5.249   0.508   1.210
 5223SOL    HW216569   5.370   0.403   1.239
 5224SOL     OW16570   1.068   1.498   3.442
 5224SOL    HW116571   1.078   1.425   3.374
 5224SOL    HW216572   1.154   1.511   3.490
 5225SOL     OW16573   6.233   0.317   2.648
 5225SOL    HW116574   6.204   0.343   2.740
 5225SOL    HW216575   6.212   0.390   2.583
 5226SOL     OW16576   1.102   5.382   5.136
 5226SOL    HW116577   1.049   5.444   5.194
 5226SOL    HW216578   1.039   5.323   5.085
 5227SOL     OW16579   1.825   4.272   3.687
 5227SOL    HW116580   1.854   4.348   3.746
 5227SOL    HW216581   1.727   4.257   3.698
 5228SOL     OW16582   6.376   2.730   1.278
 5228SOL    HW116583   6.416   2.799   1.218
 5228SOL    HW216584   6.437   2.652   1.285
 5229SOL     OW16585   1.337   3.920   0.260
 5229SOL    HW116586   1.384   3.927   0.171
 5229SOL    HW216587   1.404   3.935   0.333
 5230SOL     OW16588   0.007   6.303   1.152
 5230SOL    HW116589   0.092   6.263   1.185
 5230SOL    HW216590   0.027   6.378   1.089
 5231SOL     OW16591   3.817   4.017   4.089
 5231SOL    HW116592   3.743   3.971   4.041
 5231SOL    HW216593   3.779   4.082   4.155
 5232SOL     OW16594   3.320   2.258   5.827
 5232SOL    HW116595   3.406   2.309   5.819
 5232SOL    HW216596   3.338   2.161   5.808
 5233SOL     OW16597   6.233   6.844   1.720
 5233SOL    HW116598   6.211   6.913   1.650
 5233SOL    HW216599   6.167   6.769   1.715
 5234SOL     OW16600   3.157   0.354   6.503
 5234SOL    HW116601   3.100   0.424   6.543
 5234SOL    HW216602   3.114   0.264   6.514
 5235SOL     OW16603   1.728   3.247   1.049
 5235SOL    HW116604   1.717   3.192   0.966
 5235SOL    HW216605   1.643   3.296   1.068
 5236SOL     OW16606   5.707   3.438   2.383
 5236SOL    HW116607   5.630   3.420   2.322
 5236SOL    HW216608   5.754   3.522   2.355
 5237SOL     OW16609   2.764   0.832   5.340
 5237SOL    HW116610   2.745   0.741   5.305
 5237SOL    HW216611   2.837   0.874   5.286
 5238SOL     OW16612   1.717   4.776   0.507
 5238SOL    HW116613   1.808   4.761   0.468
 5238SOL    HW216614   1.709   4.870   0.539
 5239SOL     OW16615   4.071   3.524   3.707
 5239SOL    HW116616   4.021   3.611   3.706
 5239SOL    HW216617   4.148   3.531   3.771
 5240SOL     OW16618   2.687   1.344   5.975
 5240SOL    HW116619   2.644   1.404   5.907
 5240SOL    HW216620   2.691   1.251   5.938
 5241SOL     OW16621   1.149   5.847   6.194
 5241SOL    HW116622   1.150   5.747   6.197
 5241SOL    HW216623   1.077   5.878   6.132
 5242SOL     OW16624   6.742   6.383   6.022
 5242SOL    HW116625   6.770   6.293   6.055
 5242SOL    HW216626   6.765   6.392   5.925
 5243SOL     OW16627   1.140   6.297   1.792
 5243SOL    HW116628   1.144   6.395   1.811
 5243SOL    HW216629   1.087   6.251   1.864
 5244SOL     OW16630   3.866   4.150   6.326
 5244SOL    HW116631   3.773   4.187   6.326
 5244SOL    HW216632   3.931   4.223   6.347
 5245SOL     OW16633   4.013   4.454   0.431
 5245SOL    HW116634   3.979   4.377   0.377
 5245SOL    HW216635   4.086   4.500   0.380
 5246SOL     OW16636   5.550   4.669   2.677
 5246SOL    HW116637   5.576   4.637   2.585
 5246SOL    HW216638   5.619   4.734   2.710
 5247SOL     OW16639   1.485   6.038   0.682
 5247SOL    HW116640   1.558   5.987   0.728
 5247SOL    HW216641   1.398   6.023   0.731
 5248SOL     OW16642   6.015   0.699   5.331
 5248SOL    HW116643   6.039   0.602   5.340
 5248SOL    HW216644   6.093   0.755   5.358
 5249SOL     OW16645   0.818   5.102   5.360
 5249SOL    HW116646   0.802   5.004   5.349
 5249SOL    HW216647   0.915   5.119   5.376
 5250SOL     OW16648   0.294   1.201   5.782
 5250SOL    HW116649   0.313   1.135   5.709
 5250SOL    HW216650   0.379   1.225   5.829
 5251SOL     OW16651   0.668   2.990   1.381
 5251SOL    HW116652   0.731   3.042   1.323
 5251SOL    HW216653   0.587   2.966   1.328
 5252SOL     OW16654   2.105   5.701   1.132
 5252SOL    HW116655   2.100   5.763   1.210
 5252SOL    HW216656   2.116   5.753   1.048
 5253SOL     OW16657   5.618   4.123   5.580
 5253SOL    HW116658   5.680   4.197   5.605
 5253SOL    HW216659   5.572   4.089   5.661
 5254SOL     OW16660   5.992   1.123   3.762
 5254SOL    HW116661   6.000   1.148   3.666
 5254SOL    HW216662   5.933   1.044   3.772
 5255SOL     OW16663   4.569   0.422   5.746
 5255SOL    HW116664   4.484   0.469   5.722
 5255SOL    HW216665   4.640   0.448   5.681
 5256SOL     OW16666   4.524   1.321   3.028
 5256SOL    HW116667   4.488   1.287   3.114
 5256SOL    HW216668   4.601   1.382   3.045
 5257SOL     OW16669   4.325   0.541   1.861
 5257SOL    HW116670   4.333   0.468   1.793
 5257SOL    HW216671   4.228   0.562   1.876
 5258SOL     OW16672   5.491   4.319   2.055
 5258SOL    HW116673   5.525   4.346   2.145
 5258SOL    HW216674   5.410   4.261   2.066
 5259SOL     OW16675   4.417   6.612   1.167
 5259SOL    HW116676   4.427   6.712   1.166
 5259SOL    HW216677   4.500   6.570   1.130
 5260SOL     OW16678   5.786   3.838   1.096
 5260SOL    HW116679   5.756   3.748   1.127
 5260SOL    HW216680   5.834   3.885   1.171
 5261SOL     OW16681   1.427   3.035   5.958
 5261SOL    HW116682   1.434   3.113   5.897
 5261SOL    HW216683   1.331   3.012   5.973
 5262SOL     OW16684   3.303   0.589   2.455
 5262SOL    HW116685   3.373   0.534   2.500
 5262SOL    HW216686   3.261   0.652   2.521
 5263SOL     OW16687   0.901   0.854   5.656
 5263SOL    HW116688   0.831   0.922   5.680
 5263SOL    HW216689   0.938   0.875   5.566
 5264SOL     OW16690   6.243   0.241   2.177
 5264SOL    HW116691   6.309   0.191   2.121
 5264SOL    HW216692   6.289   0.318   2.221
 5265SOL     OW16693   5.189   4.469   3.125
 5265SOL    HW116694   5.269   4.512   3.167
 5265SOL    HW216695   5.218   4.412   3.048
 5266SOL     OW16696   2.737   0.732   2.168
 5266SOL    HW116697   2.665   0.717   2.236
 5266SOL    HW216698   2.748   0.649   2.113
 5267SOL     OW16699   4.633   4.815   5.931
 5267SOL    HW116700   4.683   4.740   5.974
 5267SOL    HW216701   4.676   4.902   5.955
 5268SOL     OW16702   6.081   5.818   6.255
 5268SOL    HW116703   6.089   5.733   6.306
 5268SOL    HW216704   6.163   5.831   6.199
 5269SOL     OW16705   2.691   6.430   4.317
 5269SOL    HW116706   2.703   6.459   4.412
 5269SOL    HW216707   2.779   6.404   4.278
 5270SOL     OW16708   4.290   1.568   1.815
 5270SOL    HW116709   4.217   1.515   1.858
 5270SOL    HW216710   4.285   1.558   1.716
 5271SOL     OW16711   4.475   5.145   4.732
 5271SOL    HW116712   4.398   5.090   4.699
 5271SOL    HW216713   4.456   5.177   4.825
 5272SOL     OW16714   1.636   5.493   3.251
 5272SOL    HW116715   1.715   5.548   3.277
 5272SOL    HW216716   1.580   5.544   3.186
 5273SOL     OW16717   0.324   3.574   3.495
 5273SOL    HW116718   0.372   3.501   3.544
 5273SOL    HW216719   0.355   3.577   3.400
 5274SOL     OW16720   5.943   5.059   2.434
 5274SOL    HW116721   5.926   5.140   2.491
 5274SOL    HW216722   6.038   5.029   2.446
 5275SOL     OW16723   3.398   1.328   6.462
 5275SOL    HW116724   3.300   1.335   6.476
 5275SOL    HW216725   3.428   1.234   6.480
 5276SOL     OW16726   1.012   6.276   0.860
 5276SOL    HW116727   1.103   6.284   0.901
 5276SOL    HW216728   1.022   6.257   0.762
 5277SOL     OW16729   1.107   2.468   3.324
 5277SOL    HW116730   1.108   2.563   3.291
 5277SOL    HW216731   1.013   2.433   3.320
 5278SOL     OW16732   5.158   6.615   4.568
 5278SOL    HW116733   5.203   6.542   4.619
 5278SOL    HW216734   5.059   6.606   4.576
 5279SOL     OW16735   1.434   5.809   6.818
 5279SOL    HW116736   1.516   5.755   6.837
 5279SOL    HW216737   1.353   5.755   6.840
 5280SOL     OW16738   3.271   5.418   5.696
 5280SOL    HW116739   3.217   5.335   5.705
 5280SOL    HW216740   3.236   5.473   5.620
 5281SOL     OW16741   1.171   0.881   3.967
 5281SOL    HW116742   1.256   0.887   4.020
 5281SOL    HW216743   1.096   0.854   4.028
 5282SOL     OW16744   1.687   1.204   2.381
 5282SOL    HW116745   1.773   1.159   2.358
 5282SOL    HW216746   1.618   1.135   2.404
 5283SOL     OW16747   2.791   0.454   2.413
 5283SOL    HW116748   2.722   0.394   2.373
 5283SOL    HW216749   2.871   0.457   2.354
 5284SOL     OW16750   4.908   2.963   2.679
 5284SOL    HW116751   4.850   2.901   2.730
 5284SOL    HW216752   4.894   2.949   2.581
 5285SOL     OW16753   1.470   3.482   4.150
 5285SOL    HW116754   1.513   3.572   4.143
 5285SOL    HW216755   1.379   3.491   4.190
 5286SOL     OW16756   6.259   3.665   1.156
 5286SOL    HW116757   6.190   3.648   1.227
 5286SOL    HW216758   6.326   3.591   1.157
 5287SOL     OW16759   2.328   5.917   1.698
 5287SOL    HW116760   2.392   5.994   1.697
 5287SOL    HW216761   2.329   5.872   1.609
 5288SOL     OW16762   3.763   1.077   2.730
 5288SOL    HW116763   3.695   1.144   2.760
 5288SOL    HW216764   3.847   1.125   2.702
 5289SOL     OW16765   1.699   6.093   6.288
 5289SOL    HW116766   1.685   6.055   6.196
 5289SOL    HW216767   1.784   6.144   6.290
 5290SOL     OW16768   0.870   4.877   5.920
 5290SOL    HW116769   0.945   4.839   5.974
 5290SOL    HW216770   0.907   4.943   5.854
 5291SOL     OW16771   2.873   4.956   6.220
 5291SOL    HW116772   2.888   5.055   6.226
 5291SOL    HW216773   2.914   4.921   6.136
 5292SOL     OW16774   6.316   4.558   6.604
 5292SOL    HW116775   6.253   4.481   6.611
 5292SOL    HW216776   6.270   4.636   6.561
 5293SOL     OW16777   1.476   0.045   4.730
 5293SOL    HW116778   1.451   0.016   4.638
 5293SOL    HW216779   1.558   7.016   4.759
 5294SOL     OW16780   5.755   2.674   5.035
 5294SOL    HW116781   5.713   2.673   4.944
 5294SOL    HW216782   5.792   2.765   5.053
 5295SOL     OW16783   4.344   1.084   2.780
 5295SOL    HW116784   4.352   1.064   2.878
 5295SOL    HW216785   4.251   1.063   2.750
 5296SOL     OW16786   3.033   4.938   6.844
 5296SOL    HW116787   3.045   5.005   6.770
 5296SOL    HW216788   2.954   4.964   6.900
 5297SOL     OW16789   1.756   3.218   0.650
 5297SOL    HW116790   1.821   3.293   0.637
 5297SOL    HW216791   1.662   3.253   0.642
 5298SOL     OW16792   1.009   6.076   0.063
 5298SOL    HW116793   0.961   6.154   0.022
 5298SOL    HW216794   1.093   6.107   0.107
 5299SOL     OW16795   2.443   3.256   0.629
 5299SOL    HW116796   2.379   3.200   0.577
 5299SOL    HW216797   2.484   3.200   0.702
 5300SOL     OW16798   1.075   5.897   1.048
 5300SOL    HW116799   1.019   5.882   1.129
 5300SOL    HW216800   1.153   5.955   1.072
 5301SOL     OW16801   3.434   2.186   6.237
 5301SOL    HW116802   3.364   2.226   6.178
 5301SOL    HW216803   3.518   2.171   6.185
 5302SOL     OW16804   5.828   5.514   3.771
 5302SOL    HW116805   5.909   5.543   3.822
 5302SOL    HW216806   5.828   5.556   3.681
 5303SOL     OW16807   0.058   5.163   3.941
 5303SOL    HW116808   6.983   5.169   3.913
 5303SOL    HW216809   0.071   5.217   4.025
 5304SOL     OW16810   5.349   0.784   0.324
 5304SOL    HW116811   5.381   0.817   0.413
 5304SOL    HW216812   5.421   0.796   0.256
 5305SOL     OW16813   0.863   4.422   3.055
 5305SOL    HW116814   0.853   4.414   2.956
 5305SOL    HW216815   0.826   4.510   3.086
 5306SOL     OW16816   1.350   4.168   4.851
 5306SOL    HW116817   1.405   4.104   4.903
 5306SOL    HW216818   1.409   4.226   4.795
 5307SOL     OW16819   4.315   1.836   0.419
 5307SOL    HW116820   4.270   1.791   0.342
 5307SOL    HW216821   4.400   1.879   0.388
 5308SOL     OW16822   0.903   4.745   3.657
 5308SOL    HW116823   0.985   4.690   3.638
 5308SOL    HW216824   0.930   4.832   3.699
 5309SOL     OW16825   3.979   4.857   1.624
 5309SOL    HW116826   3.944   4.767   1.651
 5309SOL    HW216827   3.992   4.913   1.706
 5310SOL     OW16828   6.439   3.554   1.937
 5310SOL    HW116829   6.402   3.586   2.024
 5310SOL    HW216830   6.484   3.630   1.889
 5311SOL     OW16831   6.930   6.382   6.771
 5311SOL    HW116832   6.881   6.466   6.792
 5311SOL    HW216833   7.019   6.383   6.818
 5312SOL     OW16834   0.007   5.428   1.798
 5312SOL    HW116835   6.989   5.336   1.806
 5312SOL    HW216836   0.035   5.461   1.889
 5313SOL     OW16837   1.423   3.405   5.914
 5313SOL    HW116838   1.372   3.386   5.830
 5313SOL    HW216839   1.428   3.504   5.928
 5314SOL     OW16840   3.136   6.628   0.572
 5314SOL    HW116841   3.110   6.722   0.548
 5314SOL    HW216842   3.131   6.571   0.491
 5315SOL     OW16843   5.011   3.634   1.777
 5315SOL    HW116844   4.931   3.590   1.819
 5315SOL    HW216845   5.073   3.564   1.743
 5316SOL     OW16846   1.028   3.719   4.395
 5316SOL    HW116847   0.999   3.810   4.366
 5316SOL    HW216848   1.126   3.720   4.416
 5317SOL     OW16849   5.911   0.136   4.647
 5317SOL    HW116850   5.914   0.228   4.609
 5317SOL    HW216851   5.962   0.133   4.733
 5318SOL     OW16852   0.716   3.175   6.464
 5318SOL    HW116853   0.616   3.179   6.468
 5318SOL    HW216854   0.744   3.105   6.399
 5319SOL     OW16855   3.408   6.483   0.153
 5319SOL    HW116856   3.498   6.499   0.193
 5319SOL    HW216857   3.406   6.390   0.114
 5320SOL     OW16858   5.130   4.991   0.295
 5320SOL    HW116859   5.034   4.965   0.278
 5320SOL    HW216860   5.133   5.073   0.351
 5321SOL     OW16861   0.977   5.319   4.588
 5321SOL    HW116862   0.934   5.381   4.522
 5321SOL    HW216863   1.048   5.266   4.541
 5322SOL     OW16864   5.281   6.370   5.911
 5322SOL    HW116865   5.342   6.445   5.886
 5322SOL    HW216866   5.245   6.386   6.003
 5323SOL     OW16867   4.047   1.993   6.937
 5323SOL    HW116868   4.101   1.956   6.862
 5323SOL    HW216869   4.069   2.089   6.951
 5324SOL     OW16870   3.483   2.402   0.507
 5324SOL    HW116871   3.535   2.330   0.461
 5324SOL    HW216872   3.396   2.415   0.459
 5325SOL     OW16873   4.547   0.563   4.430
 5325SOL    HW116874   4.502   0.576   4.518
 5325SOL    HW216875   4.533   0.468   4.399
 5326SOL     OW16876   6.560   4.943   2.997
 5326SOL    HW116877   6.659   4.946   2.982
 5326SOL    HW216878   6.522   4.860   2.956
 5327SOL     OW16879   5.780   3.279   5.495
 5327SOL    HW116880   5.756   3.345   5.425
 5327SOL    HW216881   5.698   3.247   5.541
 5328SOL     OW16882   4.319   2.965   5.367
 5328SOL    HW116883   4.312   3.063   5.386
 5328SOL    HW216884   4.415   2.941   5.353
 5329SOL     OW16885   0.445   4.614   0.403
 5329SOL    HW116886   0.424   4.712   0.403
 5329SOL    HW216887   0.360   4.562   0.391
 5330SOL     OW16888   3.545   4.535   5.582
 5330SOL    HW116889   3.535   4.604   5.654
 5330SOL    HW216890   3.639   4.503   5.579
 5331SOL     OW16891   5.295   1.105   0.422
 5331SOL    HW116892   5.373   1.164   0.444
 5331SOL    HW216893   5.256   1.069   0.506
 5332SOL     OW16894   0.554   3.255   1.079
 5332SOL    HW116895   0.633   3.193   1.083
 5332SOL    HW216896   0.586   3.349   1.073
 5333SOL     OW16897   0.849   0.547   3.898
 5333SOL    HW116898   0.856   0.636   3.943
 5333SOL    HW216899   0.897   0.551   3.810
 5334SOL     OW16900   3.681   0.384   4.348
 5334SOL    HW116901   3.731   0.471   4.345
 5334SOL    HW216902   3.645   0.369   4.439
 5335SOL     OW16903   6.595   5.672   2.438
 5335SOL    HW116904   6.548   5.759   2.452
 5335SOL    HW216905   6.661   5.682   2.363
 5336SOL     OW16906   2.468   1.982   2.995
 5336SOL    HW116907   2.383   1.931   3.006
 5336SOL    HW216908   2.460   2.070   3.041
 5337SOL     OW16909   5.154   4.374   1.502
 5337SOL    HW116910   5.138   4.410   1.594
 5337SOL    HW216911   5.199   4.285   1.508
 5338SOL     OW16912   5.825   2.026   6.261
 5338SOL    HW116913   5.761   2.068   6.326
 5338SOL    HW216914   5.845   2.092   6.188
 5339SOL     OW16915   6.627   2.081   4.406
 5339SOL    HW116916   6.697   2.109   4.340
 5339SOL    HW216917   6.672   2.044   4.487
 5340SOL     OW16918   5.603   3.295   1.139
 5340SOL    HW116919   5.637   3.317   1.048
 5340SOL    HW216920   5.504   3.308   1.142
 5341SOL     OW16921   3.523   3.773   6.355
 5341SOL    HW116922   3.499   3.818   6.269
 5341SOL    HW216923   3.518   3.839   6.430
 5342SOL     OW16924   2.975   7.010   3.833
 5342SOL    HW116925   3.057   6.983   3.885
 5342SOL    HW216926   2.898   6.953   3.862
 5343SOL     OW16927   3.888   3.446   4.171
 5343SOL    HW116928   3.819   3.400   4.227
 5343SOL    HW216929   3.971   3.460   4.224
 5344SOL     OW16930   2.327   2.340   2.727
 5344SOL    HW116931   2.247   2.333   2.787
 5344SOL    HW216932   2.403   2.379   2.778
 5345SOL     OW16933   3.802   6.798   1.528
 5345SOL    HW116934   3.746   6.839   1.600
 5345SOL    HW216935   3.767   6.825   1.438
 5346SOL     OW16936   3.039   5.905   4.471
 5346SOL    HW116937   2.991   5.833   4.521
 5346SOL    HW216938   2.991   5.992   4.483
 5347SOL     OW16939   0.535   2.492   1.850
 5347SOL    HW116940   0.541   2.512   1.948
 5347SOL    HW216941   0.596   2.552   1.799
 5348SOL     OW16942   6.631   2.330   0.749
 5348SOL    HW116943   6.591   2.342   0.658
 5348SOL    HW216944   6.695   2.404   0.767
 5349SOL     OW16945   2.010   3.200   0.478
 5349SOL    HW116946   1.941   3.173   0.411
 5349SOL    HW216947   2.009   3.299   0.489
 5350SOL     OW16948   1.602   6.933   5.478
 5350SOL    HW116949   1.656   6.880   5.412
 5350SOL    HW216950   1.528   6.876   5.514
 5351SOL     OW16951   6.841   5.140   2.466
 5351SOL    HW116952   6.754   5.182   2.440
 5351SOL    HW216953   6.831   5.097   2.556
 5352SOL     OW16954   2.591   4.771   3.472
 5352SOL    HW116955   2.492   4.763   3.476
 5352SOL    HW216956   2.624   4.735   3.385
 5353SOL     OW16957   4.248   4.740   3.647
 5353SOL    HW116958   4.328   4.800   3.645
 5353SOL    HW216959   4.275   4.650   3.682
 5354SOL     OW16960   2.527   5.454   2.109
 5354SOL    HW116961   2.584   5.525   2.067
 5354SOL    HW216962   2.566   5.428   2.197
 5355SOL     OW16963   6.481   3.997   3.899
 5355SOL    HW116964   6.480   3.936   3.979
 5355SOL    HW216965   6.390   4.035   3.885
 5356SOL     OW16966   5.858   4.687   1.685
 5356SOL    HW116967   5.912   4.603   1.686
 5356SOL    HW216968   5.761   4.666   1.696
 5357SOL     OW16969   4.092   6.574   1.358
 5357SOL    HW116970   4.114   6.540   1.266
 5357SOL    HW216971   3.998   6.548   1.381
 5358SOL     OW16972   4.781   1.457   0.249
 5358SOL    HW116973   4.825   1.523   0.311
 5358SOL    HW216974   4.851   1.409   0.196
 5359SOL     OW16975   1.008   1.279   5.693
 5359SOL    HW116976   1.042   1.255   5.602
 5359SOL    HW216977   1.076   1.335   5.741
 5360SOL     OW16978   3.805   6.542   5.168
 5360SOL    HW116979   3.729   6.566   5.108
 5360SOL    HW216980   3.892   6.554   5.119
 5361SOL     OW16981   2.447   1.197   5.694
 5361SOL    HW116982   2.474   1.102   5.679
 5361SOL    HW216983   2.420   1.209   5.790
 5362SOL     OW16984   6.539   5.667   3.292
 5362SOL    HW116985   6.508   5.576   3.321
 5362SOL    HW216986   6.459   5.723   3.269
 5363SOL     OW16987   0.239   0.874   6.925
 5363SOL    HW116988   0.266   0.957   6.876
 5363SOL    HW216989   0.292   0.797   6.889
 5364SOL     OW16990   6.534   6.784   2.058
 5364SOL    HW116991   6.551   6.826   1.968
 5364SOL    HW216992   6.588   6.831   2.127
 5365SOL     OW16993   3.759   3.392   0.186
 5365SOL    HW116994   3.844   3.432   0.151
 5365SOL    HW216995   3.693   3.385   0.111
 5366SOL     OW16996   5.456   5.809   1.709
 5366SOL    HW116997   5.360   5.780   1.711
 5366SOL    HW216998   5.475   5.867   1.788
 5367SOL     OW16999   0.765   6.564   0.965
 5367SOL    HW117000   0.815   6.563   0.878
 5367SOL    HW217001   0.756   6.659   0.997
 5368SOL     OW17002   5.221   0.078   2.458
 5368SOL    HW117003   5.197   0.106   2.551
 5368SOL    HW217004   5.154   0.116   2.394
 5369SOL     OW17005   2.603   6.827   1.809
 5369SOL    HW117006   2.631   6.892   1.879
 5369SOL    HW217007   2.601   6.735   1.848
 5370SOL     OW17008   4.455   2.977   1.704
 5370SOL    HW117009   4.421   2.883   1.704
 5370SOL    HW217010   4.517   2.990   1.781
 5371SOL     OW17011   0.983   3.657   5.016
 5371SOL    HW117012   1.003   3.706   4.931
 5371SOL    HW217013   0.887   3.629   5.016
 5372SOL     OW17014   2.120   6.314   4.049
 5372SOL    HW117015   2.149   6.368   3.971
 5372SOL    HW217016   2.186   6.323   4.123
 5373SOL     OW17017   3.408   0.083   4.456
 5373SOL    HW117018   3.379   0.172   4.492
 5373SOL    HW217019   3.502   0.065   4.484
 5374SOL     OW17020   1.368   4.443   6.970
 5374SOL    HW117021   1.350   4.458   0.047
 5374SOL    HW217022   1.466   4.453   6.952
 5375SOL     OW17023   0.946   5.091   5.011
 5375SOL    HW117024   1.040   5.057   5.014
 5375SOL    HW217025   0.942   5.170   4.949
 5376SOL     OW17026   1.386   3.040   1.084
 5376SOL    HW117027   1.301   2.993   1.061
 5376SOL    HW217028   1.436   2.987   1.152
 5377SOL     OW17029   0.089   6.771   2.627
 5377SOL    HW117030   0.141   6.698   2.584
 5377SOL    HW217031   0.065   6.745   2.721
 5378SOL     OW17032   6.662   0.561   1.641
 5378SOL    HW117033   6.572   0.603   1.629
 5378SOL    HW217034   6.667   0.516   1.730
 5379SOL     OW17035   1.446   4.377   5.262
 5379SOL    HW117036   1.419   4.435   5.185
 5379SOL    HW217037   1.380   4.303   5.274
 5380SOL     OW17038   2.260   1.373   3.121
 5380SOL    HW117039   2.278   1.470   3.102
 5380SOL    HW217040   2.221   1.330   3.040
 5381SOL     OW17041   6.415   4.556   1.703
 5381SOL    HW117042   6.346   4.496   1.744
 5381SOL    HW217043   6.497   4.555   1.759
 5382SOL     OW17044   3.110   1.314   2.390
 5382SOL    HW117045   3.183   1.265   2.437
 5382SOL    HW217046   3.034   1.329   2.453
 5383SOL     OW17047   2.416   2.521   5.360
 5383SOL    HW117048   2.441   2.424   5.361
 5383SOL    HW217049   2.499   2.577   5.353
 5384SOL     OW17050   5.872   6.769   5.008
 5384SOL    HW117051   5.928   6.850   4.991
 5384SOL    HW217052   5.924   6.704   5.063
 5385SOL     OW17053   3.469   3.475   4.175
 5385SOL    HW117054   3.535   3.408   4.208
 5385SOL    HW217055   3.377   3.449   4.204
 5386SOL     OW17056   4.791   0.655   4.024
 5386SOL    HW117057   4.733   0.623   4.099
 5386SOL    HW217058   4.847   0.580   3.990
 5387SOL     OW17059   2.576   6.660   3.428
 5387SOL    HW117060   2.632   6.728   3.382
 5387SOL    HW217061   2.635   6.584   3.458
 5388SOL     OW17062   0.140   0.866   3.946
 5388SOL    HW117063   0.178   0.943   3.997
 5388SOL    HW217064   0.213   0.825   3.890
 5389SOL     OW17065   4.786   1.080   2.616
 5389SOL    HW117066   4.738   0.994   2.636
 5389SOL    HW217067   4.829   1.114   2.699
 5390SOL     OW17068   4.698   4.476   2.910
 5390SOL    HW117069   4.792   4.496   2.936
 5390SOL    HW217070   4.659   4.553   2.860
 5391SOL     OW17071   2.066   2.311   1.035
 5391SOL    HW117072   2.072   2.232   0.973
 5391SOL    HW217073   2.144   2.372   1.019
 5392SOL     OW17074   5.328   3.336   1.045
 5392SOL    HW117075   5.355   3.334   0.949
 5392SOL    HW217076   5.269   3.258   1.065
 5393SOL     OW17077   4.906   6.459   6.823
 5393SOL    HW117078   4.889   6.484   6.727
 5393SOL    HW217079   4.975   6.520   6.861
 5394SOL     OW17080   6.727   4.667   6.932
 5394SOL    HW117081   6.677   4.723   6.866
 5394SOL    HW217082   6.776   4.726   6.995
 5395SOL     OW17083   5.363   1.433   1.436
 5395SOL    HW117084   5.329   1.351   1.389
 5395SOL    HW217085   5.367   1.416   1.534
 5396SOL     OW17086   4.330   4.507   1.834
 5396SOL    HW117087   4.306   4.542   1.924
 5396SOL    HW217088   4.362   4.412   1.842
 5397SOL     OW17089   0.662   2.680   1.718
 5397SOL    HW117090   0.654   2.756   1.783
 5397SOL    HW217091   0.728   2.704   1.647
 5398SOL     OW17092   3.649   2.116   3.771
 5398SOL    HW117093   3.716   2.100   3.700
 5398SOL    HW217094   3.559   2.084   3.740
 5399SOL     OW17095   3.052   5.874   0.814
 5399SOL    HW117096   3.093   5.894   0.724
 5399SOL    HW217097   3.081   5.944   0.879
 5400SOL     OW17098   2.606   3.990   0.026
 5400SOL    HW117099   2.654   3.929   0.089
 5400SOL    HW217100   2.518   3.949   0.001
 5401SOL     OW17101   5.928   3.985   1.323
 5401SOL    HW117102   5.983   4.042   1.384
 5401SOL    HW217103   5.906   3.898   1.369
 5402SOL     OW17104   2.664   5.161   1.826
 5402SOL    HW117105   2.697   5.117   1.742
 5402SOL    HW217106   2.741   5.170   1.891
 5403SOL     OW17107   5.603   2.589   6.439
 5403SOL    HW117108   5.645   2.668   6.484
 5403SOL    HW217109   5.504   2.600   6.436
 5404SOL     OW17110   0.772   0.700   2.088
 5404SOL    HW117111   0.716   0.647   2.025
 5404SOL    HW217112   0.721   0.781   2.117
 5405SOL     OW17113   5.721   6.077   0.216
 5405SOL    HW117114   5.756   6.166   0.246
 5405SOL    HW217115   5.796   6.011   0.213
 5406SOL     OW17116   3.065   0.081   6.488
 5406SOL    HW117117   3.045   0.034   6.574
 5406SOL    HW217118   2.986   0.134   6.460
 5407SOL     OW17119   4.666   2.514   1.585
 5407SOL    HW117120   4.702   2.424   1.559
 5407SOL    HW217121   4.608   2.504   1.667
 5408SOL     OW17122   3.240   1.107   5.831
 5408SOL    HW117123   3.141   1.115   5.845
 5408SOL    HW217124   3.261   1.014   5.801
 5409SOL     OW17125   5.857   1.694   4.102
 5409SOL    HW117126   5.839   1.596   4.094
 5409SOL    HW217127   5.954   1.712   4.086
 5410SOL     OW17128   1.614   3.301   0.392
 5410SOL    HW117129   1.580   3.295   0.486
 5410SOL    HW217130   1.613   3.210   0.350
 5411SOL     OW17131   6.521   4.931   5.424
 5411SOL    HW117132   6.511   5.020   5.468
 5411SOL    HW217133   6.432   4.886   5.417
 5412SOL     OW17134   4.517   0.722   7.013
 5412SOL    HW117135   4.613   0.720   6.986
 5412SOL    HW217136   4.464   0.666   6.949
 5413SOL     OW17137   0.680   0.309   0.995
 5413SOL    HW117138   0.582   0.321   1.012
 5413SOL    HW217139   0.695   0.289   0.898
 5414SOL     OW17140   5.754   2.840   4.710
 5414SOL    HW117141   5.701   2.924   4.721
 5414SOL    HW217142   5.803   2.842   4.624
 5415SOL     OW17143   1.532   6.510   1.599
 5415SOL    HW117144   1.504   6.606   1.601
 5415SOL    HW217145   1.616   6.499   1.652
 5416SOL     OW17146   3.585   4.957   6.368
 5416SOL    HW117147   3.525   4.966   6.448
 5416SOL    HW217148   3.531   4.927   6.289
 5417SOL     OW17149   3.770   6.938   5.152
 5417SOL    HW117150   3.830   6.870   5.110
 5417SOL    HW217151   3.825   6.998   5.211
 5418SOL     OW17152   4.317   0.146   4.486
 5418SOL    HW117153   4.376   0.083   4.436
 5418SOL    HW217154   4.372   0.202   4.548
 5419SOL     OW17155   2.983   5.718   0.441
 5419SOL    HW117156   3.076   5.727   0.477
 5419SOL    HW217157   2.951   5.807   0.408
 5420SOL     OW17158   1.508   2.828   1.856
 5420SOL    HW117159   1.571   2.803   1.930
 5420SOL    HW217160   1.561   2.849   1.774
 5421SOL     OW17161   2.359   4.281   2.645
 5421SOL    HW117162   2.389   4.321   2.559
 5421SOL    HW217163   2.311   4.195   2.627
 5422SOL     OW17164   0.913   5.715   5.865
 5422SOL    HW117165   0.832   5.668   5.900
 5422SOL    HW217166   0.896   5.747   5.771
 5423SOL     OW17167   5.496   3.352   6.878
 5423SOL    HW117168   5.496   3.401   6.965
 5423SOL    HW217169   5.405   3.355   6.838
 5424SOL     OW17170   5.470   3.231   4.063
 5424SOL    HW117171   5.439   3.309   4.117
 5424SOL    HW217172   5.409   3.153   4.079
 5425SOL     OW17173   4.830   1.621   4.209
 5425SOL    HW117174   4.879   1.683   4.270
 5425SOL    HW217175   4.894   1.557   4.167
 5426SOL     OW17176   6.931   5.566   3.751
 5426SOL    HW117177   6.834   5.559   3.775
 5426SOL    HW217178   6.940   5.596   3.657
 5427SOL     OW17179   5.223   5.117   0.763
 5427SOL    HW117180   5.259   5.047   0.825
 5427SOL    HW217181   5.126   5.132   0.782
 5428SOL     OW17182   6.950   0.456   1.730
 5428SOL    HW117183   7.002   0.524   1.679
 5428SOL    HW217184   6.918   0.495   1.816
 5429SOL     OW17185   1.163   1.442   5.848
 5429SOL    HW117186   1.233   1.449   5.919
 5429SOL    HW217187   1.090   1.508   5.867
 5430SOL     OW17188   1.036   3.019   5.068
 5430SOL    HW117189   1.080   3.101   5.032
 5430SOL    HW217190   1.100   2.942   5.065
 5431SOL     OW17191   3.519   5.536   6.405
 5431SOL    HW117192   3.526   5.507   6.500
 5431SOL    HW217193   3.595   5.496   6.352
 5432SOL     OW17194   4.068   6.407   6.326
 5432SOL    HW117195   4.150   6.409   6.383
 5432SOL    HW217196   4.095   6.394   6.230
 5433SOL     OW17197   0.081   1.363   3.332
 5433SOL    HW117198   0.031   1.427   3.272
 5433SOL    HW217199   0.102   1.408   3.418
 5434SOL     OW17200   3.775   0.983   4.812
 5434SOL    HW117201   3.727   0.920   4.874
 5434SOL    HW217202   3.864   1.006   4.852
 5435SOL     OW17203   6.077   1.582   1.259
 5435SOL    HW117204   6.130   1.647   1.313
 5435SOL    HW217205   5.999   1.550   1.312
 5436SOL     OW17206   5.406   4.195   4.814
 5436SOL    HW117207   5.407   4.126   4.742
 5436SOL    HW217208   5.400   4.150   4.903
 5437SOL     OW17209   2.442   4.837   5.177
 5437SOL    HW117210   2.380   4.890   5.119
 5437SOL    HW217211   2.406   4.832   5.270
 5438SOL     OW17212   5.730   3.664   2.745
 5438SOL    HW117213   5.735   3.706   2.654
 5438SOL    HW217214   5.635   3.649   2.770
 5439SOL     OW17215   0.111   2.270   0.402
 5439SOL    HW117216   0.057   2.186   0.398
 5439SOL    HW217217   0.076   2.336   0.336
 5440SOL     OW17218   0.584   0.243   2.421
 5440SOL    HW117219   0.559   0.294   2.339
 5440SOL    HW217220   0.649   0.171   2.397
 5441SOL     OW17221   4.830   3.120   3.041
 5441SOL    HW117222   4.830   3.133   2.941
 5441SOL    HW217223   4.764   3.049   3.065
 5442SOL     OW17224   3.448   6.461   3.055
 5442SOL    HW117225   3.427   6.470   2.958
 5442SOL    HW217226   3.511   6.534   3.082
 5443SOL     OW17227   2.493   6.910   3.913
 5443SOL    HW117228   2.586   6.874   3.912
 5443SOL    HW217229   2.476   6.962   3.829
 5444SOL     OW17230   0.975   0.567   3.645
 5444SOL    HW117231   0.972   0.657   3.601
 5444SOL    HW217232   1.060   0.520   3.620
 5445SOL     OW17233   6.121   4.501   4.282
 5445SOL    HW117234   6.030   4.458   4.283
 5445SOL    HW217235   6.169   4.475   4.198
 5446SOL     OW17236   5.695   5.470   5.272
 5446SOL    HW117237   5.675   5.447   5.367
 5446SOL    HW217238   5.706   5.386   5.219
 5447SOL     OW17239   1.527   1.949   0.621
 5447SOL    HW117240   1.522   1.862   0.670
 5447SOL    HW217241   1.496   1.937   0.527
 5448SOL     OW17242   5.699   3.638   4.747
 5448SOL    HW117243   5.716   3.576   4.823
 5448SOL    HW217244   5.783   3.649   4.693
 5449SOL     OW17245   1.513   1.970   6.646
 5449SOL    HW117246   1.472   2.022   6.721
 5449SOL    HW217247   1.595   2.017   6.614
 5450SOL     OW17248   1.947   0.349   2.152
 5450SOL    HW117249   1.897   0.344   2.066
 5450SOL    HW217250   2.039   0.386   2.135
 5451SOL     OW17251   1.471   5.506   3.479
 5451SOL    HW117252   1.470   5.438   3.552
 5451SOL    HW217253   1.527   5.473   3.403
 5452SOL     OW17254   2.001   3.873   6.874
 5452SOL    HW117255   1.917   3.873   6.928
 5452SOL    HW217256   2.078   3.849   6.932
 5453SOL     OW17257   4.953   4.056   1.176
 5453SOL    HW117258   5.046   4.020   1.186
 5453SOL    HW217259   4.894   4.015   1.246
 5454SOL     OW17260   6.215   4.149   5.763
 5454SOL    HW117261   6.121   4.149   5.730
 5454SOL    HW217262   6.230   4.229   5.821
 5455SOL     OW17263   6.206   2.310   1.859
 5455SOL    HW117264   6.240   2.299   1.952
 5455SOL    HW217265   6.278   2.287   1.794
 5456SOL     OW17266   2.553   0.273   6.813
 5456SOL    HW117267   2.464   0.292   6.772
 5456SOL    HW217268   2.542   0.211   6.891
 5457SOL     OW17269   6.897   2.435   0.554
 5457SOL    HW117270   6.831   2.478   0.615
 5457SOL    HW217271   6.854   2.359   0.506
 5458SOL     OW17272   0.430   3.962   0.295
 5458SOL    HW117273   0.463   4.031   0.359
 5458SOL    HW217274   0.334   3.979   0.274
 5459SOL     OW17275   2.390   4.258   6.677
 5459SOL    HW117276   2.330   4.194   6.726
 5459SOL    HW217277   2.458   4.206   6.625
 5460SOL     OW17278   3.949   0.134   3.294
 5460SOL    HW117279   3.954   0.134   3.394
 5460SOL    HW217280   3.939   0.227   3.261
 5461SOL     OW17281   0.172   0.517   5.712
 5461SOL    HW117282   0.261   0.523   5.757
 5461SOL    HW217283   0.133   0.426   5.729
 5462SOL     OW17284   0.283   6.518   1.219
 5462SOL    HW117285   0.283   6.420   1.241
 5462SOL    HW217286   0.255   6.531   1.124
 5463SOL     OW17287   6.800   1.333   0.293
 5463SOL    HW117288   6.787   1.253   0.234
 5463SOL    HW217289   6.758   1.413   0.251
 5464SOL     OW17290   0.689   0.733   4.784
 5464SOL    HW117291   0.763   0.718   4.718
 5464SOL    HW217292   0.606   0.688   4.752
 5465SOL     OW17293   4.445   0.359   4.259
 5465SOL    HW117294   4.485   0.279   4.214
 5465SOL    HW217295   4.351   0.372   4.228
 5466SOL     OW17296   5.167   3.018   4.758
 5466SOL    HW117297   5.220   3.021   4.844
 5466SOL    HW217298   5.071   3.037   4.778
 5467SOL     OW17299   4.856   3.993   3.376
 5467SOL    HW117300   4.942   4.012   3.423
 5467SOL    HW217301   4.816   3.908   3.412
 5468SOL     OW17302   6.499   2.707   4.070
 5468SOL    HW117303   6.434   2.668   4.136
 5468SOL    HW217304   6.506   2.646   3.990
 5469SOL     OW17305   2.874   5.835   6.062
 5469SOL    HW117306   2.928   5.823   6.145
 5469SOL    HW217307   2.935   5.844   5.983
 5470SOL     OW17308   3.599   5.541   3.015
 5470SOL    HW117309   3.688   5.587   3.021
 5470SOL    HW217310   3.526   5.609   3.006
 5471SOL     OW17311   5.584   6.814   2.548
 5471SOL    HW117312   5.534   6.765   2.477
 5471SOL    HW217313   5.558   6.911   2.547
 5472SOL     OW17314   3.751   3.995   5.579
 5472SOL    HW117315   3.819   3.929   5.612
 5472SOL    HW217316   3.662   3.949   5.570
 5473SOL     OW17317   0.420   2.996   2.571
 5473SOL    HW117318   0.491   2.967   2.507
 5473SOL    HW217319   0.423   2.938   2.652
 5474SOL     OW17320   1.197   4.659   4.036
 5474SOL    HW117321   1.198   4.713   3.951
 5474SOL    HW217322   1.233   4.567   4.017
 5475SOL     OW17323   2.328   2.908   1.030
 5475SOL    HW117324   2.286   2.829   0.986
 5475SOL    HW217325   2.329   2.894   1.129
 5476SOL     OW17326   2.231   4.305   5.634
 5476SOL    HW117327   2.256   4.232   5.571
 5476SOL    HW217328   2.224   4.392   5.584
 5477SOL     OW17329   1.984   4.740   3.075
 5477SOL    HW117330   2.049   4.735   3.151
 5477SOL    HW217331   1.993   4.658   3.018
 5478SOL     OW17332   3.556   5.718   4.909
 5478SOL    HW117333   3.582   5.644   4.846
 5478SOL    HW217334   3.459   5.712   4.929
 5479SOL     OW17335   5.280   1.637   5.706
 5479SOL    HW117336   5.244   1.547   5.728
 5479SOL    HW217337   5.343   1.630   5.628
 5480SOL     OW17338   5.815   4.569   2.798
 5480SOL    HW117339   5.875   4.640   2.761
 5480SOL    HW217340   5.857   4.479   2.781
 5481SOL     OW17341   4.283   1.826   4.216
 5481SOL    HW117342   4.187   1.854   4.223
 5481SOL    HW217343   4.341   1.901   4.246
 5482SOL     OW17344   3.584   4.406   1.692
 5482SOL    HW117345   3.590   4.497   1.734
 5482SOL    HW217346   3.505   4.357   1.729
 5483SOL     OW17347   0.167   1.659   5.824
 5483SOL    HW117348   0.189   1.720   5.749
 5483SOL    HW217349   0.141   1.569   5.788
 5484SOL     OW17350   4.171   1.320   4.314
 5484SOL    HW117351   4.208   1.410   4.338
 5484SOL    HW217352   4.229   1.249   4.355
 5485SOL     OW17353   3.812   0.225   5.548
 5485SOL    HW117354   3.882   0.265   5.607
 5485SOL    HW217355   3.731   0.203   5.602
 5486SOL     OW17356   2.684   5.971   5.239
 5486SOL    HW117357   2.754   6.000   5.304
 5486SOL    HW217358   2.643   5.885   5.270
 5487SOL     OW17359   4.284   2.479   6.936
 5487SOL    HW117360   4.251   2.454   0.008
 5487SOL    HW217361   4.377   2.516   6.943
 5488SOL     OW17362   6.231   0.269   1.166
 5488SOL    HW117363   6.216   0.347   1.105
 5488SOL    HW217364   6.284   0.298   1.246
 5489SOL     OW17365   0.713   4.775   1.476
 5489SOL    HW117366   0.626   4.813   1.508
 5489SOL    HW217367   0.786   4.842   1.488
 5490SOL     OW17368   3.287   0.270   2.613
 5490SOL    HW117369   3.251   0.195   2.668
 5490SOL    HW217370   3.215   0.337   2.597
 5491SOL     OW17371   0.721   2.895   0.345
 5491SOL    HW117372   0.622   2.903   0.346
 5491SOL    HW217373   0.757   2.937   0.261
 5492SOL     OW17374   0.499   4.417   6.450
 5492SOL    HW117375   0.569   4.484   6.426
 5492SOL    HW217376   0.470   4.431   6.545
 5493SOL     OW17377   3.208   3.966   4.011
 5493SOL    HW117378   3.224   4.053   4.059
 5493SOL    HW217379   3.143   3.979   3.937
 5494SOL     OW17380   0.650   3.962   5.610
 5494SOL    HW117381   0.602   3.952   5.523
 5494SOL    HW217382   0.739   3.916   5.604
 5495SOL     OW17383   5.942   0.948   0.858
 5495SOL    HW117384   5.911   0.863   0.817
 5495SOL    HW217385   5.980   1.007   0.786
 5496SOL     OW17386   4.060   0.712   3.802
 5496SOL    HW117387   4.075   0.769   3.721
 5496SOL    HW217388   4.024   0.767   3.876
 5497SOL     OW17389   0.430   0.465   4.862
 5497SOL    HW117390   0.489   0.471   4.781
 5497SOL    HW217391   0.362   0.394   4.849
 5498SOL     OW17392   6.808   5.364   1.404
 5498SOL    HW117393   6.892   5.328   1.443
 5498SOL    HW217394   6.776   5.442   1.457
 5499SOL     OW17395   1.081   0.811   4.698
 5499SOL    HW117396   1.156   0.864   4.659
 5499SOL    HW217397   1.097   0.796   4.795
 5500SOL     OW17398   0.816   0.635   7.016
 5500SOL    HW117399   0.804   0.536   7.006
 5500SOL    HW217400   0.912   0.655   0.016
 5501SOL     OW17401   3.998   1.730   6.755
 5501SOL    HW117402   3.903   1.746   6.782
 5501SOL    HW217403   4.026   1.802   6.691
 5502SOL     OW17404   4.961   4.096   0.004
 5502SOL    HW117405   4.970   4.146   0.090
 5502SOL    HW217406   4.984   4.000   0.019
 5503SOL     OW17407   6.886   4.393   0.765
 5503SOL    HW117408   6.788   4.377   0.782
 5503SOL    HW217409   6.907   4.489   0.783
 5504SOL     OW17410   4.576   1.426   5.014
 5504SOL    HW117411   4.606   1.358   5.080
 5504SOL    HW217412   4.537   1.505   5.062
 5505SOL     OW17413   1.973   5.304   4.029
 5505SOL    HW117414   2.005   5.313   4.123
 5505SOL    HW217415   1.995   5.212   3.996
 5506SOL     OW17416   0.479   3.784   0.662
 5506SOL    HW117417   0.424   3.866   0.682
 5506SOL    HW217418   0.527   3.756   0.745
 5507SOL     OW17419   3.957   1.345   4.925
 5507SOL    HW117420   3.881   1.294   4.966
 5507SOL    HW217421   4.017   1.378   4.998
 5508SOL     OW17422   1.251   1.255   0.428
 5508SOL    HW117423   1.162   1.284   0.461
 5508SOL    HW217424   1.322   1.284   0.491
 5509SOL     OW17425   0.488   6.173   6.344
 5509SOL    HW117426   0.524   6.223   6.422
 5509SOL    HW217427   0.555   6.105   6.315
 5510SOL     OW17428   4.391   5.514   6.581
 5510SOL    HW117429   4.395   5.435   6.642
 5510SOL    HW217430   4.295   5.538   6.565
 5511SOL     OW17431   1.117   7.001   4.343
 5511SOL    HW117432   1.091   0.077   4.358
 5511SOL    HW217433   1.041   6.942   4.372
 5512SOL     OW17434   4.933   1.979   0.735
 5512SOL    HW117435   5.032   1.980   0.718
 5512SOL    HW217436   4.885   2.005   0.651
 5513SOL     OW17437   3.903   5.814   5.922
 5513SOL    HW117438   3.912   5.720   5.890
 5513SOL    HW217439   3.824   5.821   5.983
 5514SOL     OW17440   3.326   0.313   4.584
 5514SOL    HW117441   3.375   0.400   4.594
 5514SOL    HW217442   3.229   0.332   4.567
 5515SOL     OW17443   0.960   5.758   1.532
 5515SOL    HW117444   1.041   5.772   1.476
 5515SOL    HW217445   0.917   5.846   1.553
 5516SOL     OW17446   1.702   2.433   5.250
 5516SOL    HW117447   1.766   2.358   5.237
 5516SOL    HW217448   1.725   2.508   5.188
 5517SOL     OW17449   2.132   3.614   2.188
 5517SOL    HW117450   2.113   3.712   2.183
 5517SOL    HW217451   2.181   3.585   2.106
 5518SOL     OW17452   5.808   5.467   6.877
 5518SOL    HW117453   5.888   5.494   6.823
 5518SOL    HW217454   5.764   5.549   6.914
 5519SOL     OW17455   5.305   2.984   3.000
 5519SOL    HW117456   5.389   3.029   3.029
 5519SOL    HW217457   5.243   3.051   2.961
 5520SOL     OW17458   5.862   6.719   2.402
 5520SOL    HW117459   5.900   6.659   2.331
 5520SOL    HW217460   5.782   6.674   2.443
 5521SOL     OW17461   4.648   6.439   2.026
 5521SOL    HW117462   4.738   6.480   2.018
 5521SOL    HW217463   4.589   6.472   1.952
 5522SOL     OW17464   6.332   4.973   0.554
 5522SOL    HW117465   6.247   4.997   0.507
 5522SOL    HW217466   6.327   5.003   0.649
 5523SOL     OW17467   4.185   1.198   1.544
 5523SOL    HW117468   4.268   1.142   1.542
 5523SOL    HW217469   4.181   1.249   1.631
 5524SOL     OW17470   3.793   0.069   4.520
 5524SOL    HW117471   3.878   0.098   4.475
 5524SOL    HW217472   3.744   0.006   4.461
 5525SOL     OW17473   0.903   2.219   0.335
 5525SOL    HW117474   0.987   2.273   0.332
 5525SOL    HW217475   0.845   2.242   0.257
 5526SOL     OW17476   5.129   5.158   2.745
 5526SOL    HW117477   5.153   5.066   2.715
 5526SOL    HW217478   5.197   5.190   2.811
 5527SOL     OW17479   4.926   3.790   3.665
 5527SOL    HW117480   4.956   3.710   3.717
 5527SOL    HW217481   4.888   3.858   3.728
 5528SOL     OW17482   1.680   0.712   0.766
 5528SOL    HW117483   1.770   0.718   0.723
 5528SOL    HW217484   1.686   0.748   0.860
 5529SOL     OW17485   3.519   6.750   4.706
 5529SOL    HW117486   3.591   6.792   4.762
 5529SOL    HW217487   3.441   6.729   4.765
 5530SOL     OW17488   6.108   2.031   0.764
 5530SOL    HW117489   6.145   2.052   0.855
 5530SOL    HW217490   6.144   1.943   0.733
 5531SOL     OW17491   3.756   3.401   1.612
 5531SOL    HW117492   3.676   3.368   1.561
 5531SOL    HW217493   3.777   3.494   1.586
 5532SOL     OW17494   1.060   2.902   1.385
 5532SOL    HW117495   1.087   2.895   1.289
 5532SOL    HW217496   1.137   2.878   1.444
 5533SOL     OW17497   4.370   1.748   3.472
 5533SOL    HW117498   4.359   1.840   3.509
 5533SOL    HW217499   4.328   1.744   3.381
 5534SOL     OW17500   0.762   1.711   0.110
 5534SOL    HW117501   0.794   1.783   0.049
 5534SOL    HW217502   0.839   1.657   0.142
 5535SOL     OW17503   1.274   1.164   3.015
 5535SOL    HW117504   1.353   1.196   2.962
 5535SOL    HW217505   1.304   1.134   3.105
 5536SOL     OW17506   3.515   0.364   3.996
 5536SOL    HW117507   3.459   0.329   4.071
 5536SOL    HW217508   3.523   0.464   4.004
 5537SOL     OW17509   3.394   1.661   2.570
 5537SOL    HW117510   3.318   1.621   2.519
 5537SOL    HW217511   3.480   1.620   2.540
 5538SOL     OW17512   4.200   5.802   5.177
 5538SOL    HW117513   4.145   5.859   5.237
 5538SOL    HW217514   4.297   5.828   5.184
 5539SOL     OW17515   1.287   4.284   1.769
 5539SOL    HW117516   1.250   4.307   1.859
 5539SOL    HW217517   1.270   4.360   1.705
 5540SOL     OW17518   4.608   4.693   3.902
 5540SOL    HW117519   4.569   4.685   3.993
 5540SOL    HW217520   4.706   4.715   3.909
 5541SOL     OW17521   4.940   0.028   6.367
 5541SOL    HW117522   4.884   6.983   6.316
 5541SOL    HW217523   5.002   6.998   6.428
 5542SOL     OW17524   4.443   3.602   6.103
 5542SOL    HW117525   4.475   3.507   6.096
 5542SOL    HW217526   4.480   3.655   6.027
 5543SOL     OW17527   4.462   3.880   0.006
 5543SOL    HW117528   4.534   3.838   6.971
 5543SOL    HW217529   4.402   3.809   0.043
 5544SOL     OW17530   5.170   5.514   6.861
 5544SOL    HW117531   5.153   5.476   6.952
 5544SOL    HW217532   5.218   5.446   6.805
 5545SOL     OW17533   4.663   0.264   2.968
 5545SOL    HW117534   4.704   0.332   2.907
 5545SOL    HW217535   4.598   0.208   2.916
 5546SOL     OW17536   0.513   4.179   4.452
 5546SOL    HW117537   0.425   4.155   4.413
 5546SOL    HW217538   0.515   4.277   4.473
 5547SOL     OW17539   3.189   6.735   5.392
 5547SOL    HW117540   3.284   6.753   5.420
 5547SOL    HW217541   3.189   6.684   5.306
 5548SOL     OW17542   6.406   3.029   5.876
 5548SOL    HW117543   6.384   3.069   5.965
 5548SOL    HW217544   6.356   3.079   5.805
 5549SOL     OW17545   4.198   5.077   0.234
 5549SOL    HW117546   4.290   5.058   0.269
 5549SOL    HW217547   4.134   5.082   0.311
 5550SOL     OW17548   2.964   5.580   2.368
 5550SOL    HW117549   3.046   5.533   2.400
 5550SOL    HW217550   2.905   5.515   2.319
 5551SOL     OW17551   1.568   0.982   3.002
 5551SOL    HW117552   1.541   0.971   3.098
 5551SOL    HW217553   1.554   1.078   2.975
 5552SOL     OW17554   0.056   1.103   0.007
 5552SOL    HW117555   0.053   1.003   0.006
 5552SOL    HW217556   0.099   1.134   0.092
 5553SOL     OW17557   3.647   6.508   0.261
 5553SOL    HW117558   3.715   6.581   0.266
 5553SOL    HW217559   3.692   6.421   0.244
 5554SOL     OW17560   2.754   1.812   5.729
 5554SOL    HW117561   2.738   1.910   5.724
 5554SOL    HW217562   2.674   1.763   5.695
 5555SOL     OW17563   0.934   4.997   3.789
 5555SOL    HW117564   0.961   5.091   3.765
 5555SOL    HW217565   0.837   4.994   3.809
 5556SOL     OW17566   0.481   2.510   4.233
 5556SOL    HW117567   0.460   2.499   4.330
 5556SOL    HW217568   0.434   2.591   4.198
 5557SOL     OW17569   3.129   4.981   3.947
 5557SOL    HW117570   3.081   4.977   4.035
 5557SOL    HW217571   3.072   5.029   3.880
 5558SOL     OW17572   4.888   3.357   5.438
 5558SOL    HW117573   4.912   3.414   5.360
 5558SOL    HW217574   4.824   3.286   5.408
 5559SOL     OW17575   2.507   6.828   2.373
 5559SOL    HW117576   2.520   6.920   2.412
 5559SOL    HW217577   2.478   6.765   2.445
 5560SOL     OW17578   0.372   6.818   2.853
 5560SOL    HW117579   0.436   6.894   2.863
 5560SOL    HW217580   0.415   6.746   2.798
 5561SOL     OW17581   1.840   2.470   4.088
 5561SOL    HW117582   1.754   2.460   4.039
 5561SOL    HW217583   1.915   2.482   4.023
 5562SOL     OW17584   1.968   2.025   6.747
 5562SOL    HW117585   1.995   2.051   6.840
 5562SOL    HW217586   2.047   2.034   6.686
 5563SOL     OW17587   4.450   6.537   2.571
 5563SOL    HW117588   4.422   6.508   2.479
 5563SOL    HW217589   4.404   6.479   2.639
 5564SOL     OW17590   5.034   2.630   1.264
 5564SOL    HW117591   5.110   2.695   1.275
 5564SOL    HW217592   5.043   2.557   1.331
 5565SOL     OW17593   4.831   2.243   6.142
 5565SOL    HW117594   4.825   2.239   6.242
 5565SOL    HW217595   4.815   2.337   6.113
 5566SOL     OW17596   1.080   6.035   1.324
 5566SOL    HW117597   1.159   6.094   1.337
 5566SOL    HW217598   0.996   6.085   1.347
 5567SOL     OW17599   0.715   4.883   0.544
 5567SOL    HW117600   0.734   4.855   0.638
 5567SOL    HW217601   0.761   4.821   0.481
 5568SOL     OW17602   4.661   2.575   1.258
 5568SOL    HW117603   4.732   2.607   1.321
 5568SOL    HW217604   4.606   2.653   1.228
 5569SOL     OW17605   3.880   1.878   1.720
 5569SOL    HW117606   3.831   1.925   1.794
 5569SOL    HW217607   3.978   1.874   1.742
 5570SOL     OW17608   6.323   4.928   4.794
 5570SOL    HW117609   6.421   4.944   4.808
 5570SOL    HW217610   6.280   4.906   4.881
 5571SOL     OW17611   0.121   6.239   0.520
 5571SOL    HW117612   0.174   6.168   0.474
 5571SOL    HW217613   0.072   6.198   0.598
 5572SOL     OW17614   2.988   2.780   6.402
 5572SOL    HW117615   2.900   2.827   6.412
 5572SOL    HW217616   2.987   2.727   6.317
 5573SOL     OW17617   1.049   2.694   0.358
 5573SOL    HW117618   1.073   2.744   0.275
 5573SOL    HW217619   1.033   2.759   0.433
 5574SOL     OW17620   6.873   0.746   4.564
 5574SOL    HW117621   6.854   0.723   4.469
 5574SOL    HW217622   6.787   0.756   4.614
 5575SOL     OW17623   1.519   0.661   1.526
 5575SOL    HW117624   1.535   0.753   1.491
 5575SOL    HW217625   1.466   0.667   1.611
 5576SOL     OW17626   6.021   4.972   1.402
 5576SOL    HW117627   5.967   4.929   1.475
 5576SOL    HW217628   6.105   4.919   1.387
 5577SOL     OW17629   2.168   3.585   5.155
 5577SOL    HW117630   2.178   3.487   5.176
 5577SOL    HW217631   2.237   3.637   5.204
 5578SOL     OW17632   3.025   2.622   0.169
 5578SOL    HW117633   2.995   2.535   0.208
 5578SOL    HW217634   3.096   2.605   0.101
 5579SOL     OW17635   5.371   3.970   6.466
 5579SOL    HW117636   5.314   3.940   6.390
 5579SOL    HW217637   5.338   4.058   6.500
 5580SOL     OW17638   4.517   1.797   0.680
 5580SOL    HW117639   4.567   1.749   0.608
 5580SOL    HW217640   4.557   1.774   0.769
 5581SOL     OW17641   2.417   0.393   0.095
 5581SOL    HW117642   2.416   0.294   0.110
 5581SOL    HW217643   2.324   0.428   0.094
 5582SOL     OW17644   3.824   3.653   4.009
 5582SOL    HW117645   3.892   3.713   3.967
 5582SOL    HW217646   3.869   3.591   4.073
 5583SOL     OW17647   4.249   6.921   2.569
 5583SOL    HW117648   4.164   6.879   2.536
 5583SOL    HW217649   4.228   7.000   2.626
 5584SOL     OW17650   5.492   3.889   3.382
 5584SOL    HW117651   5.501   3.987   3.398
 5584SOL    HW217652   5.527   3.839   3.461
 5585SOL     OW17653   5.403   0.102   3.801
 5585SOL    HW117654   5.497   0.134   3.786
 5585SOL    HW217655   5.399   0.046   3.884
 5586SOL     OW17656   1.683   1.428   6.313
 5586SOL    HW117657   1.616   1.355   6.307
 5586SOL    HW217658   1.746   1.409   6.389
 5587SOL     OW17659   3.208   0.286   3.202
 5587SOL    HW117660   3.182   0.190   3.201
 5587SOL    HW217661   3.177   0.330   3.118
 5588SOL     OW17662   2.110   6.481   5.176
 5588SOL    HW117663   2.039   6.535   5.222
 5588SOL    HW217664   2.074   6.446   5.090
 5589SOL     OW17665   4.918   3.174   5.640
 5589SOL    HW117666   4.958   3.250   5.588
 5589SOL    HW217667   4.828   3.202   5.674
 5590SOL     OW17668   6.470   5.628   3.580
 5590SOL    HW117669   6.411   5.708   3.579
 5590SOL    HW217670   6.422   5.551   3.536
 5591SOL     OW17671   5.880   0.564   0.468
 5591SOL    HW117672   5.822   0.521   0.399
 5591SOL    HW217673   5.870   0.517   0.555
 5592SOL     OW17674   1.788   3.585   3.962
 5592SOL    HW117675   1.887   3.579   3.964
 5592SOL    HW217676   1.750   3.498   3.930
 5593SOL     OW17677   0.500   2.472   5.549
 5593SOL    HW117678   0.512   2.565   5.514
 5593SOL    HW217679   0.447   2.418   5.483
 5594SOL     OW17680   2.244   1.162   0.252
 5594SOL    HW117681   2.297   1.239   0.286
 5594SOL    HW217682   2.233   1.169   0.153
 5595SOL     OW17683   6.504   0.887   6.329
 5595SOL    HW117684   6.545   0.964   6.279
 5595SOL    HW217685   6.416   0.864   6.288
 5596SOL     OW17686   5.792   0.361   2.247
 5596SOL    HW117687   5.822   0.299   2.319
 5596SOL    HW217688   5.840   0.339   2.162
 5597SOL     OW17689   5.518   2.224   6.081
 5597SOL    HW117690   5.537   2.190   6.173
 5597SOL    HW217691   5.455   2.301   6.086
 5598SOL     OW17692   5.138   1.852   4.092
 5598SOL    HW117693   5.211   1.905   4.049
 5598SOL    HW217694   5.049   1.881   4.056
 5599SOL     OW17695   5.513   4.036   1.730
 5599SOL    HW117696   5.566   3.996   1.655
 5599SOL    HW217697   5.549   4.126   1.752
 5600SOL     OW17698   2.345   0.329   3.141
 5600SOL    HW117699   2.317   0.235   3.159
 5600SOL    HW217700   2.420   0.330   3.075
 5601SOL     OW17701   5.392   3.198   5.894
 5601SOL    HW117702   5.444   3.251   5.828
 5601SOL    HW217703   5.311   3.159   5.850
 5602SOL     OW17704   0.162   2.000   3.407
 5602SOL    HW117705   0.109   1.924   3.444
 5602SOL    HW217706   0.259   1.976   3.407
 5603SOL     OW17707   4.678   2.740   5.080
 5603SOL    HW117708   4.601   2.685   5.047
 5603SOL    HW217709   4.757   2.725   5.020
 5604SOL     OW17710   0.951   6.997   4.660
 5604SOL    HW117711   1.026   6.983   4.724
 5604SOL    HW217712   0.957   6.930   4.586
 5605SOL     OW17713   1.380   6.987   4.499
 5605SOL    HW117714   1.285   7.001   4.470
 5605SOL    HW217715   1.436   6.960   4.420
 5606SOL     OW17716   4.798   1.496   6.952
 5606SOL    HW117717   4.773   1.588   6.984
 5606SOL    HW217718   4.861   1.454   7.016
 5607SOL     OW17719   6.085   2.286   3.300
 5607SOL    HW117720   6.176   2.252   3.273
 5607SOL    HW217721   6.061   2.249   3.390
 5608SOL     OW17722   6.020   0.542   3.324
 5608SOL    HW117723   6.000   0.450   3.290
 5608SOL    HW217724   5.964   0.609   3.275
 5609SOL     OW17725   4.802   6.658   0.278
 5609SOL    HW117726   4.880   6.615   0.232
 5609SOL    HW217727   4.753   6.589   0.332
 5610SOL     OW17728   5.597   3.715   0.192
 5610SOL    HW117729   5.500   3.706   0.213
 5610SOL    HW217730   5.614   3.684   0.098
 5611SOL     OW17731   0.466   4.889   1.555
 5611SOL    HW117732   0.453   4.986   1.579
 5611SOL    HW217733   0.428   4.872   1.465
 5612SOL     OW17734   2.755   2.761   0.026
 5612SOL    HW117735   2.747   2.670   7.005
 5612SOL    HW217736   2.840   2.765   0.079
 5613SOL     OW17737   0.283   5.286   4.590
 5613SOL    HW117738   0.296   5.187   4.581
 5613SOL    HW217739   0.193   5.312   4.555
 5614SOL     OW17740   6.190   1.796   4.981
 5614SOL    HW117741   6.153   1.887   4.960
 5614SOL    HW217742   6.213   1.749   4.896
 5615SOL     OW17743   0.393   2.252   2.749
 5615SOL    HW117744   0.428   2.222   2.661
 5615SOL    HW217745   0.397   2.352   2.754
 5616SOL     OW17746   2.008   2.156   4.368
 5616SOL    HW117747   2.097   2.110   4.372
 5616SOL    HW217748   2.021   2.252   4.347
 5617SOL     OW17749   2.071   5.259   5.249
 5617SOL    HW117750   2.029   5.320   5.316
 5617SOL    HW217751   2.126   5.190   5.297
 5618SOL     OW17752   6.842   5.049   3.642
 5618SOL    HW117753   6.744   5.037   3.653
 5618SOL    HW217754   6.865   5.146   3.650
 5619SOL     OW17755   3.082   3.036   3.191
 5619SOL    HW117756   3.054   2.950   3.233
 5619SOL    HW217757   3.160   3.075   3.241
 5620SOL     OW17758   4.315   3.940   5.864
 5620SOL    HW117759   4.339   4.037   5.853
 5620SOL    HW217760   4.349   3.907   5.952
 5621SOL     OW17761   1.614   2.952   5.602
 5621SOL    HW117762   1.616   2.890   5.681
 5621SOL    HW217763   1.705   2.989   5.585
 5622SOL     OW17764   4.574   5.828   4.736
 5622SOL    HW117765   4.509   5.752   4.744
 5622SOL    HW217766   4.538   5.895   4.671
 5623SOL     OW17767   4.753   6.429   4.214
 5623SOL    HW117768   4.712   6.338   4.227
 5623SOL    HW217769   4.841   6.419   4.168
 5624SOL     OW17770   0.376   5.199   3.659
 5624SOL    HW117771   0.419   5.271   3.605
 5624SOL    HW217772   0.280   5.190   3.633
 5625SOL     OW17773   1.311   5.796   4.653
 5625SOL    HW117774   1.384   5.833   4.596
 5625SOL    HW217775   1.228   5.849   4.639
 5626SOL     OW17776   1.968   4.600   4.091
 5626SOL    HW117777   1.998   4.505   4.098
 5626SOL    HW217778   1.948   4.635   4.182
 5627SOL     OW17779   0.972   5.784   6.512
 5627SOL    HW117780   0.990   5.795   6.415
 5627SOL    HW217781   0.875   5.761   6.526
 5628SOL     OW17782   2.810   3.404   0.835
 5628SOL    HW117783   2.734   3.351   0.873
 5628SOL    HW217784   2.802   3.499   0.864
 5629SOL     OW17785   4.101   3.445   1.111
 5629SOL    HW117786   4.088   3.541   1.136
 5629SOL    HW217787   4.030   3.390   1.155
 5630SOL     OW17788   1.756   4.192   6.443
 5630SOL    HW117789   1.757   4.292   6.441
 5630SOL    HW217790   1.691   4.158   6.376
 5631SOL     OW17791   4.985   0.925   1.756
 5631SOL    HW117792   4.984   0.997   1.686
 5631SOL    HW217793   4.987   0.836   1.711
 5632SOL     OW17794   4.892   1.035   5.844
 5632SOL    HW117795   4.864   0.984   5.925
 5632SOL    HW217796   4.971   1.093   5.866
 5633SOL     OW17797   0.367   4.802   4.761
 5633SOL    HW117798   0.308   4.821   4.840
 5633SOL    HW217799   0.317   4.747   4.694
 5634SOL     OW17800   2.755   5.110   5.583
 5634SOL    HW117801   2.834   5.107   5.522
 5634SOL    HW217802   2.770   5.047   5.659
 5635SOL     OW17803   2.965   6.995   6.717
 5635SOL    HW117804   2.917   0.021   6.791
 5635SOL    HW217805   3.064   6.997   6.735
 5636SOL     OW17806   5.732   1.164   5.660
 5636SOL    HW117807   5.687   1.154   5.571
 5636SOL    HW217808   5.790   1.085   5.678
 5637SOL     OW17809   5.591   6.075   4.529
 5637SOL    HW117810   5.509   6.018   4.522
 5637SOL    HW217811   5.641   6.073   4.442
 5638SOL     OW17812   5.094   6.333   1.606
 5638SOL    HW117813   5.074   6.411   1.547
 5638SOL    HW217814   5.087   6.248   1.553
 5639SOL     OW17815   2.022   0.094   2.253
 5639SOL    HW117816   1.997   0.188   2.230
 5639SOL    HW217817   2.117   0.077   2.227
 5640SOL     OW17818   2.624   7.005   2.839
 5640SOL    HW117819   2.531   6.972   2.820
 5640SOL    HW217820   2.644   0.062   2.778
 5641SOL     OW17821   0.776   4.349   5.711
 5641SOL    HW117822   0.817   4.393   5.790
 5641SOL    HW217823   0.819   4.383   5.627
 5642SOL     OW17824   0.355   5.048   6.428
 5642SOL    HW117825   0.323   5.095   6.346
 5642SOL    HW217826   0.442   5.002   6.408
 5643SOL     OW17827   3.472   1.708   4.737
 5643SOL    HW117828   3.390   1.751   4.776
 5643SOL    HW217829   3.550   1.727   4.796
 5644SOL     OW17830   5.230   1.675   4.375
 5644SOL    HW117831   5.242   1.637   4.283
 5644SOL    HW217832   5.135   1.664   4.404
 5645SOL     OW17833   5.316   4.079   2.734
 5645SOL    HW117834   5.301   4.177   2.720
 5645SOL    HW217835   5.301   4.030   2.649
 5646SOL     OW17836   1.185   5.310   3.774
 5646SOL    HW117837   1.210   5.372   3.849
 5646SOL    HW217838   1.239   5.334   3.693
 5647SOL     OW17839   6.868   6.205   6.582
 5647SOL    HW117840   6.885   6.264   6.660
 5647SOL    HW217841   6.807   6.251   6.517
 5648SOL     OW17842   1.882   1.511   3.624
 5648SOL    HW117843   1.840   1.457   3.551
 5648SOL    HW217844   1.965   1.554   3.590
 5649SOL     OW17845   1.547   0.330   4.906
 5649SOL    HW117846   1.548   0.300   5.002
 5649SOL    HW217847   1.640   0.349   4.876
 5650SOL     OW17848   0.172   4.640   0.897
 5650SOL    HW117849   0.164   4.735   0.924
 5650SOL    HW217850   0.090   4.612   0.847
 5651SOL     OW17851   0.279   2.195   1.496
 5651SOL    HW117852   0.376   2.197   1.519
 5651SOL    HW217853   0.267   2.213   1.399
 5652SOL     OW17854   4.857   5.955   2.198
 5652SOL    HW117855   4.785   5.889   2.220
 5652SOL    HW217856   4.818   6.047   2.196
 5653SOL     OW17857   0.002   6.463   5.948
 5653SOL    HW117858   6.991   6.512   5.867
 5653SOL    HW217859   0.023   6.368   5.923
 5654SOL     OW17860   0.667   0.045   5.998
 5654SOL    HW117861   0.567   0.038   6.006
 5654SOL    HW217862   0.696   0.134   6.032
 5655SOL     OW17863   0.905   2.641   4.528
 5655SOL    HW117864   0.921   2.546   4.501
 5655SOL    HW217865   0.828   2.678   4.476
 5656SOL     OW17866   3.093   4.448   1.161
 5656SOL    HW117867   3.147   4.525   1.127
 5656SOL    HW217868   3.013   4.482   1.211
 5657SOL     OW17869   4.953   6.903   1.514
 5657SOL    HW117870   4.931   6.965   1.439
 5657SOL    HW217871   5.047   6.918   1.544
 5658SOL     OW17872   2.661   6.949   6.014
 5658SOL    HW117873   2.742   6.948   5.956
 5658SOL    HW217874   2.686   6.923   6.108
 5659SOL     OW17875   2.946   3.323   2.765
 5659SOL    HW117876   3.016   3.281   2.822
 5659SOL    HW217877   2.874   3.257   2.746
 5660SOL     OW17878   5.388   0.555   6.820
 5660SOL    HW117879   5.476   0.591   6.789
 5660SOL    HW217880   5.353   0.612   6.894
 5661SOL     OW17881   6.987   5.384   5.577
 5661SOL    HW117882   0.022   5.418   5.653
 5661SOL    HW217883   6.993   5.448   5.500
 5662SOL     OW17884   2.553   5.077   4.365
 5662SOL    HW117885   2.474   5.074   4.304
 5662SOL    HW217886   2.521   5.085   4.460
 5663SOL     OW17887   1.373   4.153   6.849
 5663SOL    HW117888   1.392   4.248   6.873
 5663SOL    HW217889   1.281   4.146   6.812
 5664SOL     OW17890   0.506   4.052   3.569
 5664SOL    HW117891   0.592   4.089   3.533
 5664SOL    HW217892   0.519   3.956   3.593
 5665SOL     OW17893   1.839   1.640   6.866
 5665SOL    HW117894   1.740   1.650   6.878
 5665SOL    HW217895   1.866   1.686   6.781
 5666SOL     OW17896   4.847   5.860   1.363
 5666SOL    HW117897   4.867   5.766   1.392
 5666SOL    HW217898   4.753   5.864   1.329
 5667SOL     OW17899   0.545   4.570   3.463
 5667SOL    HW117900   0.550   4.669   3.475
 5667SOL    HW217901   0.454   4.538   3.488
 5668SOL     OW17902   5.650   1.761   6.480
 5668SOL    HW117903   5.596   1.718   6.552
 5668SOL    HW217904   5.592   1.820   6.425
 5669SOL     OW17905   0.288   3.828   6.240
 5669SOL    HW117906   0.356   3.870   6.180
 5669SOL    HW217907   0.210   3.797   6.185
 5670SOL     OW17908   6.978   3.162   3.657
 5670SOL    HW117909   0.050   3.190   3.631
 5670SOL    HW217910   6.912   3.207   3.597
 5671SOL     OW17911   1.376   6.885   6.205
 5671SOL    HW117912   1.402   6.960   6.265
 5671SOL    HW217913   1.300   6.914   6.146
 5672SOL     OW17914   4.402   4.616   6.156
 5672SOL    HW117915   4.476   4.641   6.093
 5672SOL    HW217916   4.317   4.655   6.124
 5673SOL     OW17917   0.536   6.948   1.806
 5673SOL    HW117918   0.549   6.958   1.905
 5673SOL    HW217919   0.507   0.016   1.767
 5674SOL     OW17920   0.027   3.904   2.131
 5674SOL    HW117921   0.003   3.834   2.199
 5674SOL    HW217922   0.126   3.911   2.124
 5675SOL     OW17923   4.047   2.493   5.443
 5675SOL    HW117924   4.068   2.487   5.345
 5675SOL    HW217925   4.065   2.586   5.475
 5676SOL     OW17926   2.068   1.317   1.719
 5676SOL    HW117927   1.969   1.319   1.732
 5676SOL    HW217928   2.091   1.357   1.630
 5677SOL     OW17929   0.852   1.449   3.594
 5677SOL    HW117930   0.826   1.355   3.572
 5677SOL    HW217931   0.903   1.488   3.518
 5678SOL     OW17932   3.438   6.615   2.833
 5678SOL    HW117933   3.456   6.689   2.898
 5678SOL    HW217934   3.524   6.586   2.791
 5679SOL     OW17935   1.710   6.932   4.723
 5679SOL    HW117936   1.724   6.960   4.818
 5679SOL    HW217937   1.742   6.838   4.711
 5680SOL     OW17938   1.839   5.652   0.721
 5680SOL    HW117939   1.881   5.734   0.760
 5680SOL    HW217940   1.799   5.597   0.795
 5681SOL     OW17941   1.472   3.520   6.522
 5681SOL    HW117942   1.412   3.445   6.492
 5681SOL    HW217943   1.489   3.581   6.445
 5682SOL     OW17944   2.229   4.123   5.846
 5682SOL    HW117945   2.210   4.183   5.768
 5682SOL    HW217946   2.260   4.178   5.923
 5683SOL     OW17947   4.486   1.888   6.182
 5683SOL    HW117948   4.541   1.900   6.265
 5683SOL    HW217949   4.540   1.915   6.103
 5684SOL     OW17950   4.113   3.432   4.612
 5684SOL    HW117951   4.090   3.528   4.592
 5684SOL    HW217952   4.115   3.419   4.711
 5685SOL     OW17953   1.000   4.644   1.541
 5685SOL    HW117954   0.937   4.610   1.611
 5685SOL    HW217955   0.958   4.632   1.451
 5686SOL     OW17956   3.165   0.703   0.116
 5686SOL    HW117957   3.237   0.666   0.174
 5686SOL    HW217958   3.086   0.641   0.117
 5687SOL     OW17959   6.197   4.017   4.782
 5687SOL    HW117960   6.102   3.985   4.782
 5687SOL    HW217961   6.258   3.942   4.807
 5688SOL     OW17962   6.190   1.775   0.681
 5688SOL    HW117963   6.146   1.773   0.591
 5688SOL    HW217964   6.245   1.692   0.693
 5689SOL     OW17965   4.049   1.199   0.304
 5689SOL    HW117966   3.994   1.118   0.321
 5689SOL    HW217967   4.033   1.267   0.375
 5690SOL     OW17968   3.135   6.083   1.005
 5690SOL    HW117969   3.036   6.099   1.003
 5690SOL    HW217970   3.182   6.158   0.958
 5691SOL     OW17971   3.211   6.257   2.077
 5691SOL    HW117972   3.214   6.225   1.982
 5691SOL    HW217973   3.121   6.238   2.116
 5692SOL     OW17974   6.800   2.263   5.999
 5692SOL    HW117975   6.775   2.218   5.913
 5692SOL    HW217976   6.734   2.239   6.069
 5693SOL     OW17977   5.354   2.789   2.118
 5693SOL    HW117978   5.333   2.882   2.087
 5693SOL    HW217979   5.451   2.771   2.107
 5694SOL     OW17980   0.824   1.075   3.933
 5694SOL    HW117981   0.906   1.101   3.983
 5694SOL    HW217982   0.777   1.157   3.901
 5695SOL     OW17983   1.275   2.136   3.117
 5695SOL    HW117984   1.208   2.081   3.168
 5695SOL    HW217985   1.232   2.222   3.088
 5696SOL     OW17986   2.322   0.854   3.170
 5696SOL    HW117987   2.328   0.754   3.177
 5696SOL    HW217988   2.404   0.889   3.124
 5697SOL     OW17989   6.348   1.849   1.132
 5697SOL    HW117990   6.277   1.919   1.139
 5697SOL    HW217991   6.320   1.780   1.066
 5698SOL     OW17992   0.492   2.243   2.489
 5698SOL    HW117993   0.587   2.261   2.512
 5698SOL    HW217994   0.477   2.258   2.391
 5699SOL     OW17995   6.275   1.935   3.773
 5699SOL    HW117996   6.341   1.867   3.807
 5699SOL    HW217997   6.194   1.934   3.832
 5700SOL     OW17998   6.791   6.188   4.839
 5700SOL    HW117999   6.828   6.103   4.875
 5700SOL    HW218000   6.691   6.186   4.845
 5701SOL     OW18001   1.053   5.561   3.533
 5701SOL    HW118002   0.958   5.591   3.537
 5701SOL    HW218003   1.057   5.461   3.528
 5702SOL     OW18004   2.080   6.947   5.934
 5702SOL    HW118005   2.085   6.852   5.966
 5702SOL    HW218006   1.986   6.970   5.911
 5703SOL     OW18007   4.745   4.673   0.319
 5703SOL    HW118008   4.671   4.609   0.340
 5703SOL    HW218009   4.819   4.661   0.385
 5704SOL     OW18010   4.234   5.589   2.678
 5704SOL    HW118011   4.320   5.639   2.662
 5704SOL    HW218012   4.244   5.534   2.761
 5705SOL     OW18013   6.171   1.283   0.159
 5705SOL    HW118014   6.262   1.240   0.158
 5705SOL    HW218015   6.146   1.310   0.066
 5706SOL     OW18016   1.405   1.576   0.436
 5706SOL    HW118017   1.452   1.492   0.463
 5706SOL    HW218018   1.318   1.583   0.484
 5707SOL     OW18019   1.097   6.919   0.135
 5707SOL    HW118020   1.115   6.850   0.064
 5707SOL    HW218021   1.014   6.894   0.185
 5708SOL     OW18022   5.528   6.697   1.599
 5708SOL    HW118023   5.600   6.632   1.577
 5708SOL    HW218024   5.468   6.707   1.520
 5709SOL     OW18025   1.100   6.443   3.419
 5709SOL    HW118026   1.123   6.539   3.435
 5709SOL    HW218027   1.041   6.436   3.338
 5710SOL     OW18028   2.533   3.476   5.308
 5710SOL    HW118029   2.582   3.484   5.395
 5710SOL    HW218030   2.480   3.560   5.292
 5711SOL     OW18031   5.534   0.464   3.005
 5711SOL    HW118032   5.544   0.435   2.910
 5711SOL    HW218033   5.622   0.453   3.053
 5712SOL     OW18034   0.779   6.509   5.523
 5712SOL    HW118035   0.780   6.409   5.521
 5712SOL    HW218036   0.685   6.542   5.508
 5713SOL     OW18037   0.891   2.599   1.107
 5713SOL    HW118038   0.859   2.538   1.179
 5713SOL    HW218039   0.826   2.675   1.097
 5714SOL     OW18040   1.368   6.558   6.933
 5714SOL    HW118041   1.272   6.550   6.961
 5714SOL    HW218042   1.374   6.587   6.838
 5715SOL     OW18043   0.993   6.085   2.938
 5715SOL    HW118044   1.045   6.112   3.019
 5715SOL    HW218045   1.004   5.987   2.922
 5716SOL     OW18046   0.801   3.799   5.352
 5716SOL    HW118047   0.778   3.702   5.350
 5716SOL    HW218048   0.895   3.810   5.384
 5717SOL     OW18049   1.484   5.543   0.286
 5717SOL    HW118050   1.525   5.477   0.222
 5717SOL    HW218051   1.481   5.633   0.243
 5718SOL     OW18052   1.470   4.377   6.191
 5718SOL    HW118053   1.547   4.383   6.255
 5718SOL    HW218054   1.385   4.366   6.243
 5719SOL     OW18055   2.586   1.347   6.242
 5719SOL    HW118056   2.603   1.352   6.143
 5719SOL    HW218057   2.487   1.353   6.259
 5720SOL     OW18058   0.607   4.681   4.867
 5720SOL    HW118059   0.543   4.748   4.830
 5720SOL    HW218060   0.575   4.589   4.843
 5721SOL     OW18061   0.795   3.802   0.472
 5721SOL    HW118062   0.806   3.773   0.377
 5721SOL    HW218063   0.726   3.875   0.476
 5722SOL     OW18064   5.567   1.624   5.100
 5722SOL    HW118065   5.622   1.582   5.028
 5722SOL    HW218066   5.478   1.578   5.105
 5723SOL     OW18067   4.237   4.061   0.527
 5723SOL    HW118068   4.200   3.972   0.502
 5723SOL    HW218069   4.303   4.091   0.458
 5724SOL     OW18070   4.038   2.159   5.434
 5724SOL    HW118071   4.002   2.071   5.403
 5724SOL    HW218072   3.963   2.224   5.442
 5725SOL     OW18073   5.305   6.126   3.215
 5725SOL    HW118074   5.399   6.161   3.226
 5725SOL    HW218075   5.275   6.085   3.301
 5726SOL     OW18076   6.313   3.088   3.824
 5726SOL    HW118077   6.326   3.101   3.922
 5726SOL    HW218078   6.390   3.128   3.774
 5727SOL     OW18079   6.382   3.439   3.336
 5727SOL    HW118080   6.402   3.428   3.239
 5727SOL    HW218081   6.285   3.461   3.348
 5728SOL     OW18082   4.800   1.745   6.059
 5728SOL    HW118083   4.786   1.717   5.964
 5728SOL    HW218084   4.876   1.693   6.098
 5729SOL     OW18085   1.169   1.581   0.911
 5729SOL    HW118086   1.071   1.564   0.905
 5729SOL    HW218087   1.212   1.510   0.967
 5730SOL     OW18088   4.491   5.556   5.347
 5730SOL    HW118089   4.483   5.487   5.419
 5730SOL    HW218090   4.410   5.615   5.349
 5731SOL     OW18091   2.118   6.424   3.565
 5731SOL    HW118092   2.162   6.503   3.523
 5731SOL    HW218093   2.019   6.439   3.571
 5732SOL     OW18094   6.313   4.865   5.072
 5732SOL    HW118095   6.405   4.837   5.043
 5732SOL    HW218096   6.294   4.828   5.163
 5733SOL     OW18097   3.393   0.829   5.957
 5733SOL    HW118098   3.467   0.813   5.892
 5733SOL    HW218099   3.424   0.893   6.027
 5734SOL     OW18100   0.960   6.855   6.086
 5734SOL    HW118101   0.936   6.815   6.175
 5734SOL    HW218102   0.881   6.849   6.025
 5735SOL     OW18103   3.550   1.549   2.199
 5735SOL    HW118104   3.543   1.570   2.296
 5735SOL    HW218105   3.465   1.575   2.153
 5736SOL     OW18106   5.100   4.494   0.233
 5736SOL    HW118107   5.153   4.531   0.157
 5736SOL    HW218108   5.148   4.417   0.273
 5737SOL     OW18109   5.492   6.123   0.867
 5737SOL    HW118110   5.505   6.214   0.827
 5737SOL    HW218111   5.395   6.106   0.881
 5738SOL     OW18112   3.745   1.742   6.856
 5738SOL    HW118113   3.667   1.749   6.794
 5738SOL    HW218114   3.719   1.688   6.937
 5739SOL     OW18115   1.434   6.736   5.597
 5739SOL    HW118116   1.356   6.751   5.657
 5739SOL    HW218117   1.471   6.644   5.612
 5740SOL     OW18118   4.410   3.265   0.962
 5740SOL    HW118119   4.396   3.363   0.975
 5740SOL    HW218120   4.374   3.215   1.041
 5741SOL     OW18121   0.013   3.469   4.046
 5741SOL    HW118122   0.020   3.469   3.946
 5741SOL    HW218123   6.959   3.531   4.073
 5742SOL     OW18124   4.393   6.554   3.365
 5742SOL    HW118125   4.387   6.610   3.447
 5742SOL    HW218126   4.413   6.612   3.286
 5743SOL     OW18127   3.481   5.402   5.425
 5743SOL    HW118128   3.495   5.310   5.460
 5743SOL    HW218129   3.546   5.465   5.470
 5744SOL     OW18130   5.614   1.126   2.484
 5744SOL    HW118131   5.670   1.096   2.561
 5744SOL    HW218132   5.517   1.125   2.511
 5745SOL     OW18133   2.350   0.773   4.173
 5745SOL    HW118134   2.366   0.863   4.212
 5745SOL    HW218135   2.392   0.767   4.083
 5746SOL     OW18136   5.003   6.835   2.211
 5746SOL    HW118137   4.993   6.917   2.154
 5746SOL    HW218138   4.934   6.836   2.283
 5747SOL     OW18139   0.549   5.837   1.815
 5747SOL    HW118140   0.630   5.835   1.874
 5747SOL    HW218141   0.568   5.787   1.731
 5748SOL     OW18142   2.016   0.074   1.083
 5748SOL    HW118143   2.020   6.998   1.055
 5748SOL    HW218144   2.071   0.087   1.165
 5749SOL     OW18145   1.685   6.206   5.129
 5749SOL    HW118146   1.706   6.179   5.035
 5749SOL    HW218147   1.588   6.228   5.137
 5750SOL     OW18148   6.274   5.680   5.708
 5750SOL    HW118149   6.284   5.778   5.723
 5750SOL    HW218150   6.178   5.657   5.697
 5751SOL     OW18151   2.096   2.763   5.115
 5751SOL    HW118152   2.048   2.850   5.106
 5751SOL    HW218153   2.194   2.779   5.110
 5752SOL     OW18154   5.341   0.116   0.690
 5752SOL    HW118155   5.413   0.172   0.733
 5752SOL    HW218156   5.378   0.068   0.611
 5753SOL     OW18157   3.029   3.583   4.627
 5753SOL    HW118158   2.969   3.503   4.635
 5753SOL    HW218159   3.069   3.604   4.717
 5754SOL     OW18160   1.255   5.806   1.662
 5754SOL    HW118161   1.249   5.818   1.563
 5754SOL    HW218162   1.348   5.828   1.693
 5755SOL     OW18163   1.703   1.961   5.659
 5755SOL    HW118164   1.783   1.933   5.605
 5755SOL    HW218165   1.730   2.028   5.727
 5756SOL     OW18166   0.487   0.332   2.701
 5756SOL    HW118167   0.415   0.402   2.696
 5756SOL    HW218168   0.528   0.320   2.611
 5757SOL     OW18169   0.141   5.303   4.182
 5757SOL    HW118170   0.229   5.348   4.167
 5757SOL    HW218171   0.118   5.306   4.279
 5758SOL     OW18172   2.631   1.339   2.956
 5758SOL    HW118173   2.610   1.293   3.042
 5758SOL    HW218174   2.565   1.311   2.887
 5759SOL     OW18175   4.787   1.149   0.535
 5759SOL    HW118176   4.821   1.232   0.580
 5759SOL    HW218177   4.863   1.087   0.518
 5760SOL     OW18178   6.560   2.440   1.232
 5760SOL    HW118179   6.635   2.387   1.272
 5760SOL    HW218180   6.473   2.402   1.262
 5761SOL     OW18181   5.826   5.342   5.765
 5761SOL    HW118182   5.909   5.317   5.813
 5761SOL    HW218183   5.748   5.333   5.827
 5762SOL     OW18184   4.465   4.082   0.970
 5762SOL    HW118185   4.444   4.125   1.058
 5762SOL    HW218186   4.411   4.125   0.898
 5763SOL     OW18187   5.977   6.224   1.051
 5763SOL    HW118188   5.970   6.132   1.089
 5763SOL    HW218189   5.893   6.275   1.069
 5764SOL     OW18190   4.359   5.203   4.291
 5764SOL    HW118191   4.443   5.162   4.256
 5764SOL    HW218192   4.328   5.274   4.228
 5765SOL     OW18193   6.314   3.572   0.563
 5765SOL    HW118194   6.316   3.479   0.598
 5765SOL    HW218195   6.358   3.575   0.473
 5766SOL     OW18196   1.873   1.830   4.991
 5766SOL    HW118197   1.857   1.890   5.069
 5766SOL    HW218198   1.811   1.854   4.916
 5767SOL     OW18199   2.484   0.486   0.557
 5767SOL    HW118200   2.465   0.438   0.472
 5767SOL    HW218201   2.570   0.537   0.549
 5768SOL     OW18202   0.600   0.222   3.675
 5768SOL    HW118203   0.562   0.260   3.759
 5768SOL    HW218204   0.685   0.173   3.696
 5769SOL     OW18205   2.875   5.754   4.639
 5769SOL    HW118206   2.870   5.795   4.730
 5769SOL    HW218207   2.869   5.655   4.647
 5770SOL     OW18208   6.459   0.058   6.457
 5770SOL    HW118209   6.482   7.007   6.391
 5770SOL    HW218210   6.519   0.049   6.537
 5771SOL     OW18211   1.670   0.000   4.119
 5771SOL    HW118212   1.749   0.003   4.059
 5771SOL    HW218213   1.700   7.014   4.215
 5772SOL     OW18214   5.571   1.122   0.791
 5772SOL    HW118215   5.634   1.069   0.848
 5772SOL    HW218216   5.572   1.217   0.821
 5773SOL     OW18217   4.349   0.996   3.720
 5773SOL    HW118218   4.296   0.997   3.804
 5773SOL    HW218219   4.444   0.973   3.740
 5774SOL     OW18220   2.750   0.488   4.323
 5774SOL    HW118221   2.802   0.462   4.405
 5774SOL    HW218222   2.804   0.469   4.242
 5775SOL     OW18223   1.185   0.046   2.512
 5775SOL    HW118224   1.154   0.085   2.599
 5775SOL    HW218225   1.254   0.106   2.472
 5776SOL     OW18226   0.797   0.019   3.699
 5776SOL    HW118227   0.877   0.037   3.755
 5776SOL    HW218228   0.759   6.949   3.723
 5777SOL     OW18229   0.808   0.235   4.435
 5777SOL    HW118230   0.748   0.156   4.417
 5777SOL    HW218231   0.892   0.204   4.478
 5778SOL     OW18232   1.729   0.003   0.302
 5778SOL    HW118233   1.671   6.943   0.320
 5778SOL    HW218234   1.702   0.045   0.215
 5779SOL     OW18235   4.501   2.713   0.500
 5779SOL    HW118236   4.439   2.704   0.578
 5779SOL    HW218237   4.525   2.809   0.487
 5780SOL     OW18238   6.204   5.916   3.922
 5780SOL    HW118239   6.207   5.954   4.014
 5780SOL    HW218240   6.109   5.896   3.897
 5781SOL     OW18241   0.304   4.605   4.501
 5781SOL    HW118242   0.226   4.637   4.448
 5781SOL    HW218243   0.283   4.517   4.542
 5782SOL     OW18244   2.035   1.827   0.593
 5782SOL    HW118245   1.938   1.847   0.589
 5782SOL    HW218246   2.085   1.909   0.620
 5783SOL     OW18247   1.300   0.699   1.725
 5783SOL    HW118248   1.355   0.767   1.773
 5783SOL    HW218249   1.204   0.712   1.749
 5784SOL     OW18250   0.371   6.280   5.585
 5784SOL    HW118251   0.273   6.291   5.565
 5784SOL    HW218252   0.423   6.344   5.529
 5785SOL     OW18253   2.199   2.465   0.175
 5785SOL    HW118254   2.173   2.499   0.266
 5785SOL    HW218255   2.298   2.456   0.171
 5786SOL     OW18256   0.389   3.499   0.280
 5786SOL    HW118257   0.380   3.549   0.367
 5786SOL    HW218258   0.375   3.562   0.204
 5787SOL     OW18259   2.467   1.872   5.039
 5787SOL    HW118260   2.551   1.919   5.013
 5787SOL    HW218261   2.481   1.773   5.035
 5788SOL     OW18262   2.573   1.493   1.754
 5788SOL    HW118263   2.586   1.592   1.748
 5788SOL    HW218264   2.562   1.455   1.662
 5789SOL     OW18265   3.475   4.987   0.346
 5789SOL    HW118266   3.426   4.905   0.374
 5789SOL    HW218267   3.413   5.066   0.351
 5790SOL     OW18268   1.532   4.302   4.690
 5790SOL    HW118269   1.586   4.381   4.722
 5790SOL    HW218270   1.524   4.307   4.590
 5791SOL     OW18271   3.816   1.170   2.171
 5791SOL    HW118272   3.850   1.165   2.077
 5791SOL    HW218273   3.812   1.266   2.200
 5792SOL     OW18274   6.451   2.928   2.599
 5792SOL    HW118275   6.357   2.942   2.566
 5792SOL    HW218276   6.508   2.897   2.524
 5793SOL     OW18277   5.267   1.052   3.778
 5793SOL    HW118278   5.356   1.031   3.820
 5793SOL    HW218279   5.200   0.983   3.804
 5794SOL     OW18280   2.978   1.295   0.466
 5794SOL    HW118281   2.958   1.235   0.543
 5794SOL    HW218282   2.939   1.385   0.482
 5795SOL     OW18283   6.482   6.845   0.530
 5795SOL    HW118284   6.551   6.917   0.537
 5795SOL    HW218285   6.522   6.759   0.561
 5796SOL     OW18286   4.307   1.607   6.712
 5796SOL    HW118287   4.232   1.591   6.776
 5796SOL    HW218288   4.394   1.585   6.756
 5797SOL     OW18289   4.706   2.029   6.023
 5797SOL    HW118290   4.764   1.947   6.024
 5797SOL    HW218291   4.761   2.109   6.047
 5798SOL     OW18292   0.703   4.508   5.230
 5798SOL    HW118293   0.709   4.460   5.317
 5798SOL    HW218294   0.615   4.556   5.224
 5799SOL     OW18295   6.596   0.672   2.569
 5799SOL    HW118296   6.662   0.620   2.624
 5799SOL    HW218297   6.513   0.688   2.623
 5800SOL     OW18298   6.310   6.468   1.786
 5800SOL    HW118299   6.407   6.459   1.811
 5800SOL    HW218300   6.262   6.519   1.857
 5801SOL     OW18301   2.018   1.938   3.102
 5801SOL    HW118302   1.973   1.876   3.168
 5801SOL    HW218303   2.026   2.029   3.142
 5802SOL     OW18304   1.433   4.690   1.476
 5802SOL    HW118305   1.435   4.686   1.376
 5802SOL    HW218306   1.524   4.670   1.512
 5803SOL     OW18307   2.086   4.801   2.784
 5803SOL    HW118308   2.085   4.702   2.797
 5803SOL    HW218309   2.099   4.822   2.688
 5804SOL     OW18310   0.338   4.836   4.070
 5804SOL    HW118311   0.438   4.836   4.068
 5804SOL    HW218312   0.303   4.894   3.997
 5805SOL     OW18313   2.504   3.796   6.453
 5805SOL    HW118314   2.483   3.842   6.367
 5805SOL    HW218315   2.515   3.698   6.437
 5806SOL     OW18316   0.051   5.770   5.575
 5806SOL    HW118317   6.978   5.798   5.551
 5806SOL    HW218318   0.057   5.670   5.577
 5807SOL     OW18319   0.434   3.491   2.329
 5807SOL    HW118320   0.412   3.510   2.425
 5807SOL    HW218321   0.490   3.408   2.324
 5808SOL     OW18322   5.383   5.514   4.907
 5808SOL    HW118323   5.308   5.450   4.892
 5808SOL    HW218324   5.422   5.500   4.998
 5809SOL     OW18325   5.796   1.872   4.913
 5809SOL    HW118326   5.836   1.949   4.963
 5809SOL    HW218327   5.697   1.883   4.907
 5810SOL     OW18328   3.767   1.568   4.558
 5810SOL    HW118329   3.851   1.593   4.607
 5810SOL    HW218330   3.730   1.649   4.513
 5811SOL     OW18331   3.032   0.319   5.796
 5811SOL    HW118332   3.087   0.262   5.857
 5811SOL    HW218333   3.008   0.267   5.714
 5812SOL     OW18334   6.403   2.278   4.482
 5812SOL    HW118335   6.448   2.198   4.442
 5812SOL    HW218336   6.470   2.351   4.494
 5813SOL     OW18337   1.888   1.648   0.900
 5813SOL    HW118338   1.850   1.730   0.943
 5813SOL    HW218339   1.818   1.605   0.843
 5814SOL     OW18340   6.348   4.533   1.041
 5814SOL    HW118341   6.281   4.514   0.969
 5814SOL    HW218342   6.410   4.456   1.050
 5815SOL     OW18343   3.801   2.148   4.318
 5815SOL    HW118344   3.745   2.182   4.242
 5815SOL    HW218345   3.871   2.216   4.341
 5816SOL     OW18346   4.559   5.728   6.902
 5816SOL    HW118347   4.541   5.659   6.973
 5816SOL    HW218348   4.475   5.744   6.850
 5817SOL     OW18349   5.851   3.743   6.540
 5817SOL    HW118350   5.854   3.654   6.584
 5817SOL    HW218351   5.820   3.733   6.445
 5818SOL     OW18352   6.556   5.580   4.901
 5818SOL    HW118353   6.630   5.620   4.955
 5818SOL    HW218354   6.487   5.541   4.962
 5819SOL     OW18355   4.317   6.430   6.943
 5819SOL    HW118356   4.221   6.442   6.919
 5819SOL    HW218357   4.367   6.397   6.863
 5820SOL     OW18358   3.780   5.797   4.116
 5820SOL    HW118359   3.733   5.710   4.100
 5820SOL    HW218360   3.831   5.791   4.202
 5821SOL     OW18361   0.264   6.950   1.644
 5821SOL    HW118362   0.182   6.904   1.610
 5821SOL    HW218363   0.337   6.882   1.659
 5822SOL     OW18364   0.908   2.553   2.380
 5822SOL    HW118365   0.997   2.540   2.334
 5822SOL    HW218366   0.923   2.594   2.470
 5823SOL     OW18367   1.313   1.408   5.424
 5823SOL    HW118368   1.396   1.424   5.478
 5823SOL    HW218369   1.244   1.475   5.449
 5824SOL     OW18370   6.347   5.168   2.527
 5824SOL    HW118371   6.429   5.226   2.534
 5824SOL    HW218372   6.266   5.222   2.550
 5825SOL     OW18373   2.357   1.870   5.443
 5825SOL    HW118374   2.451   1.904   5.447
 5825SOL    HW218375   2.326   1.867   5.348
 5826SOL     OW18376   0.161   4.969   5.658
 5826SOL    HW118377   0.200   4.883   5.691
 5826SOL    HW218378   0.093   4.950   5.587
 5827SOL     OW18379   1.891   4.673   4.731
 5827SOL    HW118380   1.824   4.721   4.674
 5827SOL    HW218381   1.968   4.644   4.674
 5828SOL     OW18382   6.566   2.875   1.618
 5828SOL    HW118383   6.521   2.881   1.707
 5828SOL    HW218384   6.588   2.780   1.598
 5829SOL     OW18385   2.072   1.006   3.190
 5829SOL    HW118386   2.156   0.965   3.153
 5829SOL    HW218387   2.057   0.973   3.283
 5830SOL     OW18388   4.803   0.112   5.534
 5830SOL    HW118389   4.795   0.112   5.634
 5830SOL    HW218390   4.858   0.190   5.505
 5831SOL     OW18391   0.015   0.864   4.975
 5831SOL    HW118392   6.979   0.945   4.994
 5831SOL    HW218393   0.094   0.889   4.919
 5832SOL     OW18394   3.453   4.802   6.058
 5832SOL    HW118395   3.388   4.739   6.016
 5832SOL    HW218396   3.410   4.892   6.069
 5833SOL     OW18397   4.042   3.856   5.094
 5833SOL    HW118398   4.023   3.926   5.026
 5833SOL    HW218399   4.077   3.899   5.178
 5834SOL     OW18400   6.698   3.398   6.797
 5834SOL    HW118401   6.769   3.463   6.825
 5834SOL    HW218402   6.732   3.343   6.720
 5835SOL     OW18403   4.939   3.324   3.962
 5835SOL    HW118404   4.898   3.233   3.954
 5835SOL    HW218405   5.014   3.321   4.027
 5836SOL     OW18406   3.092   6.637   2.562
 5836SOL    HW118407   3.003   6.680   2.577
 5836SOL    HW218408   3.111   6.572   2.635
 5837SOL     OW18409   3.699   4.621   5.993
 5837SOL    HW118410   3.700   4.522   6.003
 5837SOL    HW218411   3.787   4.653   5.959
 5838SOL     OW18412   3.328   2.888   6.888
 5838SOL    HW118413   3.357   2.902   6.793
 5838SOL    HW218414   3.229   2.899   6.895
 5839SOL     OW18415   0.443   1.896   2.270
 5839SOL    HW118416   0.357   1.848   2.286
 5839SOL    HW218417   0.446   1.978   2.328
 5840SOL     OW18418   0.978   5.432   6.288
 5840SOL    HW118419   0.945   5.392   6.373
 5840SOL    HW218420   0.934   5.521   6.274
 5841SOL     OW18421   5.033   1.812   2.548
 5841SOL    HW118422   5.021   1.714   2.563
 5841SOL    HW218423   4.966   1.845   2.482
 5842SOL     OW18424   4.542   3.108   1.321
 5842SOL    HW118425   4.537   3.205   1.347
 5842SOL    HW218426   4.614   3.063   1.375
 5843SOL     OW18427   2.065   3.810   2.606
 5843SOL    HW118428   2.105   3.726   2.569
 5843SOL    HW218429   1.975   3.789   2.645
 5844SOL     OW18430   1.654   6.514   6.157
 5844SOL    HW118431   1.605   6.592   6.120
 5844SOL    HW218432   1.590   6.439   6.174
 5845SOL     OW18433   0.796   0.485   2.230
 5845SOL    HW118434   0.771   0.565   2.175
 5845SOL    HW218435   0.863   0.512   2.299
 5846SOL     OW18436   0.070   2.175   3.884
 5846SOL    HW118437   0.135   2.240   3.924
 5846SOL    HW218438   0.029   2.214   3.802
 5847SOL     OW18439   2.085   2.112   1.797
 5847SOL    HW118440   2.043   2.037   1.849
 5847SOL    HW218441   2.132   2.075   1.717
 5848SOL     OW18442   2.295   5.191   3.233
 5848SOL    HW118443   2.389   5.162   3.249
 5848SOL    HW218444   2.232   5.117   3.257
 5849SOL     OW18445   0.410   7.008   6.943
 5849SOL    HW118446   0.449   0.080   6.938
 5849SOL    HW218447   0.385   6.977   6.852
 5850SOL     OW18448   0.121   3.504   1.954
 5850SOL    HW118449   0.176   3.464   2.027
 5850SOL    HW218450   0.025   3.480   1.967
 5851SOL     OW18451   5.865   3.780   3.556
 5851SOL    HW118452   5.779   3.743   3.590
 5851SOL    HW218453   5.933   3.707   3.550
 5852SOL     OW18454   6.427   6.085   3.404
 5852SOL    HW118455   6.524   6.083   3.381
 5852SOL    HW218456   6.388   6.172   3.374
 5853SOL     OW18457   3.692   5.878   4.674
 5853SOL    HW118458   3.687   5.977   4.659
 5853SOL    HW218459   3.611   5.848   4.724
 5854SOL     OW18460   5.792   5.100   6.049
 5854SOL    HW118461   5.715   5.151   6.010
 5854SOL    HW218462   5.837   5.049   5.977
 5855SOL     OW18463   0.138   1.172   4.307
 5855SOL    HW118464   0.166   1.254   4.356
 5855SOL    HW218465   0.185   1.168   4.219
 5856SOL     OW18466   1.889   5.857   4.225
 5856SOL    HW118467   1.792   5.878   4.230
 5856SOL    HW218468   1.917   5.807   4.306
 5857SOL     OW18469   6.115   2.742   5.499
 5857SOL    HW118470   6.118   2.673   5.427
 5857SOL    HW218471   6.181   2.718   5.570
 5858SOL     OW18472   2.061   2.537   2.238
 5858SOL    HW118473   2.089   2.441   2.248
 5858SOL    HW218474   2.142   2.595   2.232
 5859SOL     OW18475   5.700   6.153   1.873
 5859SOL    HW118476   5.697   6.068   1.821
 5859SOL    HW218477   5.763   6.216   1.829
 5860SOL     OW18478   1.715   3.999   1.634
 5860SOL    HW118479   1.789   3.939   1.664
 5860SOL    HW218480   1.638   3.944   1.604
 5861SOL     OW18481   4.468   1.143   4.463
 5861SOL    HW118482   4.538   1.187   4.407
 5861SOL    HW218483   4.462   1.046   4.438
 5862SOL     OW18484   5.100   5.246   2.104
 5862SOL    HW118485   5.020   5.302   2.083
 5862SOL    HW218486   5.094   5.211   2.197
 5863SOL     OW18487   3.092   0.680   4.839
 5863SOL    HW118488   3.031   0.668   4.760
 5863SOL    HW218489   3.183   0.705   4.807
 5864SOL     OW18490   4.066   3.736   1.578
 5864SOL    HW118491   4.106   3.707   1.665
 5864SOL    HW218492   4.138   3.772   1.519
 5865SOL     OW18493   6.087   0.431   5.404
 5865SOL    HW118494   6.091   0.448   5.502
 5865SOL    HW218495   6.135   0.346   5.383
 5866SOL     OW18496   4.260   5.118   0.893
 5866SOL    HW118497   4.312   5.127   0.808
 5866SOL    HW218498   4.287   5.034   0.940
 5867SOL     OW18499   0.996   4.089   0.725
 5867SOL    HW118500   1.027   4.028   0.652
 5867SOL    HW218501   1.031   4.181   0.709
 5868SOL     OW18502   0.091   1.353   4.737
 5868SOL    HW118503   0.162   1.289   4.766
 5868SOL    HW218504   0.133   1.441   4.712
 5869SOL     OW18505   2.774   6.323   3.950
 5869SOL    HW118506   2.858   6.302   4.000
 5869SOL    HW218507   2.755   6.421   3.956
 5870SOL     OW18508   5.151   6.184   4.810
 5870SOL    HW118509   5.195   6.111   4.861
 5870SOL    HW218510   5.052   6.167   4.805
 5871SOL     OW18511   4.136   3.024   1.002
 5871SOL    HW118512   4.122   3.094   0.932
 5871SOL    HW218513   4.191   3.061   1.076
 5872SOL     OW18514   4.124   5.661   0.999
 5872SOL    HW118515   4.171   5.608   0.928
 5872SOL    HW218516   4.173   5.747   1.014
 5873SOL     OW18517   2.883   1.990   1.234
 5873SOL    HW118518   2.819   1.918   1.207
 5873SOL    HW218519   2.842   2.046   1.306
 5874SOL     OW18520   3.381   4.111   0.211
 5874SOL    HW118521   3.381   4.176   0.135
 5874SOL    HW218522   3.358   4.159   0.296
 5875SOL     OW18523   4.139   1.350   6.828
 5875SOL    HW118524   4.175   1.314   6.914
 5875SOL    HW218525   4.200   1.324   6.753
 5876SOL     OW18526   2.970   3.368   0.014
 5876SOL    HW118527   2.957   3.365   0.113
 5876SOL    HW218528   2.915   3.442   6.995
 5877SOL     OW18529   0.529   6.829   0.719
 5877SOL    HW118530   0.591   6.765   0.674
 5877SOL    HW218531   0.537   6.818   0.818
 5878SOL     OW18532   5.413   4.912   3.652
 5878SOL    HW118533   5.456   4.934   3.739
 5878SOL    HW218534   5.325   4.958   3.646
 5879SOL     OW18535   1.767   3.118   5.950
 5879SOL    HW118536   1.852   3.097   5.997
 5879SOL    HW218537   1.722   3.033   5.922
 5880SOL     OW18538   4.673   4.574   6.979
 5880SOL    HW118539   4.746   4.559   0.025
 5880SOL    HW218540   4.688   4.517   6.898
 5881SOL     OW18541   1.593   6.778   1.777
 5881SOL    HW118542   1.661   6.847   1.803
 5881SOL    HW218543   1.638   6.688   1.773
 5882SOL     OW18544   1.206   6.932   6.018
 5882SOL    HW118545   1.116   6.898   6.048
 5882SOL    HW218546   1.198   0.007   5.990
 5883SOL     OW18547   0.908   1.379   0.140
 5883SOL    HW118548   0.989   1.325   0.159
 5883SOL    HW218549   0.826   1.325   0.160
 5884SOL     OW18550   4.893   0.867   4.831
 5884SOL    HW118551   4.896   0.937   4.760
 5884SOL    HW218552   4.858   0.782   4.792
 5885SOL     OW18553   0.107   5.546   2.061
 5885SOL    HW118554   0.030   5.606   2.038
 5885SOL    HW218555   0.144   5.571   2.150
 5886SOL     OW18556   1.021   1.847   3.767
 5886SOL    HW118557   1.084   1.921   3.790
 5886SOL    HW218558   0.988   1.858   3.674
 5887SOL     OW18559   2.284   2.299   1.790
 5887SOL    HW118560   2.213   2.229   1.800
 5887SOL    HW218561   2.368   2.256   1.756
 5888SOL     OW18562   2.667   6.729   1.540
 5888SOL    HW118563   2.622   6.751   1.626
 5888SOL    HW218564   2.711   6.811   1.503
 5889SOL     OW18565   5.789   1.774   6.206
 5889SOL    HW118566   5.744   1.753   6.293
 5889SOL    HW218567   5.816   1.870   6.204
 5890SOL     OW18568   2.009   0.166   2.845
 5890SOL    HW118569   1.975   0.112   2.921
 5890SOL    HW218570   2.054   0.248   2.880
 5891SOL     OW18571   2.648   4.246   0.937
 5891SOL    HW118572   2.626   4.161   0.889
 5891SOL    HW218573   2.632   4.234   1.035
 5892SOL     OW18574   6.923   5.360   2.127
 5892SOL    HW118575   6.951   5.267   2.150
 5892SOL    HW218576   7.005   5.417   2.118
 5893SOL     OW18577   2.556   4.785   1.549
 5893SOL    HW118578   2.503   4.864   1.581
 5893SOL    HW218579   2.628   4.765   1.615
 5894SOL     OW18580   0.799   5.635   5.579
 5894SOL    HW118581   0.790   5.545   5.535
 5894SOL    HW218582   0.875   5.685   5.537
 5895SOL     OW18583   5.890   3.975   3.354
 5895SOL    HW118584   5.914   4.063   3.396
 5895SOL    HW218585   5.878   3.906   3.426
 5896SOL     OW18586   4.696   1.671   0.503
 5896SOL    HW118587   4.785   1.674   0.549
 5896SOL    HW218588   4.656   1.580   0.515
 5897SOL     OW18589   4.049   1.508   0.821
 5897SOL    HW118590   3.965   1.526   0.770
 5897SOL    HW218591   4.097   1.431   0.779
 5898SOL     OW18592   2.444   1.080   5.334
 5898SOL    HW118593   2.356   1.058   5.376
 5898SOL    HW218594   2.497   0.996   5.323
 5899SOL     OW18595   5.734   6.284   6.585
 5899SOL    HW118596   5.722   6.260   6.682
 5899SOL    HW218597   5.822   6.330   6.574
 5900SOL     OW18598   6.598   4.729   2.770
 5900SOL    HW118599   6.576   4.631   2.771
 5900SOL    HW218600   6.694   4.741   2.741
 5901SOL     OW18601   2.628   1.564   0.604
 5901SOL    HW118602   2.609   1.492   0.537
 5901SOL    HW218603   2.542   1.597   0.642
 5902SOL     OW18604   5.394   3.944   5.677
 5902SOL    HW118605   5.359   3.962   5.585
 5902SOL    HW218606   5.326   3.973   5.744
 5903SOL     OW18607   4.706   3.805   6.927
 5903SOL    HW118608   4.679   3.746   6.850
 5903SOL    HW218609   4.804   3.824   6.921
 5904SOL     OW18610   1.134   4.515   1.077
 5904SOL    HW118611   1.195   4.439   1.099
 5904SOL    HW218612   1.114   4.515   0.979
 5905SOL     OW18613   6.553   0.688   3.786
 5905SOL    HW118614   6.618   0.754   3.748
 5905SOL    HW218615   6.465   0.699   3.741
 5906SOL     OW18616   4.815   2.110   4.928
 5906SOL    HW118617   4.871   2.029   4.947
 5906SOL    HW218618   4.782   2.107   4.834
 5907SOL     OW18619   1.608   6.789   0.372
 5907SOL    HW118620   1.674   6.718   0.398
 5907SOL    HW218621   1.522   6.747   0.344
 5908SOL     OW18622   6.657   4.153   7.014
 5908SOL    HW118623   6.732   4.133   0.057
 5908SOL    HW218624   6.693   4.166   6.921
 5909SOL     OW18625   6.418   4.954   6.517
 5909SOL    HW118626   6.409   5.030   6.581
 5909SOL    HW218627   6.439   4.991   6.426
 5910SOL     OW18628   0.704   4.705   0.964
 5910SOL    HW118629   0.606   4.688   0.978
 5910SOL    HW218630   0.753   4.688   1.049
 5911SOL     OW18631   6.372   5.178   6.653
 5911SOL    HW118632   6.294   5.234   6.626
 5911SOL    HW218633   6.371   5.165   6.752
 5912SOL     OW18634   6.113   3.344   6.920
 5912SOL    HW118635   6.022   3.309   6.941
 5912SOL    HW218636   6.148   3.299   6.838
 5913SOL     OW18637   2.974   3.025   6.104
 5913SOL    HW118638   2.890   3.031   6.157
 5913SOL    HW218639   2.999   3.115   6.071
 5914SOL     OW18640   2.790   5.535   6.259
 5914SOL    HW118641   2.773   5.632   6.280
 5914SOL    HW218642   2.842   5.493   6.333
 5915SOL     OW18643   6.255   4.071   2.027
 5915SOL    HW118644   6.290   3.982   1.996
 5915SOL    HW218645   6.311   4.144   1.988
 5916SOL     OW18646   4.471   6.246   5.816
 5916SOL    HW118647   4.458   6.329   5.871
 5916SOL    HW218648   4.480   6.167   5.876
 5917SOL     OW18649   3.756   3.024   4.196
 5917SOL    HW118650   3.713   2.990   4.280
 5917SOL    HW218651   3.732   2.964   4.120
 5918SOL     OW18652   2.359   3.707   5.298
 5918SOL    HW118653   2.273   3.737   5.338
 5918SOL    HW218654   2.405   3.785   5.256
 5919SOL     OW18655   2.606   2.418   0.449
 5919SOL    HW118656   2.592   2.379   0.540
 5919SOL    HW218657   2.635   2.514   0.458
 5920SOL     OW18658   3.715   6.983   0.267
 5920SOL    HW118659   3.701   0.062   0.262
 5920SOL    HW218660   3.640   6.942   0.320
 5921SOL     OW18661   3.675   5.516   5.587
 5921SOL    HW118662   3.727   5.581   5.532
 5921SOL    HW218663   3.729   5.432   5.598
 5922SOL     OW18664   6.529   5.195   4.111
 5922SOL    HW118665   6.621   5.193   4.072
 5922SOL    HW218666   6.531   5.242   4.199
 5923SOL     OW18667   5.474   0.602   1.782
 5923SOL    HW118668   5.514   0.525   1.831
 5923SOL    HW218669   5.463   0.578   1.685
 5924SOL     OW18670   5.874   2.113   5.045
 5924SOL    HW118671   5.787   2.141   5.085
 5924SOL    HW218672   5.901   2.178   4.974
 5925SOL     OW18673   3.816   5.995   3.430
 5925SOL    HW118674   3.830   5.959   3.522
 5925SOL    HW218675   3.896   6.047   3.402
 5926SOL     OW18676   4.104   5.227   2.177
 5926SOL    HW118677   4.060   5.295   2.234
 5926SOL    HW218678   4.036   5.160   2.145
 5927SOL     OW18679   1.528   4.229   3.669
 5927SOL    HW118680   1.495   4.205   3.578
 5927SOL    HW218681   1.499   4.159   3.734
 5928SOL     OW18682   3.064   0.703   1.811
 5928SOL    HW118683   3.133   0.714   1.739
 5928SOL    HW218684   3.018   0.790   1.828
 5929SOL     OW18685   0.982   6.365   5.792
 5929SOL    HW118686   0.936   6.285   5.830
 5929SOL    HW218687   0.959   6.446   5.846
 5930SOL     OW18688   7.001   1.134   3.237
 5930SOL    HW118689   0.004   1.214   3.293
 5930SOL    HW218690   6.952   1.067   3.294
 5931SOL     OW18691   5.642   5.299   3.340
 5931SOL    HW118692   5.645   5.207   3.381
 5931SOL    HW218693   5.548   5.333   3.341
 5932SOL     OW18694   2.818   6.120   0.996
 5932SOL    HW118695   2.790   6.031   1.033
 5932SOL    HW218696   2.739   6.168   0.960
 5933SOL     OW18697   0.474   5.652   3.034
 5933SOL    HW118698   0.489   5.749   3.015
 5933SOL    HW218699   0.382   5.626   3.004
 5934SOL     OW18700   4.172   3.631   4.027
 5934SOL    HW118701   4.161   3.587   4.116
 5934SOL    HW218702   4.118   3.715   4.024
 5935SOL     OW18703   4.082   3.371   4.878
 5935SOL    HW118704   4.152   3.368   4.950
 5935SOL    HW218705   3.995   3.399   4.917
 5936SOL     OW18706   4.088   3.295   0.309
 5936SOL    HW118707   4.113   3.283   0.213
 5936SOL    HW218708   4.023   3.224   0.335
 5937SOL     OW18709   0.517   4.950   2.052
 5937SOL    HW118710   0.512   4.889   1.973
 5937SOL    HW218711   0.527   5.044   2.021
 5938SOL     OW18712   1.267   5.726   4.164
 5938SOL    HW118713   1.335   5.763   4.101
 5938SOL    HW218714   1.286   5.758   4.257
 5939SOL     OW18715   3.244   0.392   3.646
 5939SOL    HW118716   3.153   0.424   3.670
 5939SOL    HW218717   3.313   0.450   3.689
 5940SOL     OW18718   4.334   5.683   2.225
 5940SOL    HW118719   4.278   5.601   2.236
 5940SOL    HW218720   4.285   5.750   2.171
 5941SOL     OW18721   6.308   3.429   2.335
 5941SOL    HW118722   6.395   3.418   2.287
 5941SOL    HW218723   6.251   3.348   2.319
 5942SOL     OW18724   4.861   2.776   6.490
 5942SOL    HW118725   4.772   2.749   6.526
 5942SOL    HW218726   4.866   2.753   6.393
 5943SOL     OW18727   3.563   5.434   0.841
 5943SOL    HW118728   3.584   5.477   0.929
 5943SOL    HW218729   3.521   5.345   0.856
 5944SOL     OW18730   5.403   1.837   1.205
 5944SOL    HW118731   5.343   1.822   1.127
 5944SOL    HW218732   5.387   1.927   1.243
 5945SOL     OW18733   6.760   5.157   5.349
 5945SOL    HW118734   6.688   5.161   5.419
 5945SOL    HW218735   6.850   5.162   5.394
 5946SOL     OW18736   3.401   3.183   5.595
 5946SOL    HW118737   3.488   3.202   5.641
 5946SOL    HW218738   3.417   3.123   5.517
 5947SOL     OW18739   4.056   2.928   1.699
 5947SOL    HW118740   4.031   2.998   1.766
 5947SOL    HW218741   4.127   2.964   1.638
 5948SOL     OW18742   3.446   5.223   3.462
 5948SOL    HW118743   3.502   5.254   3.539
 5948SOL    HW218744   3.492   5.245   3.376
 5949SOL     OW18745   3.941   3.240   1.180
 5949SOL    HW118746   3.953   3.165   1.114
 5949SOL    HW218747   3.862   3.221   1.238
 5950SOL     OW18748   5.971   3.494   5.679
 5950SOL    HW118749   5.969   3.555   5.759
 5950SOL    HW218750   5.984   3.400   5.710
 5951SOL     OW18751   0.443   5.588   5.178
 5951SOL    HW118752   0.540   5.603   5.200
 5951SOL    HW218753   0.425   5.490   5.173
 5952SOL     OW18754   5.468   5.353   4.343
 5952SOL    HW118755   5.419   5.312   4.419
 5952SOL    HW218756   5.566   5.333   4.352
 5953SOL     OW18757   6.771   2.726   6.043
 5953SOL    HW118758   6.804   2.811   6.000
 5953SOL    HW218759   6.847   2.663   6.055
 5954SOL     OW18760   0.115   4.462   5.827
 5954SOL    HW118761   0.058   4.541   5.806
 5954SOL    HW218762   0.212   4.488   5.822
 5955SOL     OW18763   5.515   5.864   2.575
 5955SOL    HW118764   5.568   5.836   2.655
 5955SOL    HW218765   5.472   5.952   2.592
 5956SOL     OW18766   3.791   1.971   0.079
 5956SOL    HW118767   3.849   1.966   7.018
 5956SOL    HW218768   3.732   1.890   0.083
 5957SOL     OW18769   4.695   0.471   5.514
 5957SOL    HW118770   4.739   0.516   5.436
 5957SOL    HW218771   4.602   0.445   5.488
 5958SOL     OW18772   6.652   5.676   2.727
 5958SOL    HW118773   6.619   5.679   2.633
 5958SOL    HW218774   6.751   5.689   2.727
 5959SOL     OW18775   3.575   1.802   5.426
 5959SOL    HW118776   3.621   1.718   5.452
 5959SOL    HW218777   3.506   1.825   5.495
 5960SOL     OW18778   3.932   6.646   4.556
 5960SOL    HW118779   3.902   6.558   4.519
 5960SOL    HW218780   4.028   6.662   4.530
 5961SOL     OW18781   5.164   1.293   3.720
 5961SOL    HW118782   5.068   1.269   3.704
 5961SOL    HW218783   5.214   1.212   3.751
 5962SOL     OW18784   5.179   5.757   1.738
 5962SOL    HW118785   5.124   5.677   1.763
 5962SOL    HW218786   5.167   5.829   1.807
 5963SOL     OW18787   3.090   3.099   4.745
 5963SOL    HW118788   3.068   3.051   4.660
 5963SOL    HW218789   3.188   3.088   4.764
 5964SOL     OW18790   0.415   5.290   5.946
 5964SOL    HW118791   0.380   5.384   5.948
 5964SOL    HW218792   0.390   5.247   5.859
 5965SOL     OW18793   1.863   1.821   6.348
 5965SOL    HW118794   1.872   1.886   6.273
 5965SOL    HW218795   1.770   1.784   6.349
 5966SOL     OW18796   3.147   5.789   5.419
 5966SOL    HW118797   3.231   5.814   5.467
 5966SOL    HW218798   3.068   5.808   5.477
 5967SOL     OW18799   4.124   6.510   1.625
 5967SOL    HW118800   4.122   6.606   1.655
 5967SOL    HW218801   4.157   6.505   1.531
 5968SOL     OW18802   4.851   0.792   2.417
 5968SOL    HW118803   4.817   0.735   2.342
 5968SOL    HW218804   4.869   0.884   2.384
 5969SOL     OW18805   6.417   0.987   5.936
 5969SOL    HW118806   6.390   1.033   6.020
 5969SOL    HW218807   6.335   0.966   5.883
 5970SOL     OW18808   0.679   4.681   2.439
 5970SOL    HW118809   0.697   4.778   2.455
 5970SOL    HW218810   0.662   4.636   2.527
 5971SOL     OW18811   1.872   0.956   2.958
 5971SOL    HW118812   1.925   0.938   3.041
 5971SOL    HW218813   1.783   0.994   2.984
 5972SOL     OW18814   5.519   6.568   0.150
 5972SOL    HW118815   5.506   6.534   0.057
 5972SOL    HW218816   5.449   6.528   0.210
 5973SOL     OW18817   1.759   4.796   2.542
 5973SOL    HW118818   1.817   4.869   2.509
 5973SOL    HW218819   1.671   4.833   2.572
 5974SOL     OW18820   5.632   4.501   6.962
 5974SOL    HW118821   5.658   4.583   7.014
 5974SOL    HW218822   5.571   4.444   7.018
 5975SOL     OW18823   3.275   2.282   0.156
 5975SOL    HW118824   3.324   2.350   0.210
 5975SOL    HW218825   3.184   2.317   0.132
 5976SOL     OW18826   3.413   3.819   4.208
 5976SOL    HW118827   3.438   3.742   4.149
 5976SOL    HW218828   3.314   3.832   4.206
 5977SOL     OW18829   1.963   4.935   1.677
 5977SOL    HW118830   1.871   4.969   1.697
 5977SOL    HW218831   1.990   4.869   1.747
 5978SOL     OW18832   5.126   4.921   3.517
 5978SOL    HW118833   5.167   4.954   3.432
 5978SOL    HW218834   5.142   4.822   3.525
 5979SOL     OW18835   6.049   6.931   2.833
 5979SOL    HW118836   6.126   6.990   2.808
 5979SOL    HW218837   6.083   6.841   2.861
 5980SOL     OW18838   3.939   3.705   6.997
 5980SOL    HW118839   3.917   3.651   6.916
 5980SOL    HW218840   3.856   3.724   0.028
 5981SOL     OW18841   6.329   0.765   2.328
 5981SOL    HW118842   6.245   0.808   2.294
 5981SOL    HW218843   6.401   0.834   2.335
 5982SOL     OW18844   6.517   2.471   0.483
 5982SOL    HW118845   6.498   2.569   0.483
 5982SOL    HW218846   6.460   2.426   0.415
 5983SOL     OW18847   1.895   1.024   4.870
 5983SOL    HW118848   1.991   1.033   4.843
 5983SOL    HW218849   1.862   1.112   4.904
 5984SOL     OW18850   6.539   6.587   5.004
 5984SOL    HW118851   6.594   6.626   5.077
 5984SOL    HW218852   6.593   6.582   4.920
 5985SOL     OW18853   5.946   3.103   3.923
 5985SOL    HW118854   5.994   3.125   3.838
 5985SOL    HW218855   5.853   3.073   3.902
 5986SOL     OW18856   3.335   3.799   3.558
 5986SOL    HW118857   3.326   3.898   3.570
 5986SOL    HW218858   3.432   3.776   3.550
 5987SOL     OW18859   4.369   1.279   4.864
 5987SOL    HW118860   4.428   1.312   4.937
 5987SOL    HW218861   4.402   1.190   4.832
 5988SOL     OW18862   4.278   6.804   4.859
 5988SOL    HW118863   4.262   6.888   4.911
 5988SOL    HW218864   4.274   6.824   4.761
 5989SOL     OW18865   2.753   5.843   6.658
 5989SOL    HW118866   2.831   5.894   6.695
 5989SOL    HW218867   2.669   5.896   6.671
 5990SOL     OW18868   3.824   4.644   0.445
 5990SOL    HW118869   3.750   4.611   0.503
 5990SOL    HW218870   3.901   4.580   0.449
 5991SOL     OW18871   4.170   5.337   5.331
 5991SOL    HW118872   4.250   5.336   5.270
 5991SOL    HW218873   4.131   5.429   5.331
 5992SOL     OW18874   3.521   0.926   3.616
 5992SOL    HW118875   3.601   0.888   3.570
 5992SOL    HW218876   3.538   0.927   3.715
 5993SOL     OW18877   3.250   6.665   5.876
 5993SOL    HW118878   3.251   6.699   5.970
 5993SOL    HW218879   3.278   6.569   5.874
 5994SOL     OW18880   6.236   1.760   1.797
 5994SOL    HW118881   6.222   1.817   1.878
 5994SOL    HW218882   6.152   1.710   1.776
 5995SOL     OW18883   6.240   4.112   2.829
 5995SOL    HW118884   6.220   4.020   2.861
 5995SOL    HW218885   6.232   4.116   2.729
 5996SOL     OW18886   0.570   5.872   0.929
 5996SOL    HW118887   0.473   5.894   0.916
 5996SOL    HW218888   0.626   5.947   0.894
 5997SOL     OW18889   1.019   6.120   2.408
 5997SOL    HW118890   0.954   6.050   2.437
 5997SOL    HW218891   1.005   6.203   2.462
 5998SOL     OW18892   5.957   2.428   1.795
 5998SOL    HW118893   6.047   2.387   1.788
 5998SOL    HW218894   5.964   2.527   1.780
 5999SOL     OW18895   1.409   2.038   2.854
 5999SOL    HW118896   1.445   2.096   2.782
 5999SOL    HW218897   1.316   2.068   2.877
 6000SOL     OW18898   3.906   6.912   1.883
 6000SOL    HW118899   3.817   6.934   1.842
 6000SOL    HW218900   3.958   6.854   1.821
 6001SOL     OW18901   0.392   4.117   6.443
 6001SOL    HW118902   0.386   4.212   6.471
 6001SOL    HW218903   0.377   4.110   6.344
 6002SOL     OW18904   0.407   0.327   0.980
 6002SOL    HW118905   0.329   0.351   1.037
 6002SOL    HW218906   0.431   0.405   0.923
 6003SOL     OW18907   6.962   1.973   4.441
 6003SOL    HW118908   0.036   1.969   4.408
 6003SOL    HW218909   6.933   1.881   4.468
 6004SOL     OW18910   6.548   4.449   2.876
 6004SOL    HW118911   6.459   4.404   2.879
 6004SOL    HW218912   6.620   4.381   2.889
 6005SOL     OW18913   4.697   4.778   4.957
 6005SOL    HW118914   4.602   4.784   4.986
 6005SOL    HW218915   4.700   4.765   4.858
 6006SOL     OW18916   3.726   6.757   0.087
 6006SOL    HW118917   3.825   6.740   0.087
 6006SOL    HW218918   3.705   6.829   0.152
 6007SOL     OW18919   5.152   3.864   4.528
 6007SOL    HW118920   5.199   3.775   4.520
 6007SOL    HW218921   5.053   3.849   4.530
 6008SOL     OW18922   2.129   5.591   6.285
 6008SOL    HW118923   2.166   5.635   6.204
 6008SOL    HW218924   2.147   5.493   6.281
 6009SOL     OW18925   3.679   0.796   4.987
 6009SOL    HW118926   3.718   0.704   4.987
 6009SOL    HW218927   3.579   0.790   4.989
 6010SOL     OW18928   1.234   4.064   2.398
 6010SOL    HW118929   1.324   4.085   2.438
 6010SOL    HW218930   1.164   4.071   2.469
 6011SOL     OW18931   4.622   2.489   2.698
 6011SOL    HW118932   4.602   2.391   2.687
 6011SOL    HW218933   4.607   2.536   2.611
 6012SOL     OW18934   6.119   1.826   0.433
 6012SOL    HW118935   6.131   1.869   0.344
 6012SOL    HW218936   6.026   1.844   0.465
 6013SOL     OW18937   5.594   1.900   3.113
 6013SOL    HW118938   5.511   1.881   3.165
 6013SOL    HW218939   5.575   1.892   3.015
 6014SOL     OW18940   4.321   2.215   1.058
 6014SOL    HW118941   4.351   2.185   1.148
 6014SOL    HW218942   4.399   2.214   0.995
 6015SOL     OW18943   5.776   2.512   5.540
 6015SOL    HW118944   5.832   2.594   5.531
 6015SOL    HW218945   5.817   2.451   5.608
 6016SOL     OW18946   0.583   1.685   6.458
 6016SOL    HW118947   0.538   1.704   6.546
 6016SOL    HW218948   0.557   1.594   6.426
 6017SOL     OW18949   6.282   4.797   2.740
 6017SOL    HW118950   6.370   4.769   2.701
 6017SOL    HW218951   6.266   4.894   2.719
 6018SOL     OW18952   3.278   1.298   0.129
 6018SOL    HW118953   3.213   1.250   0.189
 6018SOL    HW218954   3.367   1.253   0.135
 6019SOL     OW18955   5.902   1.411   4.579
 6019SOL    HW118956   5.925   1.501   4.541
 6019SOL    HW218957   5.986   1.368   4.614
 6020SOL     OW18958   1.911   6.127   2.032
 6020SOL    HW118959   1.885   6.114   2.127
 6020SOL    HW218960   1.979   6.058   2.006
 6021SOL     OW18961   3.880   0.647   2.131
 6021SOL    HW118962   3.963   0.637   2.186
 6021SOL    HW218963   3.800   0.644   2.190
 6022SOL     OW18964   4.668   1.241   5.195
 6022SOL    HW118965   4.637   1.200   5.281
 6022SOL    HW218966   4.724   1.176   5.145
 6023SOL     OW18967   6.048   1.713   2.471
 6023SOL    HW118968   6.111   1.785   2.444
 6023SOL    HW218969   5.996   1.682   2.392
 6024SOL     OW18970   0.723   4.236   3.483
 6024SOL    HW118971   0.753   4.243   3.388
 6024SOL    HW218972   0.796   4.197   3.539
 6025SOL     OW18973   3.734   1.323   1.767
 6025SOL    HW118974   3.638   1.299   1.786
 6025SOL    HW218975   3.749   1.419   1.791
 6026SOL     OW18976   6.778   4.339   4.052
 6026SOL    HW118977   6.727   4.281   3.988
 6026SOL    HW218978   6.873   4.346   4.021
 6027SOL     OW18979   1.697   4.338   5.668
 6027SOL    HW118980   1.707   4.341   5.568
 6027SOL    HW218981   1.671   4.246   5.696
 6028SOL     OW18982   0.923   3.600   0.606
 6028SOL    HW118983   0.900   3.670   0.538
 6028SOL    HW218984   1.017   3.570   0.592
 6029SOL     OW18985   1.894   6.029   5.480
 6029SOL    HW118986   1.868   5.944   5.435
 6029SOL    HW218987   1.937   6.008   5.568
 6030SOL     OW18988   3.507   6.796   3.004
 6030SOL    HW118989   3.506   6.883   2.954
 6030SOL    HW218990   3.600   6.777   3.035
 6031SOL     OW18991   4.139   5.300   3.908
 6031SOL    HW118992   4.053   5.276   3.862
 6031SOL    HW218993   4.198   5.220   3.911
 6032SOL     OW18994   2.112   3.370   2.953
 6032SOL    HW118995   2.141   3.283   2.993
 6032SOL    HW218996   2.085   3.356   2.858
 6033SOL     OW18997   2.815   1.996   2.584
 6033SOL    HW118998   2.863   2.084   2.584
 6033SOL    HW218999   2.784   1.975   2.676
 6034SOL     OW19000   1.245   5.897   4.912
 6034SOL    HW119001   1.269   5.841   4.833
 6034SOL    HW219002   1.198   5.980   4.882
 6035SOL     OW19003   6.833   0.469   3.378
 6035SOL    HW119004   6.918   0.448   3.330
 6035SOL    HW219005   6.853   0.501   3.470
 6036SOL     OW19006   6.924   6.054   4.135
 6036SOL    HW119007   6.855   6.090   4.073
 6036SOL    HW219008   6.926   6.110   4.218
 6037SOL     OW19009   3.974   4.793   6.217
 6037SOL    HW119010   3.948   4.777   6.122
 6037SOL    HW219011   3.901   4.760   6.277
 6038SOL     OW19012   1.210   3.381   6.438
 6038SOL    HW119013   1.135   3.367   6.374
 6038SOL    HW219014   1.200   3.317   6.514
 6039SOL     OW19015   3.359   2.892   2.645
 6039SOL    HW119016   3.334   2.798   2.669
 6039SOL    HW219017   3.326   2.913   2.553
 6040SOL     OW19018   0.992   2.009   6.458
 6040SOL    HW119019   1.070   2.020   6.519
 6040SOL    HW219020   0.909   2.039   6.506
 6041SOL     OW19021   1.732   0.961   5.193
 6041SOL    HW119022   1.643   1.006   5.190
 6041SOL    HW219023   1.748   0.914   5.106
 6042SOL     OW19024   5.361   5.524   1.903
 6042SOL    HW119025   5.284   5.513   1.841
 6042SOL    HW219026   5.364   5.446   1.967
 6043SOL     OW19027   0.731   4.275   5.395
 6043SOL    HW119028   0.826   4.287   5.422
 6043SOL    HW219029   0.719   4.185   5.354
 6044SOL     OW19030   1.139   2.533   0.760
 6044SOL    HW119031   1.221   2.505   0.810
 6044SOL    HW219032   1.101   2.616   0.801
 6045SOL     OW19033   6.012   5.786   1.317
 6045SOL    HW119034   6.076   5.854   1.281
 6045SOL    HW219035   6.049   5.748   1.402
 6046SOL     OW19036   2.894   1.548   0.505
 6046SOL    HW119037   2.941   1.634   0.485
 6046SOL    HW219038   2.815   1.567   0.564
 6047SOL     OW19039   6.271   1.962   2.023
 6047SOL    HW119040   6.254   2.051   2.065
 6047SOL    HW219041   6.190   1.904   2.036
 6048SOL     OW19042   4.672   6.438   3.538
 6048SOL    HW119043   4.626   6.501   3.599
 6048SOL    HW219044   4.675   6.476   3.446
 6049SOL     OW19045   5.134   3.895   5.964
 6049SOL    HW119046   5.039   3.923   5.951
 6049SOL    HW219047   5.195   3.964   5.925
 6050SOL     OW19048   3.083   4.610   5.326
 6050SOL    HW119049   3.132   4.533   5.367
 6050SOL    HW219050   3.002   4.576   5.277
 6051SOL     OW19051   2.633   1.141   3.687
 6051SOL    HW119052   2.676   1.171   3.772
 6051SOL    HW219053   2.560   1.077   3.708
 6052SOL     OW19054   6.624   6.574   0.236
 6052SOL    HW119055   6.526   6.568   0.216
 6052SOL    HW219056   6.638   6.572   0.335
 6053SOL     OW19057   4.022   0.772   6.391
 6053SOL    HW119058   4.079   0.713   6.448
 6053SOL    HW219059   3.926   0.743   6.399
 6054SOL     OW19060   2.922   4.265   0.560
 6054SOL    HW119061   2.870   4.321   0.624
 6054SOL    HW219062   2.927   4.311   0.472
 6055SOL     OW19063   5.182   1.233   5.356
 6055SOL    HW119064   5.250   1.189   5.297
 6055SOL    HW219065   5.206   1.217   5.451
 6056SOL     OW19066   5.195   3.477   4.897
 6056SOL    HW119067   5.158   3.548   4.956
 6056SOL    HW219068   5.197   3.509   4.802
 6057SOL     OW19069   5.079   2.706   4.422
 6057SOL    HW119070   5.152   2.638   4.424
 6057SOL    HW219071   5.041   2.716   4.514
 6058SOL     OW19072   4.965   2.606   2.568
 6058SOL    HW119073   4.926   2.616   2.659
 6058SOL    HW219074   4.993   2.696   2.534
 6059SOL     OW19075   4.636   5.925   5.409
 6059SOL    HW119076   4.702   5.872   5.463
 6059SOL    HW219077   4.683   6.002   5.366
 6060SOL     OW19078   2.835   4.038   6.220
 6060SOL    HW119079   2.924   4.079   6.243
 6060SOL    HW219080   2.845   3.939   6.210
 6061SOL     OW19081   4.540   2.072   0.707
 6061SOL    HW119082   4.447   2.106   0.721
 6061SOL    HW219083   4.538   1.972   0.699
 6062SOL     OW19084   1.976   0.590   4.516
 6062SOL    HW119085   1.876   0.597   4.526
 6062SOL    HW219086   1.997   0.535   4.435
 6063SOL     OW19087   3.871   1.419   6.823
 6063SOL    HW119088   3.957   1.376   6.796
 6063SOL    HW219089   3.877   1.518   6.810
 6064SOL     OW19090   2.974   6.118   2.226
 6064SOL    HW119091   2.964   6.053   2.301
 6064SOL    HW219092   2.943   6.076   2.141
 6065SOL     OW19093   5.631   7.018   2.232
 6065SOL    HW119094   5.664   6.926   2.209
 6065SOL    HW219095   5.678   0.065   2.174
 6066SOL     OW19096   4.493   1.430   0.338
 6066SOL    HW119097   4.496   1.456   0.435
 6066SOL    HW219098   4.580   1.455   0.295
 6067SOL     OW19099   5.241   2.165   6.497
 6067SOL    HW119100   5.248   2.252   6.546
 6067SOL    HW219101   5.227   2.182   6.400
 6068SOL     OW19102   5.546   2.642   4.766
 6068SOL    HW119103   5.625   2.702   4.752
 6068SOL    HW219104   5.469   2.675   4.711
 6069SOL     OW19105   0.208   3.390   5.186
 6069SOL    HW119106   0.132   3.455   5.183
 6069SOL    HW219107   0.286   3.430   5.234
 6070SOL     OW19108   2.201   1.734   6.130
 6070SOL    HW119109   2.190   1.720   6.032
 6070SOL    HW219110   2.296   1.716   6.156
 6071SOL     OW19111   4.903   5.185   4.584
 6071SOL    HW119112   4.850   5.125   4.524
 6071SOL    HW219113   4.844   5.226   4.652
 6072SOL     OW19114   0.236   0.763   1.807
 6072SOL    HW119115   0.249   0.760   1.708
 6072SOL    HW219116   0.252   0.673   1.846
 6073SOL     OW19117   6.886   3.870   0.507
 6073SOL    HW119118   6.803   3.906   0.465
 6073SOL    HW219119   6.862   3.807   0.581
 6074SOL     OW19120   0.934   6.794   4.447
 6074SOL    HW119121   0.856   6.778   4.387
 6074SOL    HW219122   0.951   6.712   4.501
 6075SOL     OW19123   0.158   2.639   6.625
 6075SOL    HW119124   0.133   2.542   6.631
 6075SOL    HW219125   0.094   2.694   6.678
 6076SOL     OW19126   3.063   5.825   5.169
 6076SOL    HW119127   3.097   5.798   5.259
 6076SOL    HW219128   3.098   5.916   5.146
 6077SOL     OW19129   4.507   5.411   2.118
 6077SOL    HW119130   4.495   5.434   2.214
 6077SOL    HW219131   4.478   5.488   2.061
 6078SOL     OW19132   3.672   4.907   1.758
 6078SOL    HW119133   3.671   4.884   1.855
 6078SOL    HW219134   3.685   4.824   1.704
 6079SOL     OW19135   3.212   3.764   5.824
 6079SOL    HW119136   3.163   3.834   5.875
 6079SOL    HW219137   3.260   3.703   5.888
 6080SOL     OW19138   6.897   1.483   1.053
 6080SOL    HW119139   6.798   1.468   1.042
 6080SOL    HW219140   6.946   1.416   0.997
 6081SOL     OW19141   6.243   3.318   4.908
 6081SOL    HW119142   6.276   3.412   4.923
 6081SOL    HW219143   6.193   3.287   4.989
 6082SOL     OW19144   3.669   1.460   3.314
 6082SOL    HW119145   3.707   1.551   3.300
 6082SOL    HW219146   3.574   1.468   3.343
 6083SOL     OW19147   0.606   6.273   6.068
 6083SOL    HW119148   0.600   6.355   6.011
 6083SOL    HW219149   0.546   6.282   6.147
 6084SOL     OW19150   0.302   5.440   3.983
 6084SOL    HW119151   0.370   5.508   4.011
 6084SOL    HW219152   0.214   5.485   3.968
 6085SOL     OW19153   0.369   4.480   7.012
 6085SOL    HW119154   0.340   4.575   0.000
 6085SOL    HW219155   0.405   4.449   0.080
 6086SOL     OW19156   3.221   1.423   4.970
 6086SOL    HW119157   3.206   1.516   5.005
 6086SOL    HW219158   3.197   1.420   4.873
 6087SOL     OW19159   4.977   5.983   6.697
 6087SOL    HW119160   5.012   5.889   6.701
 6087SOL    HW219161   4.899   5.987   6.635
 6088SOL     OW19162   6.161   6.093   4.680
 6088SOL    HW119163   6.160   6.192   4.697
 6088SOL    HW219164   6.071   6.064   4.649
 6089SOL     OW19165   0.802   3.638   1.263
 6089SOL    HW119166   0.755   3.668   1.346
 6089SOL    HW219167   0.886   3.691   1.252
 6090SOL     OW19168   1.959   5.815   6.342
 6090SOL    HW119169   1.974   5.847   6.435
 6090SOL    HW219170   2.048   5.808   6.295
 6091SOL     OW19171   1.267   1.932   2.371
 6091SOL    HW119172   1.227   1.942   2.280
 6091SOL    HW219173   1.295   2.022   2.405
 6092SOL     OW19174   2.763   0.386   3.374
 6092SOL    HW119175   2.800   0.362   3.284
 6092SOL    HW219176   2.745   0.485   3.377
 6093SOL     OW19177   1.149   3.197   3.135
 6093SOL    HW119178   1.245   3.171   3.145
 6093SOL    HW219179   1.104   3.135   3.070
 6094SOL     OW19180   3.865   0.806   1.041
 6094SOL    HW119181   3.882   0.711   1.013
 6094SOL    HW219182   3.944   0.840   1.092
 6095SOL     OW19183   4.820   3.189   6.317
 6095SOL    HW119184   4.736   3.151   6.356
 6095SOL    HW219185   4.875   3.114   6.278
 6096SOL     OW19186   5.657   0.541   3.281
 6096SOL    HW119187   5.728   0.572   3.217
 6096SOL    HW219188   5.689   0.460   3.329
 6097SOL     OW19189   1.768   6.995   1.855
 6097SOL    HW119190   1.721   0.006   1.937
 6097SOL    HW219191   1.792   0.054   1.798
 6098SOL     OW19192   1.281   2.120   6.209
 6098SOL    HW119193   1.360   2.060   6.200
 6098SOL    HW219194   1.217   2.081   6.275
 6099SOL     OW19195   6.982   5.888   0.290
 6099SOL    HW119196   7.014   5.965   0.235
 6099SOL    HW219197   7.010   5.802   0.246
 6100SOL     OW19198   5.240   3.050   6.684
 6100SOL    HW119199   5.198   3.055   6.775
 6100SOL    HW219200   5.198   2.977   6.632
 6101SOL     OW19201   5.957   2.021   5.467
 6101SOL    HW119202   5.958   2.014   5.567
 6101SOL    HW219203   5.935   1.932   5.428
 6102SOL     OW19204   3.933   0.708   4.125
 6102SOL    HW119205   3.882   0.684   4.208
 6102SOL    HW219206   3.981   0.795   4.140
 6103SOL     OW19207   0.365   1.354   3.061
 6103SOL    HW119208   0.351   1.298   3.143
 6103SOL    HW219209   0.448   1.409   3.072
 6104SOL     OW19210   6.600   2.650   6.229
 6104SOL    HW119211   6.667   2.686   6.163
 6104SOL    HW219212   6.536   2.723   6.254
 6105SOL     OW19213   2.487   0.103   5.849
 6105SOL    HW119214   2.534   0.123   5.764
 6105SOL    HW219215   2.541   0.037   5.902
 6106SOL     OW19216   1.232   4.578   5.786
 6106SOL    HW119217   1.242   4.606   5.881
 6106SOL    HW219218   1.311   4.521   5.759
 6107SOL     OW19219   2.382   5.040   4.131
 6107SOL    HW119220   2.328   5.121   4.153
 6107SOL    HW219221   2.322   4.960   4.129
 6108SOL     OW19222   0.423   2.344   3.429
 6108SOL    HW119223   0.329   2.310   3.430
 6108SOL    HW219224   0.461   2.340   3.521
 6109SOL     OW19225   5.209   3.268   6.093
 6109SOL    HW119226   5.283   3.262   6.026
 6109SOL    HW219227   5.185   3.364   6.108
 6110SOL     OW19228   3.943   3.422   7.016
 6110SOL    HW119229   3.987   3.493   6.960
 6110SOL    HW219230   3.955   3.333   6.972
 6111SOL     OW19231   1.791   4.661   2.818
 6111SOL    HW119232   1.783   4.571   2.861
 6111SOL    HW219233   1.748   4.658   2.728
 6112SOL     OW19234   3.886   1.236   3.417
 6112SOL    HW119235   3.847   1.152   3.456
 6112SOL    HW219236   3.813   1.303   3.401
 6113SOL     OW19237   0.214   0.910   6.009
 6113SOL    HW119238   0.306   0.894   5.973
 6113SOL    HW219239   0.152   0.934   5.934
 6114SOL     OW19240   4.764   4.565   1.251
 6114SOL    HW119241   4.853   4.529   1.277
 6114SOL    HW219242   4.707   4.575   1.333
 6115SOL     OW19243   5.587   6.124   3.211
 6115SOL    HW119244   5.608   6.174   3.295
 6115SOL    HW219245   5.658   6.141   3.143
 6116SOL     OW19246   2.752   1.169   1.307
 6116SOL    HW119247   2.706   1.081   1.316
 6116SOL    HW219248   2.694   1.233   1.256
 6117SOL     OW19249   6.734   0.261   5.884
 6117SOL    HW119250   6.751   0.347   5.836
 6117SOL    HW219251   6.678   0.201   5.827
 6118SOL     OW19252   6.864   0.747   1.577
 6118SOL    HW119253   6.831   0.666   1.626
 6118SOL    HW219254   6.792   0.817   1.577
 6119SOL     OW19255   1.186   3.472   3.905
 6119SOL    HW119256   1.143   3.450   3.992
 6119SOL    HW219257   1.265   3.532   3.921
 6120SOL     OW19258   4.185   6.808   3.480
 6120SOL    HW119259   4.179   6.908   3.480
 6120SOL    HW219260   4.252   6.778   3.548
 6121SOL     OW19261   0.346   2.976   4.348
 6121SOL    HW119262   0.310   2.888   4.378
 6121SOL    HW219263   0.438   2.988   4.383
 6122SOL     OW19264   3.637   6.984   1.681
 6122SOL    HW119265   3.549   6.975   1.635
 6122SOL    HW219266   3.623   0.004   1.772
 6123SOL     OW19267   6.524   0.554   0.171
 6123SOL    HW119268   6.485   0.462   0.181
 6123SOL    HW219269   6.623   0.549   0.174
 6124SOL     OW19270   3.396   0.709   5.572
 6124SOL    HW119271   3.486   0.734   5.607
 6124SOL    HW219272   3.334   0.787   5.581
 6125SOL     OW19273   3.065   5.599   0.854
 6125SOL    HW119274   2.982   5.555   0.887
 6125SOL    HW219275   3.046   5.695   0.834
 6126SOL     OW19276   6.052   6.978   4.449
 6126SOL    HW119277   6.091   6.890   4.475
 6126SOL    HW219278   5.996   7.013   4.524
 6127SOL     OW19279   2.302   0.773   2.488
 6127SOL    HW119280   2.347   0.826   2.560
 6127SOL    HW219281   2.258   0.693   2.527
 6128SOL     OW19282   6.841   3.200   0.515
 6128SOL    HW119283   6.873   3.171   0.606
 6128SOL    HW219284   6.832   3.299   0.513
 6129SOL     OW19285   5.869   4.656   3.280
 6129SOL    HW119286   5.910   4.739   3.319
 6129SOL    HW219287   5.885   4.654   3.182
 6130SOL     OW19288   5.762   1.891   3.924
 6130SOL    HW119289   5.672   1.934   3.933
 6130SOL    HW219290   5.771   1.818   3.992
 6131SOL     OW19291   6.563   1.435   5.437
 6131SOL    HW119292   6.539   1.459   5.531
 6131SOL    HW219293   6.480   1.413   5.386
 6132SOL     OW19294   4.969   1.094   6.999
 6132SOL    HW119295   5.031   1.126   0.050
 6132SOL    HW219296   4.883   1.145   7.005
 6133SOL     OW19297   1.028   2.769   3.043
 6133SOL    HW119298   1.108   2.719   3.075
 6133SOL    HW219299   0.945   2.719   3.070
 6134SOL     OW19300   3.384   4.399   0.153
 6134SOL    HW119301   3.312   4.396   0.223
 6134SOL    HW219302   3.353   4.351   0.071
 6135SOL     OW19303   0.282   6.687   1.718
 6135SOL    HW119304   0.312   6.614   1.656
 6135SOL    HW219305   0.225   6.648   1.790
 6136SOL     OW19306   0.741   2.326   2.603
 6136SOL    HW119307   0.762   2.404   2.544
 6136SOL    HW219308   0.809   2.319   2.676
 6137SOL     OW19309   4.640   1.831   5.086
 6137SOL    HW119310   4.545   1.803   5.100
 6137SOL    HW219311   4.642   1.913   5.029
 6138SOL     OW19312   3.772   6.854   2.836
 6138SOL    HW119313   3.750   6.833   2.741
 6138SOL    HW219314   3.752   6.950   2.854
 6139SOL     OW19315   1.822   2.623   4.810
 6139SOL    HW119316   1.832   2.676   4.726
 6139SOL    HW219317   1.824   2.526   4.788
 6140SOL     OW19318   0.414   5.949   1.563
 6140SOL    HW119319   0.379   5.937   1.470
 6140SOL    HW219320   0.509   5.918   1.567
 6141SOL     OW19321   6.033   6.132   5.214
 6141SOL    HW119322   6.091   6.095   5.287
 6141SOL    HW219323   6.089   6.157   5.136
 6142SOL     OW19324   6.956   5.195   1.056
 6142SOL    HW119325   7.014   5.159   0.984
 6142SOL    HW219326   6.971   5.143   1.140
 6143SOL     OW19327   6.203   4.630   0.235
 6143SOL    HW119328   6.244   4.652   0.323
 6143SOL    HW219329   6.232   4.698   0.167
 6144SOL     OW19330   6.178   4.896   2.405
 6144SOL    HW119331   6.108   4.835   2.366
 6144SOL    HW219332   6.266   4.849   2.406
 6145SOL     OW19333   4.851   5.854   4.224
 6145SOL    HW119334   4.819   5.820   4.312
 6145SOL    HW219335   4.880   5.949   4.234
 6146SOL     OW19336   4.074   1.164   3.764
 6146SOL    HW119337   3.990   1.141   3.716
 6146SOL    HW219338   4.136   1.085   3.764
 6147SOL     OW19339   1.769   4.264   4.307
 6147SOL    HW119340   1.764   4.254   4.208
 6147SOL    HW219341   1.791   4.176   4.348
 6148SOL     OW19342   6.542   0.263   4.567
 6148SOL    HW119343   6.624   0.226   4.612
 6148SOL    HW219344   6.558   0.358   4.543
 6149SOL     OW19345   3.054   4.848   2.873
 6149SOL    HW119346   3.153   4.842   2.885
 6149SOL    HW219347   3.016   4.912   2.941
 6150SOL     OW19348   3.837   4.965   6.766
 6150SOL    HW119349   3.797   5.054   6.742
 6150SOL    HW219350   3.821   4.947   6.863
 6151SOL     OW19351   5.713   4.172   4.636
 6151SOL    HW119352   5.715   4.242   4.708
 6151SOL    HW219353   5.693   4.083   4.677
 6152SOL     OW19354   5.650   5.112   5.599
 6152SOL    HW119355   5.554   5.141   5.589
 6152SOL    HW219356   5.675   5.053   5.523
 6153SOL     OW19357   4.781   3.978   1.704
 6153SOL    HW119358   4.722   4.024   1.771
 6153SOL    HW219359   4.866   3.949   1.749
 6154SOL     OW19360   5.364   1.794   2.616
 6154SOL    HW119361   5.409   1.709   2.645
 6154SOL    HW219362   5.269   1.775   2.593
 6155SOL     OW19363   1.918   1.856   4.616
 6155SOL    HW119364   1.901   1.825   4.523
 6155SOL    HW219365   1.930   1.955   4.616
 6156SOL     OW19366   4.423   4.867   2.361
 6156SOL    HW119367   4.469   4.852   2.274
 6156SOL    HW219368   4.489   4.863   2.436
 6157SOL     OW19369   1.252   1.670   4.570
 6157SOL    HW119370   1.187   1.723   4.623
 6157SOL    HW219371   1.339   1.719   4.565
 6158SOL     OW19372   4.288   0.617   6.242
 6158SOL    HW119373   4.332   0.706   6.225
 6158SOL    HW219374   4.359   0.550   6.263
 6159SOL     OW19375   4.794   2.715   0.664
 6159SOL    HW119376   4.872   2.658   0.692
 6159SOL    HW219377   4.713   2.657   0.654
 6160SOL     OW19378   5.466   6.173   0.295
 6160SOL    HW119379   5.406   6.137   0.224
 6160SOL    HW219380   5.561   6.173   0.263
 6161SOL     OW19381   5.954   2.358   5.685
 6161SOL    HW119382   5.985   2.396   5.773
 6161SOL    HW219383   5.943   2.259   5.694
 6162SOL     OW19384   0.713   5.522   3.984
 6162SOL    HW119385   0.710   5.433   4.030
 6162SOL    HW219386   0.763   5.587   4.040
 6163SOL     OW19387   5.260   6.230   1.803
 6163SOL    HW119388   5.293   6.310   1.853
 6163SOL    HW219389   5.187   6.258   1.740
 6164SOL     OW19390   1.868   3.307   1.583
 6164SOL    HW119391   1.927   3.378   1.621
 6164SOL    HW219392   1.911   3.268   1.502
 6165SOL     OW19393   3.797   6.842   6.164
 6165SOL    HW119394   3.795   6.926   6.219
 6165SOL    HW219395   3.714   6.836   6.109
 6166SOL     OW19396   3.976   1.011   5.389
 6166SOL    HW119397   3.919   1.025   5.308
 6166SOL    HW219398   3.984   0.913   5.408
 6167SOL     OW19399   0.240   4.626   2.408
 6167SOL    HW119400   0.273   4.719   2.397
 6167SOL    HW219401   0.172   4.605   2.337
 6168SOL     OW19402   0.593   3.550   0.503
 6168SOL    HW119403   0.594   3.647   0.527
 6168SOL    HW219404   0.560   3.497   0.581
 6169SOL     OW19405   0.861   3.614   2.489
 6169SOL    HW119406   0.773   3.618   2.442
 6169SOL    HW219407   0.925   3.676   2.445
 6170SOL     OW19408   0.657   3.336   5.191
 6170SOL    HW119409   0.739   3.365   5.240
 6170SOL    HW219410   0.609   3.266   5.244
 6171SOL     OW19411   0.580   1.636   0.392
 6171SOL    HW119412   0.619   1.725   0.369
 6171SOL    HW219413   0.542   1.640   0.485
 6172SOL     OW19414   1.309   3.373   2.930
 6172SOL    HW119415   1.303   3.331   2.840
 6172SOL    HW219416   1.352   3.309   2.994
 6173SOL     OW19417   6.851   5.552   3.234
 6173SOL    HW119418   6.803   5.539   3.147
 6173SOL    HW219419   6.805   5.499   3.306
 6174SOL     OW19420   4.586   5.075   4.186
 6174SOL    HW119421   4.632   5.162   4.206
 6174SOL    HW219422   4.616   5.006   4.252
 6175SOL     OW19423   3.389   0.620   3.992
 6175SOL    HW119424   3.344   0.708   3.976
 6175SOL    HW219425   3.331   0.564   4.052
 6176SOL     OW19426   4.755   3.863   5.208
 6176SOL    HW119427   4.815   3.871   5.287
 6176SOL    HW219428   4.769   3.773   5.165
 6177SOL     OW19429   5.307   1.702   2.236
 6177SOL    HW119430   5.267   1.677   2.148
 6177SOL    HW219431   5.359   1.624   2.273
 6178SOL     OW19432   5.235   3.602   2.243
 6178SOL    HW119433   5.296   3.541   2.295
 6178SOL    HW219434   5.216   3.684   2.297
 6179SOL     OW19435   6.606   4.528   1.900
 6179SOL    HW119436   6.586   4.625   1.910
 6179SOL    HW219437   6.598   4.483   1.990
 6180SOL     OW19438   3.085   4.992   0.972
 6180SOL    HW119439   3.063   5.084   1.004
 6180SOL    HW219440   3.167   4.959   1.019
 6181SOL     OW19441   4.970   6.296   6.038
 6181SOL    HW119442   5.050   6.341   5.998
 6181SOL    HW219443   4.976   6.299   6.138
 6182SOL     OW19444   4.616   3.049   6.379
 6182SOL    HW119445   4.614   2.958   6.421
 6182SOL    HW219446   4.534   3.099   6.404
 6183SOL     OW19447   1.797   2.233   2.212
 6183SOL    HW119448   1.887   2.233   2.256
 6183SOL    HW219449   1.756   2.142   2.220
 6184SOL     OW19450   3.461   0.293   6.197
 6184SOL    HW119451   3.468   0.336   6.107
 6184SOL    HW219452   3.429   0.361   6.264
 6185SOL     OW19453   1.577   4.572   6.006
 6185SOL    HW119454   1.507   4.532   6.064
 6185SOL    HW219455   1.656   4.511   6.001
 6186SOL     OW19456   6.330   1.309   1.425
 6186SOL    HW119457   6.418   1.307   1.473
 6186SOL    HW219458   6.289   1.400   1.435
 6187SOL     OW19459   4.859   3.325   4.648
 6187SOL    HW119460   4.777   3.381   4.655
 6187SOL    HW219461   4.939   3.378   4.677
 6188SOL     OW19462   1.612   1.740   5.794
 6188SOL    HW119463   1.639   1.793   5.713
 6188SOL    HW219464   1.692   1.725   5.853
 6189SOL     OW19465   3.596   4.939   2.858
 6189SOL    HW119466   3.672   4.949   2.922
 6189SOL    HW219467   3.631   4.908   2.770
 6190SOL     OW19468   6.829   3.189   5.016
 6190SOL    HW119469   6.919   3.220   4.986
 6190SOL    HW219470   6.825   3.089   5.014
 6191SOL     OW19471   2.404   3.434   5.891
 6191SOL    HW119472   2.321   3.466   5.845
 6191SOL    HW219473   2.427   3.342   5.859
 6192SOL     OW19474   2.717   2.106   6.607
 6192SOL    HW119475   2.665   2.188   6.581
 6192SOL    HW219476   2.674   2.025   6.567
 6193SOL     OW19477   4.548   6.187   1.352
 6193SOL    HW119478   4.468   6.180   1.412
 6193SOL    HW219479   4.521   6.173   1.257
 6194SOL     OW19480   6.186   0.472   6.484
 6194SOL    HW119481   6.182   0.372   6.487
 6194SOL    HW219482   6.281   0.502   6.484
 6195SOL     OW19483   5.523   6.338   4.538
 6195SOL    HW119484   5.546   6.241   4.534
 6195SOL    HW219485   5.607   6.392   4.544
 6196SOL     OW19486   4.605   4.438   2.498
 6196SOL    HW119487   4.591   4.423   2.400
 6196SOL    HW219488   4.523   4.480   2.537
 6197SOL     OW19489   2.379   5.016   2.288
 6197SOL    HW119490   2.360   4.997   2.192
 6197SOL    HW219491   2.305   5.070   2.327
 6198SOL     OW19492   4.629   6.160   0.355
 6198SOL    HW119493   4.585   6.238   0.312
 6198SOL    HW219494   4.695   6.120   0.291
 6199SOL     OW19495   0.765   0.938   0.247
 6199SOL    HW119496   0.843   0.883   0.276
 6199SOL    HW219497   0.691   0.929   0.313
 6200SOL     OW19498   0.673   1.784   4.207
 6200SOL    HW119499   0.752   1.779   4.145
 6200SOL    HW219500   0.641   1.691   4.226
 6201SOL     OW19501   1.247   3.015   4.548
 6201SOL    HW119502   1.320   3.030   4.615
 6201SOL    HW219503   1.160   3.044   4.587
 6202SOL     OW19504   5.933   1.626   2.251
 6202SOL    HW119505   5.837   1.654   2.245
 6202SOL    HW219506   5.943   1.535   2.211
 6203SOL     OW19507   5.346   5.347   2.097
 6203SOL    HW119508   5.250   5.320   2.090
 6203SOL    HW219509   5.391   5.292   2.167
 6204SOL     OW19510   1.047   5.971   5.199
 6204SOL    HW119511   1.118   6.001   5.262
 6204SOL    HW219512   1.082   5.898   5.141
 6205SOL     OW19513   5.582   4.318   1.429
 6205SOL    HW119514   5.596   4.275   1.340
 6205SOL    HW219515   5.666   4.363   1.458
 6206SOL     OW19516   5.541   1.169   3.207
 6206SOL    HW119517   5.506   1.261   3.228
 6206SOL    HW219518   5.611   1.145   3.275
 6207SOL     OW19519   1.729   6.145   4.868
 6207SOL    HW119520   1.761   6.052   4.851
 6207SOL    HW219521   1.668   6.174   4.794
 6208SOL     OW19522   3.097   2.361   5.532
 6208SOL    HW119523   3.089   2.400   5.623
 6208SOL    HW219524   3.097   2.434   5.464
 6209SOL     OW19525   3.376   5.434   0.642
 6209SOL    HW119526   3.406   5.349   0.600
 6209SOL    HW219527   3.441   5.462   0.712
 6210SOL     OW19528   5.163   3.848   3.118
 6210SOL    HW119529   5.107   3.766   3.117
 6210SOL    HW219530   5.183   3.874   3.212
 6211SOL     OW19531   3.812   6.337   5.440
 6211SOL    HW119532   3.766   6.391   5.369
 6211SOL    HW219533   3.896   6.384   5.468
 6212SOL     OW19534   2.207   4.641   3.974
 6212SOL    HW119535   2.112   4.638   4.006
 6212SOL    HW219536   2.264   4.586   4.035
 6213SOL     OW19537   4.642   6.549   6.979
 6213SOL    HW119538   4.576   6.488   6.934
 6213SOL    HW219539   4.725   6.555   6.922
 6214SOL     OW19540   5.708   5.700   5.561
 6214SOL    HW119541   5.652   5.734   5.636
 6214SOL    HW219542   5.688   5.603   5.547
 6215SOL     OW19543   4.092   2.929   5.966
 6215SOL    HW119544   4.188   2.934   5.995
 6215SOL    HW219545   4.052   3.020   5.969
 6216SOL     OW19546   6.037   2.573   2.840
 6216SOL    HW119547   6.030   2.544   2.745
 6216SOL    HW219548   5.948   2.562   2.885
 6217SOL     OW19549   1.010   4.894   2.523
 6217SOL    HW119550   1.021   4.993   2.512
 6217SOL    HW219551   0.989   4.873   2.618
 6218SOL     OW19552   3.809   6.267   0.147
 6218SOL    HW119553   3.898   6.234   0.180
 6218SOL    HW219554   3.822   6.347   0.089
 6219SOL     OW19555   1.894   0.768   5.024
 6219SOL    HW119556   1.904   0.701   4.950
 6219SOL    HW219557   1.885   0.860   4.985
 6220SOL     OW19558   3.485   0.750   6.516
 6220SOL    HW119559   3.461   0.778   6.609
 6220SOL    HW219560   3.553   0.813   6.479
 6221SOL     OW19561   6.370   6.499   6.562
 6221SOL    HW119562   6.414   6.412   6.583
 6221SOL    HW219563   6.295   6.484   6.497
 6222SOL     OW19564   6.430   0.173   2.419
 6222SOL    HW119565   6.346   0.225   2.406
 6222SOL    HW219566   6.421   0.115   2.500
 6223SOL     OW19567   1.361   5.868   3.145
 6223SOL    HW119568   1.326   5.961   3.136
 6223SOL    HW219569   1.358   5.840   3.241
 6224SOL     OW19570   4.018   1.711   5.542
 6224SOL    HW119571   3.955   1.635   5.524
 6224SOL    HW219572   3.983   1.766   5.618
 6225SOL     OW19573   3.993   2.302   6.601
 6225SOL    HW119574   3.950   2.216   6.627
 6225SOL    HW219575   3.923   2.373   6.591
 6226SOL     OW19576   1.061   1.560   3.740
 6226SOL    HW119577   0.976   1.526   3.700
 6226SOL    HW219578   1.058   1.659   3.746
 6227SOL     OW19579   3.073   4.813   5.098
 6227SOL    HW119580   3.081   4.759   5.182
 6227SOL    HW219581   3.001   4.773   5.040
 6228SOL     OW19582   0.508   2.324   3.671
 6228SOL    HW119583   0.499   2.229   3.703
 6228SOL    HW219584   0.564   2.376   3.736
 6229SOL     OW19585   6.764   2.893   5.400
 6229SOL    HW119586   6.737   2.798   5.387
 6229SOL    HW219587   6.755   2.917   5.497
 6230SOL     OW19588   1.386   1.980   3.555
 6230SOL    HW119589   1.404   2.023   3.466
 6230SOL    HW219590   1.397   2.049   3.627
 6231SOL     OW19591   5.411   5.801   0.840
 6231SOL    HW119592   5.373   5.869   0.903
 6231SOL    HW219593   5.498   5.833   0.803
 6232SOL     OW19594   5.884   1.080   0.532
 6232SOL    HW119595   5.971   1.091   0.580
 6232SOL    HW219596   5.891   1.121   0.441
 6233SOL     OW19597   6.968   3.509   1.711
 6233SOL    HW119598   6.992   3.595   1.665
 6233SOL    HW219599   6.917   3.530   1.795
 6234SOL     OW19600   7.006   0.374   5.317
 6234SOL    HW119601   6.963   0.340   5.400
 6234SOL    HW219602   6.939   0.424   5.262
 6235SOL     OW19603   0.105   0.756   1.523
 6235SOL    HW119604   0.120   0.659   1.501
 6235SOL    HW219605   0.010   0.770   1.548
 6236SOL     OW19606   6.785   4.527   0.448
 6236SOL    HW119607   6.687   4.541   0.430
 6236SOL    HW219608   6.796   4.451   0.512
 6237SOL     OW19609   3.165   6.604   0.093
 6237SOL    HW119610   3.147   6.586   7.016
 6237SOL    HW219611   3.253   6.564   0.119
 6238SOL     OW19612   3.967   6.622   3.512
 6238SOL    HW119613   4.043   6.687   3.503
 6238SOL    HW219614   3.888   6.656   3.462
 6239SOL     OW19615   3.584   0.777   1.679
 6239SOL    HW119616   3.535   0.783   1.766
 6239SOL    HW219617   3.579   0.684   1.644
 6240SOL     OW19618   3.309   3.773   4.811
 6240SOL    HW119619   3.314   3.673   4.810
 6240SOL    HW219620   3.225   3.803   4.767
 6241SOL     OW19621   4.093   0.447   3.889
 6241SOL    HW119622   4.117   0.538   3.855
 6241SOL    HW219623   3.996   0.446   3.914
 6242SOL     OW19624   2.363   0.806   3.658
 6242SOL    HW119625   2.387   0.870   3.585
 6242SOL    HW219626   2.272   0.827   3.692
 6243SOL     OW19627   6.786   0.851   5.695
 6243SOL    HW119628   6.809   0.928   5.635
 6243SOL    HW219629   6.844   0.773   5.673
 6244SOL     OW19630   5.091   4.088   3.462
 6244SOL    HW119631   5.100   4.131   3.372
 6244SOL    HW219632   5.027   4.141   3.517
 6245SOL     OW19633   0.789   5.291   1.616
 6245SOL    HW119634   0.858   5.352   1.657
 6245SOL    HW219635   0.731   5.343   1.554
 6246SOL     OW19636   0.887   0.667   4.604
 6246SOL    HW119637   0.958   0.729   4.639
 6246SOL    HW219638   0.903   0.575   4.639
 6247SOL     OW19639   1.223   6.089   3.481
 6247SOL    HW119640   1.314   6.104   3.520
 6247SOL    HW219641   1.190   5.999   3.508
 6248SOL     OW19642   3.416   3.828   7.009
 6248SOL    HW119643   3.399   3.822   0.088
 6248SOL    HW219644   3.383   3.916   6.975
 6249SOL     OW19645   0.152   2.921   1.401
 6249SOL    HW119646   0.092   2.966   1.467
 6249SOL    HW219647   0.124   2.825   1.390
 6250SOL     OW19648   6.506   6.527   0.765
 6250SOL    HW119649   6.587   6.494   0.815
 6250SOL    HW219650   6.471   6.609   0.810
 6251SOL     OW19651   3.874   5.798   4.390
 6251SOL    HW119652   3.856   5.775   4.485
 6251SOL    HW219653   3.833   5.887   4.368
 6252SOL     OW19654   2.818   5.093   0.334
 6252SOL    HW119655   2.844   5.153   0.259
 6252SOL    HW219656   2.828   4.997   0.305
 6253SOL     OW19657   2.382   5.081   4.884
 6253SOL    HW119658   2.306   5.035   4.930
 6253SOL    HW219659   2.466   5.029   4.899
 6254SOL     OW19660   0.627   6.346   1.234
 6254SOL    HW119661   0.700   6.411   1.215
 6254SOL    HW219662   0.596   6.304   1.149
 6255SOL     OW19663   1.859   2.422   0.826
 6255SOL    HW119664   1.793   2.350   0.845
 6255SOL    HW219665   1.925   2.389   0.758
 6256SOL     OW19666   4.537   4.913   2.634
 6256SOL    HW119667   4.631   4.922   2.665
 6256SOL    HW219668   4.485   4.995   2.659
 6257SOL     OW19669   3.913   3.134   0.405
 6257SOL    HW119670   3.924   3.040   0.372
 6257SOL    HW219671   3.866   3.133   0.493
 6258SOL     OW19672   3.420   0.277   5.506
 6258SOL    HW119673   3.372   0.240   5.586
 6258SOL    HW219674   3.488   0.212   5.474
 6259SOL     OW19675   2.036   1.320   6.197
 6259SOL    HW119676   1.977   1.246   6.230
 6259SOL    HW219677   1.980   1.398   6.170
 6260SOL     OW19678   1.886   0.462   0.973
 6260SOL    HW119679   1.888   0.404   1.054
 6260SOL    HW219680   1.856   0.409   0.894
 6261SOL     OW19681   4.944   6.690   1.021
 6261SOL    HW119682   5.017   6.636   0.979
 6261SOL    HW219683   4.976   6.784   1.034
 6262SOL     OW19684   0.568   6.373   2.515
 6262SOL    HW119685   0.497   6.437   2.543
 6262SOL    HW219686   0.603   6.324   2.595
 6263SOL     OW19687   6.795   6.759   4.885
 6263SOL    HW119688   6.747   6.840   4.852
 6263SOL    HW219689   6.770   6.680   4.829
 6264SOL     OW19690   1.232   0.076   1.205
 6264SOL    HW119691   1.143   0.121   1.210
 6264SOL    HW219692   1.297   0.135   1.158
 6265SOL     OW19693   3.901   2.468   0.639
 6265SOL    HW119694   3.892   2.397   0.570
 6265SOL    HW219695   3.837   2.449   0.714
 6266SOL     OW19696   3.712   6.653   3.386
 6266SOL    HW119697   3.714   6.743   3.430
 6266SOL    HW219698   3.727   6.664   3.288
 6267SOL     OW19699   1.341   6.696   5.334
 6267SOL    HW119700   1.382   6.709   5.424
 6267SOL    HW219701   1.285   6.613   5.335
 6268SOL     OW19702   3.372   0.705   2.224
 6268SOL    HW119703   3.335   0.647   2.296
 6268SOL    HW219704   3.297   0.737   2.165
 6269SOL     OW19705   5.533   6.364   1.403
 6269SOL    HW119706   5.462   6.319   1.456
 6269SOL    HW219707   5.591   6.418   1.464
 6270SOL     OW19708   0.741   6.379   0.305
 6270SOL    HW119709   0.694   6.306   0.355
 6270SOL    HW219710   0.714   6.376   0.208
 6271SOL     OW19711   6.110   2.644   6.755
 6271SOL    HW119712   6.123   2.678   6.661
 6271SOL    HW219713   6.041   2.571   6.754
 6272SOL     OW19714   0.668   0.381   0.247
 6272SOL    HW119715   0.604   0.305   0.235
 6272SOL    HW219716   0.737   0.378   0.175
 6273SOL     OW19717   0.537   5.987   3.537
 6273SOL    HW119718   0.559   6.083   3.554
 6273SOL    HW219719   0.461   5.959   3.596
 6274SOL     OW19720   2.314   6.909   4.959
 6274SOL    HW119721   2.235   6.914   4.899
 6274SOL    HW219722   2.290   6.860   5.043
 6275SOL     OW19723   2.238   6.165   0.663
 6275SOL    HW119724   2.250   6.230   0.588
 6275SOL    HW219725   2.198   6.080   0.627
 6276SOL     OW19726   3.140   5.678   3.299
 6276SOL    HW119727   3.230   5.660   3.259
 6276SOL    HW219728   3.069   5.648   3.236
 6277SOL     OW19729   5.192   1.548   0.985
 6277SOL    HW119730   5.262   1.553   0.914
 6277SOL    HW219731   5.220   1.480   1.054
 6278SOL     OW19732   3.754   0.690   5.980
 6278SOL    HW119733   3.676   0.685   6.042
 6278SOL    HW219734   3.836   0.718   6.030
 6279SOL     OW19735   3.718   6.358   0.631
 6279SOL    HW119736   3.766   6.443   0.610
 6279SOL    HW219737   3.760   6.283   0.582
 6280SOL     OW19738   0.163   1.372   6.698
 6280SOL    HW119739   0.079   1.424   6.712
 6280SOL    HW219740   0.198   1.389   6.605
 6281SOL     OW19741   5.815   4.876   3.772
 6281SOL    HW119742   5.807   4.907   3.677
 6281SOL    HW219743   5.912   4.868   3.796
 6282SOL     OW19744   6.059   3.484   5.131
 6282SOL    HW119745   6.027   3.404   5.182
 6282SOL    HW219746   6.151   3.509   5.163
 6283SOL     OW19747   0.713   4.866   4.669
 6283SOL    HW119748   0.733   4.801   4.743
 6283SOL    HW219749   0.719   4.818   4.582
 6284SOL     OW19750   1.056   5.659   6.771
 6284SOL    HW119751   1.039   5.700   6.682
 6284SOL    HW219752   1.047   5.729   6.842
 6285SOL     OW19753   1.718   3.705   3.485
 6285SOL    HW119754   1.795   3.764   3.506
 6285SOL    HW219755   1.703   3.704   3.386
 6286SOL     OW19756   6.461   3.482   4.132
 6286SOL    HW119757   6.521   3.422   4.079
 6286SOL    HW219758   6.452   3.570   4.085
 6287SOL     OW19759   4.197   5.080   5.494
 6287SOL    HW119760   4.165   5.156   5.438
 6287SOL    HW219761   4.121   5.045   5.550
 6288SOL     OW19762   4.144   4.386   1.170
 6288SOL    HW119763   4.120   4.440   1.250
 6288SOL    HW219764   4.062   4.340   1.135
 6289SOL     OW19765   2.609   4.456   6.655
 6289SOL    HW119766   2.574   4.504   6.574
 6289SOL    HW219767   2.555   4.373   6.671
 6290SOL     OW19768   6.446   5.071   6.284
 6290SOL    HW119769   6.509   5.146   6.303
 6290SOL    HW219770   6.376   5.102   6.219
 6291SOL     OW19771   4.079   3.167   2.959
 6291SOL    HW119772   4.173   3.168   2.924
 6291SOL    HW219773   4.081   3.176   3.058
 6292SOL     OW19774   2.141   2.542   4.654
 6292SOL    HW119775   2.076   2.478   4.612
 6292SOL    HW219776   2.200   2.492   4.717
 6293SOL     OW19777   4.219   1.621   0.538
 6293SOL    HW119778   4.257   1.597   0.627
 6293SOL    HW219779   4.268   1.699   0.500
 6294SOL     OW19780   4.403   0.577   3.314
 6294SOL    HW119781   4.496   0.543   3.329
 6294SOL    HW219782   4.401   0.631   3.229
 6295SOL     OW19783   5.498   5.217   5.094
 6295SOL    HW119784   5.586   5.220   5.047
 6295SOL    HW219785   5.455   5.129   5.078
 6296SOL     OW19786   0.481   4.392   6.071
 6296SOL    HW119787   0.570   4.408   6.028
 6296SOL    HW219788   0.457   4.470   6.128
 6297SOL     OW19789   5.963   0.013   5.151
 6297SOL    HW119790   5.895   0.079   5.119
 6297SOL    HW219791   5.990   0.037   5.245
 6298SOL     OW19792   6.563   4.767   6.341
 6298SOL    HW119793   6.536   4.751   6.246
 6298SOL    HW219794   6.482   4.775   6.398
 6299SOL     OW19795   5.627   2.861   2.422
 6299SOL    HW119796   5.569   2.934   2.385
 6299SOL    HW219797   5.600   2.774   2.381
 6300SOL     OW19798   4.703   0.764   6.741
 6300SOL    HW119799   4.662   0.713   6.665
 6300SOL    HW219800   4.734   0.854   6.708
 6301SOL     OW19801   3.133   6.661   6.272
 6301SOL    HW119802   3.161   6.608   6.352
 6301SOL    HW219803   3.085   6.744   6.302
 6302SOL     OW19804   2.295   1.436   5.315
 6302SOL    HW119805   2.339   1.378   5.246
 6302SOL    HW219806   2.259   1.519   5.272
 6303SOL     OW19807   0.911   6.587   5.942
 6303SOL    HW119808   0.865   6.673   5.919
 6303SOL    HW219809   0.960   6.598   6.029
 6304SOL     OW19810   4.006   1.536   3.417
 6304SOL    HW119811   4.067   1.459   3.402
 6304SOL    HW219812   3.943   1.515   3.492
 6305SOL     OW19813   6.084   6.008   6.965
 6305SOL    HW119814   6.021   6.010   6.888
 6305SOL    HW219815   6.099   6.101   6.998
 6306SOL     OW19816   0.321   3.472   3.854
 6306SOL    HW119817   0.383   3.521   3.916
 6306SOL    HW219818   0.227   3.498   3.874
 6307SOL     OW19819   3.401   3.140   4.106
 6307SOL    HW119820   3.424   3.185   4.020
 6307SOL    HW219821   3.320   3.083   4.094
 6308SOL     OW19822   0.709   2.036   5.811
 6308SOL    HW119823   0.796   2.084   5.817
 6308SOL    HW219824   0.639   2.098   5.777
 6309SOL     OW19825   0.420   6.963   4.294
 6309SOL    HW119826   0.371   0.019   4.251
 6309SOL    HW219827   0.358   6.912   4.354
 6310SOL     OW19828   2.038   6.561   3.043
 6310SOL    HW119829   2.040   6.494   3.117
 6310SOL    HW219830   2.073   6.649   3.078
 6311SOL     OW19831   5.067   1.191   6.731
 6311SOL    HW119832   4.988   1.194   6.793
 6311SOL    HW219833   5.039   1.223   6.640
 6312SOL     OW19834   1.570   6.838   6.646
 6312SOL    HW119835   1.483   6.858   6.603
 6312SOL    HW219836   1.643   6.843   6.578
 6313SOL     OW19837   5.596   6.760   3.727
 6313SOL    HW119838   5.652   6.680   3.750
 6313SOL    HW219839   5.623   6.794   3.636
 6314SOL     OW19840   3.441   0.348   1.475
 6314SOL    HW119841   3.443   0.430   1.417
 6314SOL    HW219842   3.534   0.316   1.492
 6315SOL     OW19843   2.297   2.339   4.814
 6315SOL    HW119844   2.254   2.387   4.890
 6315SOL    HW219845   2.395   2.355   4.816
 6316SOL     OW19846   4.903   1.734   5.621
 6316SOL    HW119847   4.912   1.833   5.613
 6316SOL    HW219848   4.910   1.692   5.530
 6317SOL     OW19849   5.078   4.029   2.859
 6317SOL    HW119850   5.088   4.017   2.958
 6317SOL    HW219851   5.166   4.055   2.820
 6318SOL     OW19852   5.427   0.251   0.221
 6318SOL    HW119853   5.392   0.169   0.266
 6318SOL    HW219854   5.353   0.297   0.172
 6319SOL     OW19855   5.939   1.902   4.535
 6319SOL    HW119856   5.966   1.961   4.459
 6319SOL    HW219857   5.845   1.922   4.561
 6320SOL     OW19858   0.287   0.459   3.732
 6320SOL    HW119859   0.307   0.389   3.801
 6320SOL    HW219860   0.373   0.501   3.702
 6321SOL     OW19861   5.141   3.948   0.288
 6321SOL    HW119862   5.090   4.028   0.256
 6321SOL    HW219863   5.207   3.977   0.358
 6322SOL     OW19864   2.697   1.514   0.887
 6322SOL    HW119865   2.684   1.417   0.904
 6322SOL    HW219866   2.686   1.533   0.789
 6323SOL     OW19867   1.829   2.902   1.385
 6323SOL    HW119868   1.841   2.978   1.321
 6323SOL    HW219869   1.839   2.936   1.479
 6324SOL     OW19870   4.056   1.788   0.802
 6324SOL    HW119871   4.056   1.693   0.834
 6324SOL    HW219872   4.133   1.837   0.843
 6325SOL     OW19873   1.775   2.511   2.860
 6325SOL    HW119874   1.744   2.465   2.777
 6325SOL    HW219875   1.824   2.595   2.836
 6326SOL     OW19876   4.928   5.249   5.688
 6326SOL    HW119877   4.877   5.245   5.774
 6326SOL    HW219878   4.882   5.194   5.619
 6327SOL     OW19879   0.133   1.161   3.601
 6327SOL    HW119880   0.074   1.183   3.678
 6327SOL    HW219881   0.110   1.071   3.565
 6328SOL     OW19882   4.761   3.889   0.189
 6328SOL    HW119883   4.760   3.815   0.122
 6328SOL    HW219884   4.679   3.945   0.178
 6329SOL     OW19885   0.716   2.954   4.757
 6329SOL    HW119886   0.731   3.044   4.715
 6329SOL    HW219887   0.684   2.889   4.688
 6330SOL     OW19888   5.596   0.586   2.356
 6330SOL    HW119889   5.676   0.532   2.329
 6330SOL    HW219890   5.513   0.535   2.336
 6331SOL     OW19891   6.462   3.049   4.863
 6331SOL    HW119892   6.491   3.075   4.955
 6331SOL    HW219893   6.423   2.958   4.865
 6332SOL     OW19894   0.704   1.919   1.412
 6332SOL    HW119895   0.759   1.994   1.450
 6332SOL    HW219896   0.617   1.956   1.379
 6333SOL     OW19897   5.078   6.768   6.842
 6333SOL    HW119898   5.090   6.685   6.897
 6333SOL    HW219899   5.168   6.808   6.822
 6334SOL     OW19900   2.428   1.410   1.995
 6334SOL    HW119901   2.337   1.373   1.976
 6334SOL    HW219902   2.448   1.484   1.931
 6335SOL     OW19903   4.868   1.361   0.669
 6335SOL    HW119904   4.942   1.426   0.648
 6335SOL    HW219905   4.796   1.408   0.720
 6336SOL     OW19906   6.970   4.144   6.497
 6336SOL    HW119907   6.999   4.213   6.431
 6336SOL    HW219908   6.952   4.187   6.586
 6337SOL     OW19909   4.531   6.200   4.795
 6337SOL    HW119910   4.505   6.266   4.724
 6337SOL    HW219911   4.599   6.136   4.757
 6338SOL     OW19912   2.980   1.596   4.274
 6338SOL    HW119913   3.068   1.555   4.253
 6338SOL    HW219914   2.950   1.567   4.365
 6339SOL     OW19915   1.030   3.758   3.092
 6339SOL    HW119916   1.087   3.694   3.041
 6339SOL    HW219917   1.083   3.797   3.168
 6340SOL     OW19918   2.360   3.427   1.078
 6340SOL    HW119919   2.324   3.361   1.144
 6340SOL    HW219920   2.286   3.484   1.043
 6341SOL     OW19921   0.945   3.739   3.475
 6341SOL    HW119922   0.924   3.704   3.567
 6341SOL    HW219923   1.044   3.748   3.465
 6342SOL     OW19924   3.244   1.311   0.782
 6342SOL    HW119925   3.229   1.327   0.684
 6342SOL    HW219926   3.317   1.244   0.794
 6343SOL     OW19927   3.792   6.502   7.009
 6343SOL    HW119928   3.763   6.588   0.030
 6343SOL    HW219929   3.711   6.452   6.977
 6344SOL     OW19930   6.033   2.288   3.745
 6344SOL    HW119931   5.958   2.228   3.773
 6344SOL    HW219932   6.004   2.383   3.749
 6345SOL     OW19933   5.053   3.221   2.002
 6345SOL    HW119934   5.049   3.313   2.041
 6345SOL    HW219935   5.006   3.221   1.913
 6346SOL     OW19936   6.631   4.321   5.184
 6346SOL    HW119937   6.664   4.415   5.192
 6346SOL    HW219938   6.618   4.299   5.087
 6347SOL     OW19939   2.480   1.579   2.232
 6347SOL    HW119940   2.559   1.621   2.276
 6347SOL    HW219941   2.509   1.498   2.181
 6348SOL     OW19942   0.948   1.876   5.982
 6348SOL    HW119943   1.017   1.878   5.909
 6348SOL    HW219944   0.968   1.948   6.048
 6349SOL     OW19945   1.461   0.141   0.129
 6349SOL    HW119946   1.430   0.056   0.172
 6349SOL    HW219947   1.483   0.124   0.033
 6350SOL     OW19948   0.840   4.941   2.758
 6350SOL    HW119949   0.799   5.019   2.805
 6350SOL    HW219950   0.810   4.856   2.802
 6351SOL     OW19951   6.209   4.089   3.854
 6351SOL    HW119952   6.213   4.182   3.816
 6351SOL    HW219953   6.149   4.032   3.799
 6352SOL     OW19954   2.411   0.401   3.727
 6352SOL    HW119955   2.476   0.476   3.718
 6352SOL    HW219956   2.365   0.386   3.640
 6353SOL     OW19957   2.620   5.254   0.454
 6353SOL    HW119958   2.684   5.189   0.414
 6353SOL    HW219959   2.529   5.214   0.458
 6354SOL     OW19960   3.990   5.564   2.539
 6354SOL    HW119961   4.081   5.551   2.580
 6354SOL    HW219962   3.921   5.565   2.611
 6355SOL     OW19963   3.253   5.638   0.527
 6355SOL    HW119964   3.304   5.722   0.546
 6355SOL    HW219965   3.290   5.563   0.583
 6356SOL     OW19966   5.380   5.053   0.155
 6356SOL    HW119967   5.452   4.989   0.181
 6356SOL    HW219968   5.302   5.042   0.217
 6357SOL     OW19969   5.842   2.846   1.645
 6357SOL    HW119970   5.749   2.817   1.621
 6357SOL    HW219971   5.883   2.892   1.567
 6358SOL     OW19972   0.876   2.344   6.675
 6358SOL    HW119973   0.863   2.251   6.708
 6358SOL    HW219974   0.951   2.345   6.608
 6359SOL     OW19975   6.022   6.496   0.727
 6359SOL    HW119976   6.072   6.529   0.807
 6359SOL    HW219977   6.051   6.547   0.646
 6360SOL     OW19978   0.567   3.550   4.051
 6360SOL    HW119979   0.649   3.548   4.108
 6360SOL    HW219980   0.501   3.483   4.086
 6361SOL     OW19981   0.552   0.887   0.409
 6361SOL    HW119982   0.567   0.789   0.396
 6361SOL    HW219983   0.480   0.918   0.347
 6362SOL     OW19984   1.643   6.416   6.858
 6362SOL    HW119985   1.594   6.439   6.943
 6362SOL    HW219986   1.734   6.382   6.881
 6363SOL     OW19987   2.754   4.688   3.946
 6363SOL    HW119988   2.742   4.628   3.867
 6363SOL    HW219989   2.733   4.782   3.920
 6364SOL     OW19990   2.225   1.770   5.203
 6364SOL    HW119991   2.279   1.829   5.143
 6364SOL    HW219992   2.130   1.767   5.172
 6365SOL     OW19993   5.795   5.995   4.898
 6365SOL    HW119994   5.778   5.920   4.962
 6365SOL    HW219995   5.712   6.049   4.887
 6366SOL     OW19996   6.618   6.961   4.814
 6366SOL    HW119997   6.610   0.019   4.876
 6366SOL    HW219998   6.527   6.931   4.786
 6367SOL     OW19999   3.454   1.907   2.617
 6367SOL    HW120000   3.424   1.948   2.530
 6367SOL    HW220001   3.431   1.810   2.618
 6368SOL     OW20002   4.262   4.738   4.286
 6368SOL    HW120003   4.252   4.733   4.385
 6368SOL    HW220004   4.173   4.753   4.244
 6369SOL     OW20005   2.041   6.469   4.905
 6369SOL    HW120006   2.035   6.568   4.918
 6369SOL    HW220007   1.952   6.433   4.877
 6370SOL     OW20008   5.204   3.917   3.693
 6370SOL    HW120009   5.149   3.843   3.654
 6370SOL    HW220010   5.163   3.948   3.779
 6371SOL     OW20011   5.662   3.964   1.512
 6371SOL    HW120012   5.636   3.880   1.465
 6371SOL    HW220013   5.761   3.966   1.525
 6372SOL     OW20014   0.206   1.116   2.293
 6372SOL    HW120015   0.301   1.086   2.304
 6372SOL    HW220016   0.152   1.040   2.256
 6373SOL     OW20017   5.922   4.033   2.281
 6373SOL    HW120018   5.917   4.131   2.303
 6373SOL    HW220019   5.846   3.985   2.325
 6374SOL     OW20020   4.381   2.660   0.244
 6374SOL    HW120021   4.442   2.673   0.165
 6374SOL    HW220022   4.437   2.647   0.326
 6375SOL     OW20023   1.206   2.625   2.299
 6375SOL    HW120024   1.263   2.664   2.226
 6375SOL    HW220025   1.238   2.659   2.388
 6376SOL     OW20026   4.031   1.523   5.861
 6376SOL    HW120027   4.087   1.471   5.797
 6376SOL    HW220028   4.060   1.618   5.861
 6377SOL     OW20029   6.772   1.219   5.783
 6377SOL    HW120030   6.798   1.203   5.878
 6377SOL    HW220031   6.852   1.211   5.725
 6378SOL     OW20032   4.920   5.442   3.482
 6378SOL    HW120033   4.887   5.352   3.510
 6378SOL    HW220034   4.843   5.496   3.446
 6379SOL     OW20035   0.947   4.447   5.502
 6379SOL    HW120036   1.046   4.464   5.504
 6379SOL    HW220037   0.899   4.533   5.487
 6380SOL     OW20038   0.466   3.289   4.202
 6380SOL    HW120039   0.468   3.266   4.300
 6380SOL    HW220040   0.478   3.206   4.148
 6381SOL     OW20041   4.140   2.706   0.518
 6381SOL    HW120042   4.120   2.763   0.598
 6381SOL    HW220043   4.113   2.611   0.536
 6382SOL     OW20044   3.054   1.774   1.269
 6382SOL    HW120045   2.988   1.848   1.252
 6382SOL    HW220046   3.005   1.690   1.290
 6383SOL     OW20047   1.419   2.439   2.439
 6383SOL    HW120048   1.507   2.437   2.391
 6383SOL    HW220049   1.360   2.507   2.396
 6384SOL     OW20050   5.811   2.935   2.202
 6384SOL    HW120051   5.744   2.991   2.155
 6384SOL    HW220052   5.770   2.895   2.284
 6385SOL     OW20053   6.780   4.023   1.708
 6385SOL    HW120054   6.726   3.973   1.640
 6385SOL    HW220055   6.745   4.117   1.716
 6386SOL     OW20056   1.944   3.753   0.150
 6386SOL    HW120057   1.982   3.665   0.177
 6386SOL    HW220058   1.870   3.778   0.213
 6387SOL     OW20059   5.935   1.162   0.278
 6387SOL    HW120060   5.941   1.074   0.232
 6387SOL    HW220061   5.995   1.228   0.231
 6388SOL     OW20062   6.350   4.678   2.179
 6388SOL    HW120063   6.373   4.773   2.200
 6388SOL    HW220064   6.278   4.676   2.109
 6389SOL     OW20065   1.727   6.873   1.270
 6389SOL    HW120066   1.653   6.914   1.324
 6389SOL    HW220067   1.733   6.919   1.182
 6390SOL     OW20068   6.052   0.808   6.554
 6390SOL    HW120069   6.088   0.866   6.481
 6390SOL    HW220070   6.095   0.718   6.549
 6391SOL     OW20071   1.520   1.217   6.315
 6391SOL    HW120072   1.430   1.252   6.342
 6391SOL    HW220073   1.534   1.126   6.354
 6392SOL     OW20074   3.183   6.188   3.888
 6392SOL    HW120075   3.115   6.115   3.886
 6392SOL    HW220076   3.208   6.213   3.794
 6393SOL     OW20077   5.784   6.102   1.448
 6393SOL    HW120078   5.755   6.041   1.522
 6393SOL    HW220079   5.712   6.169   1.430
 6394SOL     OW20080   1.477   4.574   1.202
 6394SOL    HW120081   1.425   4.490   1.192
 6394SOL    HW220082   1.557   4.572   1.142
 6395SOL     OW20083   0.088   3.686   2.446
 6395SOL    HW120084   0.114   3.782   2.436
 6395SOL    HW220085   7.016   3.673   2.409
 6396SOL     OW20086   6.094   3.815   5.934
 6396SOL    HW120087   6.135   3.820   6.024
 6396SOL    HW220088   6.161   3.840   5.864
 6397SOL     OW20089   6.081   0.896   2.269
 6397SOL    HW120090   6.090   0.985   2.223
 6397SOL    HW220091   6.045   0.909   2.361
 6398SOL     OW20092   1.418   6.787   1.584
 6398SOL    HW120093   1.499   6.808   1.638
 6398SOL    HW220094   1.416   6.844   1.502
 6399SOL     OW20095   2.018   0.103   0.136
 6399SOL    HW120096   2.071   0.144   0.210
 6399SOL    HW220097   1.921   0.121   0.150
 6400SOL     OW20098   2.110   5.267   2.637
 6400SOL    HW120099   2.109   5.292   2.734
 6400SOL    HW220100   2.018   5.273   2.600
 6401SOL     OW20101   4.728   4.977   2.837
 6401SOL    HW120102   4.800   5.022   2.890
 6401SOL    HW220103   4.644   4.974   2.891
 6402SOL     OW20104   1.995   3.389   3.565
 6402SOL    HW120105   2.014   3.468   3.622
 6402SOL    HW220106   1.937   3.416   3.488
 6403SOL     OW20107   5.625   6.430   5.168
 6403SOL    HW120108   5.720   6.422   5.139
 6403SOL    HW220109   5.566   6.383   5.102
 6404SOL     OW20110   3.827   1.529   2.636
 6404SOL    HW120111   3.819   1.514   2.735
 6404SOL    HW220112   3.856   1.623   2.618
 6405SOL     OW20113   4.613   1.772   4.150
 6405SOL    HW120114   4.694   1.714   4.156
 6405SOL    HW220115   4.629   1.845   4.083
 6406SOL     OW20116   1.348   3.195   2.699
 6406SOL    HW120117   1.351   3.252   2.616
 6406SOL    HW220118   1.442   3.171   2.725
 6407SOL     OW20119   1.686   6.386   2.996
 6407SOL    HW120120   1.673   6.473   2.949
 6407SOL    HW220121   1.602   6.332   2.988
 6408SOL     OW20122   5.963   0.531   1.125
 6408SOL    HW120123   5.982   0.620   1.084
 6408SOL    HW220124   6.022   0.517   1.205
 6409SOL     OW20125   6.857   4.648   3.161
 6409SOL    HW120126   6.853   4.556   3.121
 6409SOL    HW220127   6.765   4.689   3.159
 6410SOL     OW20128   2.339   1.346   6.728
 6410SOL    HW120129   2.388   1.274   6.679
 6410SOL    HW220130   2.275   1.392   6.665
 6411SOL     OW20131   0.809   3.036   2.256
 6411SOL    HW120132   0.866   2.957   2.235
 6411SOL    HW220133   0.853   3.119   2.223
 6412SOL     OW20134   2.891   0.514   6.528
 6412SOL    HW120135   2.806   0.501   6.579
 6412SOL    HW220136   2.870   0.542   6.434
 6413SOL     OW20137   3.968   4.909   4.385
 6413SOL    HW120138   4.022   4.846   4.441
 6413SOL    HW220139   4.018   4.928   4.300
 6414SOL     OW20140   6.705   0.010   6.643
 6414SOL    HW120141   6.752   0.098   6.647
 6414SOL    HW220142   6.755   6.968   6.582
 6415SOL     OW20143   1.562   3.394   3.392
 6415SOL    HW120144   1.478   3.339   3.398
 6415SOL    HW220145   1.554   3.457   3.315
 6416SOL     OW20146   2.799   6.793   6.595
 6416SOL    HW120147   2.711   6.767   6.635
 6416SOL    HW220148   2.827   6.882   6.631
 6417SOL     OW20149   5.092   2.316   1.093
 6417SOL    HW120150   5.096   2.314   1.193
 6417SOL    HW220151   5.182   2.294   1.056
 6418SOL     OW20152   4.973   4.329   2.822
 6418SOL    HW120153   5.014   4.386   2.893
 6418SOL    HW220154   5.002   4.234   2.834
 6419SOL     OW20155   0.249   5.425   5.478
 6419SOL    HW120156   0.159   5.453   5.445
 6419SOL    HW220157   0.262   5.328   5.460
 6420SOL     OW20158   1.678   1.845   3.971
 6420SOL    HW120159   1.773   1.840   4.002
 6420SOL    HW220160   1.668   1.792   3.887
 6421SOL     OW20161   5.061   0.607   1.097
 6421SOL    HW120162   5.030   0.637   1.007
 6421SOL    HW220163   5.014   0.660   1.168
 6422SOL     OW20164   6.642   1.723   5.676
 6422SOL    HW120165   6.607   1.636   5.711
 6422SOL    HW220166   6.736   1.735   5.706
 6423SOL     OW20167   4.398   5.631   4.779
 6423SOL    HW120168   4.429   5.536   4.766
 6423SOL    HW220169   4.342   5.637   4.861
 6424SOL     OW20170   1.029   3.470   4.786
 6424SOL    HW120171   1.128   3.457   4.783
 6424SOL    HW220172   0.993   3.428   4.869
 6425SOL     OW20173   0.342   5.705   2.699
 6425SOL    HW120174   0.414   5.771   2.718
 6425SOL    HW220175   0.278   5.702   2.775
 6426SOL     OW20176   5.795   4.687   4.038
 6426SOL    HW120177   5.755   4.770   3.999
 6426SOL    HW220178   5.866   4.712   4.104
 6427SOL     OW20179   3.150   3.737   2.970
 6427SOL    HW120180   3.063   3.706   3.010
 6427SOL    HW220181   3.131   3.805   2.899
 6428SOL     OW20182   5.427   3.114   6.990
 6428SOL    HW120183   5.442   3.195   6.934
 6428SOL    HW220184   5.484   3.120   0.052
 6429SOL     OW20185   1.272   0.372   5.084
 6429SOL    HW120186   1.276   0.425   4.999
 6429SOL    HW220187   1.300   0.278   5.066
 6430SOL     OW20188   6.289   0.783   4.525
 6430SOL    HW120189   6.339   0.696   4.520
 6430SOL    HW220190   6.335   0.851   4.469
 6431SOL     OW20191   4.431   5.132   2.791
 6431SOL    HW120192   4.335   5.109   2.807
 6431SOL    HW220193   4.480   5.136   2.878
 6432SOL     OW20194   3.530   3.889   6.031
 6432SOL    HW120195   3.486   3.898   5.942
 6432SOL    HW220196   3.629   3.892   6.019
 6433SOL     OW20197   3.160   5.199   0.073
 6433SOL    HW120198   3.234   5.197   0.140
 6433SOL    HW220199   3.164   5.285   0.021
 6434SOL     OW20200   2.443   6.680   6.126
 6434SOL    HW120201   2.345   6.665   6.115
 6434SOL    HW220202   2.488   6.668   6.037
 6435SOL     OW20203   6.392   0.149   0.403
 6435SOL    HW120204   6.315   0.108   0.355
 6435SOL    HW220205   6.358   0.223   0.462
 6436SOL     OW20206   0.669   3.508   3.543
 6436SOL    HW120207   0.672   3.549   3.634
 6436SOL    HW220208   0.605   3.430   3.543
 6437SOL     OW20209   0.962   1.943   5.385
 6437SOL    HW120210   0.882   1.897   5.347
 6437SOL    HW220211   0.953   1.948   5.485
 6438SOL     OW20212   1.384   5.024   6.290
 6438SOL    HW120213   1.357   4.968   6.212
 6438SOL    HW220214   1.432   5.105   6.257
 6439SOL     OW20215   6.338   1.099   2.903
 6439SOL    HW120216   6.310   1.095   2.998
 6439SOL    HW220217   6.285   1.170   2.855
 6440SOL     OW20218   2.618   0.959   6.490
 6440SOL    HW120219   2.638   0.955   6.392
 6440SOL    HW220220   2.703   0.978   6.540
 6441SOL     OW20221   0.097   1.080   2.561
 6441SOL    HW120222   0.012   1.133   2.556
 6441SOL    HW220223   0.147   1.087   2.475
 6442SOL     OW20224   2.663   2.009   4.905
 6442SOL    HW120225   2.655   2.057   4.818
 6442SOL    HW220226   2.689   2.074   4.976
 6443SOL     OW20227   3.684   2.201   6.056
 6443SOL    HW120228   3.747   2.261   6.106
 6443SOL    HW220229   3.654   2.247   5.973
 6444SOL     OW20230   6.744   2.743   4.694
 6444SOL    HW120231   6.651   2.711   4.677
 6444SOL    HW220232   6.803   2.664   4.714
 6445SOL     OW20233   3.744   3.145   3.142
 6445SOL    HW120234   3.680   3.074   3.114
 6445SOL    HW220235   3.700   3.234   3.136
 6446SOL     OW20236   1.054   2.199   6.995
 6446SOL    HW120237   0.964   2.207   0.019
 6446SOL    HW220238   1.045   2.218   6.897
 6447SOL     OW20239   6.930   4.349   1.982
 6447SOL    HW120240   6.875   4.300   2.049
 6447SOL    HW220241   6.907   4.447   1.985
 6448SOL     OW20242   5.054   5.371   1.305
 6448SOL    HW120243   4.975   5.316   1.332
 6448SOL    HW220244   5.133   5.346   1.361
 6449SOL     OW20245   2.530   4.920   1.874
 6449SOL    HW120246   2.544   5.019   1.866
 6449SOL    HW220247   2.486   4.900   1.962
 6450SOL     OW20248   1.183   3.724   0.343
 6450SOL    HW120249   1.148   3.665   0.270
 6450SOL    HW220250   1.247   3.790   0.304
 6451SOL     OW20251   3.106   1.831   5.948
 6451SOL    HW120252   3.039   1.862   6.016
 6451SOL    HW220253   3.064   1.763   5.888
 6452SOL     OW20254   5.016   4.321   2.516
 6452SOL    HW120255   4.959   4.374   2.579
 6452SOL    HW220256   5.107   4.309   2.556
 6453SOL     OW20257   3.155   6.776   1.365
 6453SOL    HW120258   3.237   6.719   1.357
 6453SOL    HW220259   3.074   6.719   1.350
 6454SOL     OW20260   0.206   1.633   1.538
 6454SOL    HW120261   0.141   1.667   1.470
 6454SOL    HW220262   0.250   1.710   1.584
 6455SOL     OW20263   6.632   3.503   3.398
 6455SOL    HW120264   6.691   3.472   3.324
 6455SOL    HW220265   6.537   3.495   3.371
 6456SOL     OW20266   1.092   0.437   2.910
 6456SOL    HW120267   1.043   0.487   2.838
 6456SOL    HW220268   1.094   0.492   2.993
 6457SOL     OW20269   4.891   6.561   2.066
 6457SOL    HW120270   4.951   6.590   1.992
 6457SOL    HW220271   4.946   6.524   2.141
 6458SOL     OW20272   1.545   5.021   4.787
 6458SOL    HW120273   1.476   5.089   4.811
 6458SOL    HW220274   1.512   4.965   4.711
 6459SOL     OW20275   6.155   2.130   2.735
 6459SOL    HW120276   6.136   2.134   2.637
 6459SOL    HW220277   6.243   2.173   2.753
 6460SOL     OW20278   5.769   5.912   5.760
 6460SOL    HW120279   5.769   5.948   5.854
 6460SOL    HW220280   5.685   5.942   5.714
 6461SOL     OW20281   3.154   4.965   0.213
 6461SOL    HW120282   3.155   5.039   0.146
 6461SOL    HW220283   3.247   4.928   0.222
 6462SOL     OW20284   0.637   2.953   4.437
 6462SOL    HW120285   0.707   2.996   4.381
 6462SOL    HW220286   0.649   2.854   4.436
 6463SOL     OW20287   5.332   6.640   0.758
 6463SOL    HW120288   5.373   6.682   0.677
 6463SOL    HW220289   5.350   6.698   0.838
 6464SOL     OW20290   1.335   5.431   4.991
 6464SOL    HW120291   1.294   5.483   4.915
 6464SOL    HW220292   1.266   5.419   5.063
 6465SOL     OW20293   6.604   2.383   2.151
 6465SOL    HW120294   6.601   2.292   2.110
 6465SOL    HW220295   6.699   2.416   2.152
 6466SOL     OW20296   7.018   2.184   6.522
 6466SOL    HW120297   0.074   2.230   6.569
 6466SOL    HW220298   6.938   2.244   6.521
 6467SOL     OW20299   4.579   0.677   0.537
 6467SOL    HW120300   4.598   0.720   0.449
 6467SOL    HW220301   4.551   0.582   0.522
 6468SOL     OW20302   3.495   6.371   1.545
 6468SOL    HW120303   3.428   6.359   1.471
 6468SOL    HW220304   3.542   6.458   1.534
 6469SOL     OW20305   3.052   2.028   4.033
 6469SOL    HW120306   3.124   2.054   4.098
 6469SOL    HW220307   2.973   1.994   4.083
 6470SOL     OW20308   5.656   2.494   0.373
 6470SOL    HW120309   5.682   2.422   0.438
 6470SOL    HW220310   5.576   2.543   0.407
 6471SOL     OW20311   0.619   6.431   5.182
 6471SOL    HW120312   0.609   6.332   5.176
 6471SOL    HW220313   0.717   6.454   5.189
 6472SOL     OW20314   6.139   5.978   2.459
 6472SOL    HW120315   6.171   5.967   2.554
 6472SOL    HW220316   6.155   5.893   2.409
 6473SOL     OW20317   1.803   1.623   4.682
 6473SOL    HW120318   1.864   1.584   4.752
 6473SOL    HW220319   1.832   1.716   4.661
 6474SOL     OW20320   3.974   5.535   5.729
 6474SOL    HW120321   4.043   5.592   5.684
 6474SOL    HW220322   3.946   5.461   5.667
 6475SOL     OW20323   5.803   5.066   3.997
 6475SOL    HW120324   5.885   5.036   3.948
 6475SOL    HW220325   5.760   5.142   3.947
 6476SOL     OW20326   4.214   2.774   6.322
 6476SOL    HW120327   4.224   2.855   6.264
 6476SOL    HW220328   4.264   2.789   6.408
 6477SOL     OW20329   6.699   5.171   0.909
 6477SOL    HW120330   6.768   5.180   0.980
 6477SOL    HW220331   6.612   5.209   0.941
 6478SOL     OW20332   2.700   6.218   2.221
 6478SOL    HW120333   2.798   6.217   2.237
 6478SOL    HW220334   2.653   6.266   2.295
 6479SOL     OW20335   2.957   5.040   4.156
 6479SOL    HW120336   2.915   5.081   4.236
 6479SOL    HW220337   2.902   5.060   4.075
 6480SOL     OW20338   2.237   1.522   0.106
 6480SOL    HW120339   2.297   1.555   0.033
 6480SOL    HW220340   2.291   1.501   0.187
 6481SOL     OW20341   3.396   2.695   1.785
 6481SOL    HW120342   3.428   2.601   1.775
 6481SOL    HW220343   3.440   2.753   1.715
 6482SOL     OW20344   6.324   2.391   5.724
 6482SOL    HW120345   6.310   2.486   5.755
 6482SOL    HW220346   6.409   2.386   5.672
 6483SOL     OW20347   0.588   6.307   4.071
 6483SOL    HW120348   0.660   6.364   4.111
 6483SOL    HW220349   0.502   6.322   4.120
 6484SOL     OW20350   2.475   1.754   2.599
 6484SOL    HW120351   2.490   1.706   2.685
 6484SOL    HW220352   2.464   1.852   2.618
 6485SOL     OW20353   2.257   5.848   4.345
 6485SOL    HW120354   2.305   5.847   4.433
 6485SOL    HW220355   2.299   5.782   4.283
 6486SOL     OW20356   0.660   5.161   2.875
 6486SOL    HW120357   0.719   5.231   2.834
 6486SOL    HW220358   0.632   5.191   2.966
 6487SOL     OW20359   1.255   6.716   4.642
 6487SOL    HW120360   1.266   6.813   4.664
 6487SOL    HW220361   1.344   6.678   4.616
 6488SOL     OW20362   4.571   5.964   4.952
 6488SOL    HW120363   4.562   5.905   4.872
 6488SOL    HW220364   4.559   6.059   4.925
 6489SOL     OW20365   3.190   3.421   6.495
 6489SOL    HW120366   3.098   3.456   6.513
 6489SOL    HW220367   3.252   3.452   6.567
 6490SOL     OW20368   2.655   1.569   6.513
 6490SOL    HW120369   2.712   1.528   6.441
 6490SOL    HW220370   2.714   1.615   6.580
 6491SOL     OW20371   2.602   0.975   1.630
 6491SOL    HW120372   2.629   0.886   1.667
 6491SOL    HW220373   2.547   1.023   1.698
 6492SOL     OW20374   4.091   3.703   4.526
 6492SOL    HW120375   4.070   3.788   4.479
 6492SOL    HW220376   4.095   3.719   4.625
 6493SOL     OW20377   1.344   4.670   6.409
 6493SOL    HW120378   1.426   4.710   6.449
 6493SOL    HW220379   1.285   4.634   6.481
 6494SOL     OW20380   6.671   6.652   2.396
 6494SOL    HW120381   6.589   6.692   2.356
 6494SOL    HW220382   6.737   6.631   2.324
 6495SOL     OW20383   0.034   0.260   4.417
 6495SOL    HW120384   0.040   0.187   4.485
 6495SOL    HW220385   6.960   0.296   4.415
 6496SOL     OW20386   5.703   6.625   1.273
 6496SOL    HW120387   5.698   6.679   1.188
 6496SOL    HW220388   5.618   6.634   1.324
 6497SOL     OW20389   1.118   0.753   0.903
 6497SOL    HW120390   1.037   0.780   0.851
 6497SOL    HW220391   1.100   0.669   0.953
 6498SOL     OW20392   0.958   3.805   3.993
 6498SOL    HW120393   1.033   3.836   4.051
 6498SOL    HW220394   0.874   3.855   4.018
 6499SOL     OW20395   5.640   3.849   4.535
 6499SOL    HW120396   5.697   3.800   4.600
 6499SOL    HW220397   5.686   3.853   4.446
 6500SOL     OW20398   0.305   4.086   1.943
 6500SOL    HW120399   0.337   4.106   1.850
 6500SOL    HW220400   0.205   4.090   1.945
 6501SOL     OW20401   0.553   1.144   1.303
 6501SOL    HW120402   0.626   1.209   1.322
 6501SOL    HW220403   0.465   1.182   1.332
 6502SOL     OW20404   6.654   3.554   1.543
 6502SOL    HW120405   6.701   3.489   1.602
 6502SOL    HW220406   6.696   3.552   1.452
 6503SOL     OW20407   5.929   0.725   4.095
 6503SOL    HW120408   5.911   0.686   4.186
 6503SOL    HW220409   5.900   0.821   4.094
 6504SOL     OW20410   4.920   6.208   6.972
 6504SOL    HW120411   4.839   6.172   7.018
 6504SOL    HW220412   4.895   6.284   6.913
 6505SOL     OW20413   4.951   6.830   6.566
 6505SOL    HW120414   4.995   6.798   6.650
 6505SOL    HW220415   4.917   6.751   6.514
 6506SOL     OW20416   6.929   3.188   3.306
 6506SOL    HW120417   6.925   3.167   3.208
 6506SOL    HW220418   7.016   3.232   3.327
 6507SOL     OW20419   2.736   5.771   6.393
 6507SOL    HW120420   2.674   5.826   6.337
 6507SOL    HW220421   2.757   5.819   6.478
 6508SOL     OW20422   1.936   0.539   3.130
 6508SOL    HW120423   1.963   0.443   3.122
 6508SOL    HW220424   1.839   0.549   3.105
 6509SOL     OW20425   5.146   1.462   4.836
 6509SOL    HW120426   5.240   1.434   4.856
 6509SOL    HW220427   5.084   1.417   4.900
 6510SOL     OW20428   4.499   5.507   0.047
 6510SOL    HW120429   4.516   5.412   0.070
 6510SOL    HW220430   4.408   5.516   0.006
 6511SOL     OW20431   4.237   0.920   5.318
 6511SOL    HW120432   4.319   0.964   5.282
 6511SOL    HW220433   4.162   0.986   5.320
 6512SOL     OW20434   3.277   6.818   2.666
 6512SOL    HW120435   3.322   6.771   2.741
 6512SOL    HW220436   3.226   6.752   2.611
 6513SOL     OW20437   2.092   6.092   4.344
 6513SOL    HW120438   2.006   6.071   4.297
 6513SOL    HW220439   2.153   6.013   4.339
 6514SOL     OW20440   5.867   0.713   4.902
 6514SOL    HW120441   5.901   0.764   4.823
 6514SOL    HW220442   5.774   0.744   4.924
 6515SOL     OW20443   1.227   3.824   2.629
 6515SOL    HW120444   1.292   3.872   2.570
 6515SOL    HW220445   1.134   3.851   2.605
 6516SOL     OW20446   6.561   3.413   2.245
 6516SOL    HW120447   6.570   3.382   2.150
 6516SOL    HW220448   6.576   3.511   2.250
 6517SOL     OW20449   0.107   1.907   0.996
 6517SOL    HW120450   0.020   1.860   1.015
 6517SOL    HW220451   0.176   1.840   0.971
 6518SOL     OW20452   6.544   0.308   2.199
 6518SOL    HW120453   6.508   0.258   2.278
 6518SOL    HW220454   6.538   0.406   2.216
 6519SOL     OW20455   0.615   1.025   3.001
 6519SOL    HW120456   0.686   1.093   2.980
 6519SOL    HW220457   0.647   0.965   3.074
 6520SOL     OW20458   7.001   5.494   6.871
 6520SOL    HW120459   0.055   5.480   6.805
 6520SOL    HW220460   6.948   5.574   6.845
 6521SOL     OW20461   1.479   2.921   3.444
 6521SOL    HW120462   1.513   2.974   3.522
 6521SOL    HW220463   1.380   2.930   3.438
 6522SOL     OW20464   2.191   4.544   5.385
 6522SOL    HW120465   2.112   4.515   5.438
 6522SOL    HW220466   2.176   4.524   5.288
 6523SOL     OW20467   4.102   0.046   0.396
 6523SOL    HW120468   4.127   6.974   0.428
 6523SOL    HW220469   4.079   0.103   0.475
 6524SOL     OW20470   2.789   2.302   1.721
 6524SOL    HW120471   2.846   2.352   1.786
 6524SOL    HW220472   2.806   2.337   1.628
 6525SOL     OW20473   2.115   5.386   3.301
 6525SOL    HW120474   2.070   5.347   3.382
 6525SOL    HW220475   2.181   5.321   3.264
 6526SOL     OW20476   0.740   0.622   1.224
 6526SOL    HW120477   0.777   0.701   1.175
 6526SOL    HW220478   0.720   0.549   1.159
 6527SOL     OW20479   0.406   2.118   0.039
 6527SOL    HW120480   0.468   2.148   0.112
 6527SOL    HW220481   0.347   2.045   0.074
 6528SOL     OW20482   6.350   1.488   6.070
 6528SOL    HW120483   6.257   1.452   6.065
 6528SOL    HW220484   6.377   1.500   6.165
 6529SOL     OW20485   1.364   0.227   2.472
 6529SOL    HW120486   1.380   0.219   2.570
 6529SOL    HW220487   1.449   0.210   2.422
 6530SOL     OW20488   0.341   1.944   0.781
 6530SOL    HW120489   0.416   1.968   0.843
 6530SOL    HW220490   0.315   2.025   0.727
 6531SOL     OW20491   4.624   3.612   5.391
 6531SOL    HW120492   4.647   3.601   5.294
 6531SOL    HW220493   4.708   3.619   5.445
 6532SOL     OW20494   1.899   0.880   1.284
 6532SOL    HW120495   1.858   0.798   1.324
 6532SOL    HW220496   1.990   0.858   1.247
 6533SOL     OW20497   4.392   6.330   0.572
 6533SOL    HW120498   4.390   6.234   0.546
 6533SOL    HW220499   4.478   6.351   0.618
 6534SOL     OW20500   4.863   5.028   1.983
 6534SOL    HW120501   4.849   4.947   2.040
 6534SOL    HW220502   4.783   5.087   1.988
 6535SOL     OW20503   5.927   4.529   4.537
 6535SOL    HW120504   5.991   4.489   4.471
 6535SOL    HW220505   5.943   4.490   4.627
 6536SOL     OW20506   0.081   1.686   5.181
 6536SOL    HW120507   0.037   1.683   5.092
 6536SOL    HW220508   0.024   1.738   5.245
 6537SOL     OW20509   7.016   4.989   4.636
 6537SOL    HW120510   0.090   5.022   4.628
 6537SOL    HW220511   6.991   4.939   4.553
 6538SOL     OW20512   1.122   3.897   5.442
 6538SOL    HW120513   1.112   3.818   5.503
 6538SOL    HW220514   1.203   3.885   5.386
 6539SOL     OW20515   4.536   0.412   6.889
 6539SOL    HW120516   4.554   0.402   6.791
 6539SOL    HW220517   4.585   0.340   6.939
 6540SOL     OW20518   2.712   2.462   6.073
 6540SOL    HW120519   2.717   2.561   6.088
 6540SOL    HW220520   2.763   2.438   5.991
 6541SOL     OW20521   5.319   2.799   5.732
 6541SOL    HW120522   5.321   2.768   5.827
 6541SOL    HW220523   5.401   2.767   5.685
 6542SOL     OW20524   1.273   2.847   4.864
 6542SOL    HW120525   1.323   2.795   4.933
 6542SOL    HW220526   1.181   2.809   4.854
 6543SOL     OW20527   3.611   2.578   5.681
 6543SOL    HW120528   3.692   2.635   5.667
 6543SOL    HW220529   3.542   2.630   5.731
 6544SOL     OW20530   0.822   6.450   2.457
 6544SOL    HW120531   0.724   6.434   2.447
 6544SOL    HW220532   0.864   6.451   2.366
 6545SOL     OW20533   3.859   0.037   0.580
 6545SOL    HW120534   3.880   0.057   0.675
 6545SOL    HW220535   3.795   0.105   0.545
 6546SOL     OW20536   4.029   4.099   6.105
 6546SOL    HW120537   4.103   4.035   6.127
 6546SOL    HW220538   3.960   4.096   6.177
 6547SOL     OW20539   5.056   0.596   6.089
 6547SOL    HW120540   5.005   0.657   6.028
 6547SOL    HW220541   5.029   0.612   6.184
 6548SOL     OW20542   1.545   2.960   0.284
 6548SOL    HW120543   1.629   2.910   0.301
 6548SOL    HW220544   1.467   2.906   0.317
 6549SOL     OW20545   4.713   0.326   2.050
 6549SOL    HW120546   4.668   0.414   2.034
 6549SOL    HW220547   4.658   0.252   2.010
 6550SOL     OW20548   6.931   6.962   3.858
 6550SOL    HW120549   6.928   0.028   3.806
 6550SOL    HW220550   7.001   6.902   3.819
 6551SOL     OW20551   2.623   3.294   1.768
 6551SOL    HW120552   2.648   3.349   1.688
 6551SOL    HW220553   2.525   3.303   1.786
 6552SOL     OW20554   2.560   0.066   0.674
 6552SOL    HW120555   2.463   0.073   0.697
 6552SOL    HW220556   2.604   0.003   0.738
 6553SOL     OW20557   0.472   1.952   3.373
 6553SOL    HW120558   0.488   1.878   3.308
 6553SOL    HW220559   0.486   2.040   3.328
 6554SOL     OW20560   2.370   0.745   4.656
 6554SOL    HW120561   2.437   0.701   4.597
 6554SOL    HW220562   2.418   0.791   4.732
 6555SOL     OW20563   5.752   1.795   3.648
 6555SOL    HW120564   5.745   1.820   3.745
 6555SOL    HW220565   5.663   1.766   3.614
 6556SOL     OW20566   6.339   3.167   3.067
 6556SOL    HW120567   6.273   3.157   3.142
 6556SOL    HW220568   6.320   3.252   3.017
 6557SOL     OW20569   2.637   0.843   2.593
 6557SOL    HW120570   2.685   0.910   2.535
 6557SOL    HW220571   2.668   0.854   2.688
 6558SOL     OW20572   5.912   5.642   0.424
 6558SOL    HW120573   5.986   5.691   0.470
 6558SOL    HW220574   5.824   5.677   0.456
 6559SOL     OW20575   6.895   3.619   5.837
 6559SOL    HW120576   6.825   3.689   5.849
 6559SOL    HW220577   6.939   3.630   5.748
 6560SOL     OW20578   3.763   4.787   0.993
 6560SOL    HW120579   3.707   4.825   0.919
 6560SOL    HW220580   3.854   4.829   0.992
 6561SOL     OW20581   3.759   4.562   1.144
 6561SOL    HW120582   3.752   4.641   1.082
 6561SOL    HW220583   3.837   4.576   1.206
 6562SOL     OW20584   5.715   1.923   1.136
 6562SOL    HW120585   5.642   1.900   1.201
 6562SOL    HW220586   5.736   2.020   1.143
 6563SOL     OW20587   5.299   6.982   5.764
 6563SOL    HW120588   5.364   6.924   5.714
 6563SOL    HW220589   5.214   6.932   5.779
 6564SOL     OW20590   6.651   3.373   1.942
 6564SOL    HW120591   6.706   3.374   1.859
 6564SOL    HW220592   6.568   3.428   1.929
 6565SOL     OW20593   6.075   6.101   2.969
 6565SOL    HW120594   6.160   6.050   2.979
 6565SOL    HW220595   6.028   6.070   2.886
 6566SOL     OW20596   3.208   5.522   2.456
 6566SOL    HW120597   3.287   5.582   2.471
 6566SOL    HW220598   3.238   5.427   2.461
 6567SOL     OW20599   4.828   1.228   1.791
 6567SOL    HW120600   4.761   1.163   1.826
 6567SOL    HW220601   4.872   1.275   1.867
 6568SOL     OW20602   3.748   1.719   3.222
 6568SOL    HW120603   3.716   1.807   3.187
 6568SOL    HW220604   3.722   1.711   3.318
 6569SOL     OW20605   1.819   3.185   6.472
 6569SOL    HW120606   1.792   3.099   6.429
 6569SOL    HW220607   1.893   3.168   6.537
 6570SOL     OW20608   3.252   1.151   2.702
 6570SOL    HW120609   3.158   1.129   2.730
 6570SOL    HW220610   3.316   1.107   2.764
 6571SOL     OW20611   2.642   4.852   2.598
 6571SOL    HW120612   2.570   4.848   2.667
 6571SOL    HW220613   2.721   4.800   2.628
 6572SOL     OW20614   0.045   4.384   4.038
 6572SOL    HW120615   0.052   4.322   3.961
 6572SOL    HW220616   0.076   4.475   4.010
 6573SOL     OW20617   0.950   0.799   3.472
 6573SOL    HW120618   0.901   0.735   3.413
 6573SOL    HW220619   1.018   0.849   3.418
 6574SOL     OW20620   2.575   5.995   3.204
 6574SOL    HW120621   2.557   5.990   3.302
 6574SOL    HW220622   2.674   5.988   3.188
 6575SOL     OW20623   0.438   6.466   3.311
 6575SOL    HW120624   0.458   6.548   3.258
 6575SOL    HW220625   0.394   6.492   3.397
 6576SOL     OW20626   3.185   5.954   0.583
 6576SOL    HW120627   3.149   6.046   0.571
 6576SOL    HW220628   3.241   5.929   0.505
 6577SOL     OW20629   1.280   1.806   3.366
 6577SOL    HW120630   1.268   1.846   3.457
 6577SOL    HW220631   1.363   1.843   3.325
 6578SOL     OW20632   1.055   5.984   1.811
 6578SOL    HW120633   0.997   6.012   1.734
 6578SOL    HW220634   1.142   5.950   1.776
 6579SOL     OW20635   0.139   3.075   4.186
 6579SOL    HW120636   0.062   3.092   4.248
 6579SOL    HW220637   0.221   3.056   4.238
 6580SOL     OW20638   0.643   1.904   0.365
 6580SOL    HW120639   0.741   1.905   0.383
 6580SOL    HW220640   0.627   1.904   0.266
 6581SOL     OW20641   1.781   0.962   1.050
 6581SOL    HW120642   1.751   0.870   1.026
 6581SOL    HW220643   1.811   0.963   1.146
 6582SOL     OW20644   0.374   0.353   3.018
 6582SOL    HW120645   0.408   0.335   2.925
 6582SOL    HW220646   0.297   0.292   3.037
 6583SOL     OW20647   5.070   6.272   5.326
 6583SOL    HW120648   5.092   6.358   5.372
 6583SOL    HW220649   5.051   6.202   5.395
 6584SOL     OW20650   3.496   1.999   0.663
 6584SOL    HW120651   3.590   2.028   0.648
 6584SOL    HW220652   3.496   1.906   0.701
 6585SOL     OW20653   6.514   6.275   6.646
 6585SOL    HW120654   6.479   6.254   6.737
 6585SOL    HW220655   6.540   6.190   6.599
 6586SOL     OW20656   6.333   1.739   5.868
 6586SOL    HW120657   6.274   1.687   5.930
 6586SOL    HW220658   6.293   1.738   5.776
 6587SOL     OW20659   1.470   4.897   6.685
 6587SOL    HW120660   1.382   4.931   6.653
 6587SOL    HW220661   1.514   4.966   6.742
 6588SOL     OW20662   0.430   3.730   1.747
 6588SOL    HW120663   0.338   3.742   1.786
 6588SOL    HW220664   0.435   3.641   1.702
 6589SOL     OW20665   4.356   0.933   2.111
 6589SOL    HW120666   4.320   1.011   2.162
 6589SOL    HW220667   4.454   0.924   2.130
 6590SOL     OW20668   0.538   0.222   5.764
 6590SOL    HW120669   0.556   0.164   5.843
 6590SOL    HW220670   0.614   0.215   5.699
 6591SOL     OW20671   5.527   5.970   4.096
 6591SOL    HW120672   5.463   5.894   4.087
 6591SOL    HW220673   5.475   6.056   4.100
 6592SOL     OW20674   5.077   6.493   2.757
 6592SOL    HW120675   4.989   6.540   2.763
 6592SOL    HW220676   5.129   6.530   2.680
 6593SOL     OW20677   2.745   2.335   2.325
 6593SOL    HW120678   2.758   2.237   2.344
 6593SOL    HW220679   2.760   2.352   2.227
 6594SOL     OW20680   3.256   1.404   5.720
 6594SOL    HW120681   3.191   1.391   5.794
 6594SOL    HW220682   3.252   1.500   5.689
 6595SOL     OW20683   1.428   3.677   5.972
 6595SOL    HW120684   1.427   3.722   6.061
 6595SOL    HW220685   1.388   3.738   5.903
 6596SOL     OW20686   3.302   6.416   3.624
 6596SOL    HW120687   3.400   6.436   3.620
 6596SOL    HW220688   3.287   6.319   3.611
 6597SOL     OW20689   1.855   5.144   2.045
 6597SOL    HW120690   1.942   5.149   1.996
 6597SOL    HW220691   1.852   5.060   2.100
 6598SOL     OW20692   1.687   5.067   4.058
 6598SOL    HW120693   1.764   5.039   4.000
 6598SOL    HW220694   1.602   5.059   4.007
 6599SOL     OW20695   4.517   6.012   6.691
 6599SOL    HW120696   4.594   6.051   6.741
 6599SOL    HW220697   4.529   6.029   6.593
 6600SOL     OW20698   3.757   6.841   4.388
 6600SOL    HW120699   3.706   6.768   4.433
 6600SOL    HW220700   3.855   6.828   4.405
 6601SOL     OW20701   0.569   2.047   3.761
 6601SOL    HW120702   0.579   2.035   3.860
 6601SOL    HW220703   0.659   2.047   3.719
 6602SOL     OW20704   1.963   0.471   1.637
 6602SOL    HW120705   1.997   0.527   1.562
 6602SOL    HW220706   1.891   0.520   1.686
 6603SOL     OW20707   0.874   2.862   4.037
 6603SOL    HW120708   0.904   2.893   3.947
 6603SOL    HW220709   0.947   2.808   4.079
 6604SOL     OW20710   2.073   6.842   1.648
 6604SOL    HW120711   2.169   6.841   1.675
 6604SOL    HW220712   2.024   6.769   1.694
 6605SOL     OW20713   5.705   6.056   2.346
 6605SOL    HW120714   5.651   6.140   2.343
 6605SOL    HW220715   5.646   5.979   2.370
 6606SOL     OW20716   6.759   4.694   2.104
 6606SOL    HW120717   6.776   4.681   2.202
 6606SOL    HW220718   6.693   4.768   2.091
 6607SOL     OW20719   0.050   4.931   3.407
 6607SOL    HW120720   0.020   5.003   3.470
 6607SOL    HW220721   0.149   4.928   3.403
 6608SOL     OW20722   6.893   6.797   0.144
 6608SOL    HW120723   6.947   6.880   0.129
 6608SOL    HW220724   6.804   6.822   0.182
 6609SOL     OW20725   5.203   1.167   6.477
 6609SOL    HW120726   5.234   1.156   6.571
 6609SOL    HW220727   5.282   1.169   6.415
 6610SOL     OW20728   2.555   6.745   0.367
 6610SOL    HW120729   2.503   6.781   0.290
 6610SOL    HW220730   2.651   6.771   0.358
 6611SOL     OW20731   4.910   2.965   3.405
 6611SOL    HW120732   4.839   2.952   3.335
 6611SOL    HW220733   4.997   2.986   3.361
 6612SOL     OW20734   0.239   2.627   6.380
 6612SOL    HW120735   0.186   2.554   6.337
 6612SOL    HW220736   0.228   2.621   6.480
 6613SOL     OW20737   5.967   6.581   5.197
 6613SOL    HW120738   5.968   6.491   5.153
 6613SOL    HW220739   5.969   6.570   5.297
 6614SOL     OW20740   4.550   6.455   0.239
 6614SOL    HW120741   4.594   6.503   0.163
 6614SOL    HW220742   4.497   6.521   0.293
 6615SOL     OW20743   1.449   6.081   1.239
 6615SOL    HW120744   1.546   6.075   1.260
 6615SOL    HW220745   1.401   6.125   1.314
 6616SOL     OW20746   4.776   6.870   6.210
 6616SOL    HW120747   4.698   6.827   6.255
 6616SOL    HW220748   4.745   6.922   6.130
 6617SOL     OW20749   4.096   5.996   3.493
 6617SOL    HW120750   4.085   6.066   3.423
 6617SOL    HW220751   4.087   6.037   3.583
 6618SOL     OW20752   1.066   1.732   2.382
 6618SOL    HW120753   0.999   1.755   2.452
 6618SOL    HW220754   1.139   1.801   2.381
 6619SOL     OW20755   4.541   6.916   3.631
 6619SOL    HW120756   4.496   6.914   3.721
 6619SOL    HW220757   4.638   6.937   3.643
 6620SOL     OW20758   2.018   3.276   4.856
 6620SOL    HW120759   1.980   3.343   4.919
 6620SOL    HW220760   2.076   3.212   4.905
 6621SOL     OW20761   3.570   2.843   5.301
 6621SOL    HW120762   3.667   2.829   5.320
 6621SOL    HW220763   3.560   2.891   5.213
 6622SOL     OW20764   6.369   5.724   1.767
 6622SOL    HW120765   6.296   5.682   1.822
 6622SOL    HW220766   6.367   5.823   1.778
 6623SOL     OW20767   3.548   3.867   4.724
 6623SOL    HW120768   3.587   3.916   4.801
 6623SOL    HW220769   3.450   3.854   4.739
 6624SOL     OW20770   0.805   3.544   5.412
 6624SOL    HW120771   0.722   3.555   5.466
 6624SOL    HW220772   0.812   3.449   5.380
 6625SOL     OW20773   5.004   1.926   5.029
 6625SOL    HW120774   5.063   2.007   5.026
 6625SOL    HW220775   5.060   1.845   5.048
 6626SOL     OW20776   3.274   0.166   5.682
 6626SOL    HW120777   3.225   0.153   5.768
 6626SOL    HW220778   3.321   0.081   5.657
 6627SOL     OW20779   2.103   6.617   4.217
 6627SOL    HW120780   2.199   6.627   4.243
 6627SOL    HW220781   2.079   6.520   4.212
 6628SOL     OW20782   5.575   4.937   4.273
 6628SOL    HW120783   5.618   5.007   4.329
 6628SOL    HW220784   5.517   4.980   4.204
 6629SOL     OW20785   5.149   5.898   6.136
 6629SOL    HW120786   5.215   5.935   6.070
 6629SOL    HW220787   5.187   5.815   6.178
 6630SOL     OW20788   3.566   2.263   1.484
 6630SOL    HW120789   3.614   2.195   1.540
 6630SOL    HW220790   3.476   2.281   1.524
 6631SOL     OW20791   2.052   5.677   4.383
 6631SOL    HW120792   2.129   5.734   4.354
 6631SOL    HW220793   2.062   5.656   4.481
 6632SOL     OW20794   1.249   1.024   0.774
 6632SOL    HW120795   1.246   0.959   0.850
 6632SOL    HW220796   1.328   1.003   0.716
 6633SOL     OW20797   2.326   4.912   5.908
 6633SOL    HW120798   2.260   4.888   5.837
 6633SOL    HW220799   2.412   4.864   5.891
 6634SOL     OW20800   4.785   1.993   5.289
 6634SOL    HW120801   4.878   1.986   5.324
 6634SOL    HW220802   4.769   1.921   5.221
 6635SOL     OW20803   4.810   4.406   3.360
 6635SOL    HW120804   4.798   4.363   3.270
 6635SOL    HW220805   4.722   4.440   3.393
 6636SOL     OW20806   4.187   2.007   0.599
 6636SOL    HW120807   4.112   1.958   0.645
 6636SOL    HW220808   4.243   1.942   0.548
 6637SOL     OW20809   2.444   6.924   6.583
 6637SOL    HW120810   2.520   6.990   6.585
 6637SOL    HW220811   2.370   6.956   6.642
 6638SOL     OW20812   3.328   2.890   3.162
 6638SOL    HW120813   3.287   2.933   3.242
 6638SOL    HW220814   3.262   2.890   3.086
 6639SOL     OW20815   3.500   3.670   6.757
 6639SOL    HW120816   3.509   3.700   6.852
 6639SOL    HW220817   3.589   3.674   6.712
 6640SOL     OW20818   0.083   1.877   4.759
 6640SOL    HW120819   0.110   1.969   4.787
 6640SOL    HW220820   0.016   1.841   4.824
 6641SOL     OW20821   3.515   1.527   0.087
 6641SOL    HW120822   3.503   1.455   0.156
 6641SOL    HW220823   3.541   1.485   7.019
 6642SOL     OW20824   2.752   5.308   5.828
 6642SOL    HW120825   2.702   5.269   5.750
 6642SOL    HW220826   2.695   5.304   5.910
 6643SOL     OW20827   6.445   6.532   6.885
 6643SOL    HW120828   6.497   6.617   6.876
 6643SOL    HW220829   6.471   6.486   6.970
 6644SOL     OW20830   2.126   5.853   2.556
 6644SOL    HW120831   2.162   5.838   2.464
 6644SOL    HW220832   2.145   5.773   2.613
 6645SOL     OW20833   5.437   3.570   0.532
 6645SOL    HW120834   5.449   3.615   0.621
 6645SOL    HW220835   5.524   3.566   0.484
 6646SOL     OW20836   4.032   1.439   5.159
 6646SOL    HW120837   4.120   1.477   5.130
 6646SOL    HW220838   3.972   1.513   5.189
 6647SOL     OW20839   4.484   6.607   0.719
 6647SOL    HW120840   4.510   6.511   0.726
 6647SOL    HW220841   4.562   6.664   0.744
 6648SOL     OW20842   2.869   6.557   4.614
 6648SOL    HW120843   2.896   6.464   4.638
 6648SOL    HW220844   2.872   6.614   4.696
 6649SOL     OW20845   6.076   2.565   5.859
 6649SOL    HW120846   6.110   2.561   5.953
 6649SOL    HW220847   6.039   2.655   5.840
 6650SOL     OW20848   4.196   1.680   4.577
 6650SOL    HW120849   4.233   1.654   4.488
 6650SOL    HW220850   4.248   1.636   4.649
 6651SOL     OW20851   1.884   1.559   6.160
 6651SOL    HW120852   1.929   1.611   6.233
 6651SOL    HW220853   1.805   1.510   6.198
 6652SOL     OW20854   0.456   4.911   6.853
 6652SOL    HW120855   0.385   4.904   6.783
 6652SOL    HW220856   0.439   4.843   6.925
 6653SOL     OW20857   4.308   2.795   1.142
 6653SOL    HW120858   4.279   2.832   1.053
 6653SOL    HW220859   4.318   2.696   1.135
 6654SOL     OW20860   1.146   5.553   2.565
 6654SOL    HW120861   1.225   5.533   2.624
 6654SOL    HW220862   1.149   5.648   2.536
 6655SOL     OW20863   6.894   6.280   2.582
 6655SOL    HW120864   6.896   6.243   2.675
 6655SOL    HW220865   6.909   6.206   2.516
 6656SOL     OW20866   5.725   2.353   2.886
 6656SOL    HW120867   5.719   2.449   2.911
 6656SOL    HW220868   5.749   2.299   2.967
 6657SOL     OW20869   6.384   3.518   5.089
 6657SOL    HW120870   6.463   3.457   5.077
 6657SOL    HW220871   6.394   3.570   5.174
 6658SOL     OW20872   5.538   6.835   5.668
 6658SOL    HW120873   5.582   6.890   5.740
 6658SOL    HW220874   5.597   6.758   5.644
 6659SOL     OW20875   1.479   3.304   1.139
 6659SOL    HW120876   1.508   3.307   1.235
 6659SOL    HW220877   1.445   3.213   1.117
 6660SOL     OW20878   1.776   5.062   1.499
 6660SOL    HW120879   1.828   5.128   1.444
 6660SOL    HW220880   1.766   5.096   1.592
 6661SOL     OW20881   2.559   0.154   5.598
 6661SOL    HW120882   2.514   0.194   5.519
 6661SOL    HW220883   2.652   0.191   5.605
 6662SOL     OW20884   1.898   0.469   0.541
 6662SOL    HW120885   1.847   0.403   0.595
 6662SOL    HW220886   1.916   0.551   0.595
 6663SOL     OW20887   6.515   6.066   4.912
 6663SOL    HW120888   6.565   6.052   4.998
 6663SOL    HW220889   6.478   5.979   4.881
 6664SOL     OW20890   2.643   0.440   1.208
 6664SOL    HW120891   2.573   0.370   1.224
 6664SOL    HW220892   2.660   0.448   1.110
 6665SOL     OW20893   1.969   6.700   5.388
 6665SOL    HW120894   2.047   6.744   5.343
 6665SOL    HW220895   1.963   6.731   5.483
 6666SOL     OW20896   6.551   5.927   5.894
 6666SOL    HW120897   6.533   5.846   5.951
 6666SOL    HW220898   6.546   6.009   5.951
 6667SOL     OW20899   0.128   6.995   5.182
 6667SOL    HW120900   0.211   6.972   5.131
 6667SOL    HW220901   0.048   6.962   5.131
 6668SOL     OW20902   6.617   6.477   1.120
 6668SOL    HW120903   6.590   6.540   1.193
 6668SOL    HW220904   6.541   6.417   1.098
 6669SOL     OW20905   3.143   2.216   1.803
 6669SOL    HW120906   3.094   2.137   1.766
 6669SOL    HW220907   3.078   2.290   1.822
 6670SOL     OW20908   3.184   1.008   6.574
 6670SOL    HW120909   3.173   1.101   6.541
 6670SOL    HW220910   3.108   0.951   6.544
 6671SOL     OW20911   5.523   6.492   6.904
 6671SOL    HW120912   5.621   6.489   6.885
 6671SOL    HW220913   5.480   6.563   6.847
 6672SOL     OW20914   0.375   2.368   0.402
 6672SOL    HW120915   0.284   2.332   0.421
 6672SOL    HW220916   0.377   2.407   0.309
 6673SOL     OW20917   4.717   4.144   3.682
 6673SOL    HW120918   4.664   4.077   3.629
 6673SOL    HW220919   4.760   4.097   3.760
 6674SOL     OW20920   0.531   3.842   0.074
 6674SOL    HW120921   0.631   3.848   0.072
 6674SOL    HW220922   0.497   3.893   0.152
 6675SOL     OW20923   5.913   2.737   0.247
 6675SOL    HW120924   5.999   2.731   0.298
 6675SOL    HW220925   5.926   2.799   0.169
 6676SOL     OW20926   0.971   3.416   4.284
 6676SOL    HW120927   1.069   3.430   4.294
 6676SOL    HW220928   0.929   3.407   4.375
 6677SOL     OW20929   0.720   1.263   6.331
 6677SOL    HW120930   0.721   1.213   6.244
 6677SOL    HW220931   0.751   1.202   6.404
 6678SOL     OW20932   2.842   4.763   0.596
 6678SOL    HW120933   2.886   4.679   0.628
 6678SOL    HW220934   2.909   4.837   0.592
 6679SOL     OW20935   3.809   0.520   3.959
 6679SOL    HW120936   3.864   0.589   4.005
 6679SOL    HW220937   3.754   0.471   4.027
 6680SOL     OW20938   4.544   6.366   6.772
 6680SOL    HW120939   4.601   6.283   6.774
 6680SOL    HW220940   4.543   6.404   6.680
 6681SOL     OW20941   4.877   5.634   1.063
 6681SOL    HW120942   4.918   5.630   1.154
 6681SOL    HW220943   4.914   5.560   1.007
 6682SOL     OW20944   2.531   5.007   6.975
 6682SOL    HW120945   2.514   4.979   6.881
 6682SOL    HW220946   2.475   5.088   6.996
 6683SOL     OW20947   6.422   3.415   5.657
 6683SOL    HW120948   6.374   3.327   5.660
 6683SOL    HW220949   6.430   3.446   5.563
 6684SOL     OW20950   4.290   6.704   2.297
 6684SOL    HW120951   4.207   6.753   2.273
 6684SOL    HW220952   4.299   6.700   2.396
 6685SOL     OW20953   4.863   2.732   5.938
 6685SOL    HW120954   4.842   2.783   5.855
 6685SOL    HW220955   4.930   2.660   5.917
 6686SOL     OW20956   5.568   5.570   3.892
 6686SOL    HW120957   5.664   5.595   3.905
 6686SOL    HW220958   5.549   5.562   3.794
 6687SOL     OW20959   0.702   2.805   2.704
 6687SOL    HW120960   0.676   2.830   2.610
 6687SOL    HW220961   0.691   2.884   2.763
 6688SOL     OW20962   4.051   4.830   0.978
 6688SOL    HW120963   4.076   4.821   0.882
 6688SOL    HW220964   4.119   4.782   1.034
 6689SOL     OW20965   4.219   3.851   5.555
 6689SOL    HW120966   4.202   3.912   5.478
 6689SOL    HW220967   4.286   3.893   5.617
 6690SOL     OW20968   0.581   6.879   0.973
 6690SOL    HW120969   0.547   6.802   1.027
 6690SOL    HW220970   0.677   6.895   0.993
 6691SOL     OW20971   1.998   0.565   2.650
 6691SOL    HW120972   1.996   0.593   2.746
 6691SOL    HW220973   2.093   0.547   2.623
 6692SOL     OW20974   3.912   3.998   3.092
 6692SOL    HW120975   3.976   4.010   3.016
 6692SOL    HW220976   3.822   4.033   3.066
 6693SOL     OW20977   4.515   2.544   4.954
 6693SOL    HW120978   4.551   2.451   4.960
 6693SOL    HW220979   4.417   2.541   4.931
 6694SOL     OW20980   4.511   6.554   1.809
 6694SOL    HW120981   4.432   6.547   1.871
 6694SOL    HW220982   4.551   6.645   1.817
 6695SOL     OW20983   2.975   2.463   6.753
 6695SOL    HW120984   3.057   2.515   6.776
 6695SOL    HW220985   2.939   2.494   6.666
 6696SOL     OW20986   3.784   2.953   3.630
 6696SOL    HW120987   3.783   3.053   3.640
 6696SOL    HW220988   3.815   2.912   3.716
 6697SOL     OW20989   5.069   2.180   3.314
 6697SOL    HW120990   5.002   2.108   3.297
 6697SOL    HW220991   5.143   2.173   3.247
 6698SOL     OW20992   2.867   3.356   1.205
 6698SOL    HW120993   2.771   3.377   1.225
 6698SOL    HW220994   2.875   3.321   1.112
 6699SOL     OW20995   2.063   6.803   5.616
 6699SOL    HW120996   2.145   6.855   5.644
 6699SOL    HW220997   1.995   6.806   5.689
 6700SOL     OW20998   6.791   1.753   1.435
 6700SOL    HW120999   6.783   1.755   1.535
 6700SOL    HW221000   6.883   1.784   1.409
 6701SOL     OW21001   5.467   6.002   1.968
 6701SOL    HW121002   5.534   5.952   2.023
 6701SOL    HW221003   5.492   6.098   1.964
 6702SOL     OW21004   1.859   2.479   2.063
 6702SOL    HW121005   1.931   2.495   2.131
 6702SOL    HW221006   1.820   2.388   2.077
 6703SOL     OW21007   7.015   0.214   0.956
 6703SOL    HW121008   0.042   0.141   1.007
 6703SOL    HW221009   0.013   0.204   0.859
 6704SOL     OW21010   4.079   2.191   3.745
 6704SOL    HW121011   4.050   2.211   3.651
 6704SOL    HW221012   4.126   2.272   3.782
 6705SOL     OW21013   6.046   3.019   0.525
 6705SOL    HW121014   6.117   3.011   0.595
 6705SOL    HW221015   5.956   3.016   0.569
 6706SOL     OW21016   0.789   5.646   0.891
 6706SOL    HW121017   0.718   5.712   0.915
 6706SOL    HW221018   0.749   5.556   0.879
 6707SOL     OW21019   5.534   6.291   3.675
 6707SOL    HW121020   5.512   6.204   3.719
 6707SOL    HW221021   5.584   6.349   3.740
 6708SOL     OW21022   5.611   5.341   1.164
 6708SOL    HW121023   5.678   5.414   1.153
 6708SOL    HW221024   5.540   5.351   1.094
 6709SOL     OW21025   0.787   5.310   2.684
 6709SOL    HW121026   0.850   5.353   2.620
 6709SOL    HW221027   0.699   5.295   2.639
 6710SOL     OW21028   3.814   0.865   6.677
 6710SOL    HW121029   3.858   0.790   6.627
 6710SOL    HW221030   3.766   0.924   6.612
 6711SOL     OW21031   4.871   6.166   5.839
 6711SOL    HW121032   4.806   6.092   5.857
 6711SOL    HW221033   4.907   6.200   5.926
 6712SOL     OW21034   5.616   3.620   1.110
 6712SOL    HW121035   5.524   3.657   1.113
 6712SOL    HW221036   5.618   3.539   1.051
 6713SOL     OW21037   1.085   0.619   3.153
 6713SOL    HW121038   0.988   0.606   3.176
 6713SOL    HW221039   1.097   0.708   3.109
 6714SOL     OW21040   6.501   1.672   6.747
 6714SOL    HW121041   6.578   1.634   6.696
 6714SOL    HW221042   6.443   1.724   6.685
 6715SOL     OW21043   1.755   0.636   1.328
 6715SOL    HW121044   1.699   0.609   1.407
 6715SOL    HW221045   1.846   0.594   1.337
 6716SOL     OW21046   0.340   5.578   1.934
 6716SOL    HW121047   0.261   5.537   1.979
 6716SOL    HW221048   0.400   5.619   2.003
 6717SOL     OW21049   3.281   2.935   6.166
 6717SOL    HW121050   3.281   2.938   6.266
 6717SOL    HW221051   3.188   2.948   6.132
 6718SOL     OW21052   4.761   6.968   0.901
 6718SOL    HW121053   4.712   6.934   0.982
 6718SOL    HW221054   4.712   6.940   0.818
 6719SOL     OW21055   2.347   6.970   0.212
 6719SOL    HW121056   2.411   6.986   0.287
 6719SOL    HW221057   2.260   7.014   0.233
 6720SOL     OW21058   2.185   1.170   3.579
 6720SOL    HW121059   2.201   1.104   3.652
 6720SOL    HW221060   2.087   1.171   3.556
 6721SOL     OW21061   7.016   6.567   0.738
 6721SOL    HW121062   0.061   6.643   0.729
 6721SOL    HW221063   7.000   6.526   0.648
 6722SOL     OW21064   7.011   2.670   0.273
 6722SOL    HW121065   0.010   2.701   0.366
 6722SOL    HW221066   6.917   2.635   0.268
 6723SOL     OW21067   1.522   6.964   5.175
 6723SOL    HW121068   1.515   6.872   5.134
 6723SOL    HW221069   1.529   6.956   5.274
 6724SOL     OW21070   1.992   3.026   6.072
 6724SOL    HW121071   2.051   2.963   6.022
 6724SOL    HW221072   1.949   2.977   6.149
 6725SOL     OW21073   0.184   2.485   2.151
 6725SOL    HW121074   0.216   2.510   2.059
 6725SOL    HW221075   0.086   2.463   2.147
 6726SOL     OW21076   0.224   2.636   3.882
 6726SOL    HW121077   0.284   2.712   3.859
 6726SOL    HW221078   0.203   2.582   3.800
 6727SOL     OW21079   0.273   4.741   5.762
 6727SOL    HW121080   0.370   4.732   5.743
 6727SOL    HW221081   0.258   4.743   5.861
 6728SOL     OW21082   4.050   2.102   2.976
 6728SOL    HW121083   4.021   2.095   2.881
 6728SOL    HW221084   4.141   2.145   2.980
 6729SOL     OW21085   0.038   1.433   0.330
 6729SOL    HW121086   6.965   1.397   0.322
 6729SOL    HW221087   0.037   1.518   0.382
 6730SOL     OW21088   2.285   6.907   1.079
 6730SOL    HW121089   2.310   6.990   1.029
 6730SOL    HW221090   2.207   6.863   1.035
 6731SOL     OW21091   1.591   6.750   0.873
 6731SOL    HW121092   1.573   6.747   0.971
 6731SOL    HW221093   1.516   6.706   0.824
 6732SOL     OW21094   5.520   4.558   4.663
 6732SOL    HW121095   5.526   4.658   4.672
 6732SOL    HW221096   5.586   4.515   4.724
 6733SOL     OW21097   3.824   5.349   6.581
 6733SOL    HW121098   3.885   5.420   6.617
 6733SOL    HW221099   3.859   5.316   6.493
 6734SOL     OW21100   5.691   2.462   5.266
 6734SOL    HW121101   5.751   2.472   5.187
 6734SOL    HW221102   5.740   2.488   5.349
 6735SOL     OW21103   6.279   3.759   4.869
 6735SOL    HW121104   6.320   3.697   4.936
 6735SOL    HW221105   6.229   3.705   4.801
 6736SOL     OW21106   2.909   3.563   6.482
 6736SOL    HW121107   2.836   3.544   6.417
 6736SOL    HW221108   2.883   3.641   6.539
 6737SOL     OW21109   1.474   3.131   0.849
 6737SOL    HW121110   1.449   3.074   0.927
 6737SOL    HW221111   1.473   3.076   0.765
 6738SOL     OW21112   1.620   5.900   4.234
 6738SOL    HW121113   1.553   5.886   4.161
 6738SOL    HW221114   1.605   5.991   4.275
 6739SOL     OW21115   5.697   6.136   3.935
 6739SOL    HW121116   5.653   6.064   3.989
 6739SOL    HW221117   5.748   6.094   3.859
 6740SOL     OW21118   6.612   0.188   5.620
 6740SOL    HW121119   6.543   0.260   5.622
 6740SOL    HW221120   6.593   0.124   5.546
 6741SOL     OW21121   3.329   2.669   5.360
 6741SOL    HW121122   3.399   2.739   5.345
 6741SOL    HW221123   3.374   2.584   5.388
 6742SOL     OW21124   6.022   5.702   3.139
 6742SOL    HW121125   6.030   5.626   3.203
 6742SOL    HW221126   5.970   5.673   3.058
 6743SOL     OW21127   3.723   4.575   6.710
 6743SOL    HW121128   3.661   4.596   6.785
 6743SOL    HW221129   3.740   4.658   6.657
 6744SOL     OW21130   0.394   5.973   5.738
 6744SOL    HW121131   0.402   5.878   5.770
 6744SOL    HW221132   0.443   5.983   5.651
 6745SOL     OW21133   0.072   6.135   3.508
 6745SOL    HW121134   0.071   6.233   3.483
 6745SOL    HW221135   7.001   6.109   3.540
 6746SOL     OW21136   0.721   6.850   3.971
 6746SOL    HW121137   0.679   6.940   3.981
 6746SOL    HW221138   0.656   6.787   3.928
 6747SOL     OW21139   5.633   0.671   6.744
 6747SOL    HW121140   5.691   0.710   6.673
 6747SOL    HW221141   5.680   0.594   6.787
 6748SOL     OW21142   4.121   1.554   2.910
 6748SOL    HW121143   4.198   1.491   2.904
 6748SOL    HW221144   4.047   1.512   2.962
 6749SOL     OW21145   3.962   4.270   0.726
 6749SOL    HW121146   3.902   4.280   0.646
 6749SOL    HW221147   4.041   4.331   0.716
 6750SOL     OW21148   3.565   1.907   4.113
 6750SOL    HW121149   3.633   1.852   4.161
 6750SOL    HW221150   3.474   1.887   4.149
 6751SOL     OW21151   5.014   0.696   3.191
 6751SOL    HW121152   5.066   0.779   3.169
 6751SOL    HW221153   5.078   0.619   3.201
 6752SOL     OW21154   2.352   6.872   2.790
 6752SOL    HW121155   2.287   6.808   2.831
 6752SOL    HW221156   2.307   6.920   2.715
 6753SOL     OW21157   3.320   0.995   6.339
 6753SOL    HW121158   3.241   0.992   6.278
 6753SOL    HW221159   3.294   0.965   6.430
 6754SOL     OW21160   6.530   0.884   0.749
 6754SOL    HW121161   6.538   0.973   0.793
 6754SOL    HW221162   6.512   0.896   0.651
 6755SOL     OW21163   4.150   2.642   1.486
 6755SOL    HW121164   4.150   2.735   1.450
 6755SOL    HW221165   4.193   2.581   1.419
 6756SOL     OW21166   4.135   6.232   5.068
 6756SOL    HW121167   4.088   6.213   5.154
 6756SOL    HW221168   4.098   6.173   4.996
 6757SOL     OW21169   3.383   2.247   6.945
 6757SOL    HW121170   3.319   2.209   6.878
 6757SOL    HW221171   3.333   2.276   0.007
 6758SOL     OW21172   5.996   2.694   1.806
 6758SOL    HW121173   5.983   2.716   1.902
 6758SOL    HW221174   5.942   2.755   1.749
 6759SOL     OW21175   0.657   3.865   2.938
 6759SOL    HW121176   0.711   3.783   2.919
 6759SOL    HW221177   0.564   3.839   2.964
 6760SOL     OW21178   6.842   3.115   2.450
 6760SOL    HW121179   6.871   3.185   2.515
 6760SOL    HW221180   6.878   3.136   2.360
 6761SOL     OW21181   6.312   2.783   4.916
 6761SOL    HW121182   6.230   2.841   4.914
 6761SOL    HW221183   6.290   2.693   4.878
 6762SOL     OW21184   1.159   4.032   4.467
 6762SOL    HW121185   1.068   4.057   4.500
 6762SOL    HW221186   1.203   3.972   4.534
 6763SOL     OW21187   6.511   5.346   3.797
 6763SOL    HW121188   6.561   5.431   3.811
 6763SOL    HW221189   6.450   5.331   3.875
 6764SOL     OW21190   2.072   5.948   1.911
 6764SOL    HW121191   2.157   5.895   1.903
 6764SOL    HW221192   2.032   5.960   1.820
 6765SOL     OW21193   5.552   4.977   3.872
 6765SOL    HW121194   5.651   4.961   3.869
 6765SOL    HW221195   5.530   5.031   3.953
 6766SOL     OW21196   5.321   6.121   5.565
 6766SOL    HW121197   5.290   6.213   5.590
 6766SOL    HW221198   5.395   6.093   5.626
 6767SOL     OW21199   2.544   1.000   1.367
 6767SOL    HW121200   2.567   1.011   1.464
 6767SOL    HW221201   2.563   0.906   1.339
 6768SOL     OW21202   1.714   0.567   5.203
 6768SOL    HW121203   1.617   0.562   5.179
 6768SOL    HW221204   1.761   0.628   5.139
 6769SOL     OW21205   3.439   0.832   6.769
 6769SOL    HW121206   3.441   0.921   6.724
 6769SOL    HW221207   3.351   0.820   6.815
 6770SOL     OW21208   0.072   0.900   2.171
 6770SOL    HW121209   0.007   0.943   2.110
 6770SOL    HW221210   0.026   0.829   2.224
 6771SOL     OW21211   5.206   1.905   3.285
 6771SOL    HW121212   5.165   1.898   3.375
 6771SOL    HW221213   5.173   1.988   3.240
 6772SOL     OW21214   3.977   2.188   2.729
 6772SOL    HW121215   4.035   2.222   2.655
 6772SOL    HW221216   3.932   2.103   2.700
 6773SOL     OW21217   6.453   4.929   2.229
 6773SOL    HW121218   6.451   4.924   2.329
 6773SOL    HW221219   6.519   4.999   2.201
 6774SOL     OW21220   1.182   2.958   5.535
 6774SOL    HW121221   1.202   2.862   5.554
 6774SOL    HW221222   1.254   3.016   5.573
 6775SOL     OW21223   1.999   2.348   1.651
 6775SOL    HW121224   2.055   2.389   1.580
 6775SOL    HW221225   2.053   2.279   1.700
 6776SOL     OW21226   4.545   4.822   6.953
 6776SOL    HW121227   4.609   4.751   6.924
 6776SOL    HW221228   4.457   4.808   6.910
 6777SOL     OW21229   4.436   4.374   0.588
 6777SOL    HW121230   4.522   4.355   0.635
 6777SOL    HW221231   4.400   4.290   0.548
 6778SOL     OW21232   6.011   5.174   1.672
 6778SOL    HW121233   6.008   5.094   1.732
 6778SOL    HW221234   6.106   5.202   1.658
 6779SOL     OW21235   5.778   5.166   6.773
 6779SOL    HW121236   5.825   5.253   6.787
 6779SOL    HW221237   5.716   5.149   6.849
 6780SOL     OW21238   1.537   2.942   2.501
 6780SOL    HW121239   1.592   2.914   2.423
 6780SOL    HW221240   1.534   3.042   2.505
 6781SOL     OW21241   6.364   1.586   4.123
 6781SOL    HW121242   6.326   1.493   4.125
 6781SOL    HW221243   6.415   1.602   4.208
 6782SOL     OW21244   0.091   0.909   3.472
 6782SOL    HW121245   7.012   0.911   3.457
 6782SOL    HW221246   0.115   0.830   3.528
 6783SOL     OW21247   6.260   1.843   5.423
 6783SOL    HW121248   6.212   1.801   5.499
 6783SOL    HW221249   6.257   1.943   5.432
 6784SOL     OW21250   1.978   3.406   0.797
 6784SOL    HW121251   1.945   3.386   0.889
 6784SOL    HW221252   2.073   3.378   0.788
 6785SOL     OW21253   6.259   5.114   3.776
 6785SOL    HW121254   6.313   5.120   3.693
 6785SOL    HW221255   6.296   5.176   3.846
 6786SOL     OW21256   1.643   2.473   0.186
 6786SOL    HW121257   1.607   2.556   0.144
 6786SOL    HW221258   1.720   2.496   0.244
 6787SOL     OW21259   1.993   2.611   0.998
 6787SOL    HW121260   1.943   2.536   0.953
 6787SOL    HW221261   1.944   2.697   0.983
 6788SOL     OW21262   2.062   4.078   1.522
 6788SOL    HW121263   2.085   4.023   1.442
 6788SOL    HW221264   2.026   4.018   1.594
 6789SOL     OW21265   0.348   5.443   3.192
 6789SOL    HW121266   0.251   5.437   3.214
 6789SOL    HW221267   0.371   5.538   3.171
 6790SOL     OW21268   0.314   3.663   1.113
 6790SOL    HW121269   0.259   3.652   1.030
 6790SOL    HW221270   0.411   3.659   1.090
 6791SOL     OW21271   4.146   2.333   1.633
 6791SOL    HW121272   4.046   2.338   1.636
 6791SOL    HW221273   4.179   2.369   1.546
 6792SOL     OW21274   6.648   6.029   5.149
 6792SOL    HW121275   6.679   5.935   5.159
 6792SOL    HW221276   6.716   6.091   5.188
 6793SOL     OW21277   1.322   2.234   1.240
 6793SOL    HW121278   1.285   2.142   1.232
 6793SOL    HW221279   1.399   2.234   1.304
 6794SOL     OW21280   5.016   1.624   5.869
 6794SOL    HW121281   5.107   1.651   5.901
 6794SOL    HW221282   4.983   1.693   5.804
 6795SOL     OW21283   2.691   6.707   1.201
 6795SOL    HW121284   2.685   6.805   1.220
 6795SOL    HW221285   2.615   6.679   1.144
 6796SOL     OW21286   6.711   0.109   2.035
 6796SOL    HW121287   6.637   0.177   2.036
 6796SOL    HW221288   6.776   0.133   1.963
 6797SOL     OW21289   6.385   2.248   1.620
 6797SOL    HW121290   6.448   2.325   1.607
 6797SOL    HW221291   6.432   2.175   1.670
 6798SOL     OW21292   4.747   6.886   2.365
 6798SOL    HW121293   4.665   6.890   2.309
 6798SOL    HW221294   4.767   6.977   2.402
 6799SOL     OW21295   6.591   6.406   1.826
 6799SOL    HW121296   6.631   6.393   1.917
 6799SOL    HW221297   6.647   6.470   1.774
 6800SOL     OW21298   2.226   3.690   1.727
 6800SOL    HW121299   2.209   3.625   1.801
 6800SOL    HW221300   2.296   3.653   1.666
 6801SOL     OW21301   1.033   6.992   3.229
 6801SOL    HW121302   0.945   6.984   3.276
 6801SOL    HW221303   1.101   0.013   3.290
 6802SOL     OW21304   3.311   6.030   1.344
 6802SOL    HW121305   3.372   6.110   1.349
 6802SOL    HW221306   3.322   5.985   1.256
 6803SOL     OW21307   4.654   2.770   5.698
 6803SOL    HW121308   4.648   2.693   5.633
 6803SOL    HW221309   4.605   2.746   5.782
 6804SOL     OW21310   3.530   5.320   3.706
 6804SOL    HW121311   3.570   5.396   3.757
 6804SOL    HW221312   3.478   5.262   3.769
 6805SOL     OW21313   6.903   5.023   6.160
 6805SOL    HW121314   6.971   4.960   6.196
 6805SOL    HW221315   6.922   5.042   6.064
 6806SOL     OW21316   5.988   0.238   3.354
 6806SOL    HW121317   5.997   0.201   3.262
 6806SOL    HW221318   6.037   0.178   3.418
 6807SOL     OW21319   3.120   3.011   0.594
 6807SOL    HW121320   3.040   3.068   0.611
 6807SOL    HW221321   3.200   3.050   0.641
 6808SOL     OW21322   6.811   2.322   5.500
 6808SOL    HW121323   6.826   2.272   5.415
 6808SOL    HW221324   6.862   2.408   5.498
 6809SOL     OW21325   0.834   2.832   1.525
 6809SOL    HW121326   0.747   2.871   1.494
 6809SOL    HW221327   0.908   2.864   1.465
 6810SOL     OW21328   1.524   1.075   2.567
 6810SOL    HW121329   1.452   1.018   2.528
 6810SOL    HW221330   1.507   1.087   2.665
 6811SOL     OW21331   6.216   3.991   1.226
 6811SOL    HW121332   6.177   3.904   1.196
 6811SOL    HW221333   6.273   4.029   1.152
 6812SOL     OW21334   3.124   3.183   3.584
 6812SOL    HW121335   3.169   3.271   3.569
 6812SOL    HW221336   3.171   3.112   3.532
 6813SOL     OW21337   5.021   2.367   2.395
 6813SOL    HW121338   4.999   2.286   2.450
 6813SOL    HW221339   5.004   2.450   2.449
 6814SOL     OW21340   3.302   1.911   6.317
 6814SOL    HW121341   3.343   1.995   6.282
 6814SOL    HW221342   3.245   1.869   6.246
 6815SOL     OW21343   3.302   7.019   1.407
 6815SOL    HW121344   3.261   6.929   1.392
 6815SOL    HW221345   3.313   0.014   1.506
 6816SOL     OW21346   6.728   6.955   6.905
 6816SOL    HW121347   6.723   6.978   6.808
 6816SOL    HW221348   6.797   7.011   6.950
 6817SOL     OW21349   1.973   2.349   2.653
 6817SOL    HW121350   2.018   2.438   2.665
 6817SOL    HW221351   2.040   2.281   2.623
 6818SOL     OW21352   3.205   6.023   2.373
 6818SOL    HW121353   3.125   6.076   2.343
 6818SOL    HW221354   3.222   6.041   2.470
 6819SOL     OW21355   5.268   1.501   3.834
 6819SOL    HW121356   5.367   1.502   3.820
 6819SOL    HW221357   5.229   1.419   3.792
 6820SOL     OW21358   2.022   5.320   2.249
 6820SOL    HW121359   1.981   5.293   2.161
 6820SOL    HW221360   1.967   5.392   2.291
 6821SOL     OW21361   3.935   2.187   4.785
 6821SOL    HW121362   3.946   2.268   4.843
 6821SOL    HW221363   3.927   2.106   4.843
 6822SOL     OW21364   5.291   2.555   6.340
 6822SOL    HW121365   5.320   2.528   6.248
 6822SOL    HW221366   5.201   2.517   6.359
 6823SOL     OW21367   4.290   3.240   5.267
 6823SOL    HW121368   4.380   3.282   5.255
 6823SOL    HW221369   4.219   3.310   5.260
 6824SOL     OW21370   0.974   2.083   6.172
 6824SOL    HW121371   0.917   2.161   6.198
 6824SOL    HW221372   1.016   2.043   6.253
 6825SOL     OW21373   5.114   6.494   1.822
 6825SOL    HW121374   5.158   6.464   1.906
 6825SOL    HW221375   5.120   6.422   1.753
 6826SOL     OW21376   1.914   3.960   2.951
 6826SOL    HW121377   1.988   3.913   2.999
 6826SOL    HW221378   1.868   3.896   2.889
 6827SOL     OW21379   4.685   5.611   5.988
 6827SOL    HW121380   4.704   5.514   5.970
 6827SOL    HW221381   4.764   5.665   5.958
 6828SOL     OW21382   2.775   2.031   1.625
 6828SOL    HW121383   2.825   2.045   1.710
 6828SOL    HW221384   2.738   1.938   1.623
 6829SOL     OW21385   4.207   6.624   4.029
 6829SOL    HW121386   4.200   6.524   4.035
 6829SOL    HW221387   4.185   6.664   4.118
 6830SOL     OW21388   5.572   0.744   3.712
 6830SOL    HW121389   5.626   0.662   3.729
 6830SOL    HW221390   5.515   0.763   3.792
 6831SOL     OW21391   1.851   0.525   6.937
 6831SOL    HW121392   1.852   0.607   6.995
 6831SOL    HW221393   1.758   0.487   6.935
 6832SOL     OW21394   3.186   4.180   1.180
 6832SOL    HW121395   3.267   4.157   1.126
 6832SOL    HW221396   3.162   4.277   1.165
 6833SOL     OW21397   3.385   4.600   6.617
 6833SOL    HW121398   3.296   4.555   6.624
 6833SOL    HW221399   3.373   4.693   6.581
 6834SOL     OW21400   4.886   6.458   1.177
 6834SOL    HW121401   4.968   6.401   1.186
 6834SOL    HW221402   4.910   6.541   1.126
 6835SOL     OW21403   4.045   0.146   4.417
 6835SOL    HW121404   4.018   0.138   4.321
 6835SOL    HW221405   4.145   0.144   4.424
 6836SOL     OW21406   2.344   5.230   6.999
 6836SOL    HW121407   2.256   5.224   0.025
 6836SOL    HW221408   2.372   5.325   6.991
 6837SOL     OW21409   0.548   1.878   2.015
 6837SOL    HW121410   0.603   1.956   1.986
 6837SOL    HW221411   0.525   1.888   2.112
 6838SOL     OW21412   3.226   6.136   0.226
 6838SOL    HW121413   3.275   6.176   0.149
 6838SOL    HW221414   3.175   6.208   0.273
 6839SOL     OW21415   5.407   0.749   6.567
 6839SOL    HW121416   5.484   0.696   6.601
 6839SOL    HW221417   5.375   0.812   6.638
 6840SOL     OW21418   3.409   0.567   4.613
 6840SOL    HW121419   3.353   0.566   4.696
 6840SOL    HW221420   3.355   0.604   4.537
 6841SOL     OW21421   4.098   3.922   6.944
 6841SOL    HW121422   4.050   3.855   7.000
 6841SOL    HW221423   4.087   4.013   6.985
 6842SOL     OW21424   2.301   4.516   0.910
 6842SOL    HW121425   2.279   4.614   0.916
 6842SOL    HW221426   2.394   4.505   0.875
 6843SOL     OW21427   6.187   0.073   0.836
 6843SOL    HW121428   6.278   0.115   0.832
 6843SOL    HW221429   6.175   0.031   0.926
 6844SOL     OW21430   5.464   0.574   4.024
 6844SOL    HW121431   5.374   0.592   3.986
 6844SOL    HW221432   5.528   0.556   3.949
 6845SOL     OW21433   6.483   3.368   2.895
 6845SOL    HW121434   6.522   3.322   2.975
 6845SOL    HW221435   6.411   3.431   2.924
 6846SOL     OW21436   3.662   3.114   0.213
 6846SOL    HW121437   3.711   3.201   0.215
 6846SOL    HW221438   3.629   3.096   0.120
 6847SOL     OW21439   0.308   3.482   4.472
 6847SOL    HW121440   0.404   3.500   4.450
 6847SOL    HW221441   0.257   3.464   4.387
 6848SOL     OW21442   4.760   5.048   3.878
 6848SOL    HW121443   4.702   5.125   3.906
 6848SOL    HW221444   4.729   4.965   3.924
 6849SOL     OW21445   4.807   4.399   5.548
 6849SOL    HW121446   4.773   4.421   5.640
 6849SOL    HW221447   4.818   4.483   5.496
 6850SOL     OW21448   5.488   3.450   2.964
 6850SOL    HW121449   5.389   3.446   2.981
 6850SOL    HW221450   5.536   3.460   3.051
 6851SOL     OW21451   7.007   1.794   3.472
 6851SOL    HW121452   6.918   1.762   3.440
 6851SOL    HW221453   0.059   1.743   3.424
 6852SOL     OW21454   2.611   4.556   1.456
 6852SOL    HW121455   2.609   4.655   1.468
 6852SOL    HW221456   2.525   4.526   1.414
 6853SOL     OW21457   5.328   4.619   0.083
 6853SOL    HW121458   5.317   4.665   7.015
 6853SOL    HW221459   5.372   4.531   0.069
 6854SOL     OW21460   4.974   0.803   5.544
 6854SOL    HW121461   4.887   0.845   5.517
 6854SOL    HW221462   5.038   0.875   5.573
 6855SOL     OW21463   3.972   6.375   3.971
 6855SOL    HW121464   4.064   6.338   3.982
 6855SOL    HW221465   3.961   6.454   4.031
 6856SOL     OW21466   7.003   2.263   5.173
 6856SOL    HW121467   6.965   2.355   5.185
 6856SOL    HW221468   6.941   2.196   5.213
 6857SOL     OW21469   1.896   2.377   6.588
 6857SOL    HW121470   1.995   2.374   6.603
 6857SOL    HW221471   1.875   2.446   6.519
 6858SOL     OW21472   4.038   3.404   2.001
 6858SOL    HW121473   4.044   3.427   2.099
 6858SOL    HW221474   3.958   3.346   1.986
 6859SOL     OW21475   1.149   1.249   1.056
 6859SOL    HW121476   1.159   1.159   1.098
 6859SOL    HW221477   1.104   1.240   0.967
 6860SOL     OW21478   0.057   5.276   1.526
 6860SOL    HW121479   0.091   5.368   1.541
 6860SOL    HW221480   0.134   5.213   1.512
 6861SOL     OW21481   3.917   3.933   0.258
 6861SOL    HW121482   3.988   3.870   0.290
 6861SOL    HW221483   3.874   3.897   0.175
 6862SOL     OW21484   0.803   5.516   6.021
 6862SOL    HW121485   0.762   5.478   6.103
 6862SOL    HW221486   0.902   5.502   6.022
 6863SOL     OW21487   6.018   6.760   6.028
 6863SOL    HW121488   6.094   6.704   6.061
 6863SOL    HW221489   5.962   6.789   6.105
 6864SOL     OW21490   2.190   4.839   4.429
 6864SOL    HW121491   2.229   4.828   4.337
 6864SOL    HW221492   2.160   4.750   4.463
 6865SOL     OW21493   0.707   6.060   4.658
 6865SOL    HW121494   0.636   6.088   4.722
 6865SOL    HW221495   0.728   6.136   4.596
 6866SOL     OW21496   5.750   5.559   2.992
 6866SOL    HW121497   5.721   5.651   2.966
 6866SOL    HW221498   5.700   5.531   3.074
 6867SOL     OW21499   2.131   3.921   2.153
 6867SOL    HW121500   2.096   3.946   2.243
 6867SOL    HW221501   2.193   3.992   2.120
 6868SOL     OW21502   1.744   6.443   6.475
 6868SOL    HW121503   1.779   6.400   6.392
 6868SOL    HW221504   1.797   6.526   6.495
 6869SOL     OW21505   4.821   0.973   6.122
 6869SOL    HW121506   4.758   0.994   6.198
 6869SOL    HW221507   4.914   0.998   6.148
 6870SOL     OW21508   0.135   4.276   1.180
 6870SOL    HW121509   0.087   4.303   1.263
 6870SOL    HW221510   0.230   4.251   1.202
 6871SOL     OW21511   6.191   4.015   3.274
 6871SOL    HW121512   6.250   3.983   3.348
 6871SOL    HW221513   6.097   4.022   3.308
 6872SOL     OW21514   0.250   2.472   1.137
 6872SOL    HW121515   0.242   2.442   1.042
 6872SOL    HW221516   0.328   2.426   1.180
 6873SOL     OW21517   6.891   4.025   4.031
 6873SOL    HW121518   6.820   3.999   3.965
 6873SOL    HW221519   6.963   4.076   3.984
 6874SOL     OW21520   6.961   5.254   3.079
 6874SOL    HW121521   7.005   5.249   2.989
 6874SOL    HW221522   0.004   5.297   3.144
 6875SOL     OW21523   2.309   2.805   2.136
 6875SOL    HW121524   2.254   2.811   2.053
 6875SOL    HW221525   2.382   2.738   2.124
 6876SOL     OW21526   3.740   0.177   4.047
 6876SOL    HW121527   3.661   0.236   4.028
 6876SOL    HW221528   3.722   0.086   4.010
 6877SOL     OW21529   3.135   4.170   1.471
 6877SOL    HW121530   3.136   4.175   1.371
 6877SOL    HW221531   3.224   4.140   1.504
 6878SOL     OW21532   3.854   1.057   3.984
 6878SOL    HW121533   3.912   1.133   4.014
 6878SOL    HW221534   3.813   1.081   3.896
 6879SOL     OW21535   1.505   2.730   0.691
 6879SOL    HW121536   1.600   2.702   0.705
 6879SOL    HW221537   1.499   2.830   0.691
 6880SOL     OW21538   1.798   5.401   5.873
 6880SOL    HW121539   1.891   5.421   5.844
 6880SOL    HW221540   1.736   5.409   5.795
 6881SOL     OW21541   1.725   3.965   1.206
 6881SOL    HW121542   1.784   4.033   1.163
 6881SOL    HW221543   1.666   4.010   1.273
 6882SOL     OW21544   2.971   0.503   0.169
 6882SOL    HW121545   2.986   0.497   0.268
 6882SOL    HW221546   2.886   0.554   0.152
 6883SOL     OW21547   5.179   2.498   0.369
 6883SOL    HW121548   5.168   2.425   0.301
 6883SOL    HW221549   5.126   2.475   0.451
 6884SOL     OW21550   1.093   4.279   3.564
 6884SOL    HW121551   1.115   4.219   3.488
 6884SOL    HW221552   1.042   4.358   3.531
 6885SOL     OW21553   4.875   4.893   3.641
 6885SOL    HW121554   4.966   4.882   3.600
 6885SOL    HW221555   4.885   4.926   3.735
 6886SOL     OW21556   6.658   1.397   4.487
 6886SOL    HW121557   6.584   1.337   4.457
 6886SOL    HW221558   6.739   1.381   4.431
 6887SOL     OW21559   4.887   5.048   6.745
 6887SOL    HW121560   4.882   5.002   6.657
 6887SOL    HW221561   4.869   5.146   6.733
 6888SOL     OW21562   5.378   5.505   6.399
 6888SOL    HW121563   5.395   5.588   6.345
 6888SOL    HW221564   5.429   5.509   6.484
 6889SOL     OW21565   1.099   3.101   5.934
 6889SOL    HW121566   1.130   3.108   5.839
 6889SOL    HW221567   0.999   3.098   5.936
 6890SOL     OW21568   4.062   6.455   2.358
 6890SOL    HW121569   4.040   6.435   2.263
 6890SOL    HW221570   4.020   6.387   2.418
 6891SOL     OW21571   2.059   3.992   2.410
 6891SOL    HW121572   2.068   3.917   2.475
 6891SOL    HW221573   1.972   4.038   2.424
 6892SOL     OW21574   3.409   1.865   3.871
 6892SOL    HW121575   3.463   1.901   3.948
 6892SOL    HW221576   3.425   1.920   3.790
 6893SOL     OW21577   4.558   4.491   0.359
 6893SOL    HW121578   4.641   4.445   0.388
 6893SOL    HW221579   4.483   4.469   0.422
 6894SOL     OW21580   5.713   4.577   0.644
 6894SOL    HW121581   5.775   4.509   0.605
 6894SOL    HW221582   5.723   4.664   0.594
 6895SOL     OW21583   1.988   4.654   0.779
 6895SOL    HW121584   2.058   4.685   0.715
 6895SOL    HW221585   1.988   4.713   0.860
 6896SOL     OW21586   2.795   1.493   4.111
 6896SOL    HW121587   2.774   1.446   4.197
 6896SOL    HW221588   2.888   1.529   4.115
 6897SOL     OW21589   4.868   3.870   4.821
 6897SOL    HW121590   4.825   3.787   4.858
 6897SOL    HW221591   4.847   3.947   4.881
 6898SOL     OW21592   4.218   1.597   1.493
 6898SOL    HW121593   4.133   1.579   1.443
 6898SOL    HW221594   4.292   1.542   1.454
 6899SOL     OW21595   4.590   5.994   1.988
 6899SOL    HW121596   4.619   6.082   2.025
 6899SOL    HW221597   4.573   5.930   2.064
 6900SOL     OW21598   6.109   5.407   4.768
 6900SOL    HW121599   6.160   5.351   4.703
 6900SOL    HW221600   6.161   5.414   4.853
 6901SOL     OW21601   6.469   6.223   6.279
 6901SOL    HW121602   6.415   6.191   6.357
 6901SOL    HW221603   6.536   6.153   6.255
 6902SOL     OW21604   6.434   5.913   6.698
 6902SOL    HW121605   6.377   5.857   6.639
 6902SOL    HW221606   6.526   5.922   6.659
 6903SOL     OW21607   3.298   5.179   5.054
 6903SOL    HW121608   3.316   5.100   4.995
 6903SOL    HW221609   3.208   5.217   5.033
 6904SOL     OW21610   6.139   0.482   5.701
 6904SOL    HW121611   6.151   0.427   5.783
 6904SOL    HW221612   6.228   0.499   5.659
 6905SOL     OW21613   5.388   5.792   0.359
 6905SOL    HW121614   5.358   5.868   0.417
 6905SOL    HW221615   5.321   5.778   0.286
 6906SOL     OW21616   3.213   1.566   4.029
 6906SOL    HW121617   3.172   1.644   3.981
 6906SOL    HW221618   3.298   1.540   3.983
 6907SOL     OW21619   5.684   2.343   1.334
 6907SOL    HW121620   5.657   2.438   1.315
 6907SOL    HW221621   5.703   2.333   1.432
 6908SOL     OW21622   1.267   5.594   6.906
 6908SOL    HW121623   1.262   5.505   6.952
 6908SOL    HW221624   1.183   5.610   6.854
 6909SOL     OW21625   5.124   3.728   1.045
 6909SOL    HW121626   5.090   3.802   0.988
 6909SOL    HW221627   5.074   3.728   1.132
 6910SOL     OW21628   1.214   3.384   3.602
 6910SOL    HW121629   1.244   3.391   3.697
 6910SOL    HW221630   1.123   3.424   3.593
 6911SOL     OW21631   3.988   6.894   3.751
 6911SOL    HW121632   3.973   6.831   3.674
 6911SOL    HW221633   3.901   6.916   3.794
 6912SOL     OW21634   2.698   3.565   6.297
 6912SOL    HW121635   2.717   3.497   6.227
 6912SOL    HW221636   2.606   3.551   6.334
 6913SOL     OW21637   5.728   6.051   4.302
 6913SOL    HW121638   5.788   6.119   4.259
 6913SOL    HW221639   5.667   6.012   4.234
 6914SOL     OW21640   5.816   4.194   3.719
 6914SOL    HW121641   5.868   4.246   3.786
 6914SOL    HW221642   5.726   4.236   3.706
 6915SOL     OW21643   6.205   2.682   1.633
 6915SOL    HW121644   6.289   2.643   1.673
 6915SOL    HW221645   6.133   2.682   1.701
 6916SOL     OW21646   5.413   2.108   6.725
 6916SOL    HW121647   5.350   2.068   6.792
 6916SOL    HW221648   5.370   2.108   6.635
 6917SOL     OW21649   3.797   6.798   1.132
 6917SOL    HW121650   3.816   6.700   1.125
 6917SOL    HW221651   3.725   6.822   1.067
 6918SOL     OW21652   0.683   2.456   4.049
 6918SOL    HW121653   0.610   2.451   4.117
 6918SOL    HW221654   0.769   2.481   4.094
 6919SOL     OW21655   5.484   5.795   4.523
 6919SOL    HW121656   5.560   5.747   4.564
 6919SOL    HW221657   5.468   5.760   4.430
 6920SOL     OW21658   4.451   0.143   5.485
 6920SOL    HW121659   4.433   0.236   5.519
 6920SOL    HW221660   4.544   0.117   5.510
 6921SOL     OW21661   4.639   6.201   4.243
 6921SOL    HW121662   4.634   6.165   4.337
 6921SOL    HW221663   4.611   6.130   4.179
 6922SOL     OW21664   2.095   5.703   5.093
 6922SOL    HW121665   2.188   5.718   5.126
 6922SOL    HW221666   2.088   5.612   5.052
 6923SOL     OW21667   5.435   5.633   2.840
 6923SOL    HW121668   5.353   5.645   2.895
 6923SOL    HW221669   5.414   5.575   2.760
 6924SOL     OW21670   1.954   4.546   0.200
 6924SOL    HW121671   2.018   4.508   0.267
 6924SOL    HW221672   1.860   4.525   0.227
 6925SOL     OW21673   4.981   6.010   4.520
 6925SOL    HW121674   4.963   6.108   4.530
 6925SOL    HW221675   4.931   5.959   4.590
 6926SOL     OW21676   2.630   2.659   0.857
 6926SOL    HW121677   2.686   2.577   0.844
 6926SOL    HW221678   2.576   2.675   0.775
 6927SOL     OW21679   3.768   3.160   5.670
 6927SOL    HW121680   3.742   3.073   5.630
 6927SOL    HW221681   3.710   3.179   5.749
 6928SOL     OW21682   5.594   5.502   0.868
 6928SOL    HW121683   5.675   5.499   0.810
 6928SOL    HW221684   5.516   5.535   0.814
 6929SOL     OW21685   5.159   5.684   2.033
 6929SOL    HW121686   5.100   5.622   1.981
 6929SOL    HW221687   5.253   5.649   2.034
 6930SOL     OW21688   1.751   0.605   1.693
 6930SOL    HW121689   1.665   0.607   1.642
 6930SOL    HW221690   1.732   0.617   1.791
 6931SOL     OW21691   1.605   1.454   2.308
 6931SOL    HW121692   1.654   1.380   2.355
 6931SOL    HW221693   1.508   1.432   2.303
 6932SOL     OW21694   4.424   0.254   0.433
 6932SOL    HW121695   4.405   0.248   0.335
 6932SOL    HW221696   4.339   0.249   0.484
 6933SOL     OW21697   3.757   6.166   5.630
 6933SOL    HW121698   3.772   6.221   5.548
 6933SOL    HW221699   3.823   6.192   5.700
 6934SOL     OW21700   4.541   3.037   5.928
 6934SOL    HW121701   4.605   3.108   5.958
 6934SOL    HW221702   4.506   3.060   5.837
 6935SOL     OW21703   4.883   5.523   3.080
 6935SOL    HW121704   4.802   5.496   3.028
 6935SOL    HW221705   4.943   5.578   3.021
 6936SOL     OW21706   6.299   3.099   4.100
 6936SOL    HW121707   6.231   3.026   4.091
 6936SOL    HW221708   6.265   3.169   4.164
 6937SOL     OW21709   6.065   5.984   0.690
 6937SOL    HW121710   6.005   5.991   0.611
 6937SOL    HW221711   6.113   6.071   0.703
 6938SOL     OW21712   6.631   2.787   5.080
 6938SOL    HW121713   6.571   2.792   5.001
 6938SOL    HW221714   6.650   2.692   5.103
 6939SOL     OW21715   0.497   5.332   2.255
 6939SOL    HW121716   0.436   5.313   2.332
 6939SOL    HW221717   0.536   5.424   2.266
 6940SOL     OW21718   3.950   0.306   6.595
 6940SOL    HW121719   3.899   0.265   6.671
 6940SOL    HW221720   3.910   0.395   6.572
 6941SOL     OW21721   3.033   3.973   1.971
 6941SOL    HW121722   2.998   3.929   2.053
 6941SOL    HW221723   3.082   3.906   1.915
 6942SOL     OW21724   6.010   6.521   2.630
 6942SOL    HW121725   5.925   6.557   2.668
 6942SOL    HW221726   5.991   6.468   2.548
 6943SOL     OW21727   4.117   6.100   0.919
 6943SOL    HW121728   4.111   6.148   0.832
 6943SOL    HW221729   4.041   6.127   0.978
 6944SOL     OW21730   1.159   4.892   6.660
 6944SOL    HW121731   1.159   4.934   6.569
 6944SOL    HW221732   1.138   4.962   6.729
 6945SOL     OW21733   6.676   1.536   0.171
 6945SOL    HW121734   6.638   1.560   0.261
 6945SOL    HW221735   6.643   1.601   0.102
 6946SOL     OW21736   4.344   0.085   1.480
 6946SOL    HW121737   4.287   0.003   1.481
 6946SOL    HW221738   4.287   0.167   1.476
 6947SOL     OW21739   3.542   5.411   0.084
 6947SOL    HW121740   3.486   5.494   0.085
 6947SOL    HW221741   3.630   5.430   0.129
 6948SOL     OW21742   0.867   6.522   1.223
 6948SOL    HW121743   0.849   6.548   1.128
 6948SOL    HW221744   0.934   6.585   1.262
 6949SOL     OW21745   3.689   6.895   3.493
 6949SOL    HW121746   3.609   6.927   3.442
 6949SOL    HW221747   3.765   6.959   3.480
 6950SOL     OW21748   1.833   1.299   4.935
 6950SOL    HW121749   1.857   1.386   4.979
 6950SOL    HW221750   1.737   1.277   4.954
 6951SOL     OW21751   6.521   5.717   6.135
 6951SOL    HW121752   6.482   5.626   6.127
 6951SOL    HW221753   6.617   5.710   6.162
 6952SOL     OW21754   1.169   5.555   3.128
 6952SOL    HW121755   1.203   5.611   3.204
 6952SOL    HW221756   1.111   5.611   3.069
 6953SOL     OW21757   4.410   6.719   1.562
 6953SOL    HW121758   4.505   6.749   1.568
 6953SOL    HW221759   4.392   6.651   1.633
 6954SOL     OW21760   0.710   4.077   2.178
 6954SOL    HW121761   0.638   4.008   2.183
 6954SOL    HW221762   0.741   4.085   2.083
 6955SOL     OW21763   5.420   0.863   1.810
 6955SOL    HW121764   5.400   0.855   1.908
 6955SOL    HW221765   5.470   0.781   1.780
 6956SOL     OW21766   5.403   5.603   3.443
 6956SOL    HW121767   5.403   5.677   3.511
 6956SOL    HW221768   5.310   5.572   3.428
 6957SOL     OW21769   5.922   5.834   0.877
 6957SOL    HW121770   5.911   5.891   0.959
 6957SOL    HW221771   5.981   5.881   0.811
 6958SOL     OW21772   3.997   3.169   4.537
 6958SOL    HW121773   4.007   3.159   4.438
 6958SOL    HW221774   4.060   3.239   4.570
 6959SOL     OW21775   2.136   3.075   3.074
 6959SOL    HW121776   2.196   3.002   3.103
 6959SOL    HW221777   2.129   3.144   3.146
 6960SOL     OW21778   2.023   3.857   1.724
 6960SOL    HW121779   2.098   3.791   1.716
 6960SOL    HW221780   2.003   3.873   1.821
 6961SOL     OW21781   5.888   0.414   4.643
 6961SOL    HW121782   5.802   0.443   4.602
 6961SOL    HW221783   5.884   0.428   4.742
 6962SOL     OW21784   4.099   5.830   1.697
 6962SOL    HW121785   4.179   5.772   1.680
 6962SOL    HW221786   4.129   5.925   1.707
 6963SOL     OW21787   5.526   5.397   1.470
 6963SOL    HW121788   5.513   5.494   1.491
 6963SOL    HW221789   5.619   5.382   1.436
 6964SOL     OW21790   3.625   1.348   5.646
 6964SOL    HW121791   3.661   1.308   5.563
 6964SOL    HW221792   3.695   1.348   5.717
 6965SOL     OW21793   1.769   1.236   7.018
 6965SOL    HW121794   1.700   1.242   0.070
 6965SOL    HW221795   1.847   1.294   0.022
 6966SOL     OW21796   0.641   1.536   2.290
 6966SOL    HW121797   0.625   1.479   2.209
 6966SOL    HW221798   0.554   1.554   2.336
 6967SOL     OW21799   2.909   0.858   6.397
 6967SOL    HW121800   2.916   0.830   6.493
 6967SOL    HW221801   2.837   0.806   6.351
 6968SOL     OW21802   4.054   0.840   3.518
 6968SOL    HW121803   4.087   0.875   3.431
 6968SOL    HW221804   3.997   0.759   3.503
 6969SOL     OW21805   2.890   2.357   1.454
 6969SOL    HW121806   2.960   2.302   1.409
 6969SOL    HW221807   2.823   2.388   1.387
 6970SOL     OW21808   3.773   3.608   5.581
 6970SOL    HW121809   3.841   3.667   5.625
 6970SOL    HW221810   3.775   3.623   5.482
 6971SOL     OW21811   6.103   4.715   0.761
 6971SOL    HW121812   6.126   4.778   0.835
 6971SOL    HW221813   6.101   4.622   0.796
 6972SOL     OW21814   5.467   4.502   3.184
 6972SOL    HW121815   5.519   4.549   3.255
 6972SOL    HW221816   5.478   4.403   3.195
 6973SOL     OW21817   0.597   3.134   3.327
 6973SOL    HW121818   0.665   3.184   3.273
 6973SOL    HW221819   0.592   3.039   3.296
 6974SOL     OW21820   3.114   3.831   2.440
 6974SOL    HW121821   3.042   3.806   2.505
 6974SOL    HW221822   3.203   3.805   2.477
 6975SOL     OW21823   1.540   6.481   5.293
 6975SOL    HW121824   1.502   6.573   5.283
 6975SOL    HW221825   1.638   6.487   5.310
 6976SOL     OW21826   6.594   5.268   5.926
 6976SOL    HW121827   6.654   5.283   5.847
 6976SOL    HW221828   6.607   5.175   5.960
 6977SOL     OW21829   3.531   2.896   0.764
 6977SOL    HW121830   3.579   2.897   0.852
 6977SOL    HW221831   3.530   2.803   0.727
 6978SOL     OW21832   5.130   2.350   2.144
 6978SOL    HW121833   5.073   2.364   2.225
 6978SOL    HW221834   5.095   2.273   2.092
 6979SOL     OW21835   1.267   3.997   1.562
 6979SOL    HW121836   1.167   4.005   1.559
 6979SOL    HW221837   1.296   3.973   1.655
 6980SOL     OW21838   1.893   0.656   3.369
 6980SOL    HW121839   1.913   0.590   3.297
 6980SOL    HW221840   1.804   0.699   3.351
 6981SOL     OW21841   3.462   4.128   5.439
 6981SOL    HW121842   3.408   4.147   5.357
 6981SOL    HW221843   3.478   4.030   5.447
 6982SOL     OW21844   0.863   1.038   4.565
 6982SOL    HW121845   0.879   1.080   4.654
 6982SOL    HW221846   0.888   0.942   4.568
 6983SOL     OW21847   4.475   2.067   4.284
 6983SOL    HW121848   4.418   2.150   4.288
 6983SOL    HW221849   4.543   2.078   4.212
 6984SOL     OW21850   2.285   1.747   3.365
 6984SOL    HW121851   2.339   1.690   3.303
 6984SOL    HW221852   2.262   1.833   3.320
 6985SOL     OW21853   5.726   5.600   1.085
 6985SOL    HW121854   5.685   5.570   0.999
 6985SOL    HW221855   5.822   5.572   1.088
 6986SOL     OW21856   3.311   6.923   6.456
 6986SOL    HW121857   3.327   6.841   6.512
 6986SOL    HW221858   3.216   6.951   6.465
 6987SOL     OW21859   6.072   1.427   5.902
 6987SOL    HW121860   6.007   1.422   5.826
 6987SOL    HW221861   6.031   1.480   5.976
 6988SOL     OW21862   1.012   7.007   6.714
 6988SOL    HW121863   1.092   0.004   6.771
 6988SOL    HW221864   0.952   6.942   6.760
 6989SOL     OW21865   0.429   4.608   3.020
 6989SOL    HW121866   0.409   4.542   2.948
 6989SOL    HW221867   0.362   4.599   3.094
 6990SOL     OW21868   4.421   2.560   1.045
 6990SOL    HW121869   4.442   2.519   1.134
 6990SOL    HW221870   4.489   2.531   0.978
 6991SOL     OW21871   4.597   4.386   3.678
 6991SOL    HW121872   4.528   4.412   3.746
 6991SOL    HW221873   4.626   4.292   3.696
 6992SOL     OW21874   5.762   0.304   6.389
 6992SOL    HW121875   5.671   0.283   6.356
 6992SOL    HW221876   5.769   0.283   6.486
 6993SOL     OW21877   5.709   6.590   2.630
 6993SOL    HW121878   5.662   6.676   2.611
 6993SOL    HW221879   5.648   6.530   2.683
 6994SOL     OW21880   6.881   2.302   3.686
 6994SOL    HW121881   6.807   2.276   3.748
 6994SOL    HW221882   6.923   2.387   3.719
 6995SOL     OW21883   1.140   4.254   6.430
 6995SOL    HW121884   1.085   4.172   6.443
 6995SOL    HW221885   1.135   4.282   6.334
 6996SOL     OW21886   2.178   0.523   0.111
 6996SOL    HW121887   2.104   0.489   0.169
 6996SOL    HW221888   2.162   0.619   0.089
 6997SOL     OW21889   0.416   4.987   5.233
 6997SOL    HW121890   0.490   4.998   5.167
 6997SOL    HW221891   0.451   5.004   5.325
 6998SOL     OW21892   1.301   1.590   1.297
 6998SOL    HW121893   1.259   1.521   1.356
 6998SOL    HW221894   1.230   1.646   1.255
 6999SOL     OW21895   1.746   3.375   6.309
 6999SOL    HW121896   1.690   3.326   6.242
 6999SOL    HW221897   1.778   3.312   6.380
 7000SOL     OW21898   5.902   6.476   2.071
 7000SOL    HW121899   5.963   6.528   2.010
 7000SOL    HW221900   5.935   6.486   2.165
 7001SOL     OW21901   1.548   3.502   5.364
 7001SOL    HW121902   1.616   3.447   5.316
 7001SOL    HW221903   1.515   3.574   5.303
 7002SOL     OW21904   1.544   5.793   4.482
 7002SOL    HW121905   1.598   5.714   4.511
 7002SOL    HW221906   1.563   5.813   4.386
 7003SOL     OW21907   4.499   5.909   1.243
 7003SOL    HW121908   4.508   5.832   1.180
 7003SOL    HW221909   4.504   5.995   1.191
 7004SOL     OW21910   0.736   5.844   1.196
 7004SOL    HW121911   0.743   5.904   1.117
 7004SOL    HW221912   0.815   5.782   1.198
 7005SOL     OW21913   1.178   0.465   0.962
 7005SOL    HW121914   1.140   0.468   0.869
 7005SOL    HW221915   1.105   0.438   1.026
 7006SOL     OW21916   5.601   5.525   3.614
 7006SOL    HW121917   5.536   5.562   3.547
 7006SOL    HW221918   5.690   5.512   3.570
 7007SOL     OW21919   3.922   0.828   4.592
 7007SOL    HW121920   3.845   0.799   4.649
 7007SOL    HW221921   3.913   0.925   4.570
 7008SOL     OW21922   0.493   4.000   4.221
 7008SOL    HW121923   0.497   4.093   4.258
 7008SOL    HW221924   0.487   4.004   4.122
 7009SOL     OW21925   4.056   6.622   2.722
 7009SOL    HW121926   4.147   6.628   2.763
 7009SOL    HW221927   3.994   6.682   2.771
 7010SOL     OW21928   5.394   4.052   4.054
 7010SOL    HW121929   5.468   4.091   4.109
 7010SOL    HW221930   5.312   4.109   4.063
 7011SOL     OW21931   3.171   6.473   6.608
 7011SOL    HW121932   3.187   6.374   6.611
 7011SOL    HW221933   3.074   6.490   6.593
 7012SOL     OW21934   1.316   1.798   0.990
 7012SOL    HW121935   1.280   1.872   0.933
 7012SOL    HW221936   1.270   1.712   0.966
 7013SOL     OW21937   1.137   6.453   7.016
 7013SOL    HW121938   1.118   6.471   0.093
 7013SOL    HW221939   1.058   6.407   6.975
 7014SOL     OW21940   4.874   3.203   0.666
 7014SOL    HW121941   4.867   3.104   0.672
 7014SOL    HW221942   4.790   3.245   0.701
 7015SOL     OW21943   5.394   4.209   1.204
 7015SOL    HW121944   5.401   4.307   1.189
 7015SOL    HW221945   5.485   4.168   1.203
 7016SOL     OW21946   3.750   4.987   1.205
 7016SOL    HW121947   3.757   4.908   1.143
 7016SOL    HW221948   3.700   4.961   1.287
 7017SOL     OW21949   2.894   5.256   3.338
 7017SOL    HW121950   2.852   5.246   3.428
 7017SOL    HW221951   2.989   5.288   3.349
 7018SOL     OW21952   5.130   3.902   4.022
 7018SOL    HW121953   5.162   3.808   4.032
 7018SOL    HW221954   5.032   3.902   4.003
 7019SOL     OW21955   3.725   4.895   0.436
 7019SOL    HW121956   3.628   4.917   0.424
 7019SOL    HW221957   3.739   4.797   0.423
 7020SOL     OW21958   6.862   4.257   5.327
 7020SOL    HW121959   6.853   4.305   5.414
 7020SOL    HW221960   6.778   4.265   5.275
 7021SOL     OW21961   1.846   2.348   4.826
 7021SOL    HW121962   1.922   2.319   4.885
 7021SOL    HW221963   1.759   2.327   4.871
 7022SOL     OW21964   4.712   0.013   6.759
 7022SOL    HW121965   4.723   0.053   6.668
 7022SOL    HW221966   4.621   6.991   6.766
 7023SOL     OW21967   1.228   2.954   2.751
 7023SOL    HW121968   1.302   2.930   2.813
 7023SOL    HW221969   1.250   3.040   2.705
 7024SOL     OW21970   3.164   3.921   4.336
 7024SOL    HW121971   3.102   3.842   4.327
 7024SOL    HW221972   3.133   3.994   4.275
 7025SOL     OW21973   3.973   1.099   1.102
 7025SOL    HW121974   3.978   1.013   1.153
 7025SOL    HW221975   3.923   1.167   1.156
 7026SOL     OW21976   3.636   2.107   2.288
 7026SOL    HW121977   3.649   2.158   2.203
 7026SOL    HW221978   3.617   2.011   2.267
 7027SOL     OW21979   2.580   5.688   4.555
 7027SOL    HW121980   2.504   5.746   4.583
 7027SOL    HW221981   2.663   5.717   4.602
 7028SOL     OW21982   4.100   1.253   3.235
 7028SOL    HW121983   4.021   1.249   3.296
 7028SOL    HW221984   4.070   1.275   3.142
 7029SOL     OW21985   4.113   4.461   5.335
 7029SOL    HW121986   4.181   4.421   5.273
 7029SOL    HW221987   4.097   4.399   5.411
 7030SOL     OW21988   0.370   1.081   5.126
 7030SOL    HW121989   0.337   1.110   5.036
 7030SOL    HW221990   0.455   1.130   5.147
 7031SOL     OW21991   3.902   6.188   6.763
 7031SOL    HW121992   3.974   6.131   6.804
 7031SOL    HW221993   3.926   6.284   6.773
 7032SOL     OW21994   4.352   1.322   3.797
 7032SOL    HW121995   4.288   1.246   3.803
 7032SOL    HW221996   4.307   1.401   3.755
 7033SOL     OW21997   1.372   2.391   3.400
 7033SOL    HW121998   1.419   2.417   3.316
 7033SOL    HW221999   1.273   2.401   3.388
 7034SOL     OW22000   7.014   1.634   2.738
 7034SOL    HW122001   0.054   1.714   2.729
 7034SOL    HW222002   0.032   1.572   2.807
 7035SOL     OW22003   1.514   0.361   0.665
 7035SOL    HW122004   1.510   0.410   0.752
 7035SOL    HW222005   1.464   0.275   0.672
 7036SOL     OW22006   6.719   1.426   2.181
 7036SOL    HW122007   6.798   1.366   2.169
 7036SOL    HW222008   6.707   1.482   2.099
 7037SOL     OW22009   0.812   1.145   6.576
 7037SOL    HW122010   0.757   1.063   6.583
 7037SOL    HW222011   0.908   1.123   6.594
 7038SOL     OW22012   2.252   4.231   4.815
 7038SOL    HW122013   2.333   4.278   4.780
 7038SOL    HW222014   2.279   4.169   4.889
 7039SOL     OW22015   0.444   6.107   2.880
 7039SOL    HW122016   0.524   6.148   2.835
 7039SOL    HW222017   0.361   6.137   2.832
 7040SOL     OW22018   5.556   2.947   5.810
 7040SOL    HW122019   5.465   2.915   5.837
 7040SOL    HW222020   5.605   2.982   5.890
 7041SOL     OW22021   6.510   1.735   1.930
 7041SOL    HW122022   6.505   1.737   2.030
 7041SOL    HW222023   6.422   1.764   1.892
 7042SOL     OW22024   4.077   6.060   4.406
 7042SOL    HW122025   4.159   6.115   4.420
 7042SOL    HW222026   4.058   6.007   4.489
 7043SOL     OW22027   2.336   4.706   3.512
 7043SOL    HW122028   2.349   4.786   3.570
 7043SOL    HW222029   2.278   4.639   3.558
 7044SOL     OW22030   5.645   5.422   5.565
 7044SOL    HW122031   5.729   5.407   5.618
 7044SOL    HW222032   5.574   5.360   5.597
 7045SOL     OW22033   5.087   5.648   2.391
 7045SOL    HW122034   5.093   5.675   2.487
 7045SOL    HW222035   5.176   5.661   2.347
 7046SOL     OW22036   3.203   1.853   3.444
 7046SOL    HW122037   3.298   1.828   3.459
 7046SOL    HW222038   3.172   1.816   3.356
 7047SOL     OW22039   6.676   0.785   2.056
 7047SOL    HW122040   6.638   0.741   2.138
 7047SOL    HW222041   6.760   0.834   2.081
 7048SOL     OW22042   5.795   6.435   4.575
 7048SOL    HW122043   5.810   6.494   4.496
 7048SOL    HW222044   5.869   6.369   4.582
 7049SOL     OW22045   3.696   2.025   1.034
 7049SOL    HW122046   3.765   2.094   1.055
 7049SOL    HW222047   3.719   1.981   0.947
 7050SOL     OW22048   4.156   3.240   1.385
 7050SOL    HW122049   4.193   3.332   1.398
 7050SOL    HW222050   4.067   3.246   1.339
 7051SOL     OW22051   0.249   6.229   1.272
 7051SOL    HW122052   0.205   6.200   1.357
 7051SOL    HW222053   0.252   6.152   1.208
 7052SOL     OW22054   6.576   0.741   4.159
 7052SOL    HW122055   6.536   0.673   4.097
 7052SOL    HW222056   6.606   0.820   4.107
 7053SOL     OW22057   1.785   3.448   4.721
 7053SOL    HW122058   1.812   3.480   4.630
 7053SOL    HW222059   1.859   3.395   4.761
 7054SOL     OW22060   0.081   6.549   1.010
 7054SOL    HW122061   0.077   6.533   0.912
 7054SOL    HW222062   0.029   6.631   1.033
 7055SOL     OW22063   3.265   0.269   0.156
 7055SOL    HW122064   3.276   0.362   0.121
 7055SOL    HW222065   3.170   0.240   0.144
 7056SOL     OW22066   6.407   4.826   1.634
 7056SOL    HW122067   6.326   4.851   1.579
 7056SOL    HW222068   6.412   4.727   1.640
 7057SOL     OW22069   2.946   5.035   3.726
 7057SOL    HW122070   3.030   5.079   3.695
 7057SOL    HW222071   2.930   4.952   3.671
 7058SOL     OW22072   5.583   2.652   5.702
 7058SOL    HW122073   5.658   2.594   5.671
 7058SOL    HW222074   5.601   2.683   5.796
 7059SOL     OW22075   0.995   0.854   4.198
 7059SOL    HW122076   1.069   0.912   4.233
 7059SOL    HW222077   0.993   0.769   4.250
 7060SOL     OW22078   3.316   0.439   0.671
 7060SOL    HW122079   3.324   0.364   0.736
 7060SOL    HW222080   3.240   0.498   0.699
 7061SOL     OW22081   0.285   2.786   3.611
 7061SOL    HW122082   0.189   2.805   3.634
 7061SOL    HW222083   0.329   2.741   3.688
 7062SOL     OW22084   3.567   2.161   5.154
 7062SOL    HW122085   3.639   2.110   5.200
 7062SOL    HW222086   3.504   2.097   5.109
 7063SOL     OW22087   1.660   6.839   2.119
 7063SOL    HW122088   1.666   6.935   2.091
 7063SOL    HW222089   1.721   6.822   2.195
 7064SOL     OW22090   4.098   2.264   6.976
 7064SOL    HW122091   4.040   2.329   0.007
 7064SOL    HW222092   4.182   2.310   6.947
 7065SOL     OW22093   3.363   3.873   5.080
 7065SOL    HW122094   3.359   3.973   5.082
 7065SOL    HW222095   3.347   3.841   4.987
 7066SOL     OW22096   4.147   0.010   6.167
 7066SOL    HW122097   4.115   0.103   6.184
 7066SOL    HW222098   4.240   0.013   6.130
 7067SOL     OW22099   1.017   3.635   5.547
 7067SOL    HW122100   0.949   3.589   5.490
 7067SOL    HW222101   1.102   3.583   5.547
 7068SOL     OW22102   5.772   4.082   5.169
 7068SOL    HW122103   5.850   4.102   5.108
 7068SOL    HW222104   5.794   4.003   5.225
 7069SOL     OW22105   5.874   1.486   5.459
 7069SOL    HW122106   5.831   1.407   5.415
 7069SOL    HW222107   5.972   1.486   5.440
 7070SOL     OW22108   1.234   6.631   4.112
 7070SOL    HW122109   1.134   6.637   4.114
 7070SOL    HW222110   1.273   6.707   4.165
 7071SOL     OW22111   3.594   5.844   0.178
 7071SOL    HW122112   3.590   5.943   0.191
 7071SOL    HW222113   3.511   5.802   0.214
 7072SOL     OW22114   1.852   5.208   0.020
 7072SOL    HW122115   1.856   5.138   6.969
 7072SOL    HW222116   1.796   5.285   7.008
 7073SOL     OW22117   4.231   0.064   3.392
 7073SOL    HW122118   4.299   0.117   3.341
 7073SOL    HW222119   4.141   0.105   3.381
 7074SOL     OW22120   6.058   3.055   2.538
 7074SOL    HW122121   6.077   3.104   2.623
 7074SOL    HW222122   6.056   3.120   2.462
 7075SOL     OW22123   2.126   4.597   4.511
 7075SOL    HW122124   2.048   4.538   4.491
 7075SOL    HW222125   2.208   4.559   4.468
 7076SOL     OW22126   5.399   3.321   0.492
 7076SOL    HW122127   5.395   3.419   0.511
 7076SOL    HW222128   5.322   3.296   0.433
 7077SOL     OW22129   2.247   4.052   3.595
 7077SOL    HW122130   2.287   4.045   3.503
 7077SOL    HW222131   2.148   4.067   3.586
 7078SOL     OW22132   6.434   6.267   1.131
 7078SOL    HW122133   6.374   6.200   1.088
 7078SOL    HW222134   6.393   6.300   1.216
 7079SOL     OW22135   0.956   6.581   3.812
 7079SOL    HW122136   0.908   6.657   3.767
 7079SOL    HW222137   0.906   6.496   3.796
 7080SOL     OW22138   3.480   1.465   4.011
 7080SOL    HW122139   3.471   1.520   4.094
 7080SOL    HW222140   3.577   1.445   3.995
 7081SOL     OW22141   1.283   5.477   0.461
 7081SOL    HW122142   1.344   5.491   0.383
 7081SOL    HW222143   1.326   5.413   0.525
 7082SOL     OW22144   6.835   4.177   0.260
 7082SOL    HW122145   6.914   4.146   0.312
 7082SOL    HW222146   6.764   4.210   0.322
 7083SOL     OW22147   7.014   1.266   2.215
 7083SOL    HW122148   0.087   1.231   2.227
 7083SOL    HW222149   6.986   1.314   2.298
 7084SOL     OW22150   1.353   5.139   5.668
 7084SOL    HW122151   1.363   5.041   5.650
 7084SOL    HW222152   1.264   5.157   5.709
 7085SOL     OW22153   7.014   2.030   2.631
 7085SOL    HW122154   0.042   2.105   2.678
 7085SOL    HW222155   6.946   1.991   2.693
 7086SOL     OW22156   5.213   0.894   5.867
 7086SOL    HW122157   5.249   0.870   5.777
 7086SOL    HW222158   5.288   0.893   5.934
 7087SOL     OW22159   6.023   4.368   2.846
 7087SOL    HW122160   5.980   4.305   2.911
 7087SOL    HW222161   6.113   4.395   2.880
 7088SOL     OW22162   5.126   2.782   5.117
 7088SOL    HW122163   5.125   2.824   5.208
 7088SOL    HW222164   5.156   2.687   5.124
 7089SOL     OW22165   2.148   3.221   3.320
 7089SOL    HW122166   2.187   3.145   3.372
 7089SOL    HW222167   2.176   3.307   3.362
 7090SOL     OW22168   2.524   1.589   0.294
 7090SOL    HW122169   2.617   1.553   0.286
 7090SOL    HW222170   2.510   1.662   0.226
 7091SOL     OW22171   0.551   1.221   1.022
 7091SOL    HW122172   0.560   1.172   1.109
 7091SOL    HW222173   0.460   1.204   0.984
 7092SOL     OW22174   4.046   3.096   5.544
 7092SOL    HW122175   4.057   3.061   5.451
 7092SOL    HW222176   3.952   3.127   5.557
 7093SOL     OW22177   3.335   4.279   1.737
 7093SOL    HW122178   3.280   4.360   1.760
 7093SOL    HW222179   3.313   4.205   1.800
 7094SOL     OW22180   0.412   6.949   5.667
 7094SOL    HW122181   0.396   6.872   5.729
 7094SOL    HW222182   0.353   0.005   5.693
 7095SOL     OW22183   3.003   4.782   6.050
 7095SOL    HW122184   3.026   4.790   5.953
 7095SOL    HW222185   2.959   4.694   6.067
 7096SOL     OW22186   6.511   6.893   1.806
 7096SOL    HW122187   6.550   6.925   1.719
 7096SOL    HW222188   6.416   6.865   1.791
 7097SOL     OW22189   5.169   1.275   1.734
 7097SOL    HW122190   5.255   1.327   1.732
 7097SOL    HW222191   5.120   1.295   1.818
 7098SOL     OW22192   1.576   5.191   5.841
 7098SOL    HW122193   1.503   5.160   5.780
 7098SOL    HW222194   1.615   5.276   5.806
 7099SOL     OW22195   3.345   2.082   4.330
 7099SOL    HW122196   3.357   1.990   4.294
 7099SOL    HW222197   3.361   2.081   4.429
 7100SOL     OW22198   6.035   3.187   0.317
 7100SOL    HW122199   6.118   3.173   0.264
 7100SOL    HW222200   6.034   3.123   0.394
 7101SOL     OW22201   2.575   0.962   5.036
 7101SOL    HW122202   2.478   0.960   5.009
 7101SOL    HW222203   2.584   0.923   5.127
 7102SOL     OW22204   5.600   6.985   0.776
 7102SOL    HW122205   5.520   6.940   0.817
 7102SOL    HW222206   5.683   6.955   0.823
 7103SOL     OW22207   5.765   5.206   1.813
 7103SOL    HW122208   5.669   5.218   1.787
 7103SOL    HW222209   5.821   5.194   1.731
 7104SOL     OW22210   6.477   3.860   2.660
 7104SOL    HW122211   6.552   3.796   2.640
 7104SOL    HW222212   6.449   3.848   2.756
 7105SOL     OW22213   3.195   3.326   4.587
 7105SOL    HW122214   3.149   3.271   4.658
 7105SOL    HW222215   3.153   3.416   4.583
 7106SOL     OW22216   3.446   3.110   1.365
 7106SOL    HW122217   3.428   3.098   1.463
 7106SOL    HW222218   3.360   3.107   1.315
 7107SOL     OW22219   4.674   0.223   0.869
 7107SOL    HW122220   4.726   0.140   0.891
 7107SOL    HW222221   4.584   0.198   0.834
 7108SOL     OW22222   2.616   5.527   2.976
 7108SOL    HW122223   2.678   5.514   3.052
 7108SOL    HW222224   2.637   5.461   2.904
 7109SOL     OW22225   1.964   0.772   6.622
 7109SOL    HW122226   1.956   0.833   6.544
 7109SOL    HW222227   1.943   0.678   6.595
 7110SOL     OW22228   2.914   5.792   4.253
 7110SOL    HW122229   2.950   5.816   4.344
 7110SOL    HW222230   2.851   5.716   4.262
 7111SOL     OW22231   1.783   2.040   4.229
 7111SOL    HW122232   1.810   1.948   4.203
 7111SOL    HW222233   1.864   2.091   4.259
 7112SOL     OW22234   1.901   5.297   4.465
 7112SOL    HW122235   1.803   5.311   4.480
 7112SOL    HW222236   1.919   5.199   4.457
 7113SOL     OW22237   3.582   4.093   4.555
 7113SOL    HW122238   3.551   4.187   4.569
 7113SOL    HW222239   3.556   4.037   4.635
 7114SOL     OW22240   4.598   5.387   1.539
 7114SOL    HW122241   4.527   5.366   1.607
 7114SOL    HW222242   4.565   5.460   1.478
 7115SOL     OW22243   5.005   3.177   6.558
 7115SOL    HW122244   5.055   3.178   6.472
 7115SOL    HW222245   5.068   3.154   6.632
 7116SOL     OW22246   5.181   4.623   3.495
 7116SOL    HW122247   5.276   4.595   3.488
 7116SOL    HW222248   5.150   4.617   3.590
 7117SOL     OW22249   0.199   6.950   4.764
 7117SOL    HW122250   0.284   6.984   4.723
 7117SOL    HW222251   0.220   6.887   4.838
 7118SOL     OW22252   3.720   4.368   6.027
 7118SOL    HW122253   3.820   4.365   6.025
 7118SOL    HW222254   3.683   4.299   5.965
 7119SOL     OW22255   5.138   0.865   5.011
 7119SOL    HW122256   5.069   0.818   4.956
 7119SOL    HW222257   5.132   0.834   5.106
 7120SOL     OW22258   3.544   1.878   1.385
 7120SOL    HW122259   3.599   1.936   1.444
 7120SOL    HW222260   3.449   1.909   1.387
 7121SOL     OW22261   0.897   6.589   2.901
 7121SOL    HW122262   0.849   6.568   2.816
 7121SOL    HW222263   0.864   6.676   2.938
 7122SOL     OW22264   1.638   0.620   5.647
 7122SOL    HW122265   1.653   0.634   5.744
 7122SOL    HW222266   1.606   0.705   5.605
 7123SOL     OW22267   0.685   5.064   3.879
 7123SOL    HW122268   0.674   4.989   3.944
 7123SOL    HW222269   0.639   5.145   3.914
 7124SOL     OW22270   0.917   2.532   1.408
 7124SOL    HW122271   0.888   2.627   1.400
 7124SOL    HW222272   1.006   2.527   1.453
 7125SOL     OW22273   0.807   1.235   0.910
 7125SOL    HW122274   0.715   1.243   0.949
 7125SOL    HW222275   0.808   1.163   0.841
 7126SOL     OW22276   4.121   5.914   0.649
 7126SOL    HW122277   4.148   6.007   0.624
 7126SOL    HW222278   4.040   5.917   0.708
 7127SOL     OW22279   2.794   6.190   6.305
 7127SOL    HW122280   2.851   6.162   6.228
 7127SOL    HW222281   2.836   6.159   6.391
 7128SOL     OW22282   3.881   3.966   6.738
 7128SOL    HW122283   3.808   4.014   6.786
 7128SOL    HW222284   3.946   3.928   6.804
 7129SOL     OW22285   1.918   1.275   0.779
 7129SOL    HW122286   1.935   1.342   0.707
 7129SOL    HW222287   1.819   1.268   0.795
 7130SOL     OW22288   3.609   6.620   4.491
 7130SOL    HW122289   3.665   6.547   4.531
 7130SOL    HW222290   3.583   6.685   4.562
 7131SOL     OW22291   3.218   0.863   1.631
 7131SOL    HW122292   3.227   0.874   1.730
 7131SOL    HW222293   3.140   0.917   1.599
 7132SOL     OW22294   4.400   4.159   0.368
 7132SOL    HW122295   4.389   4.166   0.269
 7132SOL    HW222296   4.493   4.128   0.388
 7133SOL     OW22297   4.057   4.849   5.083
 7133SOL    HW122298   4.012   4.787   5.147
 7133SOL    HW222299   4.073   4.937   5.128
 7134SOL     OW22300   5.438   6.754   2.324
 7134SOL    HW122301   5.388   6.673   2.292
 7134SOL    HW222302   5.514   6.773   2.260
 7135SOL     OW22303   2.456   2.620   3.029
 7135SOL    HW122304   2.430   2.607   3.125
 7135SOL    HW222305   2.538   2.567   3.010
 7136SOL     OW22306   3.080   1.830   0.899
 7136SOL    HW122307   3.132   1.753   0.863
 7136SOL    HW222308   2.999   1.797   0.947
 7137SOL     OW22309   2.901   1.999   0.325
 7137SOL    HW122310   2.819   2.044   0.291
 7137SOL    HW222311   2.955   2.064   0.379
 7138SOL     OW22312   1.637   1.252   0.784
 7138SOL    HW122313   1.539   1.239   0.795
 7138SOL    HW222314   1.670   1.197   0.708
 7139SOL     OW22315   5.315   4.579   2.746
 7139SOL    HW122316   5.409   4.595   2.715
 7139SOL    HW222317   5.287   4.652   2.808
 7140SOL     OW22318   6.411   3.986   0.728
 7140SOL    HW122319   6.433   3.949   0.638
 7140SOL    HW222320   6.355   3.920   0.778
 7141SOL     OW22321   4.310   6.943   1.188
 7141SOL    HW122322   4.252   6.939   1.270
 7141SOL    HW222323   4.258   6.910   1.109
 7142SOL     OW22324   3.767   6.922   3.916
 7142SOL    HW122325   3.764   6.895   4.012
 7142SOL    HW222326   3.708   6.862   3.863
 7143SOL     OW22327   1.695   3.888   6.883
 7143SOL    HW122328   1.662   3.952   6.814
 7143SOL    HW222329   1.626   3.879   6.956
 7144SOL     OW22330   0.730   0.845   3.166
 7144SOL    HW122331   0.723   0.761   3.221
 7144SOL    HW222332   0.813   0.842   3.111
 7145SOL     OW22333   4.612   0.594   6.560
 7145SOL    HW122334   4.620   0.633   6.469
 7145SOL    HW222335   4.607   0.494   6.553
 7146SOL     OW22336   1.752   1.041   6.148
 7146SOL    HW122337   1.657   1.022   6.126
 7146SOL    HW222338   1.804   1.058   6.064
 7147SOL     OW22339   6.779   5.846   3.246
 7147SOL    HW122340   6.798   5.752   3.220
 7147SOL    HW222341   6.721   5.847   3.328
 7148SOL     OW22342   6.155   6.073   2.018
 7148SOL    HW122343   6.057   6.058   2.007
 7148SOL    HW222344   6.176   6.094   2.113
 7149SOL     OW22345   0.267   4.992   3.841
 7149SOL    HW122346   0.322   5.038   3.771
 7149SOL    HW222347   0.201   5.057   3.880
 7150SOL     OW22348   3.359   3.194   0.096
 7150SOL    HW122349   3.298   3.169   0.021
 7150SOL    HW222350   3.433   3.127   0.103
 7151SOL     OW22351   3.051   6.834   1.109
 7151SOL    HW122352   3.025   6.757   1.168
 7151SOL    HW222353   3.056   6.918   1.164
 7152SOL     OW22354   6.869   0.760   6.561
 7152SOL    HW122355   6.814   0.724   6.485
 7152SOL    HW222356   6.810   0.786   6.637
 7153SOL     OW22357   3.822   5.173   1.587
 7153SOL    HW122358   3.767   5.102   1.632
 7153SOL    HW222359   3.779   5.262   1.600
 7154SOL     OW22360   4.288   6.686   2.937
 7154SOL    HW122361   4.328   6.761   2.883
 7154SOL    HW222362   4.266   6.720   3.028
 7155SOL     OW22363   3.550   3.341   1.469
 7155SOL    HW122364   3.547   3.419   1.406
 7155SOL    HW222365   3.497   3.265   1.432
 7156SOL     OW22366   4.878   3.424   2.587
 7156SOL    HW122367   4.797   3.477   2.607
 7156SOL    HW222368   4.882   3.405   2.489
 7157SOL     OW22369   6.896   4.710   1.857
 7157SOL    HW122370   6.853   4.691   1.945
 7157SOL    HW222371   6.994   4.723   1.870
 7158SOL     OW22372   0.744   6.653   2.658
 7158SOL    HW122373   0.795   6.600   2.589
 7158SOL    HW222374   0.651   6.618   2.663
 7159SOL     OW22375   1.107   4.893   4.252
 7159SOL    HW122376   1.134   4.804   4.216
 7159SOL    HW222377   1.077   4.882   4.347
 7160SOL     OW22378   6.203   6.169   2.280
 7160SOL    HW122379   6.299   6.148   2.262
 7160SOL    HW222380   6.163   6.098   2.338
 7161SOL     OW22381   3.308   3.679   2.578
 7161SOL    HW122382   3.231   3.616   2.584
 7161SOL    HW222383   3.381   3.650   2.640
 7162SOL     OW22384   0.683   5.086   6.593
 7162SOL    HW122385   0.687   5.070   6.692
 7162SOL    HW222386   0.598   5.048   6.557
 7163SOL     OW22387   3.451   0.809   2.678
 7163SOL    HW122388   3.445   0.881   2.608
 7163SOL    HW222389   3.364   0.803   2.727
 7164SOL     OW22390   1.889   0.177   5.123
 7164SOL    HW122391   1.839   0.118   5.059
 7164SOL    HW222392   1.957   0.123   5.172
 7165SOL     OW22393   5.871   6.304   1.698
 7165SOL    HW122394   5.966   6.291   1.729
 7165SOL    HW222395   5.858   6.256   1.611
 7166SOL     OW22396   5.318   1.585   0.160
 7166SOL    HW122397   5.386   1.532   0.109
 7166SOL    HW222398   5.319   1.557   0.256
 7167SOL     OW22399   4.917   3.087   4.852
 7167SOL    HW122400   4.886   3.155   4.785
 7167SOL    HW222401   4.928   3.132   4.941
 7168SOL     OW22402   3.020   1.957   3.089
 7168SOL    HW122403   3.058   2.004   3.010
 7168SOL    HW222404   3.027   2.016   3.170
 7169SOL     OW22405   0.226   4.146   4.692
 7169SOL    HW122406   0.286   4.074   4.658
 7169SOL    HW222407   0.250   4.233   4.648
 7170SOL     OW22408   4.222   0.259   2.540
 7170SOL    HW122409   4.191   0.266   2.635
 7170SOL    HW222410   4.292   0.329   2.524
 7171SOL     OW22411   6.043   3.435   0.871
 7171SOL    HW122412   5.963   3.384   0.840
 7171SOL    HW222413   6.043   3.439   0.971
 7172SOL     OW22414   2.260   1.346   5.554
 7172SOL    HW122415   2.344   1.306   5.588
 7172SOL    HW222416   2.275   1.383   5.462
 7173SOL     OW22417   6.203   4.780   6.465
 7173SOL    HW122418   6.187   4.760   6.369
 7173SOL    HW222419   6.259   4.863   6.473
 7174SOL     OW22420   0.179   4.878   1.000
 7174SOL    HW122421   0.231   4.943   1.055
 7174SOL    HW222422   0.125   4.927   0.932
 7175SOL     OW22423   0.066   3.304   4.898
 7175SOL    HW122424   0.130   3.251   4.954
 7175SOL    HW222425   0.118   3.368   4.842
 7176SOL     OW22426   6.874   1.680   4.487
 7176SOL    HW122427   6.832   1.607   4.434
 7176SOL    HW222428   6.823   1.693   4.572
 7177SOL     OW22429   1.468   4.452   5.799
 7177SOL    HW122430   1.505   4.514   5.869
 7177SOL    HW222431   1.542   4.424   5.738
 7178SOL     OW22432   0.536   1.463   6.314
 7178SOL    HW122433   0.606   1.398   6.342
 7178SOL    HW222434   0.457   1.414   6.278
 7179SOL     OW22435   1.547   3.905   4.558
 7179SOL    HW122436   1.465   3.848   4.552
 7179SOL    HW222437   1.605   3.871   4.632
 7180SOL     OW22438   2.464   3.923   0.460
 7180SOL    HW122439   2.453   3.844   0.520
 7180SOL    HW222440   2.519   3.897   0.380
 7181SOL     OW22441   2.398   0.678   6.705
 7181SOL    HW122442   2.308   0.714   6.730
 7181SOL    HW222443   2.390   0.626   6.620
 7182SOL     OW22444   0.797   3.856   3.286
 7182SOL    HW122445   0.859   3.807   3.348
 7182SOL    HW222446   0.728   3.905   3.340
 7183SOL     OW22447   1.827   6.156   2.316
 7183SOL    HW122448   1.824   6.075   2.375
 7183SOL    HW222449   1.763   6.225   2.351
 7184SOL     OW22450   6.756   0.859   3.704
 7184SOL    HW122451   6.825   0.908   3.757
 7184SOL    HW222452   6.782   0.859   3.607
 7185SOL     OW22453   5.300   0.894   5.315
 7185SOL    HW122454   5.280   0.797   5.320
 7185SOL    HW222455   5.309   0.921   5.219
 7186SOL     OW22456   6.704   1.471   1.459
 7186SOL    HW122457   6.718   1.561   1.419
 7186SOL    HW222458   6.618   1.469   1.510
 7187SOL     OW22459   2.855   3.930   5.366
 7187SOL    HW122460   2.860   3.928   5.466
 7187SOL    HW222461   2.761   3.948   5.338
 7188SOL     OW22462   4.802   5.524   0.058
 7188SOL    HW122463   4.843   5.438   0.089
 7188SOL    HW222464   4.771   5.576   0.138
 7189SOL     OW22465   6.281   3.172   5.688
 7189SOL    HW122466   6.337   3.131   5.615
 7189SOL    HW222467   6.196   3.121   5.698
 7190SOL     OW22468   6.010   6.237   1.360
 7190SOL    HW122469   6.014   6.289   1.274
 7190SOL    HW222470   5.927   6.183   1.363
 7191SOL     OW22471   0.411   4.422   2.784
 7191SOL    HW122472   0.446   4.369   2.707
 7191SOL    HW222473   0.385   4.360   2.858
 7192SOL     OW22474   1.827   4.200   6.952
 7192SOL    HW122475   1.903   4.253   6.915
 7192SOL    HW222476   1.818   4.114   6.902
 7193SOL     OW22477   2.103   1.980   2.466
 7193SOL    HW122478   2.030   1.918   2.435
 7193SOL    HW222479   2.131   1.956   2.558
 7194SOL     OW22480   1.877   2.791   6.925
 7194SOL    HW122481   1.916   2.703   6.953
 7194SOL    HW222482   1.924   2.865   6.973
 7195SOL     OW22483   6.382   4.181   6.864
 7195SOL    HW122484   6.398   4.230   6.950
 7195SOL    HW222485   6.437   4.222   6.792
 7196SOL     OW22486   2.711   3.892   1.445
 7196SOL    HW122487   2.758   3.957   1.505
 7196SOL    HW222488   2.777   3.832   1.401
 7197SOL     OW22489   0.890   3.285   5.341
 7197SOL    HW122490   0.888   3.185   5.350
 7197SOL    HW222491   0.985   3.316   5.336
 7198SOL     OW22492   0.714   1.220   0.257
 7198SOL    HW122493   0.750   1.129   0.240
 7198SOL    HW222494   0.615   1.221   0.238
 7199SOL     OW22495   1.077   0.268   3.136
 7199SOL    HW122496   1.083   0.312   3.046
 7199SOL    HW222497   1.029   0.180   3.127
 7200SOL     OW22498   2.064   3.127   6.607
 7200SOL    HW122499   2.110   3.163   6.525
 7200SOL    HW222500   2.132   3.102   6.675
 7201SOL     OW22501   0.235   5.773   4.176
 7201SOL    HW122502   0.302   5.702   4.197
 7201SOL    HW222503   0.143   5.734   4.174
 7202SOL     OW22504   4.867   6.529   6.573
 7202SOL    HW122505   4.959   6.501   6.546
 7202SOL    HW222506   4.807   6.529   6.493
 7203SOL     OW22507   6.825   1.626   1.677
 7203SOL    HW122508   6.787   1.584   1.595
 7203SOL    HW222509   6.921   1.600   1.688
 7204SOL     OW22510   6.928   1.481   6.785
 7204SOL    HW122511   6.851   1.483   6.721
 7204SOL    HW222512   6.904   1.532   6.867
 7205SOL     OW22513   1.855   4.067   5.332
 7205SOL    HW122514   1.856   4.107   5.241
 7205SOL    HW222515   1.913   4.121   5.393
 7206SOL     OW22516   1.414   1.215   1.489
 7206SOL    HW122517   1.336   1.253   1.440
 7206SOL    HW222518   1.382   1.150   1.558
 7207SOL     OW22519   2.848   0.460   4.614
 7207SOL    HW122520   2.930   0.404   4.598
 7207SOL    HW222521   2.798   0.423   4.692
 7208SOL     OW22522   4.802   0.685   3.400
 7208SOL    HW122523   4.773   0.777   3.429
 7208SOL    HW222524   4.877   0.694   3.335
 7209SOL     OW22525   1.871   2.867   1.863
 7209SOL    HW122526   1.963   2.830   1.856
 7209SOL    HW222527   1.859   2.939   1.795
 7210SOL     OW22528   4.030   2.133   4.013
 7210SOL    HW122529   4.064   2.169   3.926
 7210SOL    HW222530   3.930   2.125   4.009
 7211SOL     OW22531   2.831   6.364   5.194
 7211SOL    HW122532   2.776   6.331   5.270
 7211SOL    HW222533   2.917   6.403   5.229
 7212SOL     OW22534   0.606   5.897   5.504
 7212SOL    HW122535   0.687   5.889   5.445
 7212SOL    HW222536   0.540   5.827   5.478
 7213SOL     OW22537   3.478   6.082   6.244
 7213SOL    HW122538   3.487   6.068   6.145
 7213SOL    HW222539   3.396   6.034   6.276
 7214SOL     OW22540   6.402   0.369   5.705
 7214SOL    HW122541   6.420   0.460   5.667
 7214SOL    HW222542   6.412   0.371   5.804
 7215SOL     OW22543   5.570   2.786   4.275
 7215SOL    HW122544   5.634   2.710   4.281
 7215SOL    HW222545   5.585   2.837   4.190
 7216SOL     OW22546   2.755   6.770   2.181
 7216SOL    HW122547   2.718   6.728   2.098
 7216SOL    HW222548   2.680   6.809   2.234
 7217SOL     OW22549   1.856   3.178   3.392
 7217SOL    HW122550   1.949   3.167   3.359
 7217SOL    HW222551   1.843   3.272   3.425
 7218SOL     OW22552   6.884   2.591   4.389
 7218SOL    HW122553   6.899   2.689   4.405
 7218SOL    HW222554   6.862   2.576   4.293
 7219SOL     OW22555   3.024   0.485   2.278
 7219SOL    HW122556   3.064   0.575   2.293
 7219SOL    HW222557   3.096   0.421   2.250
 7220SOL     OW22558   6.608   4.509   4.184
 7220SOL    HW122559   6.555   4.444   4.239
 7220SOL    HW222560   6.675   4.458   4.129
 7221SOL     OW22561   3.743   6.404   4.583
 7221SOL    HW122562   3.669   6.338   4.574
 7221SOL    HW222563   3.799   6.381   4.663
 7222SOL     OW22564   6.277   6.289   3.269
 7222SOL    HW122565   6.215   6.367   3.270
 7222SOL    HW222566   6.370   6.320   3.288
 7223SOL     OW22567   3.011   1.273   0.921
 7223SOL    HW122568   3.105   1.283   0.889
 7223SOL    HW222569   3.009   1.278   1.021
 7224SOL     OW22570   4.864   3.269   4.310
 7224SOL    HW122571   4.801   3.294   4.236
 7224SOL    HW222572   4.849   3.174   4.336
 7225SOL     OW22573   1.770   6.157   0.766
 7225SOL    HW122574   1.855   6.210   0.771
 7225SOL    HW222575   1.717   6.172   0.850
 7226SOL     OW22576   5.687   6.785   1.053
 7226SOL    HW122577   5.587   6.789   1.056
 7226SOL    HW222578   5.718   6.788   0.958
 7227SOL     OW22579   2.644   1.792   1.681
 7227SOL    HW122580   2.734   1.750   1.685
 7227SOL    HW222581   2.612   1.812   1.774
 7228SOL     OW22582   1.408   1.361   2.590
 7228SOL    HW122583   1.496   1.324   2.559
 7228SOL    HW222584   1.414   1.461   2.593
 7229SOL     OW22585   0.988   6.665   4.936
 7229SOL    HW122586   0.951   6.673   5.029
 7229SOL    HW222587   1.070   6.721   4.928
 7230SOL     OW22588   3.047   6.037   3.502
 7230SOL    HW122589   2.950   6.051   3.481
 7230SOL    HW222590   3.065   5.939   3.508
 7231SOL     OW22591   4.135   0.622   6.829
 7231SOL    HW122592   4.131   0.702   6.889
 7231SOL    HW222593   4.194   0.553   6.870
 7232SOL     OW22594   4.976   5.854   2.971
 7232SOL    HW122595   4.970   5.947   2.935
 7232SOL    HW222596   4.961   5.789   2.897
 7233SOL     OW22597   1.380   1.156   4.833
 7233SOL    HW122598   1.446   1.198   4.895
 7233SOL    HW222599   1.429   1.102   4.764
 7234SOL     OW22600   5.995   2.888   3.255
 7234SOL    HW122601   6.012   2.790   3.263
 7234SOL    HW222602   5.971   2.910   3.161
 7235SOL     OW22603   6.674   4.296   1.723
 7235SOL    HW122604   6.623   4.306   1.808
 7235SOL    HW222605   6.749   4.363   1.721
 7236SOL     OW22606   2.806   2.318   2.598
 7236SOL    HW122607   2.890   2.355   2.639
 7236SOL    HW222608   2.794   2.358   2.507
 7237SOL     OW22609   3.957   0.144   5.894
 7237SOL    HW122610   4.019   0.070   5.868
 7237SOL    HW222611   3.874   0.107   5.935
 7238SOL     OW22612   4.254   2.151   5.836
 7238SOL    HW122613   4.320   2.176   5.908
 7238SOL    HW222614   4.234   2.054   5.842
 7239SOL     OW22615   1.082   2.542   1.938
 7239SOL    HW122616   1.142   2.612   1.976
 7239SOL    HW222617   1.137   2.471   1.895
 7240SOL     OW22618   0.254   1.372   6.231
 7240SOL    HW122619   0.235   1.441   6.161
 7240SOL    HW222620   0.245   1.413   6.321
 7241SOL     OW22621   2.551   0.343   0.777
 7241SOL    HW122622   2.543   0.248   0.749
 7241SOL    HW222623   2.540   0.403   0.698
 7242SOL     OW22624   6.332   5.738   6.519
 7242SOL    HW122625   6.407   5.676   6.539
 7242SOL    HW222626   6.263   5.691   6.464
 7243SOL     OW22627   6.700   4.412   6.106
 7243SOL    HW122628   6.668   4.353   6.031
 7243SOL    HW222629   6.724   4.356   6.185
 7244SOL     OW22630   0.403   0.495   1.320
 7244SOL    HW122631   0.496   0.495   1.355
 7244SOL    HW222632   0.383   0.581   1.273
 7245SOL     OW22633   1.307   3.102   5.311
 7245SOL    HW122634   1.299   3.054   5.398
 7245SOL    HW222635   1.403   3.108   5.284
 7246SOL     OW22636   1.404   0.192   3.660
 7246SOL    HW122637   1.380   0.191   3.757
 7246SOL    HW222638   1.383   0.103   3.620
 7247SOL     OW22639   2.656   1.339   5.035
 7247SOL    HW122640   2.576   1.298   5.080
 7247SOL    HW222641   2.722   1.367   5.104
 7248SOL     OW22642   3.388   0.917   2.421
 7248SOL    HW122643   3.380   0.862   2.338
 7248SOL    HW222644   3.458   0.987   2.408
 7249SOL     OW22645   5.115   4.901   2.069
 7249SOL    HW122646   5.176   4.873   2.144
 7249SOL    HW222647   5.037   4.840   2.066
 7250SOL     OW22648   5.560   6.115   5.704
 7250SOL    HW122649   5.607   6.144   5.620
 7250SOL    HW222650   5.585   6.175   5.779
 7251SOL     OW22651   0.694   6.943   5.611
 7251SOL    HW122652   0.710   6.921   5.515
 7251SOL    HW222653   0.596   6.947   5.629
 7252SOL     OW22654   3.367   3.665   1.837
 7252SOL    HW122655   3.317   3.597   1.890
 7252SOL    HW222656   3.407   3.622   1.756
 7253SOL     OW22657   1.426   5.752   0.099
 7253SOL    HW122658   1.504   5.806   0.068
 7253SOL    HW222659   1.411   5.676   0.037
 7254SOL     OW22660   5.189   5.336   4.772
 7254SOL    HW122661   5.132   5.418   4.775
 7254SOL    HW222662   5.132   5.254   4.778
 7255SOL     OW22663   4.070   3.633   0.281
 7255SOL    HW122664   4.042   3.556   0.339
 7255SOL    HW222665   4.012   3.637   0.200
 7256SOL     OW22666   3.281   6.139   5.297
 7256SOL    HW122667   3.339   6.067   5.258
 7256SOL    HW222668   3.298   6.225   5.250
 7257SOL     OW22669   0.020   1.903   3.802
 7257SOL    HW122670   0.034   1.977   3.869
 7257SOL    HW222671   6.970   1.930   3.736
 7258SOL     OW22672   5.107   2.701   3.407
 7258SOL    HW122673   5.104   2.663   3.315
 7258SOL    HW222674   5.103   2.800   3.403
 7259SOL     OW22675   1.952   3.639   1.923
 7259SOL    HW122676   1.938   3.734   1.950
 7259SOL    HW222677   2.028   3.600   1.975
 7260SOL     OW22678   5.394   1.640   1.743
 7260SOL    HW122679   5.443   1.724   1.763
 7260SOL    HW222680   5.370   1.638   1.646
 7261SOL     OW22681   1.736   4.533   1.837
 7261SOL    HW122682   1.807   4.496   1.897
 7261SOL    HW222683   1.656   4.473   1.838
 7262SOL     OW22684   5.597   2.169   6.357
 7262SOL    HW122685   5.578   2.072   6.341
 7262SOL    HW222686   5.638   2.180   6.447
 7263SOL     OW22687   0.825   6.762   0.017
 7263SOL    HW122688   0.856   6.771   0.112
 7263SOL    HW222689   0.757   6.688   0.011
 7264SOL     OW22690   5.572   1.211   6.979
 7264SOL    HW122691   5.557   1.244   6.886
 7264SOL    HW222692   5.636   1.272   0.006
 7265SOL     OW22693   5.365   5.042   6.436
 7265SOL    HW122694   5.268   5.025   6.453
 7265SOL    HW222695   5.375   5.124   6.379
 7266SOL     OW22696   5.646   0.396   2.731
 7266SOL    HW122697   5.740   0.431   2.739
 7266SOL    HW222698   5.625   0.379   2.635
 7267SOL     OW22699   6.123   6.485   4.864
 7267SOL    HW122700   6.035   6.508   4.907
 7267SOL    HW222701   6.161   6.404   4.909
 7268SOL     OW22702   6.622   5.443   4.282
 7268SOL    HW122703   6.569   5.517   4.243
 7268SOL    HW222704   6.715   5.446   4.247
 7269SOL     OW22705   1.632   6.003   6.003
 7269SOL    HW122706   1.538   6.033   6.016
 7269SOL    HW222707   1.690   6.083   5.984
 7270SOL     OW22708   0.752   3.012   5.036
 7270SOL    HW122709   0.844   3.012   5.075
 7270SOL    HW222710   0.758   3.007   4.936
 7271SOL     OW22711   1.110   5.147   4.316
 7271SOL    HW122712   1.085   5.051   4.307
 7271SOL    HW222713   1.068   5.200   4.242
 7272SOL     OW22714   6.093   5.324   2.385
 7272SOL    HW122715   6.148   5.368   2.456
 7272SOL    HW222716   6.152   5.267   2.327
 7273SOL     OW22717   6.332   4.098   0.984
 7273SOL    HW122718   6.395   4.177   0.983
 7273SOL    HW222719   6.355   4.037   0.909
 7274SOL     OW22720   0.629   5.350   6.193
 7274SOL    HW122721   0.529   5.341   6.196
 7274SOL    HW222722   0.670   5.261   6.173
 7275SOL     OW22723   0.619   5.851   2.791
 7275SOL    HW122724   0.580   5.909   2.862
 7275SOL    HW222725   0.691   5.794   2.831
 7276SOL     OW22726   5.169   0.171   3.091
 7276SOL    HW122727   5.264   0.194   3.110
 7276SOL    HW222728   5.157   0.072   3.096
 7277SOL     OW22729   5.457   0.696   4.256
 7277SOL    HW122730   5.540   0.746   4.282
 7277SOL    HW222731   5.473   0.646   4.171
 7278SOL     OW22732   3.805   2.601   1.225
 7278SOL    HW122733   3.753   2.516   1.222
 7278SOL    HW222734   3.862   2.608   1.143
 7279SOL     OW22735   3.792   4.592   6.379
 7279SOL    HW122736   3.778   4.668   6.442
 7279SOL    HW222737   3.717   4.589   6.313
 7280SOL     OW22738   0.132   1.721   4.165
 7280SOL    HW122739   0.218   1.698   4.121
 7280SOL    HW222740   0.111   1.818   4.149
 7281SOL     OW22741   3.135   2.112   6.865
 7281SOL    HW122742   3.121   2.051   6.943
 7281SOL    HW222743   3.049   2.161   6.846
 7282SOL     OW22744   5.604   4.720   3.292
 7282SOL    HW122745   5.693   4.674   3.296
 7282SOL    HW222746   5.617   4.814   3.258
 7283SOL     OW22747   4.576   1.286   2.604
 7283SOL    HW122748   4.663   1.253   2.568
 7283SOL    HW222749   4.538   1.218   2.667
 7284SOL     OW22750   0.469   2.563   5.909
 7284SOL    HW122751   0.483   2.466   5.928
 7284SOL    HW222752   0.448   2.611   5.994
 7285SOL     OW22753   5.125   3.164   2.382
 7285SOL    HW122754   5.068   3.115   2.316
 7285SOL    HW222755   5.071   3.234   2.428
 7286SOL     OW22756   2.373   0.934   0.588
 7286SOL    HW122757   2.367   0.858   0.523
 7286SOL    HW222758   2.294   0.994   0.574
 7287SOL     OW22759   0.271   2.559   5.714
 7287SOL    HW122760   0.361   2.580   5.752
 7287SOL    HW222761   0.268   2.586   5.618
 7288SOL     OW22762   2.582   0.991   0.729
 7288SOL    HW122763   2.577   0.934   0.811
 7288SOL    HW222764   2.514   0.959   0.663
 7289SOL     OW22765   4.910   2.579   4.244
 7289SOL    HW122766   4.973   2.621   4.309
 7289SOL    HW222767   4.935   2.483   4.230
 7290SOL     OW22768   3.602   0.403   5.093
 7290SOL    HW122769   3.593   0.394   5.192
 7290SOL    HW222770   3.683   0.458   5.072
 7291SOL     OW22771   1.999   6.567   0.721
 7291SOL    HW122772   1.933   6.638   0.745
 7291SOL    HW222773   2.090   6.607   0.718
 7292SOL     OW22774   3.588   1.189   3.525
 7292SOL    HW122775   3.518   1.190   3.454
 7292SOL    HW222776   3.578   1.106   3.580
 7293SOL     OW22777   1.338   2.026   4.709
 7293SOL    HW122778   1.397   1.951   4.740
 7293SOL    HW222779   1.324   2.090   4.784
 7294SOL     OW22780   2.540   4.932   6.442
 7294SOL    HW122781   2.614   4.870   6.415
 7294SOL    HW222782   2.533   5.007   6.377
 7295SOL     OW22783   6.884   2.972   1.221
 7295SOL    HW122784   6.963   2.965   1.282
 7295SOL    HW222785   6.833   2.886   1.223
 7296SOL     OW22786   3.307   5.819   2.193
 7296SOL    HW122787   3.334   5.868   2.109
 7296SOL    HW222788   3.236   5.872   2.240
 7297SOL     OW22789   3.861   0.094   1.590
 7297SOL    HW122790   3.778   0.055   1.628
 7297SOL    HW222791   3.922   0.124   1.664
 7298SOL     OW22792   5.189   4.995   5.842
 7298SOL    HW122793   5.161   4.899   5.840
 7298SOL    HW222794   5.184   5.029   5.935
 7299SOL     OW22795   1.200   2.081   0.408
 7299SOL    HW122796   1.203   2.074   0.309
 7299SOL    HW222797   1.170   1.994   0.447
 7300SOL     OW22798   0.765   6.286   3.319
 7300SOL    HW122799   0.695   6.330   3.375
 7300SOL    HW222800   0.829   6.237   3.378
 7301SOL     OW22801   5.142   1.267   4.607
 7301SOL    HW122802   5.138   1.367   4.607
 7301SOL    HW222803   5.088   1.232   4.684
 7302SOL     OW22804   0.778   2.377   5.059
 7302SOL    HW122805   0.692   2.375   5.008
 7302SOL    HW222806   0.833   2.454   5.028
 7303SOL     OW22807   3.667   0.471   0.440
 7303SOL    HW122808   3.652   0.553   0.495
 7303SOL    HW222809   3.741   0.487   0.375
 7304SOL     OW22810   3.598   5.359   1.277
 7304SOL    HW122811   3.659   5.431   1.309
 7304SOL    HW222812   3.632   5.324   1.190
 7305SOL     OW22813   4.686   1.073   0.291
 7305SOL    HW122814   4.607   1.133   0.277
 7305SOL    HW222815   4.732   1.097   0.376
 7306SOL     OW22816   5.127   1.470   0.619
 7306SOL    HW122817   5.208   1.483   0.562
 7306SOL    HW222818   5.140   1.390   0.678
 7307SOL     OW22819   2.383   6.447   2.553
 7307SOL    HW122820   2.308   6.417   2.612
 7307SOL    HW222821   2.381   6.547   2.545
 7308SOL     OW22822   6.733   2.935   5.665
 7308SOL    HW122823   6.817   2.931   5.720
 7308SOL    HW222824   6.684   3.020   5.686
 7309SOL     OW22825   4.292   5.610   1.632
 7309SOL    HW122826   4.326   5.516   1.631
 7309SOL    HW222827   4.365   5.671   1.601
 7310SOL     OW22828   2.475   3.759   1.153
 7310SOL    HW122829   2.432   3.743   1.064
 7310SOL    HW222830   2.420   3.715   1.224
 7311SOL     OW22831   2.127   1.740   1.573
 7311SOL    HW122832   2.145   1.689   1.656
 7311SOL    HW222833   2.040   1.788   1.581
 7312SOL     OW22834   0.874   3.437   4.535
 7312SOL    HW122835   0.804   3.508   4.541
 7312SOL    HW222836   0.936   3.444   4.614
 7313SOL     OW22837   2.256   1.106   6.958
 7313SOL    HW122838   2.302   1.018   6.966
 7313SOL    HW222839   2.315   1.171   6.910
 7314SOL     OW22840   6.872   5.399   5.987
 7314SOL    HW122841   6.772   5.406   5.991
 7314SOL    HW222842   6.899   5.334   5.917
 7315SOL     OW22843   6.115   6.998   2.249
 7315SOL    HW122844   6.153   0.069   2.266
 7315SOL    HW222845   6.151   6.962   2.163
 7316SOL     OW22846   2.906   4.435   6.623
 7316SOL    HW122847   2.811   4.458   6.646
 7316SOL    HW222848   2.908   4.345   6.579
 7317SOL     OW22849   4.924   1.453   2.939
 7317SOL    HW122850   4.887   1.375   2.990
 7317SOL    HW222851   5.017   1.432   2.909
 7318SOL     OW22852   2.102   0.903   1.824
 7318SOL    HW122853   2.022   0.891   1.765
 7318SOL    HW222854   2.162   0.973   1.786
 7319SOL     OW22855   0.095   3.718   6.087
 7319SOL    HW122856   0.015   3.778   6.077
 7319SOL    HW222857   0.114   3.672   6.000
 7320SOL     OW22858   0.135   3.438   2.564
 7320SOL    HW122859   0.138   3.508   2.493
 7320SOL    HW222860   0.227   3.404   2.582
 7321SOL     OW22861   1.828   0.581   6.071
 7321SOL    HW122862   1.803   0.484   6.068
 7321SOL    HW222863   1.918   0.593   6.029
 7322SOL     OW22864   6.965   2.877   3.404
 7322SOL    HW122865   6.993   2.970   3.379
 7322SOL    HW222866   6.961   2.869   3.504
 7323SOL     OW22867   1.277   2.338   1.921
 7323SOL    HW122868   1.240   2.308   2.009
 7323SOL    HW222869   1.376   2.328   1.921
 7324SOL     OW22870   4.493   5.460   2.378
 7324SOL    HW122871   4.471   5.385   2.440
 7324SOL    HW222872   4.485   5.547   2.426
 7325SOL     OW22873   3.494   6.895   0.408
 7325SOL    HW122874   3.430   6.920   0.481
 7325SOL    HW222875   3.460   6.814   0.361
 7326SOL     OW22876   2.909   6.127   6.072
 7326SOL    HW122877   2.981   6.169   6.018
 7326SOL    HW222878   2.895   6.032   6.043
 7327SOL     OW22879   5.847   1.345   6.132
 7327SOL    HW122880   5.770   1.388   6.086
 7327SOL    HW222881   5.917   1.414   6.152
 7328SOL     OW22882   3.071   0.954   6.205
 7328SOL    HW122883   3.090   0.886   6.134
 7328SOL    HW222884   3.008   0.916   6.273
 7329SOL     OW22885   6.802   4.163   1.227
 7329SOL    HW122886   6.724   4.103   1.210
 7329SOL    HW222887   6.883   4.108   1.245
 7330SOL     OW22888   2.528   2.724   0.196
 7330SOL    HW122889   2.450   2.784   0.185
 7330SOL    HW222890   2.597   2.746   0.128
 7331SOL     OW22891   5.372   6.150   1.542
 7331SOL    HW122892   5.296   6.106   1.494
 7331SOL    HW222893   5.353   6.151   1.640
 7332SOL     OW22894   2.524   6.263   0.174
 7332SOL    HW122895   2.430   6.233   0.159
 7332SOL    HW222896   2.542   6.268   0.273
 7333SOL     OW22897   0.632   2.894   2.426
 7333SOL    HW122898   0.634   2.801   2.389
 7333SOL    HW222899   0.704   2.948   2.382
 7334SOL     OW22900   2.479   5.930   6.337
 7334SOL    HW122901   2.475   6.024   6.371
 7334SOL    HW222902   2.467   5.931   6.237
 7335SOL     OW22903   2.158   2.554   3.054
 7335SOL    HW122904   2.155   2.456   3.033
 7335SOL    HW222905   2.252   2.587   3.044
 7336SOL     OW22906   1.659   6.582   2.815
 7336SOL    HW122907   1.679   6.501   2.760
 7336SOL    HW222908   1.651   6.661   2.755
 7337SOL     OW22909   0.267   3.151   1.667
 7337SOL    HW122910   0.364   3.155   1.645
 7337SOL    HW222911   0.217   3.216   1.611
 7338SOL     OW22912   6.009   1.624   1.786
 7338SOL    HW122913   5.911   1.636   1.771
 7338SOL    HW222914   6.026   1.533   1.825
 7339SOL     OW22915   5.679   6.518   4.193
 7339SOL    HW122916   5.603   6.540   4.255
 7339SOL    HW222917   5.729   6.602   4.170
 7340SOL     OW22918   3.145   1.598   0.764
 7340SOL    HW122919   3.063   1.541   0.772
 7340SOL    HW222920   3.193   1.575   0.679
 7341SOL     OW22921   0.677   3.754   6.163
 7341SOL    HW122922   0.761   3.808   6.175
 7341SOL    HW222923   0.655   3.708   6.249
 7342SOL     OW22924   0.336   2.101   1.075
 7342SOL    HW122925   0.242   2.105   1.041
 7342SOL    HW222926   0.394   2.056   1.008
 7343SOL     OW22927   6.243   3.834   0.916
 7343SOL    HW122928   6.145   3.842   0.899
 7343SOL    HW222929   6.259   3.769   0.991
 7344SOL     OW22930   1.082   1.100   6.303
 7344SOL    HW122931   1.000   1.110   6.247
 7344SOL    HW222932   1.097   1.003   6.322
 7345SOL     OW22933   4.078   5.031   5.782
 7345SOL    HW122934   4.171   5.065   5.777
 7345SOL    HW222935   4.023   5.093   5.838
 7346SOL     OW22936   3.891   5.076   2.068
 7346SOL    HW122937   3.866   5.008   2.137
 7346SOL    HW222938   3.814   5.137   2.052
 7347SOL     OW22939   0.846   1.987   0.511
 7347SOL    HW122940   0.874   2.068   0.461
 7347SOL    HW222941   0.760   2.004   0.558
 7348SOL     OW22942   1.597   3.780   4.169
 7348SOL    HW122943   1.682   3.763   4.217
 7348SOL    HW222944   1.617   3.809   4.075
 7349SOL     OW22945   4.679   1.486   1.695
 7349SOL    HW122946   4.603   1.431   1.660
 7349SOL    HW222947   4.731   1.432   1.761
 7350SOL     OW22948   2.668   2.471   5.617
 7350SOL    HW122949   2.683   2.521   5.531
 7350SOL    HW222950   2.585   2.506   5.661
 7351SOL     OW22951   5.299   5.702   4.677
 7351SOL    HW122952   5.367   5.737   4.613
 7351SOL    HW222953   5.343   5.678   4.764
 7352SOL     OW22954   1.511   1.478   3.028
 7352SOL    HW122955   1.569   1.532   2.968
 7352SOL    HW222956   1.445   1.538   3.074
 7353SOL     OW22957   0.248   0.190   6.542
 7353SOL    HW122958   0.193   0.252   6.486
 7353SOL    HW222959   0.332   0.237   6.572
 7354SOL     OW22960   0.470   2.193   4.672
 7354SOL    HW122961   0.552   2.223   4.623
 7354SOL    HW222962   0.459   2.094   4.661
 7355SOL     OW22963   1.554   0.485   0.902
 7355SOL    HW122964   1.625   0.548   0.869
 7355SOL    HW222965   1.513   0.522   0.985
 7356SOL     OW22966   3.983   3.505   6.169
 7356SOL    HW122967   4.063   3.563   6.180
 7356SOL    HW222968   3.901   3.553   6.201
 7357SOL     OW22969   3.116   0.022   1.901
 7357SOL    HW122970   3.130   6.950   1.940
 7357SOL    HW222971   3.025   0.054   1.924
 7358SOL     OW22972   6.125   3.189   2.752
 7358SOL    HW122973   6.208   3.148   2.788
 7358SOL    HW222974   6.148   3.274   2.704
 7359SOL     OW22975   3.987   1.955   5.671
 7359SOL    HW122976   4.023   2.037   5.627
 7359SOL    HW222977   3.892   1.971   5.698
 7360SOL     OW22978   2.997   3.143   5.714
 7360SOL    HW122979   3.043   3.054   5.717
 7360SOL    HW222980   3.041   3.200   5.644
 7361SOL     OW22981   5.041   0.713   2.107
 7361SOL    HW122982   5.096   0.676   2.032
 7361SOL    HW222983   5.034   0.813   2.097
 7362SOL     OW22984   1.362   5.535   6.547
 7362SOL    HW122985   1.411   5.609   6.500
 7362SOL    HW222986   1.304   5.573   6.618
 7363SOL     OW22987   4.809   1.799   0.907
 7363SOL    HW122988   4.716   1.834   0.920
 7363SOL    HW222989   4.866   1.869   0.863
 7364SOL     OW22990   4.615   0.733   1.613
 7364SOL    HW122991   4.657   0.798   1.549
 7364SOL    HW222992   4.549   0.676   1.564
 7365SOL     OW22993   0.452   5.981   2.079
 7365SOL    HW122994   0.464   5.925   1.997
 7365SOL    HW222995   0.355   6.000   2.094
 7366SOL     OW22996   2.106   6.376   6.622
 7366SOL    HW122997   2.061   6.295   6.659
 7366SOL    HW222998   2.204   6.357   6.608
 7367SOL     OW22999   5.421   2.764   1.116
 7367SOL    HW123000   5.374   2.755   1.204
 7367SOL    HW223001   5.354   2.771   1.042
 7368SOL     OW23002   3.829   2.950   2.609
 7368SOL    HW123003   3.837   2.960   2.708
 7368SOL    HW223004   3.913   2.981   2.565
 7369SOL     OW23005   3.397   2.083   0.328
 7369SOL    HW123006   3.487   2.040   0.327
 7369SOL    HW223007   3.372   2.110   0.234
 7370SOL     OW23008   2.604   0.670   4.858
 7370SOL    HW123009   2.685   0.728   4.867
 7370SOL    HW223010   2.628   0.576   4.880
 7371SOL     OW23011   2.384   7.013   3.650
 7371SOL    HW123012   2.322   0.048   3.705
 7371SOL    HW223013   2.419   0.048   3.574
 7372SOL     OW23014   4.618   0.360   3.982
 7372SOL    HW123015   4.559   0.288   3.946
 7372SOL    HW223016   4.594   0.378   4.078
 7373SOL     OW23017   6.163   1.640   3.785
 7373SOL    HW123018   6.132   1.545   3.789
 7373SOL    HW223019   6.263   1.644   3.797
 7374SOL     OW23020   2.978   1.851   5.070
 7374SOL    HW123021   2.958   1.941   5.031
 7374SOL    HW223022   3.073   1.849   5.102
 7375SOL     OW23023   2.142   2.283   2.234
 7375SOL    HW123024   2.178   2.197   2.198
 7375SOL    HW223025   2.142   2.280   2.334
 7376SOL     OW23026   1.572   1.728   0.792
 7376SOL    HW123027   1.528   1.742   0.880
 7376SOL    HW223028   1.607   1.635   0.786
 7377SOL     OW23029   5.171   4.621   0.626
 7377SOL    HW123030   5.162   4.718   0.650
 7377SOL    HW223031   5.265   4.591   0.644
 7378SOL     OW23032   0.408   0.836   5.824
 7378SOL    HW123033   0.426   0.743   5.795
 7378SOL    HW223034   0.404   0.896   5.743
 7379SOL     OW23035   3.087   1.816   2.562
 7379SOL    HW123036   2.989   1.825   2.582
 7379SOL    HW223037   3.132   1.765   2.635
 7380SOL     OW23038   6.950   4.484   3.579
 7380SOL    HW123039   6.969   4.560   3.516
 7380SOL    HW223040   0.015   4.454   3.622
 7381SOL     OW23041   4.202   3.098   0.578
 7381SOL    HW123042   4.269   3.030   0.551
 7381SOL    HW223043   4.113   3.074   0.540
 7382SOL     OW23044   0.298   0.936   5.346
 7382SOL    HW123045   0.313   0.986   5.261
 7382SOL    HW223046   0.380   0.884   5.369
 7383SOL     OW23047   2.760   6.622   0.667
 7383SOL    HW123048   2.746   6.525   0.688
 7383SOL    HW223049   2.814   6.664   0.740
 7384SOL     OW23050   6.581   6.174   2.895
 7384SOL    HW123051   6.488   6.204   2.873
 7384SOL    HW223052   6.581   6.075   2.910
 7385SOL     OW23053   3.321   5.259   2.517
 7385SOL    HW123054   3.412   5.227   2.544
 7385SOL    HW223055   3.252   5.218   2.577
 7386SOL     OW23056   0.120   2.490   0.121
 7386SOL    HW123057   0.080   2.558   0.183
 7386SOL    HW223058   0.108   2.521   0.026
 7387SOL     OW23059   6.220   5.572   5.985
 7387SOL    HW123060   6.264   5.607   5.903
 7387SOL    HW223061   6.290   5.552   6.055
 7388SOL     OW23062   1.176   5.109   1.685
 7388SOL    HW123063   1.200   5.030   1.628
 7388SOL    HW223064   1.100   5.086   1.744
 7389SOL     OW23065   5.700   3.651   6.335
 7389SOL    HW123066   5.681   3.554   6.349
 7389SOL    HW223067   5.670   3.679   6.244
 7390SOL     OW23068   1.817   2.525   1.741
 7390SOL    HW123069   1.899   2.468   1.732
 7390SOL    HW223070   1.824   2.579   1.825
 7391SOL     OW23071   4.023   3.260   3.696
 7391SOL    HW123072   4.037   3.359   3.697
 7391SOL    HW223073   4.059   3.221   3.781
 7392SOL     OW23074   3.216   5.526   6.518
 7392SOL    HW123075   3.299   5.480   6.550
 7392SOL    HW223076   3.176   5.579   6.593
 7393SOL     OW23077   6.206   4.621   2.435
 7393SOL    HW123078   6.257   4.564   2.499
 7393SOL    HW223079   6.246   4.613   2.344
 7394SOL     OW23080   1.969   3.021   5.704
 7394SOL    HW123081   2.030   3.099   5.719
 7394SOL    HW223082   1.981   2.955   5.778
 7395SOL     OW23083   1.900   3.665   1.318
 7395SOL    HW123084   1.934   3.759   1.312
 7395SOL    HW223085   1.968   3.603   1.279
 7396SOL     OW23086   2.241   6.710   1.298
 7396SOL    HW123087   2.320   6.654   1.321
 7396SOL    HW223088   2.271   6.799   1.265
 7397SOL     OW23089   4.881   5.884   4.736
 7397SOL    HW123090   4.815   5.809   4.730
 7397SOL    HW223091   4.968   5.849   4.771
 7398SOL     OW23092   1.411   4.468   3.759
 7398SOL    HW123093   1.365   4.455   3.848
 7398SOL    HW223094   1.436   4.379   3.721
 7399SOL     OW23095   0.639   2.688   4.376
 7399SOL    HW123096   0.611   2.612   4.317
 7399SOL    HW223097   0.585   2.688   4.460
 7400SOL     OW23098   4.213   2.987   5.726
 7400SOL    HW123099   4.163   2.925   5.787
 7400SOL    HW223100   4.148   3.031   5.664
 7401SOL     OW23101   1.227   2.628   3.654
 7401SOL    HW123102   1.316   2.593   3.684
 7401SOL    HW223103   1.161   2.554   3.652
 7402SOL     OW23104   3.264   4.671   6.278
 7402SOL    HW123105   3.185   4.693   6.221
 7402SOL    HW223106   3.278   4.744   6.344
 7403SOL     OW23107   1.553   4.213   2.113
 7403SOL    HW123108   1.618   4.144   2.145
 7403SOL    HW223109   1.580   4.303   2.146
 7404SOL     OW23110   2.769   4.351   1.677
 7404SOL    HW123111   2.715   4.407   1.615
 7404SOL    HW223112   2.814   4.409   1.745
 7405SOL     OW23113   3.429   4.960   4.189
 7405SOL    HW123114   3.515   4.976   4.238
 7405SOL    HW223115   3.365   5.034   4.209
 7406SOL     OW23116   0.249   2.476   3.672
 7406SOL    HW123117   0.307   2.399   3.697
 7406SOL    HW223118   0.167   2.442   3.625
 7407SOL     OW23119   0.593   6.742   5.299
 7407SOL    HW123120   0.541   6.822   5.330
 7407SOL    HW223121   0.597   6.742   5.199
 7408SOL     OW23122   3.481   4.087   6.311
 7408SOL    HW123123   3.546   4.156   6.277
 7408SOL    HW223124   3.512   4.054   6.400
 7409SOL     OW23125   5.042   3.337   0.015
 7409SOL    HW123126   5.092   3.343   0.101
 7409SOL    HW223127   5.069   3.254   6.986
 7410SOL     OW23128   0.563   0.631   0.379
 7410SOL    HW123129   0.476   0.606   0.423
 7410SOL    HW223130   0.582   0.566   0.305
 7411SOL     OW23131   2.033   1.137   6.773
 7411SOL    HW123132   2.111   1.106   6.827
 7411SOL    HW223133   2.009   1.230   6.800
 7412SOL     OW23134   4.477   0.497   1.520
 7412SOL    HW123135   4.471   0.419   1.583
 7412SOL    HW223136   4.504   0.465   1.430
 7413SOL     OW23137   4.556   4.991   3.407
 7413SOL    HW123138   4.481   4.950   3.355
 7413SOL    HW223139   4.575   5.082   3.372
 7414SOL     OW23140   0.959   0.908   3.042
 7414SOL    HW123141   1.011   0.929   2.959
 7414SOL    HW223142   0.926   0.993   3.083
 7415SOL     OW23143   1.872   4.472   4.433
 7415SOL    HW123144   1.826   4.402   4.378
 7415SOL    HW223145   1.828   4.560   4.419
 7416SOL     OW23146   1.779   0.874   1.989
 7416SOL    HW123147   1.694   0.912   2.027
 7416SOL    HW223148   1.792   0.908   1.896
 7417SOL     OW23149   2.112   2.269   1.317
 7417SOL    HW123150   2.105   2.269   1.217
 7417SOL    HW223151   2.090   2.178   1.352
 7418SOL     OW23152   1.624   5.440   0.499
 7418SOL    HW123153   1.558   5.478   0.435
 7418SOL    HW223154   1.643   5.506   0.571
 7419SOL     OW23155   6.608   3.866   4.252
 7419SOL    HW123156   6.692   3.813   4.267
 7419SOL    HW223157   6.630   3.963   4.250
 7420SOL     OW23158   0.679   6.099   1.798
 7420SOL    HW123159   0.637   6.157   1.729
 7420SOL    HW223160   0.643   6.006   1.789
 7421SOL     OW23161   4.669   3.533   1.219
 7421SOL    HW123162   4.622   3.514   1.305
 7421SOL    HW223163   4.759   3.572   1.238
 7422SOL     OW23164   0.338   4.402   1.896
 7422SOL    HW123165   0.413   4.337   1.886
 7422SOL    HW223166   0.345   4.446   1.986
 7423SOL     OW23167   5.946   2.928   5.346
 7423SOL    HW123168   5.902   2.907   5.434
 7423SOL    HW223169   6.040   2.894   5.346
 7424SOL     OW23170   6.468   1.158   5.704
 7424SOL    HW123171   6.479   1.060   5.719
 7424SOL    HW223172   6.546   1.207   5.743
 7425SOL     OW23173   4.792   6.907   0.407
 7425SOL    HW123174   4.881   6.946   0.430
 7425SOL    HW223175   4.805   6.826   0.350
 7426SOL     OW23176   3.253   1.695   5.065
 7426SOL    HW123177   3.340   1.740   5.085
 7426SOL    HW223178   3.189   1.711   5.140
 7427SOL     OW23179   5.380   0.738   3.515
 7427SOL    HW123180   5.389   0.670   3.442
 7427SOL    HW223181   5.459   0.733   3.576
 7428SOL     OW23182   4.226   1.678   5.036
 7428SOL    HW123183   4.215   1.733   5.119
 7428SOL    HW223184   4.172   1.718   4.963
 7429SOL     OW23185   0.349   6.303   4.258
 7429SOL    HW123186   0.299   6.303   4.171
 7429SOL    HW223187   0.359   6.397   4.290
 7430SOL     OW23188   1.271   3.617   0.975
 7430SOL    HW123189   1.257   3.683   0.902
 7430SOL    HW223190   1.205   3.634   1.048
 7431SOL     OW23191   0.648   2.751   3.244
 7431SOL    HW123192   0.616   2.794   3.160
 7431SOL    HW223193   0.574   2.749   3.311
 7432SOL     OW23194   1.654   0.751   3.300
 7432SOL    HW123195   1.627   0.847   3.296
 7432SOL    HW223196   1.589   0.700   3.355
 7433SOL     OW23197   4.486   6.227   6.136
 7433SOL    HW123198   4.552   6.152   6.131
 7433SOL    HW223199   4.400   6.192   6.173
 7434SOL     OW23200   4.837   5.079   5.280
 7434SOL    HW123201   4.746   5.111   5.251
 7434SOL    HW223202   4.881   5.033   5.203
 7435SOL     OW23203   4.135   6.130   1.342
 7435SOL    HW123204   4.210   6.065   1.350
 7435SOL    HW223205   4.157   6.199   1.273
 7436SOL     OW23206   4.244   4.197   6.695
 7436SOL    HW123207   4.222   4.115   6.749
 7436SOL    HW223208   4.205   4.278   6.740
 7437SOL     OW23209   2.001   6.135   6.701
 7437SOL    HW123210   1.904   6.153   6.685
 7437SOL    HW223211   2.028   6.053   6.651
 7438SOL     OW23212   0.985   6.451   0.469
 7438SOL    HW123213   1.041   6.375   0.501
 7438SOL    HW223214   0.925   6.420   0.395
 7439SOL     OW23215   1.928   6.236   6.234
 7439SOL    HW123216   1.911   6.334   6.234
 7439SOL    HW223217   1.996   6.215   6.163
 7440SOL     OW23218   0.066   2.901   3.709
 7440SOL    HW123219   6.995   2.943   3.701
 7440SOL    HW223220   0.119   2.951   3.777
 7441SOL     OW23221   5.600   0.171   4.374
 7441SOL    HW123222   5.542   0.134   4.302
 7441SOL    HW223223   5.619   0.100   4.442
 7442SOL     OW23224   6.107   1.690   6.642
 7442SOL    HW123225   6.189   1.633   6.637
 7442SOL    HW223226   6.111   1.761   6.572
 7443SOL     OW23227   6.555   6.190   1.399
 7443SOL    HW123228   6.625   6.201   1.470
 7443SOL    HW223229   6.587   6.233   1.314
 7444SOL     OW23230   5.144   2.328   0.142
 7444SOL    HW123231   5.215   2.311   0.074
 7444SOL    HW223232   5.071   2.260   0.133
 7445SOL     OW23233   3.550   0.476   1.010
 7445SOL    HW123234   3.555   0.540   0.934
 7445SOL    HW223235   3.513   0.522   1.091
 7446SOL     OW23236   5.461   3.050   0.285
 7446SOL    HW123237   5.448   2.969   0.228
 7446SOL    HW223238   5.548   3.043   0.334
 7447SOL     OW23239   6.719   4.135   6.743
 7447SOL    HW123240   6.652   4.150   6.670
 7447SOL    HW223241   6.811   4.145   6.705
 7448SOL     OW23242   6.309   6.704   5.122
 7448SOL    HW123243   6.398   6.697   5.079
 7448SOL    HW223244   6.270   6.612   5.134
 7449SOL     OW23245   0.792   4.812   1.213
 7449SOL    HW123246   0.732   4.804   1.293
 7449SOL    HW223247   0.759   4.885   1.153
 7450SOL     OW23248   5.395   2.942   4.617
 7450SOL    HW123249   5.319   2.991   4.660
 7450SOL    HW223250   5.359   2.867   4.562
 7451SOL     OW23251   6.839   6.004   2.642
 7451SOL    HW123252   6.873   5.984   2.733
 7451SOL    HW223253   6.874   5.936   2.577
 7452SOL     OW23254   6.166   5.973   4.199
 7452SOL    HW123255   6.120   5.888   4.226
 7452SOL    HW223256   6.154   6.041   4.271
 7453SOL     OW23257   5.555   5.082   4.748
 7453SOL    HW123258   5.575   4.986   4.730
 7453SOL    HW223259   5.631   5.123   4.799
 7454SOL     OW23260   1.739   1.950   0.853
 7454SOL    HW123261   1.682   1.881   0.808
 7454SOL    HW223262   1.736   1.936   0.952
 7455SOL     OW23263   6.934   2.935   1.879
 7455SOL    HW123264   6.955   2.863   1.813
 7455SOL    HW223265   6.848   2.913   1.926
 7456SOL     OW23266   1.666   0.913   4.745
 7456SOL    HW123267   1.642   0.985   4.679
 7456SOL    HW223268   1.762   0.923   4.771
 7457SOL     OW23269   3.011   0.970   5.234
 7457SOL    HW123270   3.014   1.049   5.173
 7457SOL    HW223271   3.027   0.887   5.181
 7458SOL     OW23272   1.763   0.499   6.363
 7458SOL    HW123273   1.838   0.470   6.422
 7458SOL    HW223274   1.789   0.486   6.268
 7459SOL     OW23275   5.364   0.821   2.082
 7459SOL    HW123276   5.318   0.888   2.140
 7459SOL    HW223277   5.343   0.728   2.113
 7460SOL     OW23278   0.661   5.211   0.556
 7460SOL    HW123279   0.734   5.143   0.543
 7460SOL    HW223280   0.693   5.300   0.522
 7461SOL     OW23281   6.267   0.373   6.827
 7461SOL    HW123282   6.204   0.305   6.788
 7461SOL    HW223283   6.243   0.389   6.923
 7462SOL     OW23284   1.541   4.540   2.071
 7462SOL    HW123285   1.608   4.494   2.012
 7462SOL    HW223286   1.457   4.558   2.018
 7463SOL     OW23287   3.142   4.387   0.285
 7463SOL    HW123288   3.048   4.403   0.255
 7463SOL    HW223289   3.142   4.334   0.370
 7464SOL     OW23290   5.540   6.760   6.062
 7464SOL    HW123291   5.510   6.707   6.141
 7464SOL    HW223292   5.541   6.858   6.085
 7465SOL     OW23293   2.565   5.424   6.358
 7465SOL    HW123294   2.644   5.440   6.298
 7465SOL    HW223295   2.566   5.491   6.433
 7466SOL     OW23296   6.827   0.622   5.239
 7466SOL    HW123297   6.874   0.589   5.157
 7466SOL    HW223298   6.762   0.694   5.213
 7467SOL     OW23299   0.229   1.561   6.465
 7467SOL    HW123300   0.275   1.575   6.553
 7467SOL    HW223301   0.264   1.627   6.398
 7468SOL     OW23302   5.643   3.096   3.917
 7468SOL    HW123303   5.580   3.137   3.982
 7468SOL    HW223304   5.657   3.159   3.840
 7469SOL     OW23305   0.141   0.237   6.805
 7469SOL    HW123306   0.123   0.296   6.726
 7469SOL    HW223307   0.153   0.143   6.774
 7470SOL     OW23308   5.803   3.339   3.457
 7470SOL    HW123309   5.717   3.297   3.427
 7470SOL    HW223310   5.793   3.373   3.550
 7471SOL     OW23311   4.725   6.595   5.958
 7471SOL    HW123312   4.702   6.691   5.940
 7471SOL    HW223313   4.816   6.590   5.999
 7472SOL     OW23314   6.211   0.692   5.936
 7472SOL    HW123315   6.238   0.762   5.870
 7472SOL    HW223316   6.116   0.706   5.963
 7473SOL     OW23317   5.233   5.452   3.753
 7473SOL    HW123318   5.193   5.436   3.843
 7473SOL    HW223319   5.165   5.496   3.694
 7474SOL     OW23320   7.010   1.917   6.153
 7474SOL    HW123321   6.924   1.868   6.169
 7474SOL    HW223322   7.004   1.968   6.068
 7475SOL     OW23323   4.761   2.485   2.263
 7475SOL    HW123324   4.824   2.548   2.309
 7475SOL    HW223325   4.802   2.456   2.176
 7476SOL     OW23326   3.271   1.116   3.099
 7476SOL    HW123327   3.343   1.082   3.039
 7476SOL    HW223328   3.251   1.212   3.077
 7477SOL     OW23329   6.624   2.264   5.121
 7477SOL    HW123330   6.648   2.168   5.136
 7477SOL    HW223331   6.625   2.284   5.023
 7478SOL     OW23332   6.288   3.897   5.726
 7478SOL    HW123333   6.254   3.989   5.744
 7478SOL    HW223334   6.256   3.867   5.636
 7479SOL     OW23335   4.397   2.286   1.975
 7479SOL    HW123336   4.392   2.292   2.075
 7479SOL    HW223337   4.469   2.221   1.950
 7480SOL     OW23338   1.537   4.995   2.139
 7480SOL    HW123339   1.614   4.933   2.150
 7480SOL    HW223340   1.453   4.949   2.164
 7481SOL     OW23341   5.970   5.515   1.119
 7481SOL    HW123342   6.022   5.450   1.064
 7481SOL    HW223343   6.033   5.575   1.169
 7482SOL     OW23344   4.513   2.367   2.921
 7482SOL    HW123345   4.566   2.410   2.995
 7482SOL    HW223346   4.538   2.410   2.834
 7483SOL     OW23347   5.090   3.396   4.477
 7483SOL    HW123348   4.991   3.387   4.472
 7483SOL    HW223349   5.131   3.306   4.493
 7484SOL     OW23350   1.359   6.107   4.181
 7484SOL    HW123351   1.392   6.198   4.209
 7484SOL    HW223352   1.357   6.101   4.081
 7485SOL     OW23353   2.236   0.248   4.734
 7485SOL    HW123354   2.284   0.167   4.702
 7485SOL    HW223355   2.137   0.236   4.722
 7486SOL     OW23356   1.404   6.579   0.300
 7486SOL    HW123357   1.395   6.535   0.211
 7486SOL    HW223358   1.480   6.539   0.351
 7487SOL     OW23359   2.258   0.759   2.779
 7487SOL    HW123360   2.176   0.759   2.837
 7487SOL    HW223361   2.335   0.720   2.830
 7488SOL     OW23362   2.796   5.480   5.297
 7488SOL    HW123363   2.887   5.518   5.313
 7488SOL    HW223364   2.736   5.506   5.374
 7489SOL     OW23365   6.714   2.988   6.417
 7489SOL    HW123366   6.643   2.998   6.486
 7489SOL    HW223367   6.768   2.906   6.436
 7490SOL     OW23368   1.172   0.387   3.547
 7490SOL    HW123369   1.224   0.459   3.501
 7490SOL    HW223370   1.233   0.333   3.606
 7491SOL     OW23371   4.431   3.179   6.552
 7491SOL    HW123372   4.362   3.208   6.618
 7491SOL    HW223373   4.522   3.195   6.590
 7492SOL     OW23374   1.954   0.642   3.701
 7492SOL    HW123375   1.887   0.692   3.756
 7492SOL    HW223376   1.938   0.660   3.604
 7493SOL     OW23377   0.655   2.556   6.443
 7493SOL    HW123378   0.591   2.594   6.509
 7493SOL    HW223379   0.675   2.624   6.372
 7494SOL     OW23380   5.971   1.331   3.106
 7494SOL    HW123381   6.049   1.387   3.078
 7494SOL    HW223382   5.977   1.312   3.204
 7495SOL     OW23383   1.733   2.475   6.789
 7495SOL    HW123384   1.788   2.455   6.707
 7495SOL    HW223385   1.709   2.572   6.790
 7496SOL     OW23386   6.375   3.844   4.122
 7496SOL    HW123387   6.447   3.837   4.191
 7496SOL    HW223388   6.314   3.919   4.145
 7497SOL     OW23389   2.079   4.329   1.353
 7497SOL    HW123390   2.010   4.316   1.282
 7497SOL    HW223391   2.067   4.260   1.424
 7498SOL     OW23392   3.139   1.070   4.667
 7498SOL    HW123393   3.058   1.098   4.720
 7498SOL    HW223394   3.221   1.106   4.711
 7499SOL     OW23395   4.422   1.923   3.178
 7499SOL    HW123396   4.344   1.897   3.234
 7499SOL    HW223397   4.495   1.960   3.236
 7500SOL     OW23398   3.576   5.824   3.293
 7500SOL    HW123399   3.618   5.746   3.338
 7500SOL    HW223400   3.644   5.896   3.280
 7501SOL     OW23401   5.064   4.169   4.495
 7501SOL    HW123402   5.087   4.095   4.432
 7501SOL    HW223403   4.967   4.165   4.517
 7502SOL     OW23404   3.331   0.897   4.681
 7502SOL    HW123405   3.247   0.945   4.655
 7502SOL    HW223406   3.409   0.958   4.668
 7503SOL     OW23407   2.520   0.004   1.289
 7503SOL    HW123408   2.435   6.999   1.335
 7503SOL    HW223409   2.598   6.994   1.344
 7504SOL     OW23410   0.784   6.345   3.717
 7504SOL    HW123411   0.847   6.308   3.650
 7504SOL    HW223412   0.774   6.281   3.793
 7505SOL     OW23413   1.155   2.664   6.117
 7505SOL    HW123414   1.231   2.625   6.064
 7505SOL    HW223415   1.188   2.744   6.166
 7506SOL     OW23416   5.269   2.334   3.806
 7506SOL    HW123417   5.285   2.317   3.709
 7506SOL    HW223418   5.345   2.386   3.844
 7507SOL     OW23419   5.920   1.877   2.711
 7507SOL    HW123420   5.952   1.834   2.626
 7507SOL    HW223421   5.887   1.969   2.691
 7508SOL     OW23422   2.126   5.815   0.857
 7508SOL    HW123423   2.189   5.828   0.780
 7508SOL    HW223424   2.033   5.835   0.827
 7509SOL     OW23425   6.057   4.175   0.901
 7509SOL    HW123426   6.148   4.171   0.944
 7509SOL    HW223427   6.061   4.135   0.810
 7510SOL     OW23428   3.538   3.567   4.953
 7510SOL    HW123429   3.472   3.570   4.878
 7510SOL    HW223430   3.629   3.589   4.918
 7511SOL     OW23431   2.886   5.938   3.185
 7511SOL    HW123432   2.850   5.849   3.214
 7511SOL    HW223433   2.969   5.959   3.237
 7512SOL     OW23434   2.921   0.821   6.656
 7512SOL    HW123435   2.892   0.750   6.720
 7512SOL    HW223436   2.911   0.911   6.699
 7513SOL     OW23437   0.962   1.316   1.864
 7513SOL    HW123438   0.948   1.235   1.806
 7513SOL    HW223439   0.925   1.397   1.818
 7514SOL     OW23440   2.333   4.899   2.863
 7514SOL    HW123441   2.354   4.986   2.818
 7514SOL    HW223442   2.234   4.887   2.866
 7515SOL     OW23443   6.975   4.784   4.421
 7515SOL    HW123444   6.953   4.697   4.376
 7515SOL    HW223445   0.038   4.822   4.379
 7516SOL     OW23446   6.827   5.430   6.353
 7516SOL    HW123447   6.829   5.517   6.402
 7516SOL    HW223448   6.915   5.414   6.309
 7517SOL     OW23449   0.773   2.243   0.009
 7517SOL    HW123450   0.744   2.321   0.064
 7517SOL    HW223451   0.788   2.272   6.934
 7518SOL     OW23452   4.876   3.745   4.295
 7518SOL    HW123453   4.962   3.694   4.287
 7518SOL    HW223454   4.862   3.772   4.390
 7519SOL     OW23455   6.437   6.285   4.720
 7519SOL    HW123456   6.464   6.365   4.774
 7519SOL    HW223457   6.451   6.202   4.773
 7520SOL     OW23458   2.026   0.275   3.127
 7520SOL    HW123459   1.993   0.201   3.186
 7520SOL    HW223460   2.116   0.305   3.159
 7521SOL     OW23461   4.980   2.779   5.366
 7521SOL    HW123462   5.027   2.825   5.442
 7521SOL    HW223463   4.961   2.685   5.392
 7522SOL     OW23464   1.335   1.238   5.740
 7522SOL    HW123465   1.322   1.326   5.786
 7522SOL    HW223466   1.427   1.204   5.757
 7523SOL     OW23467   4.853   0.477   6.370
 7523SOL    HW123468   4.895   0.431   6.449
 7523SOL    HW223469   4.874   0.426   6.287
 7524SOL     OW23470   0.700   2.601   5.275
 7524SOL    HW123471   0.786   2.646   5.299
 7524SOL    HW223472   0.715   2.502   5.269
 7525SOL     OW23473   3.969   6.931   0.147
 7525SOL    HW123474   4.039   6.935   0.219
 7525SOL    HW223475   3.883   6.968   0.183
 7526SOL     OW23476   2.888   3.088   1.747
 7526SOL    HW123477   2.925   3.179   1.763
 7526SOL    HW223478   2.951   3.020   1.785
 7527SOL     OW23479   3.286   5.928   3.991
 7527SOL    HW123480   3.310   6.022   4.013
 7527SOL    HW223481   3.305   5.910   3.895
 7528SOL     OW23482   6.212   2.353   6.051
 7528SOL    HW123483   6.301   2.398   6.050
 7528SOL    HW223484   6.179   2.343   5.957
 7529SOL     OW23485   5.809   1.127   4.520
 7529SOL    HW123486   5.711   1.130   4.499
 7529SOL    HW223487   5.848   1.218   4.510
 7530SOL     OW23488   6.639   2.172   1.949
 7530SOL    HW123489   6.700   2.240   1.907
 7530SOL    HW223490   6.692   2.090   1.973
 7531SOL     OW23491   5.357   3.386   4.262
 7531SOL    HW123492   5.327   3.352   4.351
 7531SOL    HW223493   5.437   3.445   4.274
 7532SOL     OW23494   4.738   6.175   0.986
 7532SOL    HW123495   4.825   6.214   0.956
 7532SOL    HW223496   4.755   6.103   1.053
 7533SOL     OW23497   3.490   1.981   1.699
 7533SOL    HW123498   3.549   2.003   1.777
 7533SOL    HW223499   3.429   1.906   1.723
 7534SOL     OW23500   4.701   5.735   4.445
 7534SOL    HW123501   4.626   5.681   4.406
 7534SOL    HW223502   4.754   5.679   4.508
 7535SOL     OW23503   1.738   6.617   5.049
 7535SOL    HW123504   1.823   6.660   5.017
 7535SOL    HW223505   1.760   6.550   5.120
 7536SOL     OW23506   4.994   4.480   4.093
 7536SOL    HW123507   5.079   4.501   4.141
 7536SOL    HW223508   4.947   4.405   4.140
 7537SOL     OW23509   1.700   5.032   2.810
 7537SOL    HW123510   1.630   4.961   2.810
 7537SOL    HW223511   1.682   5.098   2.738
 7538SOL     OW23512   1.775   2.189   1.589
 7538SOL    HW123513   1.843   2.261   1.596
 7538SOL    HW223514   1.688   2.228   1.557
 7539SOL     OW23515   1.388   3.488   4.598
 7539SOL    HW123516   1.461   3.422   4.577
 7539SOL    HW223517   1.302   3.439   4.612
 7540SOL     OW23518   4.283   0.767   4.567
 7540SOL    HW123519   4.231   0.733   4.489
 7540SOL    HW223520   4.334   0.692   4.609
 7541SOL     OW23521   1.033   3.848   4.798
 7541SOL    HW123522   0.982   3.923   4.838
 7541SOL    HW223523   0.971   3.789   4.746
 7542SOL     OW23524   0.502   5.825   0.219
 7542SOL    HW123525   0.509   5.883   0.138
 7542SOL    HW223526   0.504   5.882   0.301
 7543SOL     OW23527   3.824   0.978   5.152
 7543SOL    HW123528   3.760   0.922   5.099
 7543SOL    HW223529   3.887   1.024   5.089
 7544SOL     OW23530   6.481   2.598   4.644
 7544SOL    HW123531   6.402   2.555   4.689
 7544SOL    HW223532   6.449   2.665   4.576
 7545SOL     OW23533   0.962   6.592   6.227
 7545SOL    HW123534   0.863   6.580   6.219
 7545SOL    HW223535   1.005   6.502   6.238
 7546SOL     OW23536   4.691   1.872   1.439
 7546SOL    HW123537   4.615   1.880   1.374
 7546SOL    HW223538   4.771   1.836   1.392
 7547SOL     OW23539   5.399   1.497   0.802
 7547SOL    HW123540   5.487   1.458   0.829
 7547SOL    HW223541   5.344   1.427   0.756
 7548SOL     OW23542   4.545   2.329   6.307
 7548SOL    HW123543   4.612   2.271   6.261
 7548SOL    HW223544   4.567   2.425   6.290
 7549SOL     OW23545   3.364   3.453   6.699
 7549SOL    HW123546   3.309   3.441   6.782
 7549SOL    HW223547   3.438   3.517   6.717
 7550SOL     OW23548   1.788   4.485   3.914
 7550SOL    HW123549   1.870   4.530   3.949
 7550SOL    HW223550   1.720   4.553   3.889
 7551SOL     OW23551   5.875   2.966   5.094
 7551SOL    HW123552   5.848   3.058   5.065
 7551SOL    HW223553   5.879   2.962   5.194
 7552SOL     OW23554   1.495   5.813   4.006
 7552SOL    HW123555   1.558   5.740   3.979
 7552SOL    HW223556   1.458   5.857   3.924
 7553SOL     OW23557   4.357   6.885   5.681
 7553SOL    HW123558   4.315   6.884   5.591
 7553SOL    HW223559   4.359   6.792   5.718
 7554SOL     OW23560   4.963   0.751   6.359
 7554SOL    HW123561   4.963   0.790   6.451
 7554SOL    HW223562   4.870   0.755   6.321
 7555SOL     OW23563   2.901   5.257   6.237
 7555SOL    HW123564   2.930   5.328   6.301
 7555SOL    HW223565   2.899   5.294   6.144
 7556SOL     OW23566   2.585   2.013   0.135
 7556SOL    HW123567   2.624   2.040   0.223
 7556SOL    HW223568   2.582   2.092   0.074
 7557SOL     OW23569   5.324   0.673   6.105
 7557SOL    HW123570   5.362   0.737   6.172
 7557SOL    HW223571   5.237   0.638   6.139
 7558SOL     OW23572   1.902   2.910   4.309
 7558SOL    HW123573   1.967   2.941   4.378
 7558SOL    HW223574   1.809   2.932   4.340
 7559SOL     OW23575   3.974   3.182   5.901
 7559SOL    HW123576   3.981   3.227   5.812
 7559SOL    HW223577   4.046   3.215   5.962
 7560SOL     OW23578   5.145   6.822   0.382
 7560SOL    HW123579   5.122   6.779   0.469
 7560SOL    HW223580   5.079   6.794   0.312
 7561SOL     OW23581   6.635   3.164   5.815
 7561SOL    HW123582   6.555   3.113   5.847
 7561SOL    HW223583   6.664   3.227   5.886
 7562SOL     OW23584   0.531   4.980   5.492
 7562SOL    HW123585   0.558   4.896   5.445
 7562SOL    HW223586   0.582   4.987   5.578
 7563SOL     OW23587   3.334   7.018   1.685
 7563SOL    HW123588   3.286   6.931   1.681
 7563SOL    HW223589   3.301   0.052   1.762
 7564SOL     OW23590   3.676   0.614   4.595
 7564SOL    HW123591   3.716   0.527   4.623
 7564SOL    HW223592   3.579   0.616   4.620
 7565SOL     OW23593   5.384   3.552   6.394
 7565SOL    HW123594   5.408   3.628   6.454
 7565SOL    HW223595   5.337   3.481   6.447
 7566SOL     OW23596   5.690   5.358   2.394
 7566SOL    HW123597   5.654   5.283   2.338
 7566SOL    HW223598   5.759   5.321   2.457
 7567SOL     OW23599   1.627   1.217   5.822
 7567SOL    HW123600   1.574   1.228   5.906
 7567SOL    HW223601   1.704   1.281   5.822
 7568SOL     OW23602   5.692   4.886   2.491
 7568SOL    HW123603   5.609   4.942   2.488
 7568SOL    HW223604   5.772   4.945   2.483
 7569SOL     OW23605   2.898   4.537   6.075
 7569SOL    HW123606   2.932   4.483   6.152
 7569SOL    HW223607   2.905   4.484   5.991
 7570SOL     OW23608   5.162   4.017   4.298
 7570SOL    HW123609   5.175   3.951   4.372
 7570SOL    HW223610   5.159   3.970   4.210
 7571SOL     OW23611   4.908   4.291   3.578
 7571SOL    HW123612   4.874   4.345   3.501
 7571SOL    HW223613   4.830   4.251   3.626
 7572SOL     OW23614   4.913   0.701   2.673
 7572SOL    HW123615   4.898   0.733   2.579
 7572SOL    HW223616   4.885   0.772   2.737
 7573SOL     OW23617   6.670   0.673   5.498
 7573SOL    HW123618   6.689   0.770   5.518
 7573SOL    HW223619   6.719   0.646   5.415
 7574SOL     OW23620   5.588   0.802   4.971
 7574SOL    HW123621   5.576   0.900   4.982
 7574SOL    HW223622   5.523   0.753   5.030
 7575SOL     OW23623   5.441   6.942   6.982
 7575SOL    HW123624   5.382   7.014   6.946
 7575SOL    HW223625   5.386   6.877   0.015
 7576SOL     OW23626   4.933   3.174   0.369
 7576SOL    HW123627   4.852   3.187   0.313
 7576SOL    HW223628   4.914   3.204   0.463
 7577SOL     OW23629   0.548   6.251   6.824
 7577SOL    HW123630   0.460   6.220   6.786
 7577SOL    HW223631   0.620   6.233   6.757
 7578SOL     OW23632   2.849   5.041   2.610
 7578SOL    HW123633   2.898   4.961   2.575
 7578SOL    HW223634   2.754   5.037   2.578
 7579SOL     OW23635   0.329   1.912   1.555
 7579SOL    HW123636   0.399   1.918   1.484
 7579SOL    HW223637   0.299   2.004   1.580
 7580SOL     OW23638   0.872   4.022   3.638
 7580SOL    HW123639   0.958   4.018   3.688
 7580SOL    HW223640   0.844   3.930   3.611
 7581SOL     OW23641   1.002   1.918   0.854
 7581SOL    HW123642   0.942   1.844   0.883
 7581SOL    HW223643   1.047   1.893   0.768
 7582SOL     OW23644   4.244   1.560   3.690
 7582SOL    HW123645   4.281   1.626   3.625
 7582SOL    HW223646   4.204   1.608   3.768
 7583SOL     OW23647   5.222   3.017   1.959
 7583SOL    HW123648   5.171   3.103   1.959
 7583SOL    HW223649   5.159   2.940   1.971
 7584SOL     OW23650   1.666   0.377   2.846
 7584SOL    HW123651   1.578   0.345   2.882
 7584SOL    HW223652   1.670   0.477   2.855
 7585SOL     OW23653   1.636   2.872   5.900
 7585SOL    HW123654   1.560   2.931   5.926
 7585SOL    HW223655   1.628   2.784   5.947
 7586SOL     OW23656   1.888   6.585   3.651
 7586SOL    HW123657   1.937   6.650   3.708
 7586SOL    HW223658   1.818   6.633   3.598
 7587SOL     OW23659   2.444   1.528   6.917
 7587SOL    HW123660   2.543   1.515   6.929
 7587SOL    HW223661   2.407   1.452   6.864
 7588SOL     OW23662   2.317   2.300   3.349
 7588SOL    HW123663   2.317   2.398   3.327
 7588SOL    HW223664   2.321   2.288   3.448
 7589SOL     OW23665   0.791   0.900   2.712
 7589SOL    HW123666   0.736   0.855   2.783
 7589SOL    HW223667   0.740   0.900   2.626
 7590SOL     OW23668   4.762   1.750   6.986
 7590SOL    HW123669   4.832   1.783   0.030
 7590SOL    HW223670   4.697   1.823   6.966
 7591SOL     OW23671   4.950   4.619   0.462
 7591SOL    HW123672   4.991   4.600   0.373
 7591SOL    HW223673   5.019   4.604   0.534
 7592SOL     OW23674   6.242   5.594   4.403
 7592SOL    HW123675   6.301   5.593   4.322
 7592SOL    HW223676   6.296   5.621   4.482
 7593SOL     OW23677   6.719   3.000   6.881
 7593SOL    HW123678   6.656   3.018   6.805
 7593SOL    HW223679   6.765   2.912   6.865
 7594SOL     OW23680   2.113   4.618   1.761
 7594SOL    HW123681   2.049   4.610   1.685
 7594SOL    HW223682   2.190   4.675   1.734
 7595SOL     OW23683   6.125   3.528   5.981
 7595SOL    HW123684   6.036   3.560   5.951
 7595SOL    HW223685   6.192   3.542   5.908
 7596SOL     OW23686   3.223   6.743   4.217
 7596SOL    HW123687   3.283   6.667   4.191
 7596SOL    HW223688   3.275   6.809   4.271
 7597SOL     OW23689   2.222   5.941   3.237
 7597SOL    HW123690   2.305   5.921   3.289
 7597SOL    HW223691   2.244   5.949   3.140
 7598SOL     OW23692   6.293   0.794   3.191
 7598SOL    HW123693   6.266   0.887   3.214
 7598SOL    HW223694   6.302   0.740   3.275
 7599SOL     OW23695   5.344   2.290   1.779
 7599SOL    HW123696   5.317   2.194   1.791
 7599SOL    HW223697   5.266   2.349   1.795
 7600SOL     OW23698   0.821   0.801   3.987
 7600SOL    HW123699   0.880   0.820   4.066
 7600SOL    HW223700   0.811   0.885   3.933
 7601SOL     OW23701   2.563   4.660   2.006
 7601SOL    HW123702   2.663   4.655   2.010
 7601SOL    HW223703   2.532   4.623   1.919
 7602SOL     OW23704   1.165   3.427   6.829
 7602SOL    HW123705   1.225   3.409   6.907
 7602SOL    HW223706   1.070   3.408   6.854
 7603SOL     OW23707   2.389   6.425   6.588
 7603SOL    HW123708   2.482   6.419   6.624
 7603SOL    HW223709   2.383   6.503   6.525
 7604SOL     OW23710   0.852   2.637   5.004
 7604SOL    HW123711   0.857   2.671   5.098
 7604SOL    HW223712   0.770   2.674   4.959
 7605SOL     OW23713   1.071   0.526   0.716
 7605SOL    HW123714   1.067   0.468   0.635
 7605SOL    HW223715   1.090   0.621   0.689
 7606SOL     OW23716   5.480   3.120   4.428
 7606SOL    HW123717   5.449   3.048   4.490
 7606SOL    HW223718   5.482   3.085   4.334
 7607SOL     OW23719   4.432   5.319   0.658
 7607SOL    HW123720   4.403   5.370   0.739
 7607SOL    HW223721   4.369   5.337   0.583
 7608SOL     OW23722   4.957   3.050   1.058
 7608SOL    HW123723   4.887   2.981   1.038
 7608SOL    HW223724   4.956   3.120   0.986
 7609SOL     OW23725   1.805   3.200   4.451
 7609SOL    HW123726   1.889   3.185   4.503
 7609SOL    HW223727   1.822   3.183   4.354
 7610SOL     OW23728   3.948   4.733   5.956
 7610SOL    HW123729   4.039   4.695   5.975
 7610SOL    HW223730   3.954   4.791   5.875
 7611SOL     OW23731   5.112   4.568   1.171
 7611SOL    HW123732   5.164   4.608   1.247
 7611SOL    HW223733   5.071   4.481   1.201
 7612SOL     OW23734   4.722   2.821   2.820
 7612SOL    HW123735   4.666   2.755   2.769
 7612SOL    HW223736   4.767   2.775   2.896
 7613SOL     OW23737   0.367   1.710   1.106
 7613SOL    HW123738   0.414   1.648   1.044
 7613SOL    HW223739   0.282   1.668   1.138
 7614SOL     OW23740   5.352   3.056   1.380
 7614SOL    HW123741   5.254   3.055   1.404
 7614SOL    HW223742   5.369   3.129   1.314
 7615SOL     OW23743   4.245   3.924   6.503
 7615SOL    HW123744   4.151   3.954   6.489
 7615SOL    HW223745   4.253   3.878   6.591
 7616SOL     OW23746   6.658   6.614   4.512
 7616SOL    HW123747   6.585   6.672   4.550
 7616SOL    HW223748   6.617   6.542   4.456
 7617SOL     OW23749   4.222   6.185   3.086
 7617SOL    HW123750   4.176   6.250   3.025
 7617SOL    HW223751   4.288   6.234   3.143
 7618SOL     OW23752   0.884   2.798   6.470
 7618SOL    HW123753   0.956   2.866   6.487
 7618SOL    HW223754   0.923   2.707   6.468
 7619SOL     OW23755   0.186   3.075   4.559
 7619SOL    HW123756   0.180   3.051   4.462
 7619SOL    HW223757   0.107   3.130   4.585
 7620SOL     OW23758   3.869   5.717   1.722
 7620SOL    HW123759   3.896   5.644   1.659
 7620SOL    HW223760   3.941   5.786   1.727
 7621SOL     OW23761   0.052   0.982   0.962
 7621SOL    HW123762   0.079   1.014   1.052
 7621SOL    HW223763   0.005   1.055   0.913
 7622SOL     OW23764   4.844   4.439   6.699
 7622SOL    HW123765   4.757   4.395   6.676
 7622SOL    HW223766   4.828   4.536   6.717
 7623SOL     OW23767   4.170   4.427   0.675
 7623SOL    HW123768   4.268   4.416   0.666
 7623SOL    HW223769   4.129   4.440   0.584
 7624SOL     OW23770   6.746   3.640   3.958
 7624SOL    HW123771   6.787   3.698   4.028
 7624SOL    HW223772   6.762   3.544   3.981
 7625SOL     OW23773   5.562   1.042   6.745
 7625SOL    HW123774   5.470   1.005   6.757
 7625SOL    HW223775   5.585   1.100   6.823
 7626SOL     OW23776   6.428   0.502   5.946
 7626SOL    HW123777   6.510   0.547   5.982
 7626SOL    HW223778   6.355   0.570   5.936
 7627SOL     OW23779   3.215   2.477   0.404
 7627SOL    HW123780   3.211   2.439   0.496
 7627SOL    HW223781   3.137   2.445   0.351
 7628SOL     OW23782   3.505   2.844   1.608
 7628SOL    HW123783   3.504   2.935   1.649
 7628SOL    HW223784   3.563   2.845   1.526
 7629SOL     OW23785   0.306   4.053   3.253
 7629SOL    HW123786   0.216   4.009   3.254
 7629SOL    HW223787   0.301   4.142   3.298
 7630SOL     OW23788   1.041   0.943   7.015
 7630SOL    HW123789   1.061   0.864   0.053
 7630SOL    HW223790   1.040   1.026   0.051
 7631SOL     OW23791   0.664   1.533   5.203
 7631SOL    HW123792   0.615   1.619   5.208
 7631SOL    HW223793   0.725   1.534   5.125
 7632SOL     OW23794   4.510   4.609   0.753
 7632SOL    HW123795   4.530   4.538   0.820
 7632SOL    HW223796   4.490   4.567   0.664
 7633SOL     OW23797   5.279   1.026   1.646
 7633SOL    HW123798   5.247   1.109   1.692
 7633SOL    HW223799   5.332   0.971   1.711
 7634SOL     OW23800   2.013   1.159   1.232
 7634SOL    HW123801   2.010   1.080   1.171
 7634SOL    HW223802   2.048   1.238   1.182
 7635SOL     OW23803   3.257   5.014   4.565
 7635SOL    HW123804   3.265   5.109   4.536
 7635SOL    HW223805   3.182   4.970   4.516
 7636SOL     OW23806   1.554   3.269   4.016
 7636SOL    HW123807   1.536   3.355   4.065
 7636SOL    HW223808   1.617   3.285   3.941
 7637SOL     OW23809   2.680   5.729   2.634
 7637SOL    HW123810   2.667   5.748   2.732
 7637SOL    HW223811   2.774   5.752   2.609
 7638SOL     OW23812   1.586   5.407   2.506
 7638SOL    HW123813   1.513   5.465   2.542
 7638SOL    HW223814   1.604   5.431   2.410
 7639SOL     OW23815   0.068   1.065   0.380
 7639SOL    HW123816   7.018   1.053   0.310
 7639SOL    HW223817   0.136   1.131   0.348
 7640SOL     OW23818   2.730   2.859   6.469
 7640SOL    HW123819   2.709   2.937   6.527
 7640SOL    HW223820   2.652   2.797   6.465
 7641SOL     OW23821   0.062   3.145   2.870
 7641SOL    HW123822   0.094   3.240   2.874
 7641SOL    HW223823   0.025   3.125   2.780
 7642SOL     OW23824   4.629   0.874   2.102
 7642SOL    HW123825   4.659   0.779   2.115
 7642SOL    HW223826   4.685   0.935   2.158
 7643SOL     OW23827   5.081   1.580   2.677
 7643SOL    HW123828   5.118   1.628   2.757
 7643SOL    HW223829   4.984   1.561   2.691
 7644SOL     OW23830   4.994   2.847   1.981
 7644SOL    HW123831   5.016   2.768   2.037
 7644SOL    HW223832   4.897   2.869   1.991
 7645SOL     OW23833   4.750   3.658   5.854
 7645SOL    HW123834   4.768   3.628   5.760
 7645SOL    HW223835   4.704   3.746   5.852
 7646SOL     OW23836   0.448   2.768   3.863
 7646SOL    HW123837   0.509   2.792   3.787
 7646SOL    HW223838   0.500   2.720   3.934
 7647SOL     OW23839   6.951   2.394   4.644
 7647SOL    HW123840   6.922   2.353   4.557
 7647SOL    HW223841   0.030   2.382   4.655
 7648SOL     OW23842   1.941   1.778   2.402
 7648SOL    HW123843   1.857   1.743   2.360
 7648SOL    HW223844   2.005   1.703   2.417
 7649SOL     OW23845   1.507   0.457   3.686
 7649SOL    HW123846   1.478   0.361   3.682
 7649SOL    HW223847   1.579   0.466   3.756
 7650SOL     OW23848   6.083   0.780   1.043
 7650SOL    HW123849   6.044   0.872   1.040
 7650SOL    HW223850   6.143   0.767   0.964
 7651SOL     OW23851   2.083   6.931   4.794
 7651SOL    HW123852   2.064   6.891   4.705
 7651SOL    HW223853   2.079   0.011   4.787
 7652SOL     OW23854   5.339   2.192   4.749
 7652SOL    HW123855   5.346   2.134   4.668
 7652SOL    HW223856   5.425   2.239   4.764
 7653SOL     OW23857   1.189   1.640   0.587
 7653SOL    HW123858   1.190   1.613   0.683
 7653SOL    HW223859   1.157   1.734   0.579
 7654SOL     OW23860   5.119   3.272   4.158
 7654SOL    HW123861   5.195   3.332   4.184
 7654SOL    HW223862   5.067   3.247   4.239
 7655SOL     OW23863   3.951   0.122   3.563
 7655SOL    HW123864   3.983   0.215   3.581
 7655SOL    HW223865   3.996   0.059   3.626
 7656SOL     OW23866   4.014   3.687   6.431
 7656SOL    HW123867   4.100   3.676   6.382
 7656SOL    HW223868   4.007   3.781   6.465
 7657SOL     OW23869   2.300   1.896   3.588
 7657SOL    HW123870   2.334   1.863   3.676
 7657SOL    HW223871   2.330   1.834   3.515
 7658SOL     OW23872   2.326   0.395   0.956
 7658SOL    HW123873   2.398   0.378   0.889
 7658SOL    HW223874   2.340   0.337   1.037
 7659SOL     OW23875   4.204   4.587   0.280
 7659SOL    HW123876   4.268   4.569   0.205
 7659SOL    HW223877   4.135   4.654   0.249
 7660SOL     OW23878   6.975   5.751   4.153
 7660SOL    HW123879   7.018   5.839   4.133
 7660SOL    HW223880   6.878   5.764   4.173
 7661SOL     OW23881   5.440   2.526   5.201
 7661SOL    HW123882   5.433   2.526   5.101
 7661SOL    HW223883   5.531   2.494   5.228
 7662SOL     OW23884   1.358   2.271   3.644
 7662SOL    HW123885   1.354   2.355   3.698
 7662SOL    HW223886   1.365   2.294   3.547
 7663SOL     OW23887   5.747   4.872   6.206
 7663SOL    HW123888   5.688   4.868   6.287
 7663SOL    HW223889   5.754   4.967   6.175
 7664SOL     OW23890   4.260   1.138   2.267
 7664SOL    HW123891   4.227   1.112   2.358
 7664SOL    HW223892   4.345   1.189   2.275
 7665SOL     OW23893   5.510   0.718   5.205
 7665SOL    HW123894   5.600   0.756   5.227
 7665SOL    HW223895   5.487   0.647   5.272
 7666SOL     OW23896   0.747   4.909   3.210
 7666SOL    HW123897   0.674   4.909   3.143
 7666SOL    HW223898   0.827   4.862   3.172
 7667SOL     OW23899   4.440   0.559   2.567
 7667SOL    HW123900   4.394   0.638   2.526
 7667SOL    HW223901   4.478   0.502   2.494
 7668SOL     OW23902   2.751   4.687   0.996
 7668SOL    HW123903   2.813   4.749   0.947
 7668SOL    HW223904   2.674   4.738   1.032
 7669SOL     OW23905   4.520   1.092   5.382
 7669SOL    HW123906   4.480   1.179   5.353
 7669SOL    HW223907   4.513   1.083   5.481
 7670SOL     OW23908   0.769   5.450   0.444
 7670SOL    HW123909   0.718   5.536   0.451
 7670SOL    HW223910   0.806   5.441   0.351
 7671SOL     OW23911   3.874   0.932   2.268
 7671SOL    HW123912   3.865   0.858   2.200
 7671SOL    HW223913   3.842   1.018   2.228
 7672SOL     OW23914   0.206   5.875   3.134
 7672SOL    HW123915   0.171   5.863   3.227
 7672SOL    HW223916   0.299   5.910   3.138
 7673SOL     OW23917   1.685   5.531   2.222
 7673SOL    HW123918   1.710   5.459   2.157
 7673SOL    HW223919   1.602   5.577   2.191
 7674SOL     OW23920   5.088   0.888   3.928
 7674SOL    HW123921   5.098   0.925   4.020
 7674SOL    HW223922   4.991   0.876   3.907
 7675SOL     OW23923   5.804   6.830   3.075
 7675SOL    HW123924   5.882   6.768   3.063
 7675SOL    HW223925   5.729   6.802   3.015
 7676SOL     OW23926   3.288   2.591   6.191
 7676SOL    HW123927   3.193   2.605   6.221
 7676SOL    HW223928   3.349   2.648   6.246
 7677SOL     OW23929   0.758   4.209   1.152
 7677SOL    HW123930   0.688   4.241   1.088
 7677SOL    HW223931   0.762   4.109   1.149
 7678SOL     OW23932   2.236   2.719   5.397
 7678SOL    HW123933   2.297   2.643   5.373
 7678SOL    HW223934   2.286   2.805   5.391
 7679SOL     OW23935   2.620   5.531   5.513
 7679SOL    HW123936   2.570   5.450   5.545
 7679SOL    HW223937   2.653   5.583   5.591
 7680SOL     OW23938   1.789   0.312   0.749
 7680SOL    HW123939   1.693   0.335   0.736
 7680SOL    HW223940   1.799   0.213   0.763
 7681SOL     OW23941   2.616   1.083   0.460
 7681SOL    HW123942   2.600   1.076   0.559
 7681SOL    HW223943   2.530   1.071   0.411
 7682SOL     OW23944   4.567   0.548   2.024
 7682SOL    HW123945   4.520   0.516   2.106
 7682SOL    HW223946   4.501   0.561   1.950
 7683SOL     OW23947   0.182   1.596   4.718
 7683SOL    HW123948   0.223   1.566   4.632
 7683SOL    HW223949   0.192   1.695   4.726
 7684SOL     OW23950   4.186   1.794   1.211
 7684SOL    HW123951   4.191   1.701   1.175
 7684SOL    HW223952   4.096   1.809   1.252
 7685SOL     OW23953   3.029   1.397   6.160
 7685SOL    HW123954   2.998   1.426   6.070
 7685SOL    HW223955   3.120   1.434   6.178
 7686SOL     OW23956   6.594   6.769   3.433
 7686SOL    HW123957   6.531   6.805   3.364
 7686SOL    HW223958   6.620   6.842   3.497
 7687SOL     OW23959   5.349   5.187   4.613
 7687SOL    HW123960   5.429   5.146   4.658
 7687SOL    HW223961   5.316   5.264   4.667
 7688SOL     OW23962   0.162   6.007   5.574
 7688SOL    HW123963   0.241   6.017   5.635
 7688SOL    HW223964   0.130   5.913   5.576
 7689SOL     OW23965   5.395   6.337   2.955
 7689SOL    HW123966   5.337   6.256   2.951
 7689SOL    HW223967   5.415   6.359   3.051
 7690SOL     OW23968   5.020   5.505   0.787
 7690SOL    HW123969   5.108   5.546   0.812
 7690SOL    HW223970   5.008   5.419   0.837
 7691SOL     OW23971   5.920   4.132   2.993
 7691SOL    HW123972   6.019   4.119   3.001
 7691SOL    HW223973   5.882   4.065   2.931
 7692SOL     OW23974   0.821   5.810   1.931
 7692SOL    HW123975   0.897   5.833   1.870
 7692SOL    HW223976   0.809   5.883   1.998
 7693SOL     OW23977   2.755   0.431   0.943
 7693SOL    HW123978   2.792   0.522   0.926
 7693SOL    HW223979   2.704   0.400   0.863
 7694SOL     OW23980   5.934   2.658   3.493
 7694SOL    HW123981   6.006   2.699   3.438
 7694SOL    HW223982   5.902   2.574   3.449
 7695SOL     OW23983   5.781   1.276   1.832
 7695SOL    HW123984   5.758   1.203   1.767
 7695SOL    HW223985   5.697   1.307   1.878
 7696SOL     OW23986   6.489   1.956   5.849
 7696SOL    HW123987   6.453   1.866   5.870
 7696SOL    HW223988   6.526   1.957   5.756
 7697SOL     OW23989   2.462   0.613   2.958
 7697SOL    HW123990   2.461   0.553   2.878
 7697SOL    HW223991   2.494   0.563   3.038
 7698SOL     OW23992   5.959   0.951   4.358
 7698SOL    HW123993   5.939   1.018   4.430
 7698SOL    HW223994   5.983   0.863   4.400
 7699SOL     OW23995   2.287   5.406   6.038
 7699SOL    HW123996   2.254   5.398   6.132
 7699SOL    HW223997   2.281   5.317   5.993
 7700SOL     OW23998   4.570   5.937   3.641
 7700SOL    HW123999   4.562   6.035   3.659
 7700SOL    HW224000   4.666   5.913   3.628
 7701SOL     OW24001   0.369   2.636   6.902
 7701SOL    HW124002   0.370   2.721   6.954
 7701SOL    HW224003   0.462   2.599   6.895
 7702SOL     OW24004   4.600   5.564   5.081
 7702SOL    HW124005   4.553   5.550   5.168
 7702SOL    HW224006   4.542   5.530   5.007
 7703SOL     OW24007   6.017   6.403   6.581
 7703SOL    HW124008   6.078   6.397   6.660
 7703SOL    HW224009   5.967   6.490   6.584
 7704SOL     OW24010   6.031   1.010   3.281
 7704SOL    HW124011   5.958   0.981   3.219
 7704SOL    HW224012   6.028   0.954   3.364
 7705SOL     OW24013   2.348   6.129   1.101
 7705SOL    HW124014   2.254   6.160   1.090
 7705SOL    HW224015   2.395   6.131   1.013
 7706SOL     OW24016   3.478   3.194   4.358
 7706SOL    HW124017   3.532   3.115   4.384
 7706SOL    HW224018   3.436   3.178   4.269
 7707SOL     OW24019   0.388   4.607   6.206
 7707SOL    HW124020   0.310   4.615   6.268
 7707SOL    HW224021   0.472   4.626   6.256
 7708SOL     OW24022   1.421   6.205   4.720
 7708SOL    HW124023   1.398   6.285   4.665
 7708SOL    HW224024   1.475   6.141   4.665
 7709SOL     OW24025   0.085   4.837   1.627
 7709SOL    HW124026   0.115   4.916   1.575
 7709SOL    HW224027   0.106   4.850   1.724
 7710SOL     OW24028   2.066   2.344   0.642
 7710SOL    HW124029   2.165   2.339   0.651
 7710SOL    HW224030   2.033   2.268   0.586
 7711SOL     OW24031   5.340   5.953   5.343
 7711SOL    HW124032   5.407   5.994   5.281
 7711SOL    HW224033   5.317   6.018   5.415
 7712SOL     OW24034   6.312   5.302   0.268
 7712SOL    HW124035   6.284   5.394   0.239
 7712SOL    HW224036   6.409   5.304   0.294
 7713SOL     OW24037   1.722   3.479   0.240
 7713SOL    HW124038   1.781   3.536   0.298
 7713SOL    HW224039   1.684   3.404   0.294
 7714SOL     OW24040   6.988   5.561   5.376
 7714SOL    HW124041   0.024   5.623   5.321
 7714SOL    HW224042   6.923   5.513   5.318
 7715SOL     OW24043   3.232   2.915   6.454
 7715SOL    HW124044   3.157   2.850   6.456
 7715SOL    HW224045   3.201   3.003   6.490
 7716SOL     OW24046   6.525   4.545   0.351
 7716SOL    HW124047   6.445   4.486   0.360
 7716SOL    HW224048   6.534   4.574   0.255
 7717SOL     OW24049   1.457   2.093   5.617
 7717SOL    HW124050   1.540   2.037   5.616
 7717SOL    HW224051   1.478   2.184   5.581
 7718SOL     OW24052   6.547   3.701   3.154
 7718SOL    HW124053   6.506   3.750   3.230
 7718SOL    HW224054   6.624   3.646   3.187
 7719SOL     OW24055   1.289   3.709   4.528
 7719SOL    HW124056   1.330   3.623   4.559
 7719SOL    HW224057   1.259   3.762   4.607
 7720SOL     OW24058   6.874   2.509   6.115
 7720SOL    HW124059   6.827   2.434   6.068
 7720SOL    HW224060   6.961   2.475   6.152
 7721SOL     OW24061   0.784   5.989   2.123
 7721SOL    HW124062   0.689   6.016   2.140
 7721SOL    HW224063   0.845   6.048   2.176
 7722SOL     OW24064   1.794   4.450   3.447
 7722SOL    HW124065   1.718   4.512   3.463
 7722SOL    HW224066   1.805   4.389   3.525
 7723SOL     OW24067   3.978   3.576   6.689
 7723SOL    HW124068   4.040   3.565   6.767
 7723SOL    HW224069   4.024   3.626   6.616
 7724SOL     OW24070   3.191   4.595   0.475
 7724SOL    HW124071   3.193   4.532   0.398
 7724SOL    HW224072   3.107   4.582   0.528
 7725SOL     OW24073   6.403   1.799   2.963
 7725SOL    HW124074   6.322   1.803   2.904
 7725SOL    HW224075   6.379   1.833   3.054
 7726SOL     OW24076   1.923   4.059   6.616
 7726SOL    HW124077   1.846   4.084   6.557
 7726SOL    HW224078   1.900   3.977   6.667
 7727SOL     OW24079   6.277   2.795   2.063
 7727SOL    HW124080   6.306   2.719   2.121
 7727SOL    HW224081   6.188   2.828   2.094
 7728SOL     OW24082   2.210   3.047   4.881
 7728SOL    HW124083   2.276   3.021   4.952
 7728SOL    HW224084   2.258   3.068   4.796
 7729SOL     OW24085   5.648   1.076   2.191
 7729SOL    HW124086   5.642   1.098   2.288
 7729SOL    HW224087   5.596   0.993   2.172
 7730SOL     OW24088   0.025   4.820   6.321
 7730SOL    HW124089   0.053   4.874   6.400
 7730SOL    HW224090   6.962   4.768   6.343
 7731SOL     OW24091   6.225   6.942   0.092
 7731SOL    HW124092   6.255   6.897   0.176
 7731SOL    HW224093   6.238   6.880   0.015
 7732SOL     OW24094   3.874   0.521   0.274
 7732SOL    HW124095   3.946   0.481   0.218
 7732SOL    HW224096   3.843   0.607   0.233
 7733SOL     OW24097   6.146   5.742   1.970
 7733SOL    HW124098   6.073   5.767   2.033
 7733SOL    HW224099   6.190   5.657   2.000
 7734SOL     OW24100   1.702   4.824   4.611
 7734SOL    HW124101   1.696   4.907   4.667
 7734SOL    HW224102   1.631   4.827   4.541
 7735SOL     OW24103   5.879   5.894   6.454
 7735SOL    HW124104   5.796   5.859   6.497
 7735SOL    HW224105   5.904   5.835   6.378
 7736SOL     OW24106   2.617   3.235   6.932
 7736SOL    HW124107   2.656   3.144   6.935
 7736SOL    HW224108   2.528   3.233   6.886
 7737SOL     OW24109   3.665   0.093   1.941
 7737SOL    HW124110   3.574   0.065   1.973
 7737SOL    HW224111   3.712   0.143   2.014
 7738SOL     OW24112   2.783   5.640   0.594
 7738SOL    HW124113   2.875   5.645   0.555
 7738SOL    HW224114   2.719   5.607   0.524
 7739SOL     OW24115   1.452   1.984   1.877
 7739SOL    HW124116   1.420   1.944   1.791
 7739SOL    HW224117   1.468   2.082   1.864
 7740SOL     OW24118   1.874   1.375   3.047
 7740SOL    HW124119   1.934   1.449   3.016
 7740SOL    HW224120   1.857   1.313   2.970
 7741SOL     OW24121   0.780   3.956   4.839
 7741SOL    HW124122   0.774   3.957   4.739
 7741SOL    HW224123   0.706   3.901   4.877
 7742SOL     OW24124   4.342   1.819   3.938
 7742SOL    HW124125   4.436   1.826   3.906
 7742SOL    HW224126   4.339   1.836   4.037
 7743SOL     OW24127   4.591   1.633   6.532
 7743SOL    HW124128   4.571   1.604   6.626
 7743SOL    HW224129   4.516   1.605   6.472
 7744SOL     OW24130   1.371   6.444   3.548
 7744SOL    HW124131   1.354   6.463   3.644
 7744SOL    HW224132   1.287   6.460   3.495
 7745SOL     OW24133   3.080   6.957   0.685
 7745SOL    HW124134   3.023   6.899   0.743
 7745SOL    HW224135   3.074   0.032   0.718
 7746SOL     OW24136   1.116   0.120   0.518
 7746SOL    HW124137   1.126   0.105   0.617
 7746SOL    HW224138   1.034   0.074   0.486
 7747SOL     OW24139   6.768   6.257   1.204
 7747SOL    HW124140   6.862   6.285   1.181
 7747SOL    HW224141   6.704   6.319   1.158
 7748SOL     OW24142   3.616   3.947   3.618
 7748SOL    HW124143   3.595   3.970   3.523
 7748SOL    HW224144   3.660   4.025   3.663
 7749SOL     OW24145   3.282   3.411   3.637
 7749SOL    HW124146   3.196   3.461   3.649
 7749SOL    HW224147   3.359   3.470   3.662
 7750SOL     OW24148   6.130   5.732   6.909
 7750SOL    HW124149   6.105   5.829   6.911
 7750SOL    HW224150   6.227   5.723   6.885
 7751SOL     OW24151   0.760   2.277   3.211
 7751SOL    HW124152   0.816   2.196   3.196
 7751SOL    HW224153   0.666   2.249   3.230
 7752SOL     OW24154   5.244   5.767   5.129
 7752SOL    HW124155   5.260   5.797   5.222
 7752SOL    HW224156   5.295   5.683   5.111
 7753SOL     OW24157   2.242   0.325   4.067
 7753SOL    HW124158   2.171   0.362   4.007
 7753SOL    HW224159   2.259   0.388   4.142
 7754SOL     OW24160   5.616   6.412   2.036
 7754SOL    HW124161   5.702   6.451   2.071
 7754SOL    HW224162   5.633   6.319   2.003
 7755SOL     OW24163   1.416   1.843   5.958
 7755SOL    HW124164   1.485   1.814   5.892
 7755SOL    HW224165   1.325   1.825   5.923
 7756SOL     OW24166   3.333   4.861   2.851
 7756SOL    HW124167   3.421   4.897   2.881
 7756SOL    HW224168   3.347   4.794   2.778
 7757SOL     OW24169   5.088   5.705   4.042
 7757SOL    HW124170   5.055   5.721   3.948
 7757SOL    HW224171   5.063   5.613   4.071
 7758SOL     OW24172   1.742   2.126   6.609
 7758SOL    HW124173   1.758   2.219   6.576
 7758SOL    HW224174   1.814   2.101   6.674
 7759SOL     OW24175   1.281   1.894   4.969
 7759SOL    HW124176   1.328   1.957   5.030
 7759SOL    HW224177   1.194   1.866   5.010
 7760SOL     OW24178   5.908   3.211   2.910
 7760SOL    HW124179   5.978   3.224   2.840
 7760SOL    HW224180   5.818   3.226   2.870
 7761SOL     OW24181   1.272   0.154   6.347
 7761SOL    HW124182   1.337   0.218   6.304
 7761SOL    HW224183   1.179   0.187   6.333
 7762SOL     OW24184   4.233   0.719   4.085
 7762SOL    HW124185   4.200   0.763   4.169
 7762SOL    HW224186   4.169   0.647   4.058
 7763SOL     OW24187   0.866   1.316   1.204
 7763SOL    HW124188   0.854   1.234   1.148
 7763SOL    HW224189   0.954   1.359   1.183
 7764SOL     OW24190   3.614   2.931   3.029
 7764SOL    HW124191   3.530   2.900   3.074
 7764SOL    HW224192   3.601   2.927   2.930
 7765SOL     OW24193   5.837   2.632   4.297
 7765SOL    HW124194   5.824   2.571   4.220
 7765SOL    HW224195   5.903   2.593   4.361
 7766SOL     OW24196   5.252   1.887   0.332
 7766SOL    HW124197   5.200   1.837   0.262
 7766SOL    HW224198   5.263   1.982   0.304
 7767SOL     OW24199   3.867   6.370   3.574
 7767SOL    HW124200   3.896   6.465   3.558
 7767SOL    HW224201   3.826   6.363   3.665
 7768SOL     OW24202   4.318   5.131   2.366
 7768SOL    HW124203   4.269   5.152   2.281
 7768SOL    HW224204   4.341   5.033   2.367
 7769SOL     OW24205   4.971   2.330   3.016
 7769SOL    HW124206   5.019   2.257   3.064
 7769SOL    HW224207   4.923   2.292   2.937
 7770SOL     OW24208   0.892   3.814   2.703
 7770SOL    HW124209   0.860   3.779   2.791
 7770SOL    HW224210   0.885   3.742   2.634
 7771SOL     OW24211   2.762   2.269   4.993
 7771SOL    HW124212   2.751   2.313   5.082
 7771SOL    HW224213   2.726   2.329   4.921
 7772SOL     OW24214   5.471   0.904   3.207
 7772SOL    HW124215   5.515   0.855   3.283
 7772SOL    HW224216   5.485   1.002   3.218
 7773SOL     OW24217   3.631   5.452   5.194
 7773SOL    HW124218   3.559   5.423   5.257
 7773SOL    HW224219   3.659   5.375   5.137
 7774SOL     OW24220   6.030   2.650   6.449
 7774SOL    HW124221   5.934   2.667   6.470
 7774SOL    HW224222   6.037   2.588   6.371
 7775SOL     OW24223   4.059   6.966   2.825
 7775SOL    HW124224   3.977   6.914   2.847
 7775SOL    HW224225   4.088   7.019   2.905
 7776SOL     OW24226   3.595   4.279   6.657
 7776SOL    HW124227   3.496   4.264   6.650
 7776SOL    HW224228   3.615   4.376   6.644
 7777SOL     OW24229   1.454   0.585   5.171
 7777SOL    HW124230   1.424   0.596   5.076
 7777SOL    HW224231   1.463   0.675   5.214
 7778SOL     OW24232   4.991   5.876   0.306
 7778SOL    HW124233   5.013   5.795   0.360
 7778SOL    HW224234   4.893   5.893   0.308
 7779SOL     OW24235   2.782   3.038   1.167
 7779SOL    HW124236   2.879   3.019   1.148
 7779SOL    HW224237   2.773   3.075   1.259
 7780SOL     OW24238   1.078   5.118   5.460
 7780SOL    HW124239   1.070   5.203   5.513
 7780SOL    HW224240   1.166   5.116   5.413
 7781SOL     OW24241   1.359   5.015   6.962
 7781SOL    HW124242   1.278   5.069   6.938
 7781SOL    HW224243   1.440   5.058   6.923
 7782SOL     OW24244   0.893   4.726   5.503
 7782SOL    HW124245   0.861   4.770   5.586
 7782SOL    HW224246   0.988   4.752   5.485
 7783SOL     OW24247   1.877   5.785   5.359
 7783SOL    HW124248   1.843   5.795   5.266
 7783SOL    HW224249   1.945   5.712   5.363
 7784SOL     OW24250   3.162   2.749   0.644
 7784SOL    HW124251   3.138   2.841   0.676
 7784SOL    HW224252   3.184   2.753   0.546
 7785SOL     OW24253   1.739   6.669   4.111
 7785SOL    HW124254   1.831   6.705   4.127
 7785SOL    HW224255   1.708   6.696   4.019
 7786SOL     OW24256   2.925   5.655   6.794
 7786SOL    HW124257   2.958   5.691   6.707
 7786SOL    HW224258   2.829   5.627   6.785
 7787SOL     OW24259   2.707   2.845   5.828
 7787SOL    HW124260   2.800   2.849   5.865
 7787SOL    HW224261   2.643   2.876   5.897
 7788SOL     OW24262   2.075   6.252   2.407
 7788SOL    HW124263   2.011   6.176   2.394
 7788SOL    HW224264   2.127   6.267   2.323
 7789SOL     OW24265   3.278   6.850   0.224
 7789SOL    HW124266   3.224   6.814   0.148
 7789SOL    HW224267   3.218   6.864   0.303
 7790SOL     OW24268   5.865   5.287   2.606
 7790SOL    HW124269   5.961   5.314   2.616
 7790SOL    HW224270   5.820   5.292   2.695
 7791SOL     OW24271   2.487   6.349   3.846
 7791SOL    HW124272   2.556   6.314   3.782
 7791SOL    HW224273   2.501   6.308   3.936
 7792SOL     OW24274   2.139   5.153   5.684
 7792SOL    HW124275   2.157   5.163   5.782
 7792SOL    HW224276   2.040   5.157   5.668
 7793SOL     OW24277   3.026   0.400   6.902
 7793SOL    HW124278   3.022   0.447   6.991
 7793SOL    HW224279   2.949   0.336   6.895
 7794SOL     OW24280   5.835   5.074   3.529
 7794SOL    HW124281   5.910   5.020   3.492
 7794SOL    HW224282   5.870   5.139   3.597
 7795SOL     OW24283   2.171   3.733   5.526
 7795SOL    HW124284   2.207   3.791   5.600
 7795SOL    HW224285   2.127   3.791   5.457
 7796SOL     OW24286   3.424   3.745   2.943
 7796SOL    HW124287   3.465   3.709   2.859
 7796SOL    HW224288   3.325   3.746   2.933
 7797SOL     OW24289   1.317   6.537   3.244
 7797SOL    HW124290   1.287   6.619   3.292
 7797SOL    HW224291   1.376   6.483   3.304
 7798SOL     OW24292   1.691   4.834   6.217
 7798SOL    HW124293   1.612   4.894   6.210
 7798SOL    HW224294   1.663   4.744   6.252
 7799SOL     OW24295   0.538   6.188   2.228
 7799SOL    HW124296   0.601   6.146   2.294
 7799SOL    HW224297   0.503   6.117   2.167
 7800SOL     OW24298   1.331   5.303   0.679
 7800SOL    HW124299   1.355   5.376   0.742
 7800SOL    HW224300   1.393   5.226   0.691
 7801SOL     OW24301   1.540   2.293   1.976
 7801SOL    HW124302   1.484   2.249   2.045
 7801SOL    HW224303   1.623   2.239   1.962
 7802SOL     OW24304   6.062   2.073   1.116
 7802SOL    HW124305   5.981   2.120   1.153
 7802SOL    HW224306   6.120   2.140   1.069
 7803SOL     OW24307   4.022   2.123   6.107
 7803SOL    HW124308   4.025   2.164   6.015
 7803SOL    HW224309   4.110   2.082   6.128
 7804SOL     OW24310   5.081   1.228   4.201
 7804SOL    HW124311   5.061   1.245   4.104
 7804SOL    HW224312   5.049   1.306   4.255
 7805SOL     OW24313   5.614   1.385   0.921
 7805SOL    HW124314   5.577   1.404   1.012
 7805SOL    HW224315   5.684   1.453   0.899
 7806SOL     OW24316   5.726   2.363   5.919
 7806SOL    HW124317   5.661   2.321   5.982
 7806SOL    HW224318   5.735   2.460   5.940
 7807SOL     OW24319   0.462   4.232   5.183
 7807SOL    HW124320   0.383   4.278   5.222
 7807SOL    HW224321   0.546   4.279   5.211
 7808SOL     OW24322   6.839   2.850   4.457
 7808SOL    HW124323   6.807   2.809   4.542
 7808SOL    HW224324   6.768   2.843   4.387
 7809SOL     OW24325   2.384   5.889   4.605
 7809SOL    HW124326   2.347   5.835   4.680
 7809SOL    HW224327   2.416   5.977   4.639
 7810SOL     OW24328   3.385   0.161   4.825
 7810SOL    HW124329   3.483   0.168   4.845
 7810SOL    HW224330   3.360   0.229   4.756
 7811SOL     OW24331   0.584   5.016   3.386
 7811SOL    HW124332   0.638   4.965   3.320
 7811SOL    HW224333   0.644   5.075   3.441
 7812SOL     OW24334   1.457   1.999   3.275
 7812SOL    HW124335   1.413   2.067   3.216
 7812SOL    HW224336   1.540   1.965   3.230
 7813SOL     OW24337   3.683   2.967   6.638
 7813SOL    HW124338   3.727   3.023   6.708
 7813SOL    HW224339   3.746   2.896   6.607
 7814SOL     OW24340   6.527   3.161   3.649
 7814SOL    HW124341   6.567   3.166   3.557
 7814SOL    HW224342   6.601   3.154   3.717
 7815SOL     OW24343   5.160   0.147   6.222
 7815SOL    HW124344   5.222   0.151   6.301
 7815SOL    HW224345   5.066   0.135   6.254
 7816SOL     OW24346   1.646   2.434   6.384
 7816SOL    HW124347   1.681   2.389   6.302
 7816SOL    HW224348   1.699   2.517   6.401
 7817SOL     OW24349   5.508   4.155   3.421
 7817SOL    HW124350   5.548   4.235   3.464
 7817SOL    HW224351   5.450   4.183   3.345
 7818SOL     OW24352   4.716   0.979   3.133
 7818SOL    HW124353   4.669   1.065   3.151
 7818SOL    HW224354   4.791   0.968   3.198
 7819SOL     OW24355   6.610   3.128   2.077
 7819SOL    HW124356   6.597   3.219   2.036
 7819SOL    HW224357   6.523   3.094   2.112
 7820SOL     OW24358   1.071   2.086   4.655
 7820SOL    HW124359   1.072   2.095   4.556
 7820SOL    HW224360   1.161   2.055   4.687
 7821SOL     OW24361   5.186   6.004   1.386
 7821SOL    HW124362   5.098   6.050   1.398
 7821SOL    HW224363   5.174   5.905   1.392
 7822SOL     OW24364   0.714   1.016   5.773
 7822SOL    HW124365   0.660   0.973   5.846
 7822SOL    HW224366   0.718   1.114   5.788
 7823SOL     OW24367   2.576   3.956   5.369
 7823SOL    HW124368   2.528   3.924   5.451
 7823SOL    HW224369   2.512   3.962   5.293
 7824SOL     OW24370   5.957   1.127   4.130
 7824SOL    HW124371   5.994   1.083   4.212
 7824SOL    HW224372   6.022   1.118   4.055
 7825SOL     OW24373   1.121   2.894   1.103
 7825SOL    HW124374   1.138   2.907   1.005
 7825SOL    HW224375   1.131   2.797   1.126
 7826SOL     OW24376   6.337   1.345   1.122
 7826SOL    HW124377   6.258   1.292   1.151
 7826SOL    HW224378   6.401   1.354   1.199
 7827SOL     OW24379   1.908   5.560   1.361
 7827SOL    HW124380   1.904   5.626   1.436
 7827SOL    HW224381   2.003   5.536   1.342
 7828SOL     OW24382   0.332   4.750   0.023
 7828SOL    HW124383   0.237   4.737   0.050
 7828SOL    HW224384   0.364   4.840   0.053
 7829SOL     OW24385   2.108   3.495   1.476
 7829SOL    HW124386   2.029   3.556   1.489
 7829SOL    HW224387   2.129   3.450   1.563
 7830SOL     OW24388   2.596   4.545   5.190
 7830SOL    HW124389   2.695   4.535   5.186
 7830SOL    HW224390   2.569   4.628   5.142
 7831SOL     OW24391   1.777   6.538   1.740
 7831SOL    HW124392   1.867   6.541   1.697
 7831SOL    HW224393   1.785   6.565   1.836
 7832SOL     OW24394   5.807   0.915   3.683
 7832SOL    HW124395   5.873   0.887   3.613
 7832SOL    HW224396   5.716   0.887   3.655
 7833SOL     OW24397   0.698   0.702   5.569
 7833SOL    HW124398   0.770   0.746   5.623
 7833SOL    HW224399   0.685   0.752   5.483
 7834SOL     OW24400   6.785   1.222   3.570
 7834SOL    HW124401   6.693   1.234   3.605
 7834SOL    HW224402   6.805   1.292   3.502
 7835SOL     OW24403   3.410   2.168   5.387
 7835SOL    HW124404   3.314   2.159   5.360
 7835SOL    HW224405   3.468   2.158   5.306
 7836SOL     OW24406   3.366   3.070   4.723
 7836SOL    HW124407   3.417   2.994   4.764
 7836SOL    HW224408   3.430   3.133   4.678
 7837SOL     OW24409   4.634   5.075   6.917
 7837SOL    HW124410   4.591   4.985   6.907
 7837SOL    HW224411   4.732   5.064   6.931
 7838SOL     OW24412   4.160   6.557   1.087
 7838SOL    HW124413   4.155   6.565   0.988
 7838SOL    HW224414   4.253   6.576   1.118
 7839SOL     OW24415   5.613   4.508   5.050
 7839SOL    HW124416   5.596   4.431   5.111
 7839SOL    HW224417   5.537   4.573   5.057
 7840SOL     OW24418   6.580   3.101   4.177
 7840SOL    HW124419   6.496   3.104   4.124
 7840SOL    HW224420   6.561   3.128   4.272
 7841SOL     OW24421   3.719   1.749   6.188
 7841SOL    HW124422   3.674   1.781   6.271
 7841SOL    HW224423   3.774   1.668   6.209
 7842SOL     OW24424   2.652   2.241   2.791
 7842SOL    HW124425   2.703   2.163   2.829
 7842SOL    HW224426   2.708   2.287   2.722
 7843SOL     OW24427   0.903   6.029   3.256
 7843SOL    HW124428   0.832   6.079   3.206
 7843SOL    HW224429   0.993   6.066   3.231
 7844SOL     OW24430   3.136   0.947   3.273
 7844SOL    HW124431   3.204   0.881   3.305
 7844SOL    HW224432   3.178   1.007   3.204
 7845SOL     OW24433   5.465   1.947   2.842
 7845SOL    HW124434   5.420   1.893   2.770
 7845SOL    HW224435   5.475   2.042   2.812
 7846SOL     OW24436   0.504   2.383   0.723
 7846SOL    HW124437   0.575   2.317   0.695
 7846SOL    HW224438   0.433   2.386   0.653
 7847SOL     OW24439   6.495   1.395   3.266
 7847SOL    HW124440   6.529   1.404   3.172
 7847SOL    HW224441   6.427   1.466   3.284
 7848SOL     OW24442   3.446   4.871   0.607
 7848SOL    HW124443   3.355   4.883   0.646
 7848SOL    HW224444   3.515   4.882   0.679
 7849SOL     OW24445   6.310   4.474   4.686
 7849SOL    HW124446   6.351   4.472   4.777
 7849SOL    HW224447   6.324   4.565   4.646
 7850SOL     OW24448   0.334   1.368   4.320
 7850SOL    HW124449   0.387   1.395   4.240
 7850SOL    HW224450   0.304   1.449   4.369
 7851SOL     OW24451   6.592   1.717   1.159
 7851SOL    HW124452   6.603   1.760   1.249
 7851SOL    HW224453   6.516   1.760   1.111
 7852SOL     OW24454   3.571   1.856   6.388
 7852SOL    HW124455   3.477   1.864   6.354
 7852SOL    HW224456   3.596   1.940   6.436
 7853SOL     OW24457   4.987   2.291   1.788
 7853SOL    HW124458   5.010   2.218   1.852
 7853SOL    HW224459   5.044   2.371   1.806
 7854SOL     OW24460   3.490   3.499   6.215
 7854SOL    HW124461   3.532   3.456   6.295
 7854SOL    HW224462   3.461   3.592   6.239
 7855SOL     OW24463   4.407   6.717   4.393
 7855SOL    HW124464   4.343   6.656   4.440
 7855SOL    HW224465   4.486   6.665   4.362
 7856SOL     OW24466   6.421   5.664   5.174
 7856SOL    HW124467   6.452   5.572   5.154
 7856SOL    HW224468   6.353   5.692   5.106
 7857SOL     OW24469   4.648   2.979   0.346
 7857SOL    HW124470   4.569   3.000   0.288
 7857SOL    HW224471   4.637   3.022   0.436
 7858SOL     OW24472   6.272   6.457   4.012
 7858SOL    HW124473   6.359   6.506   4.016
 7858SOL    HW224474   6.286   6.361   4.039
 7859SOL     OW24475   4.319   2.948   6.119
 7859SOL    HW124476   4.415   2.931   6.137
 7859SOL    HW224477   4.291   3.031   6.167
 7860SOL     OW24478   4.223   0.970   3.962
 7860SOL    HW124479   4.147   1.028   3.992
 7860SOL    HW224480   4.219   0.882   4.008
 7861SOL     OW24481   3.484   4.715   1.608
 7861SOL    HW124482   3.542   4.702   1.688
 7861SOL    HW224483   3.398   4.666   1.621
 7862SOL     OW24484   2.418   5.025   1.566
 7862SOL    HW124485   2.352   4.964   1.523
 7862SOL    HW224486   2.372   5.110   1.593
 7863SOL     OW24487   6.969   4.161   4.266
 7863SOL    HW124488   6.926   4.120   4.185
 7863SOL    HW224489   7.013   4.247   4.241
 7864SOL     OW24490   0.527   5.419   5.654
 7864SOL    HW124491   0.567   5.384   5.739
 7864SOL    HW224492   0.441   5.372   5.635
 7865SOL     OW24493   6.729   5.846   3.900
 7865SOL    HW124494   6.727   5.944   3.879
 7865SOL    HW224495   6.708   5.831   3.996
 7866SOL     OW24496   0.583   1.116   5.495
 7866SOL    HW124497   0.599   1.212   5.473
 7866SOL    HW224498   0.641   1.089   5.571
 7867SOL     OW24499   6.141   6.005   3.435
 7867SOL    HW124500   6.225   6.056   3.412
 7867SOL    HW224501   6.082   6.002   3.355
 7868SOL     OW24502   4.409   5.895   1.760
 7868SOL    HW124503   4.351   5.974   1.740
 7868SOL    HW224504   4.456   5.910   1.848
 7869SOL     OW24505   5.238   4.261   6.704
 7869SOL    HW124506   5.221   4.222   6.794
 7869SOL    HW224507   5.331   4.238   6.675
 7870SOL     OW24508   5.358   6.186   4.101
 7870SOL    HW124509   5.330   6.235   4.019
 7870SOL    HW224510   5.331   6.238   4.182
 7871SOL     OW24511   4.589   2.098   1.580
 7871SOL    HW124512   4.495   2.115   1.551
 7871SOL    HW224513   4.622   2.015   1.536
 7872SOL     OW24514   2.113   3.610   3.069
 7872SOL    HW124515   2.120   3.526   3.015
 7872SOL    HW224516   2.133   3.589   3.165
 7873SOL     OW24517   5.924   6.654   6.594
 7873SOL    HW124518   5.850   6.721   6.591
 7873SOL    HW224519   6.012   6.702   6.593
 7874SOL     OW24520   5.112   2.245   0.613
 7874SOL    HW124521   5.211   2.236   0.623
 7874SOL    HW224522   5.080   2.186   0.539
 7875SOL     OW24523   4.411   2.498   6.486
 7875SOL    HW124524   4.321   2.480   6.526
 7875SOL    HW224525   4.443   2.416   6.438
 7876SOL     OW24526   1.573   6.516   3.382
 7876SOL    HW124527   1.649   6.451   3.378
 7876SOL    HW224528   1.505   6.485   3.447
 7877SOL     OW24529   0.572   1.531   2.929
 7877SOL    HW124530   0.608   1.624   2.932
 7877SOL    HW224531   0.511   1.521   2.850
 7878SOL     OW24532   4.900   4.500   4.727
 7878SOL    HW124533   4.873   4.412   4.767
 7878SOL    HW224534   4.990   4.525   4.762
 7879SOL     OW24535   3.766   5.340   3.320
 7879SOL    HW124536   3.693   5.324   3.253
 7879SOL    HW224537   3.814   5.254   3.338
 7880SOL     OW24538   1.888   3.910   1.965
 7880SOL    HW124539   1.947   3.959   2.029
 7880SOL    HW224540   1.821   3.973   1.926
 7881SOL     OW24541   5.769   4.937   5.342
 7881SOL    HW124542   5.788   4.972   5.250
 7881SOL    HW224543   5.854   4.904   5.383
 7882SOL     OW24544   1.515   3.857   2.077
 7882SOL    HW124545   1.564   3.927   2.128
 7882SOL    HW224546   1.578   3.784   2.051
 7883SOL     OW24547   1.109   0.683   0.120
 7883SOL    HW124548   1.036   0.714   0.180
 7883SOL    HW224549   1.175   0.629   0.172
 7884SOL     OW24550   2.021   4.269   4.544
 7884SOL    HW124551   1.974   4.345   4.500
 7884SOL    HW224552   1.972   4.242   4.627
 7885SOL     OW24553   6.538   5.530   1.064
 7885SOL    HW124554   6.468   5.596   1.090
 7885SOL    HW224555   6.586   5.498   1.146
 7886SOL     OW24556   3.841   5.550   0.228
 7886SOL    HW124557   3.766   5.536   0.293
 7886SOL    HW224558   3.925   5.572   0.278
 7887SOL     OW24559   3.121   2.449   5.784
 7887SOL    HW124560   3.189   2.377   5.795
 7887SOL    HW224561   3.164   2.538   5.799
 7888SOL     OW24562   6.248   0.187   5.597
 7888SOL    HW124563   6.233   0.122   5.671
 7888SOL    HW224564   6.286   0.272   5.633
 7889SOL     OW24565   1.789   3.725   2.300
 7889SOL    HW124566   1.783   3.661   2.376
 7889SOL    HW224567   1.788   3.674   2.213
 7890SOL     OW24568   1.880   3.113   2.941
 7890SOL    HW124569   1.968   3.078   2.973
 7890SOL    HW224570   1.841   3.049   2.874
 7891SOL     OW24571   1.865   2.886   3.707
 7891SOL    HW124572   1.947   2.891   3.650
 7891SOL    HW224573   1.825   2.795   3.700
 7892SOL     OW24574   2.421   1.363   3.736
 7892SOL    HW124575   2.491   1.378   3.806
 7892SOL    HW224576   2.463   1.321   3.656
 7893SOL     OW24577   6.933   6.693   2.862
 7893SOL    HW124578   6.864   6.748   2.816
 7893SOL    HW224579   6.891   6.610   2.899
 7894SOL     OW24580   3.036   0.793   1.169
 7894SOL    HW124581   3.073   0.702   1.190
 7894SOL    HW224582   3.089   0.862   1.219
 7895SOL     OW24583   6.212   0.934   5.770
 7895SOL    HW124584   6.225   0.971   5.678
 7895SOL    HW224585   6.140   0.985   5.817
 7896SOL     OW24586   4.901   3.675   6.715
 7896SOL    HW124587   4.860   3.603   6.659
 7896SOL    HW224588   4.989   3.702   6.676
 7897SOL     OW24589   2.784   4.174   6.925
 7897SOL    HW124590   2.766   4.268   6.956
 7897SOL    HW224591   2.718   4.112   6.968
 7898SOL     OW24592   5.078   1.827   3.545
 7898SOL    HW124593   5.106   1.901   3.605
 7898SOL    HW224594   5.056   1.746   3.599
 7899SOL     OW24595   6.210   1.020   1.243
 7899SOL    HW124596   6.203   1.023   1.143
 7899SOL    HW224597   6.246   0.931   1.271
 7900SOL     OW24598   1.605   5.752   1.497
 7900SOL    HW124599   1.569   5.738   1.405
 7900SOL    HW224600   1.530   5.775   1.559
 7901SOL     OW24601   5.096   1.441   6.401
 7901SOL    HW124602   5.019   1.396   6.354
 7901SOL    HW224603   5.159   1.371   6.435
 7902SOL     OW24604   5.498   5.679   1.489
 7902SOL    HW124605   5.499   5.747   1.563
 7902SOL    HW224606   5.586   5.681   1.441
 7903SOL     OW24607   5.665   1.586   0.454
 7903SOL    HW124608   5.755   1.618   0.426
 7903SOL    HW224609   5.607   1.664   0.476
 7904SOL     OW24610   5.667   6.674   3.279
 7904SOL    HW124611   5.593   6.621   3.238
 7904SOL    HW224612   5.706   6.735   3.211
 7905SOL     OW24613   4.601   2.505   0.840
 7905SOL    HW124614   4.593   2.446   0.760
 7905SOL    HW224615   4.694   2.499   0.876
 7906SOL     OW24616   6.972   5.329   0.323
 7906SOL    HW124617   0.021   5.392   0.359
 7906SOL    HW224618   6.934   5.366   0.238
 7907SOL     OW24619   5.867   2.104   3.483
 7907SOL    HW124620   5.955   2.073   3.448
 7907SOL    HW224621   5.809   2.025   3.504
 7908SOL     OW24622   0.579   1.719   4.719
 7908SOL    HW124623   0.562   1.637   4.663
 7908SOL    HW224624   0.508   1.787   4.700
 7909SOL     OW24625   5.456   3.461   5.163
 7909SOL    HW124626   5.422   3.517   5.088
 7909SOL    HW224627   5.384   3.450   5.231
 7910SOL     OW24628   2.772   3.265   5.801
 7910SOL    HW124629   2.846   3.210   5.760
 7910SOL    HW224630   2.811   3.343   5.848
 7911SOL     OW24631   1.314   2.956   6.494
 7911SOL    HW124632   1.225   2.996   6.477
 7911SOL    HW224633   1.333   2.956   6.593
 7912SOL     OW24634   0.081   5.045   0.128
 7912SOL    HW124635   7.014   5.092   0.147
 7912SOL    HW224636   0.110   5.065   0.035
 7913SOL     OW24637   1.312   5.241   1.152
 7913SOL    HW124638   1.257   5.159   1.135
 7913SOL    HW224639   1.385   5.219   1.217
 7914SOL     OW24640   0.028   4.667   6.023
 7914SOL    HW124641   0.113   4.714   6.050
 7914SOL    HW224642   0.046   4.569   6.012
 7915SOL     OW24643   4.850   2.891   2.422
 7915SOL    HW124644   4.888   2.953   2.353
 7915SOL    HW224645   4.791   2.825   2.378
 7916SOL     OW24646   6.881   3.716   5.365
 7916SOL    HW124647   6.865   3.815   5.372
 7916SOL    HW224648   6.891   3.677   5.456
 7917SOL     OW24649   3.170   3.593   3.450
 7917SOL    HW124650   3.217   3.661   3.507
 7917SOL    HW224651   3.230   3.565   3.375
 7918SOL     OW24652   0.241   1.923   0.058
 7918SOL    HW124653   0.227   1.855   7.006
 7918SOL    HW224654   0.239   1.878   0.148
 7919SOL     OW24655   1.329   4.835   3.127
 7919SOL    HW124656   1.265   4.882   3.188
 7919SOL    HW224657   1.320   4.736   3.139
 7920SOL     OW24658   0.662   5.248   1.172
 7920SOL    HW124659   0.642   5.153   1.147
 7920SOL    HW224660   0.585   5.306   1.147
 7921SOL     OW24661   4.442   6.132   0.828
 7921SOL    HW124662   4.393   6.130   0.741
 7921SOL    HW224663   4.537   6.157   0.813
 7922SOL     OW24664   6.478   5.809   0.309
 7922SOL    HW124665   6.407   5.843   0.248
 7922SOL    HW224666   6.485   5.709   0.300
 7923SOL     OW24667   3.153   0.766   2.067
 7923SOL    HW124668   3.072   0.805   2.111
 7923SOL    HW224669   3.125   0.689   2.009
 7924SOL     OW24670   4.447   6.471   2.973
 7924SOL    HW124671   4.373   6.538   2.964
 7924SOL    HW224672   4.441   6.427   3.063
 7925SOL     OW24673   0.530   1.897   6.268
 7925SOL    HW124674   0.522   1.824   6.336
 7925SOL    HW224675   0.471   1.973   6.293
 7926SOL     OW24676   5.028   1.388   5.116
 7926SOL    HW124677   5.082   1.410   5.198
 7926SOL    HW224678   4.960   1.459   5.101
 7927SOL     OW24679   4.077   5.527   4.688
 7927SOL    HW124680   4.103   5.484   4.602
 7927SOL    HW224681   4.150   5.589   4.718
 7928SOL     OW24682   1.532   2.599   4.403
 7928SOL    HW124683   1.509   2.643   4.490
 7928SOL    HW224684   1.573   2.510   4.421
 7929SOL     OW24685   3.725   4.226   5.495
 7929SOL    HW124686   3.751   4.135   5.527
 7929SOL    HW224687   3.631   4.225   5.463
 7930SOL     OW24688   4.817   5.643   3.744
 7930SOL    HW124689   4.844   5.721   3.801
 7930SOL    HW224690   4.858   5.560   3.780
 7931SOL     OW24691   1.610   1.690   6.358
 7931SOL    HW124692   1.528   1.690   6.416
 7931SOL    HW224693   1.627   1.597   6.325
 7932SOL     OW24694   3.211   6.172   6.487
 7932SOL    HW124695   3.216   6.266   6.454
 7932SOL    HW224696   3.299   6.144   6.524
 7933SOL     OW24697   0.262   6.274   6.972
 7933SOL    HW124698   0.314   6.223   0.022
 7933SOL    HW224699   0.255   6.219   6.889
 7934SOL     OW24700   2.246   4.736   6.691
 7934SOL    HW124701   2.305   4.657   6.705
 7934SOL    HW224702   2.158   4.707   6.653
 7935SOL     OW24703   5.589   5.838   0.151
 7935SOL    HW124704   5.522   5.804   0.217
 7935SOL    HW224705   5.626   5.925   0.184
 7936SOL     OW24706   3.804   4.886   3.053
 7936SOL    HW124707   3.820   4.973   3.100
 7936SOL    HW224708   3.864   4.816   3.092
 7937SOL     OW24709   6.260   6.797   3.612
 7937SOL    HW124710   6.286   6.725   3.547
 7937SOL    HW224711   6.304   6.779   3.700
 7938SOL     OW24712   6.169   5.093   5.060
 7938SOL    HW124713   6.222   5.009   5.064
 7938SOL    HW224714   6.073   5.071   5.042
 7939SOL     OW24715   0.749   2.447   5.642
 7939SOL    HW124716   0.781   2.540   5.654
 7939SOL    HW224717   0.652   2.448   5.617
 7940SOL     OW24718   1.628   3.863   2.724
 7940SOL    HW124719   1.705   3.801   2.735
 7940SOL    HW224720   1.623   3.893   2.629
 7941SOL     OW24721   6.779   6.837   0.681
 7941SOL    HW124722   6.844   6.765   0.708
 7941SOL    HW224723   6.828   6.923   0.669
 7942SOL     OW24724   6.444   5.773   2.863
 7942SOL    HW124725   6.499   5.827   2.927
 7942SOL    HW224726   6.504   5.727   2.798
 7943SOL     OW24727   5.884   2.402   0.250
 7943SOL    HW124728   5.962   2.455   0.284
 7943SOL    HW224729   5.799   2.451   0.270
 7944SOL     OW24730   0.523   3.218   1.525
 7944SOL    HW124731   0.457   3.250   1.458
 7944SOL    HW224732   0.553   3.125   1.501
 7945SOL     OW24733   5.303   6.195   2.231
 7945SOL    HW124734   5.242   6.115   2.226
 7945SOL    HW224735   5.249   6.278   2.214
 7946SOL     OW24736   2.486   2.055   5.843
 7946SOL    HW124737   2.551   2.049   5.920
 7946SOL    HW224738   2.459   2.150   5.830
 7947SOL     OW24739   3.794   2.841   6.343
 7947SOL    HW124740   3.699   2.853   6.316
 7947SOL    HW224741   3.849   2.816   6.263
 7948SOL     OW24742   0.516   6.144   1.029
 7948SOL    HW124743   0.432   6.122   0.978
 7948SOL    HW224744   0.525   6.082   1.107
 7949SOL     OW24745   4.418   4.549   4.112
 7949SOL    HW124746   4.469   4.471   4.149
 7949SOL    HW224747   4.351   4.580   4.180
 7950SOL     OW24748   5.091   5.415   4.113
 7950SOL    HW124749   5.039   5.374   4.188
 7950SOL    HW224750   5.189   5.412   4.136
 7951SOL     OW24751   1.458   3.658   1.319
 7951SOL    HW124752   1.524   3.594   1.359
 7951SOL    HW224753   1.371   3.611   1.304
 7952SOL     OW24754   0.763   3.623   6.814
 7952SOL    HW124755   0.675   3.608   6.769
 7952SOL    HW224756   0.814   3.694   6.763
 7953SOL     OW24757   2.142   2.695   3.317
 7953SOL    HW124758   2.047   2.695   3.348
 7953SOL    HW224759   2.148   2.654   3.226
 7954SOL     OW24760   4.511   4.543   5.396
 7954SOL    HW124761   4.594   4.572   5.444
 7954SOL    HW224762   4.438   4.608   5.415
 7955SOL     OW24763   1.434   6.724   6.411
 7955SOL    HW124764   1.402   6.739   6.317
 7955SOL    HW224765   1.444   6.626   6.428
 7956SOL     OW24766   2.754   6.070   2.783
 7956SOL    HW124767   2.673   6.129   2.785
 7956SOL    HW224768   2.826   6.109   2.841
 7957SOL     OW24769   2.013   1.318   0.374
 7957SOL    HW124770   2.073   1.238   0.382
 7957SOL    HW224771   2.064   1.394   0.334
 7958SOL     OW24772   3.067   5.501   4.200
 7958SOL    HW124773   3.077   5.601   4.200
 7958SOL    HW224774   3.143   5.460   4.150
 7959SOL     OW24775   4.066   5.806   1.274
 7959SOL    HW124776   4.104   5.879   1.217
 7959SOL    HW224777   4.114   5.720   1.253
 7960SOL     OW24778   3.542   1.735   0.748
 7960SOL    HW124779   3.529   1.696   0.657
 7960SOL    HW224780   3.520   1.666   0.817
 7961SOL     OW24781   1.044   6.195   0.594
 7961SOL    HW124782   1.001   6.107   0.573
 7961SOL    HW224783   1.142   6.190   0.576
 7962SOL     OW24784   1.745   0.081   0.024
 7962SOL    HW124785   1.805   0.047   6.972
 7962SOL    HW224786   1.670   0.133   7.003
 7963SOL     OW24787   6.857   0.571   3.653
 7963SOL    HW124788   6.774   0.623   3.670
 7963SOL    HW224789   6.874   0.507   3.729
 7964SOL     OW24790   6.723   5.275   3.207
 7964SOL    HW124791   6.809   5.249   3.162
 7964SOL    HW224792   6.646   5.239   3.155
 7965SOL     OW24793   3.347   3.196   6.652
 7965SOL    HW124794   3.332   3.291   6.677
 7965SOL    HW224795   3.276   3.166   6.588
 7966SOL     OW24796   0.184   3.141   5.436
 7966SOL    HW124797   0.283   3.154   5.429
 7966SOL    HW224798   0.155   3.071   5.371
 7967SOL     OW24799   2.976   6.209   4.180
 7967SOL    HW124800   2.974   6.308   4.196
 7967SOL    HW224801   3.066   6.173   4.203
 7968SOL     OW24802   2.150   2.425   3.643
 7968SOL    HW124803   2.062   2.428   3.595
 7968SOL    HW224804   2.205   2.350   3.606
 7969SOL     OW24805   4.530   0.079   2.492
 7969SOL    HW124806   4.627   0.089   2.514
 7969SOL    HW224807   4.477   0.077   2.576
 7970SOL     OW24808   0.205   3.578   3.080
 7970SOL    HW124809   0.150   3.570   3.163
 7970SOL    HW224810   0.302   3.569   3.103
 7971SOL     OW24811   3.828   1.379   0.616
 7971SOL    HW124812   3.791   1.468   0.641
 7971SOL    HW224813   3.905   1.391   0.553
 7972SOL     OW24814   0.902   3.808   1.587
 7972SOL    HW124815   0.952   3.894   1.588
 7972SOL    HW224816   0.966   3.732   1.584
 7973SOL     OW24817   5.067   4.243   3.221
 7973SOL    HW124818   4.993   4.186   3.185
 7973SOL    HW224819   5.059   4.335   3.183
 7974SOL     OW24820   5.430   0.503   4.973
 7974SOL    HW124821   5.523   0.466   4.972
 7974SOL    HW224822   5.419   0.567   4.897
 7975SOL     OW24823   6.048   0.678   2.942
 7975SOL    HW124824   6.061   0.776   2.929
 7975SOL    HW224825   6.127   0.629   2.904
 7976SOL     OW24826   0.830   0.557   6.036
 7976SOL    HW124827   0.860   0.518   6.123
 7976SOL    HW224828   0.895   0.628   6.007
 7977SOL     OW24829   4.630   5.194   1.999
 7977SOL    HW124830   4.583   5.275   2.035
 7977SOL    HW224831   4.562   5.127   1.968
 7978SOL     OW24832   5.722   3.285   6.168
 7978SOL    HW124833   5.715   3.324   6.259
 7978SOL    HW224834   5.708   3.358   6.100
 7979SOL     OW24835   3.862   0.596   5.355
 7979SOL    HW124836   3.869   0.668   5.423
 7979SOL    HW224837   3.778   0.544   5.371
 7980SOL     OW24838   2.453   5.980   6.989
 7980SOL    HW124839   2.539   6.030   6.993
 7980SOL    HW224840   2.420   5.977   6.895
 7981SOL     OW24841   0.509   5.972   2.563
 7981SOL    HW124842   0.449   6.053   2.560
 7981SOL    HW224843   0.517   5.941   2.657
 7982SOL     OW24844   6.841   2.005   6.983
 7982SOL    HW124845   6.914   2.059   0.005
 7982SOL    HW224846   6.858   1.996   6.885
 7983SOL     OW24847   5.803   2.150   2.480
 7983SOL    HW124848   5.720   2.193   2.445
 7983SOL    HW224849   5.814   2.173   2.577
 7984SOL     OW24850   1.340   1.993   1.623
 7984SOL    HW124851   1.427   1.956   1.591
 7984SOL    HW224852   1.336   2.091   1.602
 7985SOL     OW24853   2.389   6.610   3.632
 7985SOL    HW124854   2.459   6.661   3.682
 7985SOL    HW224855   2.405   6.512   3.641
 7986SOL     OW24856   3.127   0.590   6.697
 7986SOL    HW124857   3.050   0.592   6.634
 7986SOL    HW224858   3.114   0.517   6.765
 7987SOL     OW24859   1.095   3.618   6.585
 7987SOL    HW124860   1.137   3.570   6.662
 7987SOL    HW224861   1.121   3.573   6.500
 7988SOL     OW24862   1.508   1.710   4.131
 7988SOL    HW124863   1.588   1.755   4.092
 7988SOL    HW224864   1.430   1.723   4.071
 7989SOL     OW24865   3.080   2.541   5.302
 7989SOL    HW124866   3.168   2.587   5.314
 7989SOL    HW224867   3.087   2.474   5.229
 7990SOL     OW24868   6.074   3.915   3.693
 7990SOL    HW124869   6.038   3.893   3.783
 7990SOL    HW224870   6.007   3.890   3.623
 7991SOL     OW24871   6.399   0.766   4.854
 7991SOL    HW124872   6.338   0.730   4.924
 7991SOL    HW224873   6.348   0.781   4.769
 7992SOL     OW24874   1.530   6.701   1.154
 7992SOL    HW124875   1.611   6.742   1.196
 7992SOL    HW224876   1.450   6.757   1.176
 7993SOL     OW24877   1.717   6.083   6.807
 7993SOL    HW124878   1.716   6.132   6.719
 7993SOL    HW224879   1.699   5.986   6.791
 7994SOL     OW24880   4.826   0.259   3.221
 7994SOL    HW124881   4.753   0.215   3.170
 7994SOL    HW224882   4.900   0.193   3.237
 7995SOL     OW24883   4.261   5.226   3.631
 7995SOL    HW124884   4.297   5.318   3.645
 7995SOL    HW224885   4.277   5.171   3.713
 7996SOL     OW24886   2.977   6.905   5.155
 7996SOL    HW124887   3.013   6.821   5.114
 7996SOL    HW224888   2.949   6.968   5.083
 7997SOL     OW24889   6.868   1.378   0.562
 7997SOL    HW124890   6.823   1.357   0.476
 7997SOL    HW224891   6.966   1.361   0.553
 7998SOL     OW24892   3.755   5.210   1.051
 7998SOL    HW124893   3.758   5.137   1.119
 7998SOL    HW224894   3.840   5.208   0.998
 7999SOL     OW24895   1.521   0.182   6.086
 7999SOL    HW124896   1.609   0.139   6.106
 7999SOL    HW224897   1.498   0.245   6.160
 8000SOL     OW24898   5.303   0.940   6.800
 8000SOL    HW124899   5.211   0.975   6.783
 8000SOL    HW224900   5.297   0.855   6.853
 8001SOL     OW24901   3.691   5.954   1.124
 8001SOL    HW124902   3.700   5.887   1.050
 8001SOL    HW224903   3.651   5.910   1.204
 8002SOL     OW24904   0.950   2.726   5.276
 8002SOL    HW124905   0.938   2.784   5.357
 8002SOL    HW224906   1.012   2.651   5.298
 8003SOL     OW24907   2.321   4.682   2.518
 8003SOL    HW124908   2.306   4.779   2.538
 8003SOL    HW224909   2.416   4.659   2.536
 8004SOL     OW24910   1.459   3.930   3.643
 8004SOL    HW124911   1.387   3.916   3.711
 8004SOL    HW224912   1.496   3.842   3.614
 8005SOL     OW24913   3.246   1.612   2.117
 8005SOL    HW124914   3.238   1.701   2.071
 8005SOL    HW224915   3.187   1.611   2.198
 8006SOL     OW24916   2.846   6.736   0.422
 8006SOL    HW124917   2.814   6.700   0.509
 8006SOL    HW224918   2.876   6.661   0.363
 8007SOL     OW24919   1.109   0.223   4.461
 8007SOL    HW124920   1.160   0.237   4.546
 8007SOL    HW224921   1.141   0.289   4.393
 8008SOL     OW24922   4.396   6.536   6.252
 8008SOL    HW124923   4.433   6.527   6.160
 8008SOL    HW224924   4.297   6.549   6.247
 8009SOL     OW24925   6.259   0.513   2.884
 8009SOL    HW124926   6.280   0.509   2.982
 8009SOL    HW224927   6.337   0.549   2.834
 8010SOL     OW24928   1.289   1.542   0.166
 8010SOL    HW124929   1.370   1.576   0.119
 8010SOL    HW224930   1.312   1.521   0.261
 8011SOL     OW24931   2.755   2.833   0.674
 8011SOL    HW124932   2.745   2.770   0.751
 8011SOL    HW224933   2.706   2.797   0.595
 8012SOL     OW24934   2.535   6.124   1.603
 8012SOL    HW124935   2.615   6.068   1.582
 8012SOL    HW224936   2.484   6.143   1.519
 8013SOL     OW24937   0.654   5.274   4.398
 8013SOL    HW124938   0.629   5.182   4.367
 8013SOL    HW224939   0.705   5.268   4.484
 8014SOL     OW24940   0.710   5.799   5.059
 8014SOL    HW124941   0.734   5.890   5.091
 8014SOL    HW224942   0.717   5.734   5.135
 8015SOL     OW24943   3.152   1.557   0.159
 8015SOL    HW124944   3.137   1.611   0.076
 8015SOL    HW224945   3.225   1.491   0.142
 8016SOL     OW24946   4.533   0.322   6.602
 8016SOL    HW124947   4.601   0.252   6.580
 8016SOL    HW224948   4.441   0.284   6.589
 8017SOL     OW24949   6.876   5.759   6.792
 8017SOL    HW124950   6.924   5.846   6.805
 8017SOL    HW224951   6.805   5.750   6.862
 8018SOL     OW24952   3.652   2.534   6.170
 8018SOL    HW124953   3.733   2.486   6.205
 8018SOL    HW224954   3.594   2.560   6.246
 8019SOL     OW24955   2.232   3.590   6.781
 8019SOL    HW124956   2.216   3.578   6.879
 8019SOL    HW224957   2.149   3.565   6.730
 8020SOL     OW24958   6.412   5.863   0.808
 8020SOL    HW124959   6.458   5.776   0.792
 8020SOL    HW224960   6.356   5.887   0.728
 8021SOL     OW24961   0.897   2.122   1.383
 8021SOL    HW124962   0.982   2.129   1.436
 8021SOL    HW224963   0.912   2.159   1.291
 8022SOL     OW24964   4.355   0.354   3.062
 8022SOL    HW124965   4.284   0.415   3.098
 8022SOL    HW224966   4.440   0.405   3.050
 8023SOL     OW24967   6.008   5.426   2.955
 8023SOL    HW124968   5.908   5.436   2.956
 8023SOL    HW224969   6.035   5.358   3.024
 8024SOL     OW24970   3.515   5.253   6.889
 8024SOL    HW124971   3.526   5.313   6.968
 8024SOL    HW224972   3.418   5.248   6.865
 8025SOL     OW24973   2.407   6.160   6.434
 8025SOL    HW124974   2.308   6.149   6.437
 8025SOL    HW224975   2.433   6.250   6.468
 8026SOL     OW24976   0.727   4.909   6.832
 8026SOL    HW124977   0.628   4.900   6.829
 8026SOL    HW224978   0.770   4.822   6.807
 8027SOL     OW24979   3.968   1.862   5.278
 8027SOL    HW124980   3.916   1.797   5.223
 8027SOL    HW224981   3.983   1.824   5.369
 8028SOL     OW24982   3.280   5.348   5.249
 8028SOL    HW124983   3.300   5.279   5.179
 8028SOL    HW224984   3.351   5.345   5.320
 8029SOL     OW24985   5.339   3.703   0.257
 8029SOL    HW124986   5.326   3.663   0.347
 8029SOL    HW224987   5.286   3.788   0.250
 8030SOL     OW24988   4.658   4.235   0.233
 8030SOL    HW124989   4.694   4.325   0.208
 8030SOL    HW224990   4.607   4.197   0.156
 8031SOL     OW24991   4.697   5.767   2.501
 8031SOL    HW124992   4.651   5.853   2.479
 8031SOL    HW224993   4.732   5.726   2.417
 8032SOL     OW24994   5.937   4.729   6.022
 8032SOL    HW124995   5.882   4.718   5.938
 8032SOL    HW224996   5.881   4.771   6.093
 8033SOL     OW24997   5.094   3.830   0.035
 8033SOL    HW124998   5.135   3.836   0.125
 8033SOL    HW224999   5.061   3.737   0.019
 8034SOL     OW25000   6.386   1.242   5.030
 8034SOL    HW125001   6.342   1.159   5.064
 8034SOL    HW225002   6.480   1.222   5.003
 8035SOL     OW25003   4.453   0.472   5.400
 8035SOL    HW125004   4.454   0.569   5.374
 8035SOL    HW225005   4.378   0.456   5.464
 8036SOL     OW25006   0.522   3.919   2.293
 8036SOL    HW125007   0.505   4.012   2.328
 8036SOL    HW225008   0.443   3.889   2.240
 8037SOL     OW25009   1.682   3.596   2.049
 8037SOL    HW125010   1.616   3.521   2.046
 8037SOL    HW225011   1.762   3.572   1.994
 8038SOL     OW25012   4.760   0.846   2.904
 8038SOL    HW125013   4.767   0.877   2.999
 8038SOL    HW225014   4.672   0.874   2.865
 8039SOL     OW25015   1.132   6.989   3.600
 8039SOL    HW125016   1.069   0.031   3.646
 8039SOL    HW225017   1.180   0.018   3.527
 8040SOL     OW25018   1.310   6.047   1.026
 8040SOL    HW125019   1.263   6.131   0.999
 8040SOL    HW225020   1.360   6.063   1.111
 8041SOL     OW25021   2.958   2.107   2.156
 8041SOL    HW125022   2.869   2.065   2.170
 8041SOL    HW225023   2.946   2.200   2.122
 8042SOL     OW25024   3.998   3.200   3.221
 8042SOL    HW125025   3.906   3.189   3.184
 8042SOL    HW225026   4.001   3.164   3.315
 8043SOL     OW25027   3.528   6.663   1.534
 8043SOL    HW125028   3.560   6.730   1.466
 8043SOL    HW225029   3.429   6.672   1.546
 8044SOL     OW25030   3.689   3.485   0.446
 8044SOL    HW125031   3.723   3.451   0.358
 8044SOL    HW225032   3.762   3.479   0.514
 8045SOL     OW25033   5.495   0.538   1.513
 8045SOL    HW125034   5.565   0.581   1.457
 8045SOL    HW225035   5.503   0.438   1.506
 8046SOL     OW25036   6.522   4.635   0.095
 8046SOL    HW125037   6.603   4.624   0.037
 8046SOL    HW225038   6.469   4.714   0.063
 8047SOL     OW25039   3.808   4.934   4.988
 8047SOL    HW125040   3.759   4.924   5.074
 8047SOL    HW225041   3.898   4.892   4.995
 8048SOL     OW25042   5.355   0.678   5.656
 8048SOL    HW125043   5.267   0.631   5.658
 8048SOL    HW225044   5.426   0.615   5.625
 8049SOL     OW25045   1.877   0.309   1.184
 8049SOL    HW125046   1.919   0.225   1.150
 8049SOL    HW225047   1.802   0.286   1.246
 8050SOL     OW25048   0.848   4.382   2.145
 8050SOL    HW125049   0.933   4.382   2.197
 8050SOL    HW225050   0.808   4.474   2.145
 8051SOL     OW25051   4.848   6.318   3.717
 8051SOL    HW125052   4.898   6.376   3.781
 8051SOL    HW225053   4.775   6.370   3.674
 8052SOL     OW25054   3.905   1.676   2.034
 8052SOL    HW125055   3.999   1.706   2.044
 8052SOL    HW225056   3.844   1.755   2.033
 8053SOL     OW25057   3.670   4.119   3.087
 8053SOL    HW125058   3.617   4.157   3.162
 8053SOL    HW225059   3.612   4.110   3.006
 8054SOL     OW25060   5.374   6.756   4.683
 8054SOL    HW125061   5.291   6.718   4.640
 8054SOL    HW225062   5.388   6.712   4.771
 8055SOL     OW25063   0.397   0.764   6.210
 8055SOL    HW125064   0.470   0.700   6.187
 8055SOL    HW225065   0.335   0.774   6.132
 8056SOL     OW25066   4.497   1.463   3.982
 8056SOL    HW125067   4.431   1.437   3.912
 8056SOL    HW225068   4.513   1.562   3.979
 8057SOL     OW25069   2.638   2.391   3.056
 8057SOL    HW125070   2.629   2.364   2.960
 8057SOL    HW225071   2.733   2.382   3.085
 8058SOL     OW25072   4.145   0.535   3.161
 8058SOL    HW125073   4.185   0.561   3.249
 8058SOL    HW225074   4.047   0.523   3.170
 8059SOL     OW25075   4.569   2.431   4.398
 8059SOL    HW125076   4.479   2.421   4.442
 8059SOL    HW225077   4.637   2.381   4.451
 8060SOL     OW25078   0.492   1.494   4.592
 8060SOL    HW125079   0.523   1.512   4.499
 8060SOL    HW225080   0.525   1.404   4.621
 8061SOL     OW25081   6.424   6.986   1.326
 8061SOL    HW125082   6.468   0.048   1.289
 8061SOL    HW225083   6.400   6.924   1.250
 8062SOL     OW25084   2.823   5.125   4.399
 8062SOL    HW125085   2.726   5.102   4.384
 8062SOL    HW225086   2.868   5.048   4.445
 8063SOL     OW25087   1.766   2.953   0.570
 8063SOL    HW125088   1.782   2.882   0.639
 8063SOL    HW225089   1.775   3.043   0.612
 8064SOL     OW25090   6.917   5.017   1.534
 8064SOL    HW125091   6.973   4.936   1.553
 8064SOL    HW225092   6.952   5.095   1.586
 8065SOL     OW25093   4.394   6.467   3.801
 8065SOL    HW125094   4.299   6.441   3.780
 8065SOL    HW225095   4.394   6.554   3.851
 8066SOL     OW25096   0.677   1.544   6.083
 8066SOL    HW125097   0.724   1.458   6.067
 8066SOL    HW225098   0.613   1.534   6.158
 8067SOL     OW25099   4.958   3.258   1.765
 8067SOL    HW125100   4.924   3.164   1.765
 8067SOL    HW225101   4.977   3.287   1.671
 8068SOL     OW25102   5.645   4.191   6.927
 8068SOL    HW125103   5.711   4.119   6.906
 8068SOL    HW225104   5.690   4.280   6.923
 8069SOL     OW25105   2.114   6.214   1.073
 8069SOL    HW125106   2.051   6.163   1.132
 8069SOL    HW225107   2.063   6.251   0.995
 8070SOL     OW25108   2.650   3.694   0.474
 8070SOL    HW125109   2.723   3.630   0.497
 8070SOL    HW225110   2.602   3.722   0.558
 8071SOL     OW25111   3.263   6.486   5.052
 8071SOL    HW125112   3.307   6.544   5.121
 8071SOL    HW225113   3.330   6.425   5.012
 8072SOL     OW25114   3.567   0.390   7.008
 8072SOL    HW125115   3.572   0.429   6.916
 8072SOL    HW225116   3.490   0.429   0.037
 8073SOL     OW25117   4.149   6.349   6.080
 8073SOL    HW125118   4.152   6.356   5.980
 8073SOL    HW225119   4.229   6.297   6.112
 8074SOL     OW25120   3.036   2.903   6.931
 8074SOL    HW125121   3.004   2.880   6.839
 8074SOL    HW225122   2.974   2.971   6.971
 8075SOL     OW25123   6.720   1.076   1.034
 8075SOL    HW125124   6.638   1.019   1.036
 8075SOL    HW225125   6.719   1.138   1.112
 8076SOL     OW25126   5.038   2.535   5.868
 8076SOL    HW125127   5.129   2.561   5.836
 8076SOL    HW225128   4.988   2.491   5.794
 8077SOL     OW25129   1.347   6.116   1.759
 8077SOL    HW125130   1.283   6.192   1.769
 8077SOL    HW225131   1.407   6.112   1.839
 8078SOL     OW25132   6.134   1.341   6.906
 8078SOL    HW125133   6.058   1.389   6.861
 8078SOL    HW225134   6.219   1.362   6.858
 8079SOL     OW25135   5.530   1.410   3.496
 8079SOL    HW125136   5.527   1.327   3.551
 8079SOL    HW225137   5.482   1.395   3.409
 8080SOL     OW25138   0.775   4.144   6.872
 8080SOL    HW125139   0.814   4.217   6.817
 8080SOL    HW225140   0.775   4.171   6.968
 8081SOL     OW25141   4.733   0.347   4.954
 8081SOL    HW125142   4.700   0.275   5.015
 8081SOL    HW225143   4.822   0.321   4.917
 8082SOL     OW25144   5.905   1.107   1.991
 8082SOL    HW125145   5.857   1.150   1.914
 8082SOL    HW225146   5.846   1.104   2.071
 8083SOL     OW25147   5.289   3.326   2.150
 8083SOL    HW125148   5.237   3.407   2.177
 8083SOL    HW225149   5.276   3.253   2.218
 8084SOL     OW25150   5.383   6.924   0.959
 8084SOL    HW125151   5.366   7.019   0.932
 8084SOL    HW225152   5.373   6.915   1.058
 8085SOL     OW25153   5.980   0.189   2.652
 8085SOL    HW125154   5.942   0.195   2.560
 8085SOL    HW225155   6.064   0.243   2.657
 8086SOL     OW25156   4.794   0.913   3.946
 8086SOL    HW125157   4.791   0.816   3.971
 8086SOL    HW225158   4.749   0.967   4.017
 8087SOL     OW25159   3.007   1.514   1.353
 8087SOL    HW125160   2.988   1.442   1.285
 8087SOL    HW225161   2.947   1.501   1.432
 8088SOL     OW25162   5.563   1.855   1.817
 8088SOL    HW125163   5.520   1.883   1.903
 8088SOL    HW225164   5.606   1.934   1.774
 8089SOL     OW25165   5.394   2.965   0.586
 8089SOL    HW125166   5.362   3.041   0.531
 8089SOL    HW225167   5.332   2.887   0.575
 8090SOL     OW25168   4.231   2.391   6.688
 8090SOL    HW125169   4.238   2.456   6.764
 8090SOL    HW225170   4.136   2.386   6.657
 8091SOL     OW25171   2.726   4.020   6.685
 8091SOL    HW125172   2.742   4.078   6.765
 8091SOL    HW225173   2.652   4.058   6.631
 8092SOL     OW25174   0.938   2.129   4.982
 8092SOL    HW125175   0.873   2.077   4.926
 8092SOL    HW225176   0.900   2.219   5.002
 8093SOL     OW25177   4.926   5.825   1.866
 8093SOL    HW125178   4.866   5.882   1.810
 8093SOL    HW225179   4.892   5.731   1.868
 8094SOL     OW25180   1.863   3.769   4.217
 8094SOL    HW125181   1.880   3.776   4.315
 8094SOL    HW225182   1.950   3.764   4.168
 8095SOL     OW25183   5.297   4.264   4.286
 8095SOL    HW125184   5.227   4.196   4.304
 8095SOL    HW225185   5.381   4.241   4.336
 8096SOL     OW25186   3.036   5.593   3.824
 8096SOL    HW125187   2.958   5.541   3.859
 8096SOL    HW225188   3.052   5.672   3.882
 8097SOL     OW25189   4.795   0.069   3.476
 8097SOL    HW125190   4.814   0.107   3.567
 8097SOL    HW225191   4.880   0.057   3.426
 8098SOL     OW25192   1.993   6.777   4.523
 8098SOL    HW125193   1.994   6.843   4.448
 8098SOL    HW225194   1.984   6.684   4.486
 8099SOL     OW25195   5.877   0.523   3.940
 8099SOL    HW125196   5.873   0.600   4.003
 8099SOL    HW225197   5.945   0.457   3.971
 8100SOL     OW25198   0.596   6.660   6.975
 8100SOL    HW125199   0.520   6.712   7.014
 8100SOL    HW225200   0.589   6.660   6.875
 8101SOL     OW25201   2.239   0.263   4.432
 8101SOL    HW125202   2.320   0.321   4.442
 8101SOL    HW225203   2.247   0.184   4.493
 8102SOL     OW25204   1.201   4.632   5.290
 8102SOL    HW125205   1.120   4.620   5.233
 8102SOL    HW225206   1.184   4.701   5.360
 8103SOL     OW25207   4.658   0.789   0.250
 8103SOL    HW125208   4.656   0.883   0.282
 8103SOL    HW225209   4.600   0.780   0.169
 8104SOL     OW25210   2.943   6.424   5.937
 8104SOL    HW125211   3.039   6.450   5.928
 8104SOL    HW225212   2.893   6.452   5.856
 8105SOL     OW25213   1.600   2.203   3.031
 8105SOL    HW125214   1.614   2.227   2.935
 8105SOL    HW225215   1.523   2.140   3.039
 8106SOL     OW25216   2.414   5.965   3.801
 8106SOL    HW125217   2.430   5.871   3.771
 8106SOL    HW225218   2.502   6.008   3.821
 8107SOL     OW25219   1.346   5.615   5.440
 8107SOL    HW125220   1.424   5.678   5.445
 8107SOL    HW225221   1.375   5.524   5.470
 8108SOL     OW25222   5.351   2.797   5.373
 8108SOL    HW125223   5.449   2.814   5.377
 8108SOL    HW225224   5.304   2.858   5.437
 8109SOL     OW25225   1.131   3.923   4.160
 8109SOL    HW125226   1.136   4.010   4.208
 8109SOL    HW225227   1.204   3.862   4.191
 8110SOL     OW25228   3.624   6.889   0.967
 8110SOL    HW125229   3.559   6.945   1.019
 8110SOL    HW225230   3.613   6.908   0.869
 8111SOL     OW25231   3.863   0.436   5.867
 8111SOL    HW125232   3.808   0.501   5.920
 8111SOL    HW225233   3.868   0.349   5.916
 8112SOL     OW25234   1.579   1.269   4.978
 8112SOL    HW125235   1.528   1.292   5.061
 8112SOL    HW225236   1.586   1.351   4.920
 8113SOL     OW25237   2.547   3.577   0.209
 8113SOL    HW125238   2.574   3.605   0.301
 8113SOL    HW225239   2.452   3.604   0.193
 8114SOL     OW25240   1.879   3.024   2.088
 8114SOL    HW125241   1.887   2.970   2.005
 8114SOL    HW225242   1.784   3.052   2.102
 8115SOL     OW25243   3.987   1.497   1.693
 8115SOL    HW125244   4.044   1.528   1.617
 8115SOL    HW225245   3.892   1.526   1.677
 8116SOL     OW25246   4.766   0.122   4.345
 8116SOL    HW125247   4.862   0.112   4.319
 8116SOL    HW225248   4.760   0.147   4.442
 8117SOL     OW25249   2.178   1.076   4.795
 8117SOL    HW125250   2.174   1.040   4.702
 8117SOL    HW225251   2.247   1.148   4.800
 8118SOL     OW25252   6.349   3.587   5.840
 8118SOL    HW125253   6.364   3.681   5.809
 8118SOL    HW225254   6.381   3.523   5.770
 8119SOL     OW25255   6.734   5.412   5.308
 8119SOL    HW125256   6.741   5.313   5.320
 8119SOL    HW225257   6.643   5.434   5.274
 8120SOL     OW25258   3.788   4.829   6.536
 8120SOL    HW125259   3.712   4.890   6.515
 8120SOL    HW225260   3.839   4.865   6.614
 8121SOL     OW25261   0.059   5.219   2.828
 8121SOL    HW125262   0.115   5.139   2.850
 8121SOL    HW225263   0.116   5.289   2.786
 8122SOL     OW25264   0.683   5.660   2.562
 8122SOL    HW125265   0.646   5.585   2.509
 8122SOL    HW225266   0.613   5.731   2.573
 8123SOL     OW25267   0.076   6.981   0.119
 8123SOL    HW125268   0.151   0.017   0.155
 8123SOL    HW225269   0.018   0.017   0.060
 8124SOL     OW25270   0.318   6.007   0.893
 8124SOL    HW125271   0.275   5.974   0.808
 8124SOL    HW225272   0.253   5.998   0.968
 8125SOL     OW25273   0.679   6.281   2.743
 8125SOL    HW125274   0.689   6.272   2.842
 8125SOL    HW225275   0.754   6.233   2.697
 8126SOL     OW25276   6.166   3.832   2.216
 8126SOL    HW125277   6.127   3.836   2.308
 8126SOL    HW225278   6.140   3.914   2.166
 8127SOL     OW25279   2.433   6.113   0.848
 8127SOL    HW125280   2.359   6.133   0.784
 8127SOL    HW225281   2.452   6.015   0.848
 8128SOL     OW25282   2.934   2.894   0.895
 8128SOL    HW125283   2.984   2.978   0.918
 8128SOL    HW225284   2.886   2.906   0.808
 8129SOL     OW25285   4.569   1.401   5.597
 8129SOL    HW125286   4.592   1.457   5.518
 8129SOL    HW225287   4.551   1.460   5.676
 8130SOL     OW25288   0.639   4.681   6.256
 8130SOL    HW125289   0.633   4.684   6.157
 8130SOL    HW225290   0.735   4.685   6.284
 8131SOL     OW25291   2.265   0.621   0.609
 8131SOL    HW125292   2.360   0.593   0.592
 8131SOL    HW225293   2.264   0.695   0.676
 8132SOL     OW25294   5.686   6.318   6.168
 8132SOL    HW125295   5.707   6.240   6.227
 8132SOL    HW225296   5.748   6.394   6.189
 8133SOL     OW25297   3.433   4.964   2.010
 8133SOL    HW125298   3.505   4.901   1.982
 8133SOL    HW225299   3.344   4.925   1.987
 8134SOL     OW25300   1.453   1.343   4.437
 8134SOL    HW125301   1.372   1.395   4.408
 8134SOL    HW225302   1.523   1.348   4.366
 8135SOL     OW25303   2.246   5.566   1.599
 8135SOL    HW125304   2.206   5.586   1.688
 8135SOL    HW225305   2.275   5.470   1.596
 8136SOL     OW25306   4.939   4.740   2.793
 8136SOL    HW125307   4.878   4.680   2.742
 8136SOL    HW225308   4.925   4.835   2.766
 8137SOL     OW25309   2.245   1.296   4.567
 8137SOL    HW125310   2.323   1.343   4.610
 8137SOL    HW225311   2.168   1.297   4.630
 8138SOL     OW25312   5.857   2.342   0.950
 8138SOL    HW125313   5.834   2.294   0.865
 8138SOL    HW225314   5.952   2.373   0.946
 8139SOL     OW25315   1.873   2.736   3.421
 8139SOL    HW125316   1.806   2.677   3.467
 8139SOL    HW225317   1.825   2.816   3.382
 8140SOL     OW25318   3.584   0.014   0.735
 8140SOL    HW125319   3.497   7.016   0.690
 8140SOL    HW225320   3.627   0.095   0.695
 8141SOL     OW25321   4.634   6.901   5.418
 8141SOL    HW125322   4.676   6.989   5.395
 8141SOL    HW225323   4.704   6.840   5.456
 8142SOL     OW25324   2.185   5.028   0.884
 8142SOL    HW125325   2.098   4.993   0.917
 8142SOL    HW225326   2.258   4.963   0.906
 8143SOL     OW25327   4.952   5.205   0.720
 8143SOL    HW125328   4.991   5.289   0.681
 8143SOL    HW225329   4.853   5.209   0.715
 8144SOL     OW25330   1.020   5.954   5.559
 8144SOL    HW125331   1.118   5.957   5.577
 8144SOL    HW225332   0.987   6.046   5.537
 8145SOL     OW25333   4.833   4.959   0.992
 8145SOL    HW125334   4.895   4.911   0.930
 8145SOL    HW225335   4.816   5.051   0.956
 8146SOL     OW25336   5.958   6.869   5.799
 8146SOL    HW125337   5.899   6.816   5.739
 8146SOL    HW225338   5.998   6.810   5.868
 8147SOL     OW25339   6.931   0.549   0.720
 8147SOL    HW125340   6.872   0.498   0.657
 8147SOL    HW225341   6.874   0.609   0.777
 8148SOL     OW25342   4.362   4.517   6.698
 8148SOL    HW125343   4.377   4.553   6.606
 8148SOL    HW225344   4.263   4.511   6.715
 8149SOL     OW25345   2.079   6.326   3.257
 8149SOL    HW125346   2.165   6.344   3.305
 8149SOL    HW225347   2.061   6.228   3.257
 8150SOL     OW25348   1.133   3.977   1.061
 8150SOL    HW125349   1.138   3.923   0.977
 8150SOL    HW225350   1.198   4.053   1.056
 8151SOL     OW25351   5.685   5.287   3.864
 8151SOL    HW125352   5.594   5.283   3.821
 8151SOL    HW225353   5.732   5.370   3.835
 8152SOL     OW25354   5.636   2.817   3.532
 8152SOL    HW125355   5.590   2.862   3.608
 8152SOL    HW225356   5.723   2.864   3.514
 8153SOL     OW25357   0.732   1.374   3.058
 8153SOL    HW125358   0.762   1.297   3.002
 8153SOL    HW225359   0.687   1.442   3.000
 8154SOL     OW25360   3.641   0.219   2.701
 8154SOL    HW125361   3.734   0.182   2.706
 8154SOL    HW225362   3.644   0.314   2.668
 8155SOL     OW25363   1.224   3.946   2.144
 8155SOL    HW125364   1.315   3.905   2.138
 8155SOL    HW225365   1.210   3.985   2.235
 8156SOL     OW25366   4.951   6.112   1.484
 8156SOL    HW125367   4.888   6.179   1.444
 8156SOL    HW225368   4.911   6.021   1.476
 8157SOL     OW25369   6.399   4.202   6.138
 8157SOL    HW125370   6.481   4.239   6.183
 8157SOL    HW225371   6.336   4.166   6.206
 8158SOL     OW25372   4.992   4.636   6.960
 8158SOL    HW125373   5.044   4.709   7.005
 8158SOL    HW225374   5.054   4.583   6.902
 8159SOL     OW25375   3.749   5.922   5.459
 8159SOL    HW125376   3.794   5.833   5.465
 8159SOL    HW225377   3.766   5.973   5.543
 8160SOL     OW25378   4.728   6.961   3.827
 8160SOL    HW125379   4.693   0.034   3.816
 8160SOL    HW225380   4.793   6.959   3.903
 8161SOL     OW25381   6.127   3.711   6.532
 8161SOL    HW125382   6.176   3.774   6.592
 8161SOL    HW225383   6.029   3.725   6.542
 8162SOL     OW25384   6.677   5.213   6.786
 8162SOL    HW125385   6.603   5.174   6.732
 8162SOL    HW225386   6.765   5.194   6.742
 8163SOL     OW25387   2.305   4.796   5.463
 8163SOL    HW125388   2.387   4.799   5.521
 8163SOL    HW225389   2.280   4.701   5.446
 8164SOL     OW25390   4.431   1.182   0.214
 8164SOL    HW125391   4.362   1.179   0.142
 8164SOL    HW225392   4.442   1.277   0.245
 8165SOL     OW25393   6.760   3.645   6.185
 8165SOL    HW125394   6.791   3.594   6.265
 8165SOL    HW225395   6.786   3.741   6.194
 8166SOL     OW25396   1.970   0.937   3.441
 8166SOL    HW125397   1.898   0.973   3.499
 8166SOL    HW225398   1.935   0.858   3.389
 8167SOL     OW25399   0.300   0.768   3.021
 8167SOL    HW125400   0.275   0.796   2.928
 8167SOL    HW225401   0.249   0.823   3.087
 8168SOL     OW25402   2.735   7.009   1.460
 8168SOL    HW125403   2.782   0.057   1.403
 8168SOL    HW225404   2.783   7.001   1.548
 8169SOL     OW25405   3.992   1.939   0.314
 8169SOL    HW125406   3.911   1.936   0.255
 8169SOL    HW225407   4.030   2.032   0.313
 8170SOL     OW25408   6.488   4.843   0.907
 8170SOL    HW125409   6.476   4.829   1.005
 8170SOL    HW225410   6.586   4.846   0.886
 8171SOL     OW25411   2.060   1.720   0.102
 8171SOL    HW125412   2.107   1.636   0.129
 8171SOL    HW225413   2.040   1.718   0.004
 8172SOL     OW25414   0.093   2.139   1.687
 8172SOL    HW125415   0.093   2.187   1.774
 8172SOL    HW225416   0.161   2.180   1.626
 8173SOL     OW25417   5.654   1.633   2.298
 8173SOL    HW125418   5.610   1.571   2.362
 8173SOL    HW225419   5.657   1.726   2.337
 8174SOL     OW25420   0.748   6.925   2.701
 8174SOL    HW125421   0.756   6.826   2.699
 8174SOL    HW225422   0.681   6.952   2.770
 8175SOL     OW25423   0.552   2.727   4.666
 8175SOL    HW125424   0.560   2.664   4.743
 8175SOL    HW225425   0.477   2.791   4.682
 8176SOL     OW25426   2.428   4.390   1.799
 8176SOL    HW125427   2.379   4.387   1.712
 8176SOL    HW225428   2.525   4.373   1.783
 8177SOL     OW25429   4.624   0.966   3.725
 8177SOL    HW125430   4.695   0.953   3.793
 8177SOL    HW225431   4.609   0.880   3.676
 8178SOL     OW25432   3.516   6.507   0.951
 8178SOL    HW125433   3.444   6.491   1.019
 8178SOL    HW225434   3.479   6.563   0.877
 8179SOL     OW25435   5.585   1.099   4.971
 8179SOL    HW125436   5.532   1.097   4.887
 8179SOL    HW225437   5.680   1.121   4.950
 8180SOL     OW25438   5.755   0.762   6.981
 8180SOL    HW125439   5.723   0.789   6.890
 8180SOL    HW225440   5.849   0.730   6.975
 8181SOL     OW25441   1.628   1.094   0.563
 8181SOL    HW125442   1.559   1.022   0.569
 8181SOL    HW225443   1.703   1.064   0.505
 8182SOL     OW25444   3.425   3.361   5.135
 8182SOL    HW125445   3.355   3.305   5.091
 8182SOL    HW225446   3.459   3.429   5.070
 8183SOL     OW25447   6.203   2.231   4.669
 8183SOL    HW125448   6.111   2.269   4.662
 8183SOL    HW225449   6.252   2.245   4.582
 8184SOL     OW25450   0.364   0.177   0.657
 8184SOL    HW125451   0.387   0.157   0.753
 8184SOL    HW225452   0.448   0.187   0.604
 8185SOL     OW25453   2.141   0.343   0.741
 8185SOL    HW125454   2.170   0.406   0.669
 8185SOL    HW225455   2.191   0.363   0.825
 8186SOL     OW25456   2.776   4.605   5.634
 8186SOL    HW125457   2.811   4.541   5.567
 8186SOL    HW225458   2.827   4.691   5.628
 8187SOL     OW25459   2.282   0.968   5.036
 8187SOL    HW125460   2.227   0.953   5.118
 8187SOL    HW225461   2.221   0.986   4.959
 8188SOL     OW25462   4.799   3.021   3.657
 8188SOL    HW125463   4.780   2.933   3.701
 8188SOL    HW225464   4.825   3.006   3.561
 8189SOL     OW25465   5.353   5.263   2.458
 8189SOL    HW125466   5.405   5.227   2.535
 8189SOL    HW225467   5.416   5.301   2.390
 8190SOL     OW25468   4.858   4.231   4.007
 8190SOL    HW125469   4.835   4.327   3.991
 8190SOL    HW225470   4.838   4.206   4.102
 8191SOL     OW25471   3.960   5.405   2.309
 8191SOL    HW125472   3.978   5.467   2.385
 8191SOL    HW225473   3.874   5.357   2.324
 8192SOL     OW25474   1.805   5.691   2.650
 8192SOL    HW125475   1.875   5.706   2.720
 8192SOL    HW225476   1.715   5.685   2.694
 8193SOL     OW25477   6.105   5.506   5.259
 8193SOL    HW125478   6.081   5.590   5.211
 8193SOL    HW225479   6.091   5.519   5.357
 8194SOL     OW25480   4.594   0.992   1.182
 8194SOL    HW125481   4.633   1.084   1.172
 8194SOL    HW225482   4.503   0.990   1.142
 8195SOL     OW25483   6.569   0.526   2.899
 8195SOL    HW125484   6.521   0.513   2.986
 8195SOL    HW225485   6.620   0.442   2.878
 8196SOL     OW25486   4.691   6.119   0.089
 8196SOL    HW125487   4.678   6.028   0.050
 8196SOL    HW225488   4.605   6.170   0.083
 8197SOL     OW25489   3.737   1.192   0.776
 8197SOL    HW125490   3.769   1.105   0.739
 8197SOL    HW225491   3.767   1.266   0.716
 8198SOL     OW25492   3.705   6.786   2.569
 8198SOL    HW125493   3.618   6.767   2.523
 8198SOL    HW225494   3.767   6.833   2.506
 8199SOL     OW25495   5.801   3.647   5.493
 8199SOL    HW125496   5.744   3.587   5.437
 8199SOL    HW225497   5.864   3.592   5.547
 8200SOL     OW25498   5.448   4.418   1.660
 8200SOL    HW125499   5.354   4.442   1.683
 8200SOL    HW225500   5.450   4.365   1.576
 8201SOL     OW25501   6.313   0.998   5.474
 8201SOL    HW125502   6.226   1.043   5.456
 8201SOL    HW225503   6.376   1.062   5.518
 8202SOL     OW25504   0.485   5.273   3.890
 8202SOL    HW125505   0.457   5.224   3.808
 8202SOL    HW225506   0.414   5.338   3.917
 8203SOL     OW25507   2.877   2.224   6.830
 8203SOL    HW125508   2.831   2.181   6.752
 8203SOL    HW225509   2.918   2.311   6.801
 8204SOL     OW25510   3.919   4.477   7.008
 8204SOL    HW125511   3.925   4.562   6.956
 8204SOL    HW225512   3.823   4.453   0.001
 8205SOL     OW25513   0.088   4.667   0.122
 8205SOL    HW125514   0.053   4.573   0.125
 8205SOL    HW225515   0.136   4.687   0.207
 8206SOL     OW25516   4.518   2.142   6.993
 8206SOL    HW125517   4.610   2.156   0.011
 8206SOL    HW225518   4.506   2.202   6.913
 8207SOL     OW25519   3.211   3.423   4.292
 8207SOL    HW125520   3.129   3.371   4.268
 8207SOL    HW225521   3.234   3.407   4.388
 8208SOL     OW25522   0.943   0.985   1.252
 8208SOL    HW125523   1.040   1.008   1.245
 8208SOL    HW225524   0.929   0.921   1.328
 8209SOL     OW25525   0.116   0.908   4.391
 8209SOL    HW125526   0.051   0.961   4.444
 8209SOL    HW225527   0.180   0.970   4.345
 8210SOL     OW25528   2.298   2.025   0.776
 8210SOL    HW125529   2.201   2.049   0.769
 8210SOL    HW225530   2.348   2.098   0.822
 8211SOL     OW25531   3.914   4.321   1.414
 8211SOL    HW125532   3.860   4.238   1.398
 8211SOL    HW225533   3.857   4.402   1.399
 8212SOL     OW25534   1.289   2.648   3.109
 8212SOL    HW125535   1.369   2.664   3.167
 8212SOL    HW225536   1.318   2.646   3.013
 8213SOL     OW25537   6.958   4.551   1.238
 8213SOL    HW125538   6.980   4.509   1.326
 8213SOL    HW225539   6.886   4.498   1.193
 8214SOL     OW25540   6.053   4.997   3.915
 8214SOL    HW125541   6.102   4.926   3.966
 8214SOL    HW225542   6.115   5.039   3.849
 8215SOL     OW25543   3.704   5.924   5.753
 8215SOL    HW125544   3.788   5.904   5.804
 8215SOL    HW225545   3.694   6.023   5.743
 8216SOL     OW25546   5.810   5.366   4.097
 8216SOL    HW125547   5.766   5.329   4.015
 8216SOL    HW225548   5.758   5.338   4.178
 8217SOL     OW25549   1.532   4.782   0.310
 8217SOL    HW125550   1.570   4.769   0.401
 8217SOL    HW225551   1.606   4.779   0.242
 8218SOL     OW25552   0.034   0.012   6.401
 8218SOL    HW125553   0.117   0.054   6.365
 8218SOL    HW225554   7.006   6.984   6.326
 8219SOL     OW25555   4.305   2.222   0.745
 8219SOL    HW125556   4.262   2.300   0.790
 8219SOL    HW225557   4.235   2.160   0.711
 8220SOL     OW25558   3.665   2.906   3.341
 8220SOL    HW125559   3.754   2.947   3.360
 8220SOL    HW225560   3.645   2.913   3.244
 8221SOL     OW25561   5.328   6.357   4.336
 8221SOL    HW125562   5.426   6.365   4.353
 8221SOL    HW225563   5.286   6.302   4.408
 8222SOL     OW25564   5.380   1.230   2.195
 8222SOL    HW125565   5.386   1.154   2.260
 8222SOL    HW225566   5.324   1.203   2.117
 8223SOL     OW25567   1.078   4.778   6.061
 8223SOL    HW125568   1.144   4.841   6.019
 8223SOL    HW225569   1.124   4.692   6.084
 8224SOL     OW25570   6.495   0.913   2.761
 8224SOL    HW125571   6.515   0.849   2.836
 8224SOL    HW225572   6.434   0.985   2.794
 8225SOL     OW25573   3.523   1.043   0.097
 8225SOL    HW125574   3.561   0.963   0.050
 8225SOL    HW225575   3.469   1.013   0.176
 8226SOL     OW25576   4.527   0.045   1.797
 8226SOL    HW125577   4.532   0.063   1.895
 8226SOL    HW225578   4.595   6.996   1.773
 8227SOL     OW25579   6.366   1.933   3.196
 8227SOL    HW125580   6.359   2.022   3.240
 8227SOL    HW225581   6.274   1.898   3.177
 8228SOL     OW25582   6.780   2.156   5.724
 8228SOL    HW125583   6.812   2.222   5.657
 8228SOL    HW225584   6.686   2.129   5.703
 8229SOL     OW25585   4.080   3.266   0.868
 8229SOL    HW125586   4.171   3.287   0.833
 8229SOL    HW225587   4.065   3.314   0.955
 8230SOL     OW25588   3.998   0.451   4.886
 8230SOL    HW125589   4.030   0.402   4.805
 8230SOL    HW225590   4.026   0.547   4.880
 8231SOL     OW25591   3.909   5.195   0.590
 8231SOL    HW125592   3.931   5.209   0.494
 8231SOL    HW225593   3.924   5.099   0.613
 8232SOL     OW25594   4.726   1.763   1.690
 8232SOL    HW125595   4.702   1.802   1.601
 8232SOL    HW225596   4.745   1.666   1.679
 8233SOL     OW25597   1.478   6.245   6.668
 8233SOL    HW125598   1.529   6.304   6.731
 8233SOL    HW225599   1.419   6.184   6.720
 8234SOL     OW25600   2.887   4.706   6.626
 8234SOL    HW125601   2.911   4.609   6.634
 8234SOL    HW225602   2.857   4.741   6.714
 8235SOL     OW25603   1.047   3.944   6.894
 8235SOL    HW125604   1.071   4.039   6.913
 8235SOL    HW225605   0.954   3.940   6.859
 8236SOL     OW25606   0.190   4.510   0.384
 8236SOL    HW125607   0.161   4.441   0.317
 8236SOL    HW225608   0.114   4.532   0.445
 8237SOL     OW25609   4.136   6.768   4.237
 8237SOL    HW125610   4.216   6.743   4.291
 8237SOL    HW225611   4.144   6.863   4.206
 8238SOL     OW25612   0.901   5.125   6.912
 8238SOL    HW125613   0.854   5.037   6.902
 8238SOL    HW225614   0.834   5.199   6.906
 8239SOL     OW25615   5.892   0.947   5.695
 8239SOL    HW125616   5.912   0.932   5.598
 8239SOL    HW225617   5.919   0.866   5.747
 8240SOL     OW25618   3.624   4.155   2.291
 8240SOL    HW125619   3.697   4.124   2.352
 8240SOL    HW225620   3.630   4.254   2.279
 8241SOL     OW25621   4.155   0.205   6.881
 8241SOL    HW125622   4.181   0.221   6.786
 8241SOL    HW225623   4.110   0.116   6.889
 8242SOL     OW25624   0.426   5.011   5.973
 8242SOL    HW125625   0.457   5.105   5.984
 8242SOL    HW225626   0.485   4.964   5.908
 8243SOL     OW25627   0.942   2.951   0.486
 8243SOL    HW125628   0.902   3.008   0.558
 8243SOL    HW225629   0.872   2.929   0.419
 8244SOL     OW25630   0.418   0.083   4.677
 8244SOL    HW125631   0.492   0.033   4.631
 8244SOL    HW225632   0.410   0.174   4.638
 8245SOL     OW25633   3.979   1.849   3.156
 8245SOL    HW125634   3.954   1.921   3.091
 8245SOL    HW225635   3.901   1.787   3.168
 8246SOL     OW25636   0.960   2.692   5.730
 8246SOL    HW125637   0.903   2.697   5.812
 8246SOL    HW225638   0.991   2.785   5.705
 8247SOL     OW25639   1.381   6.751   2.730
 8247SOL    HW125640   1.375   6.707   2.820
 8247SOL    HW225641   1.438   6.833   2.737
 8248SOL     OW25642   6.152   5.041   4.611
 8248SOL    HW125643   6.183   5.128   4.575
 8248SOL    HW225644   6.224   5.002   4.670
 8249SOL     OW25645   1.743   2.849   4.935
 8249SOL    HW125646   1.764   2.767   4.883
 8249SOL    HW225647   1.828   2.893   4.964
 8250SOL     OW25648   3.152   3.797   1.765
 8250SOL    HW125649   3.154   3.848   1.679
 8250SOL    HW225650   3.236   3.743   1.773
 8251SOL     OW25651   5.541   3.621   3.873
 8251SOL    HW125652   5.605   3.567   3.928
 8251SOL    HW225653   5.509   3.699   3.926
 8252SOL     OW25654   3.109   1.447   5.464
 8252SOL    HW125655   3.197   1.400   5.454
 8252SOL    HW225656   3.040   1.383   5.496
 8253SOL     OW25657   4.303   4.680   5.451
 8253SOL    HW125658   4.231   4.618   5.420
 8253SOL    HW225659   4.267   4.740   5.522
 8254SOL     OW25660   4.764   4.464   5.153
 8254SOL    HW125661   4.813   4.528   5.094
 8254SOL    HW225662   4.827   4.394   5.186
 8255SOL     OW25663   2.125   0.062   5.230
 8255SOL    HW125664   2.145   0.123   5.153
 8255SOL    HW225665   2.176   0.094   5.310
 8256SOL     OW25666   6.452   6.797   2.354
 8256SOL    HW125667   6.374   6.842   2.399
 8256SOL    HW225668   6.442   6.805   2.255
 8257SOL     OW25669   6.068   3.601   3.575
 8257SOL    HW125670   6.087   3.512   3.532
 8257SOL    HW225671   6.154   3.651   3.586
 8258SOL     OW25672   5.524   2.059   0.585
 8258SOL    HW125673   5.451   2.118   0.621
 8258SOL    HW225674   5.604   2.065   0.646
 8259SOL     OW25675   3.825   2.042   3.578
 8259SOL    HW125676   3.894   2.115   3.570
 8259SOL    HW225677   3.869   1.954   3.558
 8260SOL     OW25678   2.895   6.417   1.490
 8260SOL    HW125679   2.864   6.361   1.413
 8260SOL    HW225680   2.818   6.436   1.551
 8261SOL     OW25681   5.628   0.713   2.128
 8261SOL    HW125682   5.539   0.737   2.089
 8261SOL    HW225683   5.615   0.678   2.221
 8262SOL     OW25684   0.448   3.117   6.904
 8262SOL    HW125685   0.407   3.192   6.852
 8262SOL    HW225686   0.525   3.078   6.852
 8263SOL     OW25687   1.457   2.376   6.893
 8263SOL    HW125688   1.546   2.417   6.873
 8263SOL    HW225689   1.402   2.439   6.947
 8264SOL     OW25690   2.999   6.207   2.982
 8264SOL    HW125691   3.097   6.195   2.965
 8264SOL    HW225692   2.983   6.222   3.080
 8265SOL     OW25693   0.378   0.057   0.916
 8265SOL    HW125694   0.457   0.001   0.944
 8265SOL    HW225695   0.394   0.152   0.943
 8266SOL     OW25696   2.457   1.195   3.187
 8266SOL    HW125697   2.495   1.224   3.275
 8266SOL    HW225698   2.373   1.244   3.169
 8267SOL     OW25699   1.280   2.968   1.670
 8267SOL    HW125700   1.328   2.922   1.595
 8267SOL    HW225701   1.338   3.039   1.708
 8268SOL     OW25702   2.061   6.216   6.008
 8268SOL    HW125703   2.154   6.219   6.044
 8268SOL    HW225704   2.055   6.275   5.927
 8269SOL     OW25705   4.092   1.876   2.095
 8269SOL    HW125706   4.071   1.970   2.071
 8269SOL    HW225707   4.126   1.872   2.189
 8270SOL     OW25708   2.732   7.013   5.343
 8270SOL    HW125709   2.810   6.995   5.404
 8270SOL    HW225710   2.713   6.931   5.289
 8271SOL     OW25711   0.233   0.524   3.149
 8271SOL    HW125712   0.293   0.456   3.106
 8271SOL    HW225713   0.230   0.606   3.091
 8272SOL     OW25714   5.245   1.979   2.256
 8272SOL    HW125715   5.276   1.886   2.278
 8272SOL    HW225716   5.278   2.043   2.326
 8273SOL     OW25717   3.022   0.854   0.310
 8273SOL    HW125718   2.928   0.886   0.297
 8273SOL    HW225719   3.054   0.810   0.226
 8274SOL     OW25720   5.421   5.067   4.118
 8274SOL    HW125721   5.424   5.166   4.102
 8274SOL    HW225722   5.327   5.039   4.140
 8275SOL     OW25723   5.242   1.509   5.428
 8275SOL    HW125724   5.323   1.547   5.473
 8275SOL    HW225725   5.260   1.413   5.404
 8276SOL     OW25726   0.384   1.892   3.621
 8276SOL    HW125727   0.403   1.916   3.525
 8276SOL    HW225728   0.412   1.967   3.680
 8277SOL     OW25729   0.307   6.721   0.083
 8277SOL    HW125730   0.257   6.698   7.019
 8277SOL    HW225731   0.277   6.810   0.117
 8278SOL     OW25732   2.767   2.236   5.522
 8278SOL    HW125733   2.737   2.327   5.552
 8278SOL    HW225734   2.808   2.243   5.431
 8279SOL     OW25735   1.748   6.666   4.695
 8279SOL    HW125736   1.841   6.674   4.660
 8279SOL    HW225737   1.731   6.573   4.726
 8280SOL     OW25738   2.231   4.250   0.951
 8280SOL    HW125739   2.254   4.342   0.922
 8280SOL    HW225740   2.218   4.192   0.870
 8281SOL     OW25741   3.125   4.571   1.705
 8281SOL    HW125742   3.137   4.555   1.607
 8281SOL    HW225743   3.028   4.567   1.728
 8282SOL     OW25744   4.605   3.500   0.048
 8282SOL    HW125745   4.657   3.470   0.127
 8282SOL    HW225746   4.651   3.470   6.984
 8283SOL     OW25747   1.468   5.444   6.291
 8283SOL    HW125748   1.470   5.464   6.390
 8283SOL    HW225749   1.509   5.354   6.275
 8284SOL     OW25750   1.032   3.794   1.251
 8284SOL    HW125751   1.055   3.784   1.348
 8284SOL    HW225752   1.098   3.855   1.207
 8285SOL     OW25753   3.351   4.158   4.186
 8285SOL    HW125754   3.446   4.170   4.156
 8285SOL    HW225755   3.347   4.092   4.261
 8286SOL     OW25756   5.673   2.508   6.196
 8286SOL    HW125757   5.639   2.530   6.287
 8286SOL    HW225758   5.773   2.517   6.194
 8287SOL     OW25759   1.746   5.411   4.147
 8287SOL    HW125760   1.753   5.403   4.246
 8287SOL    HW225761   1.825   5.367   4.105
 8288SOL     OW25762   3.332   2.076   1.515
 8288SOL    HW125763   3.264   2.123   1.572
 8288SOL    HW225764   3.403   2.037   1.574
 8289SOL     OW25765   0.646   5.417   0.893
 8289SOL    HW125766   0.607   5.411   0.985
 8289SOL    HW225767   0.606   5.346   0.835
 8290SOL     OW25768   5.889   1.470   1.423
 8290SOL    HW125769   5.809   1.497   1.477
 8290SOL    HW225770   5.924   1.383   1.458
 8291SOL     OW25771   5.266   6.391   5.617
 8291SOL    HW125772   5.223   6.375   5.706
 8291SOL    HW225773   5.197   6.427   5.554
 8292SOL     OW25774   2.787   6.486   6.975
 8292SOL    HW125775   2.700   6.509   6.932
 8292SOL    HW225776   2.850   6.450   6.906
 8293SOL     OW25777   3.291   5.889   0.339
 8293SOL    HW125778   3.267   5.970   0.285
 8293SOL    HW225779   3.264   5.807   0.289
 8294SOL     OW25780   5.484   4.084   5.049
 8294SOL    HW125781   5.486   3.984   5.047
 8294SOL    HW225782   5.546   4.117   5.120
 8295SOL     OW25783   5.321   5.090   1.848
 8295SOL    HW125784   5.376   5.149   1.789
 8295SOL    HW225785   5.365   5.000   1.854
 8296SOL     OW25786   1.114   5.047   6.435
 8296SOL    HW125787   1.192   5.027   6.375
 8296SOL    HW225788   1.135   5.126   6.493
 8297SOL     OW25789   6.346   2.615   2.516
 8297SOL    HW125790   6.411   2.608   2.440
 8297SOL    HW225791   6.290   2.697   2.504
 8298SOL     OW25792   6.660   1.264   1.248
 8298SOL    HW125793   6.696   1.326   1.317
 8298SOL    HW225794   6.639   1.315   1.165
 8299SOL     OW25795   6.628   3.043   1.396
 8299SOL    HW125796   6.727   3.026   1.395
 8299SOL    HW225797   6.586   2.988   1.467
 8300SOL     OW25798   0.215   5.718   4.859
 8300SOL    HW125799   0.278   5.769   4.918
 8300SOL    HW225800   0.262   5.690   4.775
 8301SOL     OW25801   3.913   1.817   1.292
 8301SOL    HW125802   3.876   1.865   1.372
 8301SOL    HW225803   3.875   1.858   1.208
 8302SOL     OW25804   5.775   6.661   0.069
 8302SOL    HW125805   5.764   6.759   0.052
 8302SOL    HW225806   5.696   6.626   0.118
 8303SOL     OW25807   6.477   0.541   4.007
 8303SOL    HW125808   6.498   0.573   3.914
 8303SOL    HW225809   6.468   0.441   4.007
 8304SOL     OW25810   0.110   3.714   0.640
 8304SOL    HW125811   0.180   3.685   0.575
 8304SOL    HW225812   0.031   3.749   0.589
 8305SOL     OW25813   4.766   4.976   4.432
 8305SOL    HW125814   4.840   4.919   4.469
 8305SOL    HW225815   4.690   4.918   4.404
 8306SOL     OW25816   6.891   2.474   6.467
 8306SOL    HW125817   6.874   2.559   6.516
 8306SOL    HW225818   6.814   2.453   6.407
 8307SOL     OW25819   3.673   5.388   1.618
 8307SOL    HW125820   3.638   5.420   1.706
 8307SOL    HW225821   3.676   5.465   1.554
 8308SOL     OW25822   3.744   5.574   1.412
 8308SOL    HW125823   3.722   5.670   1.395
 8308SOL    HW225824   3.840   5.565   1.439
 8309SOL     OW25825   6.738   5.254   3.957
 8309SOL    HW125826   6.762   5.341   3.999
 8309SOL    HW225827   6.671   5.269   3.884
 8310SOL     OW25828   0.007   4.653   0.525
 8310SOL    HW125829   0.046   4.732   0.479
 8310SOL    HW225830   6.948   4.619   0.472
 8311SOL     OW25831   0.605   1.516   4.274
 8311SOL    HW125832   0.687   1.488   4.325
 8311SOL    HW225833   0.585   1.448   4.204
 8312SOL     OW25834   5.120   0.363   6.902
 8312SOL    HW125835   5.029   0.326   6.884
 8312SOL    HW225836   5.130   0.450   6.854
 8313SOL     OW25837   5.235   0.584   1.465
 8313SOL    HW125838   5.334   0.581   1.474
 8313SOL    HW225839   5.199   0.491   1.467
 8314SOL     OW25840   4.822   0.577   0.186
 8314SOL    HW125841   4.826   0.588   0.087
 8314SOL    HW225842   4.767   0.651   0.225
 8315SOL     OW25843   4.165   2.868   1.350
 8315SOL    HW125844   4.199   2.945   1.404
 8315SOL    HW225845   4.212   2.865   1.262
 8316SOL     OW25846   0.474   2.304   2.206
 8316SOL    HW125847   0.421   2.388   2.208
 8316SOL    HW225848   0.570   2.325   2.188
 8317SOL     OW25849   1.817   2.642   2.316
 8317SOL    HW125850   1.787   2.736   2.336
 8317SOL    HW225851   1.916   2.642   2.300
 8318SOL     OW25852   4.663   1.429   4.572
 8318SOL    HW125853   4.658   1.335   4.604
 8318SOL    HW225854   4.616   1.437   4.484
 8319SOL     OW25855   2.277   2.118   6.997
 8319SOL    HW125856   2.181   2.143   6.990
 8319SOL    HW225857   2.305   2.068   6.915
 8320SOL     OW25858   3.134   3.345   1.652
 8320SOL    HW125859   3.103   3.327   1.559
 8320SOL    HW225860   3.095   3.432   1.684
 8321SOL     OW25861   6.842   0.630   6.884
 8321SOL    HW125862   6.818   0.725   6.866
 8321SOL    HW225863   6.938   0.614   6.860
 8322SOL     OW25864   6.560   6.791   0.847
 8322SOL    HW125865   6.640   6.807   0.789
 8322SOL    HW225866   6.537   6.875   0.896
 8323SOL     OW25867   5.384   5.788   2.360
 8323SOL    HW125868   5.419   5.813   2.450
 8323SOL    HW225869   5.425   5.702   2.330
 8324SOL     OW25870   5.442   6.735   1.341
 8324SOL    HW125871   5.420   6.831   1.323
 8324SOL    HW225872   5.375   6.677   1.295
 8325SOL     OW25873   2.906   3.852   5.641
 8325SOL    HW125874   2.849   3.878   5.719
 8325SOL    HW225875   2.950   3.764   5.660
 8326SOL     OW25876   5.150   3.702   5.474
 8326SOL    HW125877   5.247   3.693   5.451
 8326SOL    HW225878   5.134   3.666   5.567
 8327SOL     OW25879   6.422   1.265   6.444
 8327SOL    HW125880   6.400   1.240   6.538
 8327SOL    HW225881   6.520   1.281   6.435
 8328SOL     OW25882   2.937   5.756   5.592
 8328SOL    HW125883   2.892   5.688   5.650
 8328SOL    HW225884   2.869   5.798   5.532
 8329SOL     OW25885   0.780   3.001   6.267
 8329SOL    HW125886   0.796   3.028   6.172
 8329SOL    HW225887   0.866   2.976   6.310
 8330SOL     OW25888   3.081   1.074   0.667
 8330SOL    HW125889   3.167   1.123   0.684
 8330SOL    HW225890   3.004   1.136   0.684
 8331SOL     OW25891   3.345   1.263   1.616
 8331SOL    HW125892   3.371   1.208   1.695
 8331SOL    HW225893   3.360   1.360   1.636
 8332SOL     OW25894   5.312   5.485   2.653
 8332SOL    HW125895   5.266   5.400   2.676
 8332SOL    HW225896   5.327   5.490   2.554
 8333SOL     OW25897   0.386   6.747   6.290
 8333SOL    HW125898   0.298   6.773   6.330
 8333SOL    HW225899   0.426   6.672   6.343
 8334SOL     OW25900   3.883   1.853   3.868
 8334SOL    HW125901   3.828   1.781   3.825
 8334SOL    HW225902   3.858   1.942   3.830
 8335SOL     OW25903   6.191   6.413   6.817
 8335SOL    HW125904   6.284   6.447   6.831
 8335SOL    HW225905   6.166   6.351   6.892
 8336SOL     OW25906   6.662   5.536   2.999
 8336SOL    HW125907   6.676   5.600   2.924
 8336SOL    HW225908   6.567   5.542   3.032
 8337SOL     OW25909   1.858   6.404   2.501
 8337SOL    HW125910   1.943   6.351   2.500
 8337SOL    HW225911   1.802   6.377   2.579
 8338SOL     OW25912   2.793   5.110   1.593
 8338SOL    HW125913   2.892   5.113   1.580
 8338SOL    HW225914   2.751   5.056   1.520
 8339SOL     OW25915   5.725   0.615   1.320
 8339SOL    HW125916   5.676   0.690   1.277
 8339SOL    HW225917   5.774   0.563   1.250
 8340SOL     OW25918   5.101   3.030   1.525
 8340SOL    HW125919   5.062   2.971   1.596
 8340SOL    HW225920   5.029   3.089   1.488
 8341SOL     OW25921   2.264   6.251   0.128
 8341SOL    HW125922   2.273   6.234   0.030
 8341SOL    HW225923   2.198   6.325   0.143
 8342SOL     OW25924   4.679   6.742   1.942
 8342SOL    HW125925   4.757   6.784   1.894
 8342SOL    HW225926   4.711   6.700   2.027
 8343SOL     OW25927   1.415   5.352   5.503
 8343SOL    HW125928   1.377   5.332   5.413
 8343SOL    HW225929   1.389   5.280   5.567
 8344SOL     OW25930   4.726   6.584   5.158
 8344SOL    HW125931   4.645   6.627   5.198
 8344SOL    HW225932   4.802   6.648   5.160
 8345SOL     OW25933   4.764   1.408   3.146
 8345SOL    HW125934   4.804   1.493   3.115
 8345SOL    HW225935   4.807   1.380   3.232
 8346SOL     OW25936   3.299   4.661   0.861
 8346SOL    HW125937   3.382   4.607   0.847
 8346SOL    HW225938   3.295   4.733   0.792
 8347SOL     OW25939   3.534   5.490   4.721
 8347SOL    HW125940   3.587   5.411   4.751
 8347SOL    HW225941   3.536   5.495   4.621
 8348SOL     OW25942   2.270   0.319   2.401
 8348SOL    HW125943   2.203   0.251   2.432
 8348SOL    HW225944   2.241   0.357   2.313
 8349SOL     OW25945   5.994   6.699   1.685
 8349SOL    HW125946   5.904   6.729   1.719
 8349SOL    HW225947   5.985   6.672   1.589
 8350SOL     OW25948   4.621   0.210   5.232
 8350SOL    HW125949   4.638   0.257   5.319
 8350SOL    HW225950   4.523   0.213   5.212
 8351SOL     OW25951   4.904   4.555   4.456
 8351SOL    HW125952   4.989   4.507   4.436
 8351SOL    HW225953   4.879   4.541   4.552
 8352SOL     OW25954   0.369   6.678   3.106
 8352SOL    HW125955   0.412   6.724   3.028
 8352SOL    HW225956   0.363   6.742   3.183
 8353SOL     OW25957   7.014   3.724   1.447
 8353SOL    HW125958   6.994   3.632   1.412
 8353SOL    HW225959   7.000   3.791   1.374
 8354SOL     OW25960   3.993   6.914   6.584
 8354SOL    HW125961   3.983   6.871   6.674
 8354SOL    HW225962   3.903   6.932   6.546
 8355SOL     OW25963   2.839   0.837   6.944
 8355SOL    HW125964   2.906   0.910   6.958
 8355SOL    HW225965   2.754   0.875   6.909
 8356SOL     OW25966   1.735   6.230   1.035
 8356SOL    HW125967   1.796   6.154   1.059
 8356SOL    HW225968   1.704   6.275   1.119
 8357SOL     OW25969   3.905   0.150   4.994
 8357SOL    HW125970   3.904   0.095   5.078
 8357SOL    HW225971   3.902   0.089   4.915
 8358SOL     OW25972   1.088   4.237   5.881
 8358SOL    HW125973   1.053   4.329   5.863
 8358SOL    HW225974   1.116   4.194   5.795
 8359SOL     OW25975   2.989   0.751   5.071
 8359SOL    HW125976   2.948   0.664   5.096
 8359SOL    HW225977   3.060   0.737   5.002
 8360SOL     OW25978   3.346   5.885   1.569
 8360SOL    HW125979   3.443   5.900   1.586
 8360SOL    HW225980   3.318   5.934   1.487
 8361SOL     OW25981   3.196   0.068   2.772
 8361SOL    HW125982   3.244   7.005   2.741
 8361SOL    HW225983   3.110   0.041   2.815
 8362SOL     OW25984   3.231   2.321   0.708
 8362SOL    HW125985   3.269   2.399   0.758
 8362SOL    HW225986   3.257   2.236   0.755
 8363SOL     OW25987   0.618   2.892   6.554
 8363SOL    HW125988   0.705   2.869   6.509
 8363SOL    HW225989   0.629   2.887   6.653
 8364SOL     OW25990   0.762   3.376   2.728
 8364SOL    HW125991   0.819   3.368   2.810
 8364SOL    HW225992   0.702   3.455   2.736
 8365SOL     OW25993   2.338   3.930   1.804
 8365SOL    HW125994   2.300   3.838   1.799
 8365SOL    HW225995   2.310   3.974   1.889
 8366SOL     OW25996   2.634   5.710   2.004
 8366SOL    HW125997   2.619   5.802   2.041
 8366SOL    HW225998   2.564   5.690   1.936
 8367SOL     OW25999   4.000   6.166   3.713
 8367SOL    HW126000   4.039   6.236   3.774
 8367SOL    HW226001   3.962   6.210   3.632
 8368SOL     OW26002   2.288   6.738   6.889
 8368SOL    HW126003   2.222   6.752   6.962
 8368SOL    HW226004   2.341   6.821   6.874
 8369SOL     OW26005   2.065   6.952   6.694
 8369SOL    HW126006   2.027   6.970   6.785
 8369SOL    HW226007   2.081   6.854   6.684
 8370SOL     OW26008   2.661   1.758   5.279
 8370SOL    HW126009   2.598   1.740   5.203
 8370SOL    HW226010   2.696   1.851   5.272
 8371SOL     OW26011   2.205   4.031   1.086
 8371SOL    HW126012   2.169   4.109   1.035
 8371SOL    HW226013   2.300   4.048   1.112
 8372SOL     OW26014   0.557   5.206   2.556
 8372SOL    HW126015   0.465   5.225   2.523
 8372SOL    HW226016   0.593   5.124   2.512
 8373SOL     OW26017   1.635   0.115   3.846
 8373SOL    HW126018   1.546   0.157   3.835
 8373SOL    HW226019   1.634   0.024   3.805
 8374SOL     OW26020   0.030   1.243   5.681
 8374SOL    HW126021   0.098   1.222   5.751
 8374SOL    HW226022   0.066   1.221   5.591
 8375SOL     OW26023   3.956   6.789   5.033
 8375SOL    HW126024   4.038   6.767   5.085
 8375SOL    HW226025   3.954   6.735   4.949
 8376SOL     OW26026   1.665   0.507   3.915
 8376SOL    HW126027   1.699   0.597   3.942
 8376SOL    HW226028   1.666   0.446   3.994
 8377SOL     OW26029   5.469   6.036   1.309
 8377SOL    HW126030   5.414   5.953   1.302
 8377SOL    HW226031   5.473   6.064   1.405
 8378SOL     OW26032   4.181   4.767   2.477
 8378SOL    HW126033   4.263   4.816   2.446
 8378SOL    HW226034   4.188   4.747   2.574
 8379SOL     OW26035   5.805   2.174   1.163
 8379SOL    HW126036   5.820   2.230   1.082
 8379SOL    HW226037   5.745   2.221   1.227
 8380SOL     OW26038   6.999   0.636   2.325
 8380SOL    HW126039   6.936   0.575   2.372
 8380SOL    HW226040   0.073   0.611   2.347
 8381SOL     OW26041   7.006   2.748   5.023
 8381SOL    HW126042   6.964   2.839   5.028
 8381SOL    HW226043   6.941   2.684   4.982
 8382SOL     OW26044   2.789   1.036   2.480
 8382SOL    HW126045   2.810   1.117   2.534
 8382SOL    HW226046   2.759   1.063   2.389
 8383SOL     OW26047   2.086   0.328   6.149
 8383SOL    HW126048   2.149   0.332   6.227
 8383SOL    HW226049   2.101   0.408   6.090
 8384SOL     OW26050   0.050   0.778   0.644
 8384SOL    HW126051   0.056   0.833   0.727
 8384SOL    HW226052   0.028   0.684   0.667
 8385SOL     OW26053   6.515   1.796   1.423
 8385SOL    HW126054   6.606   1.815   1.459
 8385SOL    HW226055   6.446   1.835   1.485
 8386SOL     OW26056   1.293   4.575   1.933
 8386SOL    HW126057   1.212   4.524   1.906
 8386SOL    HW226058   1.294   4.664   1.886
 8387SOL     OW26059   1.961   0.886   2.202
 8387SOL    HW126060   1.944   0.817   2.273
 8387SOL    HW226061   1.910   0.862   2.120
 8388SOL     OW26062   2.292   6.276   0.431
 8388SOL    HW126063   2.214   6.296   0.372
 8388SOL    HW226064   2.340   6.361   0.453
 8389SOL     OW26065   6.645   2.779   3.031
 8389SOL    HW126066   6.564   2.787   3.089
 8389SOL    HW226067   6.623   2.810   2.938
 8390SOL     OW26068   3.962   1.297   6.138
 8390SOL    HW126069   3.935   1.287   6.042
 8390SOL    HW226070   3.961   1.394   6.163
 8391SOL     OW26071   6.470   5.246   1.011
 8391SOL    HW126072   6.415   5.198   1.078
 8391SOL    HW226073   6.471   5.344   1.032
 8392SOL     OW26074   6.597   3.554   4.392
 8392SOL    HW126075   6.535   3.554   4.471
 8392SOL    HW226076   6.550   3.514   4.314
 8393SOL     OW26077   0.163   0.129   3.015
 8393SOL    HW126078   0.112   0.178   2.945
 8393SOL    HW226079   0.115   0.045   3.040
 8394SOL     OW26080   6.396   2.545   0.740
 8394SOL    HW126081   6.364   2.640   0.737
 8394SOL    HW226082   6.461   2.529   0.666
 8395SOL     OW26083   3.063   6.584   5.583
 8395SOL    HW126084   3.110   6.616   5.501
 8395SOL    HW226085   3.100   6.495   5.609
 8396SOL     OW26086   4.794   5.202   3.631
 8396SOL    HW126087   4.883   5.183   3.589
 8396SOL    HW226088   4.767   5.124   3.687
 8397SOL     OW26089   1.274   0.485   2.427
 8397SOL    HW126090   1.285   0.386   2.426
 8397SOL    HW226091   1.295   0.522   2.337
 8398SOL     OW26092   3.907   2.364   6.170
 8398SOL    HW126093   3.966   2.286   6.150
 8398SOL    HW226094   3.960   2.434   6.217
 8399SOL     OW26095   5.744   6.838   6.594
 8399SOL    HW126096   5.670   6.877   6.539
 8399SOL    HW226097   5.773   6.904   6.663
 8400SOL     OW26098   1.839   0.609   4.170
 8400SOL    HW126099   1.851   0.510   4.165
 8400SOL    HW226100   1.921   0.654   4.134
 8401SOL     OW26101   2.720   1.084   5.491
 8401SOL    HW126102   2.638   1.137   5.469
 8401SOL    HW226103   2.737   1.018   5.418
 8402SOL     OW26104   5.226   1.874   6.445
 8402SOL    HW126105   5.231   1.968   6.477
 8402SOL    HW226106   5.172   1.819   6.509
 8403SOL     OW26107   6.848   3.316   4.196
 8403SOL    HW126108   6.854   3.300   4.295
 8403SOL    HW226109   6.939   3.313   4.155
 8404SOL     OW26110   3.891   6.749   5.865
 8404SOL    HW126111   3.858   6.786   5.952
 8404SOL    HW226112   3.984   6.783   5.849
 8405SOL     OW26113   2.092   1.137   5.617
 8405SOL    HW126114   2.137   1.215   5.573
 8405SOL    HW226115   2.002   1.123   5.576
 8406SOL     OW26116   4.253   0.647   0.157
 8406SOL    HW126117   4.245   0.559   0.109
 8406SOL    HW226118   4.346   0.682   0.147
 8407SOL     OW26119   3.694   6.282   3.058
 8407SOL    HW126120   3.651   6.193   3.041
 8407SOL    HW226121   3.624   6.352   3.065
 8408SOL     OW26122   5.327   4.548   1.353
 8408SOL    HW126123   5.264   4.478   1.388
 8408SOL    HW226124   5.375   4.512   1.273
 8409SOL     OW26125   4.882   1.675   3.194
 8409SOL    HW126126   4.904   1.770   3.213
 8409SOL    HW226127   4.786   1.658   3.215
 8410SOL     OW26128   5.983   0.889   1.652
 8410SOL    HW126129   5.999   0.951   1.728
 8410SOL    HW226130   5.937   0.806   1.685
 8411SOL     OW26131   0.814   5.665   0.000
 8411SOL    HW126132   0.881   5.592   0.017
 8411SOL    HW226133   0.793   5.667   6.922
 8412SOL     OW26134   3.269   2.463   1.128
 8412SOL    HW126135   3.298   2.386   1.185
 8412SOL    HW226136   3.208   2.522   1.181
 8413SOL     OW26137   5.054   5.702   6.716
 8413SOL    HW126138   5.105   5.628   6.760
 8413SOL    HW226139   4.958   5.696   6.743
 8414SOL     OW26140   3.597   6.798   3.742
 8414SOL    HW126141   3.608   6.826   3.646
 8414SOL    HW226142   3.540   6.716   3.747
 8415SOL     OW26143   0.947   5.694   4.657
 8415SOL    HW126144   0.857   5.711   4.698
 8415SOL    HW226145   1.003   5.776   4.663
 8416SOL     OW26146   6.414   2.183   3.312
 8416SOL    HW126147   6.512   2.204   3.312
 8416SOL    HW226148   6.376   2.200   3.403
 8417SOL     OW26149   0.809   3.044   5.937
 8417SOL    HW126150   0.761   2.959   5.919
 8417SOL    HW226151   0.749   3.121   5.915
 8418SOL     OW26152   6.214   5.479   1.305
 8418SOL    HW126153   6.203   5.521   1.396
 8418SOL    HW226154   6.152   5.401   1.297
 8419SOL     OW26155   5.688   0.269   1.806
 8419SOL    HW126156   5.709   0.359   1.844
 8419SOL    HW226157   5.765   0.239   1.749
 8420SOL     OW26158   4.226   0.389   0.947
 8420SOL    HW126159   4.315   0.364   0.986
 8420SOL    HW226160   4.238   0.468   0.886
 8421SOL     OW26161   3.365   5.255   0.265
 8421SOL    HW126162   3.286   5.314   0.282
 8421SOL    HW226163   3.438   5.308   0.223
 8422SOL     OW26164   4.107   1.342   2.188
 8422SOL    HW126165   4.156   1.256   2.185
 8422SOL    HW226166   4.037   1.344   2.117
 8423SOL     OW26167   3.621   4.726   5.775
 8423SOL    HW126168   3.528   4.756   5.798
 8423SOL    HW226169   3.657   4.668   5.848
 8424SOL     OW26170   1.573   2.111   2.635
 8424SOL    HW126171   1.632   2.033   2.614
 8424SOL    HW226172   1.627   2.195   2.634
 8425SOL     OW26173   4.288   4.270   6.140
 8425SOL    HW126174   4.284   4.175   6.172
 8425SOL    HW226175   4.267   4.332   6.215
 8426SOL     OW26176   3.885   3.316   2.846
 8426SOL    HW126177   3.795   3.274   2.860
 8426SOL    HW226178   3.956   3.255   2.880
 8427SOL     OW26179   3.701   3.668   3.638
 8427SOL    HW126180   3.656   3.625   3.717
 8427SOL    HW226181   3.674   3.764   3.633
 8428SOL     OW26182   0.506   6.009   1.291
 8428SOL    HW126183   0.457   5.922   1.302
 8428SOL    HW226184   0.602   5.997   1.313
 8429SOL     OW26185   1.648   5.691   5.700
 8429SOL    HW126186   1.593   5.768   5.670
 8429SOL    HW226187   1.667   5.700   5.798
 8430SOL     OW26188   3.612   5.154   3.930
 8430SOL    HW126189   3.587   5.238   3.978
 8430SOL    HW226190   3.530   5.112   3.890
 8431SOL     OW26191   3.868   3.386   0.723
 8431SOL    HW126192   3.934   3.342   0.785
 8431SOL    HW226193   3.803   3.317   0.691
 8432SOL     OW26194   6.164   5.738   4.963
 8432SOL    HW126195   6.119   5.771   5.046
 8432SOL    HW226196   6.096   5.700   4.900
 8433SOL     OW26197   4.383   2.999   0.268
 8433SOL    HW126198   4.306   3.050   0.228
 8433SOL    HW226199   4.358   2.903   0.278
 8434SOL     OW26200   2.582   0.596   4.588
 8434SOL    HW126201   2.678   0.569   4.584
 8434SOL    HW226202   2.556   0.616   4.682
 8435SOL     OW26203   5.990   0.298   2.039
 8435SOL    HW126204   6.002   0.369   1.969
 8435SOL    HW226205   6.079   0.267   2.071
 8436SOL     OW26206   3.216   6.485   3.214
 8436SOL    HW126207   3.156   6.406   3.227
 8436SOL    HW226208   3.268   6.474   3.130
 8437SOL     OW26209   2.162   1.324   3.856
 8437SOL    HW126210   2.108   1.405   3.878
 8437SOL    HW226211   2.246   1.351   3.810
 8438SOL     OW26212   2.189   4.267   2.941
 8438SOL    HW126213   2.256   4.229   3.004
 8438SOL    HW226214   2.232   4.280   2.851
 8439SOL     OW26215   5.988   4.734   2.668
 8439SOL    HW126216   6.086   4.751   2.664
 8439SOL    HW226217   5.960   4.680   2.589
 8440SOL     OW26218   3.038   1.743   3.614
 8440SOL    HW126219   3.094   1.804   3.557
 8440SOL    HW226220   3.089   1.720   3.697
 8441SOL     OW26221   5.624   6.774   0.304
 8441SOL    HW126222   5.669   6.838   0.242
 8441SOL    HW226223   5.615   6.685   0.260
 8442SOL     OW26224   3.641   2.172   5.551
 8442SOL    HW126225   3.549   2.172   5.513
 8442SOL    HW226226   3.691   2.251   5.517
 8443SOL     OW26227   2.501   4.808   3.830
 8443SOL    HW126228   2.410   4.842   3.808
 8443SOL    HW226229   2.566   4.884   3.831
 8444SOL     OW26230   2.975   6.485   4.210
 8444SOL    HW126231   3.020   6.503   4.123
 8444SOL    HW226232   2.975   6.569   4.265
 8445SOL     OW26233   2.775   0.874   1.173
 8445SOL    HW126234   2.875   0.863   1.173
 8445SOL    HW226235   2.734   0.795   1.219
 8446SOL     OW26236   5.695   5.535   6.038
 8446SOL    HW126237   5.636   5.587   5.975
 8446SOL    HW226238   5.789   5.567   6.029
 8447SOL     OW26239   4.365   1.474   2.074
 8447SOL    HW126240   4.315   1.439   2.153
 8447SOL    HW226241   4.395   1.398   2.017
 8448SOL     OW26242   3.958   5.898   3.909
 8448SOL    HW126243   3.949   5.980   3.852
 8448SOL    HW226244   3.869   5.876   3.950
 8449SOL     OW26245   0.187   3.752   3.662
 8449SOL    HW126246   0.259   3.774   3.728
 8449SOL    HW226247   0.224   3.693   3.590
 8450SOL     OW26248   0.835   0.799   1.418
 8450SOL    HW126249   0.803   0.752   1.337
 8450SOL    HW226250   0.786   0.765   1.498
 8451SOL     OW26251   3.176   1.696   6.933
 8451SOL    HW126252   3.096   1.694   6.873
 8451SOL    HW226253   3.254   1.735   6.883
 8452SOL     OW26254   6.241   2.871   3.679
 8452SOL    HW126255   6.142   2.860   3.670
 8452SOL    HW226256   6.260   2.951   3.736
 8453SOL     OW26257   0.391   4.987   0.150
 8453SOL    HW126258   0.294   4.983   0.175
 8453SOL    HW226259   0.421   5.082   0.151
 8454SOL     OW26260   0.069   5.655   1.371
 8454SOL    HW126261   0.066   5.592   1.449
 8454SOL    HW226262   0.002   5.729   1.385
 8455SOL     OW26263   0.374   1.780   1.809
 8455SOL    HW126264   0.383   1.831   1.724
 8455SOL    HW226265   0.432   1.821   1.879
 8456SOL     OW26266   4.689   6.554   3.293
 8456SOL    HW126267   4.673   6.500   3.211
 8456SOL    HW226268   4.732   6.641   3.268
 8457SOL     OW26269   0.246   6.618   4.245
 8457SOL    HW126270   0.186   6.669   4.185
 8457SOL    HW226271   0.208   6.616   4.338
 8458SOL     OW26272   2.689   0.766   0.342
 8458SOL    HW126273   2.711   0.859   0.312
 8458SOL    HW226274   2.727   0.700   0.277
 8459SOL     OW26275   2.944   5.811   2.188
 8459SOL    HW126276   2.975   5.753   2.262
 8459SOL    HW226277   2.846   5.828   2.197
 8460SOL     OW26278   4.531   4.211   5.290
 8460SOL    HW126279   4.626   4.207   5.323
 8460SOL    HW226280   4.494   4.119   5.285
 8461SOL     OW26281   0.779   3.206   4.656
 8461SOL    HW126282   0.788   3.285   4.596
 8461SOL    HW226283   0.769   3.236   4.751
 8462SOL     OW26284   2.014   2.745   6.633
 8462SOL    HW126285   1.989   2.765   6.728
 8462SOL    HW226286   2.083   2.811   6.602
 8463SOL     OW26287   0.032   0.229   1.852
 8463SOL    HW126288   7.004   0.298   1.797
 8463SOL    HW226289   0.066   0.271   1.936
 8464SOL     OW26290   5.543   4.239   4.401
 8464SOL    HW126291   5.611   4.198   4.462
 8464SOL    HW226292   5.520   4.331   4.433
 8465SOL     OW26293   0.801   3.158   0.664
 8465SOL    HW126294   0.829   3.230   0.727
 8465SOL    HW226295   0.789   3.197   0.572
 8466SOL     OW26296   0.617   6.555   4.603
 8466SOL    HW126297   0.526   6.514   4.607
 8466SOL    HW226298   0.635   6.588   4.510
 8467SOL     OW26299   3.160   6.272   0.535
 8467SOL    HW126300   3.252   6.300   0.505
 8467SOL    HW226301   3.151   6.288   0.633
 8468SOL     OW26302   3.271   1.621   0.434
 8468SOL    HW126303   3.288   1.717   0.455
 8468SOL    HW226304   3.232   1.614   0.343
 8469SOL     OW26305   3.772   2.604   6.887
 8469SOL    HW126306   3.816   2.603   6.977
 8469SOL    HW226307   3.687   2.550   6.891
 8470SOL     OW26308   1.415   3.604   0.465
 8470SOL    HW126309   1.326   3.628   0.426
 8470SOL    HW226310   1.464   3.545   0.401
 8471SOL     OW26311   2.808   1.683   2.662
 8471SOL    HW126312   2.712   1.698   2.685
 8471SOL    HW226313   2.866   1.716   2.737
 8472SOL     OW26314   0.599   0.411   4.454
 8472SOL    HW126315   0.603   0.472   4.374
 8472SOL    HW226316   0.685   0.362   4.463
 8473SOL     OW26317   6.025   4.852   6.673
 8473SOL    HW126318   6.095   4.819   6.610
 8473SOL    HW226319   6.068   4.899   6.750
 8474SOL     OW26320   3.411   3.148   2.113
 8474SOL    HW126321   3.390   3.069   2.171
 8474SOL    HW226322   3.326   3.195   2.088
 8475SOL     OW26323   0.450   1.550   3.460
 8475SOL    HW126324   0.479   1.644   3.440
 8475SOL    HW226325   0.481   1.489   3.387
 8476SOL     OW26326   6.497   1.046   1.365
 8476SOL    HW126327   6.547   1.130   1.342
 8476SOL    HW226328   6.403   1.069   1.390
 8477SOL     OW26329   4.003   6.712   2.471
 8477SOL    HW126330   4.019   6.697   2.569
 8477SOL    HW226331   3.986   6.624   2.426
 8478SOL     OW26332   1.117   0.752   6.115
 8478SOL    HW126333   1.194   0.815   6.100
 8478SOL    HW226334   1.065   0.782   6.195
 8479SOL     OW26335   6.091   2.773   0.913
 8479SOL    HW126336   6.190   2.786   0.912
 8479SOL    HW226337   6.057   2.775   0.819
 8480SOL     OW26338   3.567   0.715   0.128
 8480SOL    HW126339   3.617   0.697   0.044
 8480SOL    HW226340   3.622   0.774   0.188
 8481SOL     OW26341   4.583   1.849   3.809
 8481SOL    HW126342   4.632   1.914   3.751
 8481SOL    HW226343   4.632   1.762   3.810
 8482SOL     OW26344   3.444   6.866   3.348
 8482SOL    HW126345   3.477   6.886   3.256
 8482SOL    HW226346   3.422   6.769   3.356
 8483SOL     OW26347   4.077   5.569   2.140
 8483SOL    HW126348   4.018   5.505   2.189
 8483SOL    HW226349   4.052   5.569   2.043
 8484SOL     OW26350   0.720   5.516   3.100
 8484SOL    HW126351   0.716   5.417   3.095
 8484SOL    HW226352   0.642   5.555   3.050
 8485SOL     OW26353   3.063   3.836   6.808
 8485SOL    HW126354   2.971   3.812   6.778
 8485SOL    HW226355   3.128   3.820   6.733
 8486SOL     OW26356   4.995   1.187   2.805
 8486SOL    HW126357   5.072   1.220   2.860
 8486SOL    HW226358   5.003   1.222   2.712
 8487SOL     OW26359   5.598   0.475   0.298
 8487SOL    HW126360   5.549   0.398   0.258
 8487SOL    HW226361   5.552   0.505   0.382
 8488SOL     OW26362   5.774   4.702   4.915
 8488SOL    HW126363   5.872   4.687   4.929
 8488SOL    HW226364   5.722   4.633   4.966
 8489SOL     OW26365   6.105   0.539   1.353
 8489SOL    HW126366   6.185   0.480   1.349
 8489SOL    HW226367   6.038   0.499   1.416
 8490SOL     OW26368   3.939   6.594   4.140
 8490SOL    HW126369   3.858   6.644   4.107
 8490SOL    HW226370   4.014   6.658   4.153
 8491SOL     OW26371   2.153   0.279   1.612
 8491SOL    HW126372   2.234   0.314   1.565
 8491SOL    HW226373   2.086   0.353   1.621
 8492SOL     OW26374   4.059   4.217   0.014
 8492SOL    HW126375   4.150   4.256   0.006
 8492SOL    HW226376   3.991   4.290   0.017
 8493SOL     OW26377   2.772   2.313   6.277
 8493SOL    HW126378   2.762   2.380   6.204
 8493SOL    HW226379   2.869   2.290   6.288
 8494SOL     OW26380   2.659   4.909   0.465
 8494SOL    HW126381   2.727   4.853   0.513
 8494SOL    HW226382   2.706   4.983   0.416
 8495SOL     OW26383   6.667   3.922   0.304
 8495SOL    HW126384   6.690   3.890   0.213
 8495SOL    HW226385   6.691   4.019   0.314
 8496SOL     OW26386   0.540   2.171   1.523
 8496SOL    HW126387   0.555   2.123   1.609
 8496SOL    HW226388   0.620   2.227   1.502
 8497SOL     OW26389   6.426   0.460   4.266
 8497SOL    HW126390   6.330   0.471   4.291
 8497SOL    HW226391   6.446   0.518   4.187
 8498SOL     OW26392   0.172   6.180   2.767
 8498SOL    HW126393   0.121   6.096   2.787
 8498SOL    HW226394   0.238   6.161   2.694
 8499SOL     OW26395   2.633   5.451   6.894
 8499SOL    HW126396   2.653   5.354   6.879
 8499SOL    HW226397   2.534   5.463   6.903
 8500SOL     OW26398   1.821   0.314   6.089
 8500SOL    HW126399   1.921   0.310   6.099
 8500SOL    HW226400   1.779   0.249   6.152
 8501SOL     OW26401   0.621   3.003   0.796
 8501SOL    HW126402   0.680   3.077   0.764
 8501SOL    HW226403   0.597   2.944   0.719
 8502SOL     OW26404   1.924   5.095   1.193
 8502SOL    HW126405   1.857   5.166   1.216
 8502SOL    HW226406   1.915   5.019   1.256
 8503SOL     OW26407   1.170   6.111   3.198
 8503SOL    HW126408   1.206   6.196   3.159
 8503SOL    HW226409   1.183   6.111   3.297
 8504SOL     OW26410   1.847   5.703   3.656
 8504SOL    HW126411   1.854   5.637   3.731
 8504SOL    HW226412   1.893   5.788   3.682
 8505SOL     OW26413   4.837   3.999   3.873
 8505SOL    HW126414   4.855   4.081   3.927
 8505SOL    HW226415   4.838   3.919   3.932
 8506SOL     OW26416   6.169   1.515   0.290
 8506SOL    HW126417   6.177   1.426   0.245
 8506SOL    HW226418   6.202   1.507   0.384
 8507SOL     OW26419   2.980   1.128   5.704
 8507SOL    HW126420   2.935   1.211   5.671
 8507SOL    HW226421   3.035   1.088   5.630
 8508SOL     OW26422   6.718   2.534   5.142
 8508SOL    HW126423   6.670   2.447   5.139
 8508SOL    HW226424   6.811   2.520   5.178
 8509SOL     OW26425   5.013   1.575   3.741
 8509SOL    HW126426   4.976   1.552   3.651
 8509SOL    HW226427   5.106   1.540   3.748
 8510SOL     OW26428   5.506   4.702   3.004
 8510SOL    HW126429   5.478   4.634   3.072
 8510SOL    HW226430   5.605   4.695   2.989
 8511SOL     OW26431   5.885   3.621   2.002
 8511SOL    HW126432   5.812   3.556   1.983
 8511SOL    HW226433   5.963   3.601   1.942
 8512SOL     OW26434   2.937   2.425   1.092
 8512SOL    HW126435   2.980   2.335   1.084
 8512SOL    HW226436   2.970   2.470   1.174
 8513SOL     OW26437   4.921   3.720   1.228
 8513SOL    HW126438   4.862   3.797   1.204
 8513SOL    HW226439   4.923   3.709   1.327
 8514SOL     OW26440   2.543   1.830   4.073
 8514SOL    HW126441   2.552   1.902   4.005
 8514SOL    HW226442   2.632   1.813   4.116
 8515SOL     OW26443   5.822   1.601   6.636
 8515SOL    HW126444   5.773   1.635   6.556
 8515SOL    HW226445   5.917   1.633   6.632
 8516SOL     OW26446   6.576   2.019   1.212
 8516SOL    HW126447   6.567   2.089   1.141
 8516SOL    HW226448   6.494   1.962   1.213
 8517SOL     OW26449   1.575   3.109   6.208
 8517SOL    HW126450   1.539   3.062   6.128
 8517SOL    HW226451   1.542   3.204   6.209
 8518SOL     OW26452   4.853   4.309   6.191
 8518SOL    HW126453   4.904   4.250   6.253
 8518SOL    HW226454   4.815   4.386   6.242
 8519SOL     OW26455   1.577   5.043   1.290
 8519SOL    HW126456   1.482   5.016   1.308
 8519SOL    HW226457   1.624   5.061   1.376
 8520SOL     OW26458   3.631   3.233   6.815
 8520SOL    HW126459   3.712   3.268   6.769
 8520SOL    HW226460   3.551   3.248   6.758
 8521SOL     OW26461   2.190   4.707   5.729
 8521SOL    HW126462   2.255   4.752   5.667
 8521SOL    HW226463   2.236   4.633   5.777
 8522SOL     OW26464   1.961   6.688   1.208
 8522SOL    HW126465   2.040   6.707   1.266
 8522SOL    HW226466   1.883   6.743   1.240
 8523SOL     OW26467   1.844   6.388   0.115
 8523SOL    HW126468   1.787   6.310   0.088
 8523SOL    HW226469   1.788   6.471   0.118
 8524SOL     OW26470   0.637   2.790   5.548
 8524SOL    HW126471   0.601   2.792   5.641
 8524SOL    HW226472   0.566   2.761   5.484
 8525SOL     OW26473   6.372   4.234   1.846
 8525SOL    HW126474   6.283   4.269   1.818
 8525SOL    HW226475   6.406   4.171   1.777
 8526SOL     OW26476   4.040   6.089   0.309
 8526SOL    HW126477   4.137   6.088   0.287
 8526SOL    HW226478   4.014   6.001   0.349
 8527SOL     OW26479   3.054   1.034   6.886
 8527SOL    HW126480   3.123   1.106   6.894
 8527SOL    HW226481   3.099   0.946   6.871
 8528SOL     OW26482   4.273   0.895   6.717
 8528SOL    HW126483   4.352   0.834   6.718
 8528SOL    HW226484   4.246   0.912   6.622
 8529SOL     OW26485   1.387   0.104   0.681
 8529SOL    HW126486   1.459   0.080   0.746
 8529SOL    HW226487   1.297   0.092   0.724
 8530SOL     OW26488   4.029   4.255   5.526
 8530SOL    HW126489   3.959   4.183   5.534
 8530SOL    HW226490   4.007   4.329   5.589
 8531SOL     OW26491   6.844   4.735   2.369
 8531SOL    HW126492   6.825   4.688   2.456
 8531SOL    HW226493   6.912   4.806   2.384
 8532SOL     OW26494   4.415   5.306   4.524
 8532SOL    HW126495   4.466   5.237   4.576
 8532SOL    HW226496   4.391   5.268   4.435
 8533SOL     OW26497   2.020   6.050   0.130
 8533SOL    HW126498   2.055   5.958   0.147
 8533SOL    HW226499   2.095   6.109   0.100
 8534SOL     OW26500   5.959   2.390   4.433
 8534SOL    HW126501   6.027   2.378   4.361
 8534SOL    HW226502   5.880   2.331   4.414
 8535SOL     OW26503   6.637   0.942   3.291
 8535SOL    HW126504   6.595   0.993   3.216
 8535SOL    HW226505   6.662   0.850   3.259
 8536SOL     OW26506   6.971   1.938   5.015
 8536SOL    HW126507   0.025   2.005   5.008
 8536SOL    HW226508   7.003   1.850   4.981
 8537SOL     OW26509   5.721   0.787   3.378
 8537SOL    HW126510   5.677   0.705   3.339
 8537SOL    HW226511   5.804   0.760   3.426
 8538SOL     OW26512   1.214   1.002   0.419
 8538SOL    HW126513   1.227   1.101   0.426
 8538SOL    HW226514   1.293   0.961   0.374
 8539SOL     OW26515   6.342   0.690   2.665
 8539SOL    HW126516   6.245   0.706   2.649
 8539SOL    HW226517   6.388   0.777   2.681
 8540SOL     OW26518   5.472   0.445   6.052
 8540SOL    HW126519   5.430   0.536   6.054
 8540SOL    HW226520   5.405   0.378   6.018
 8541SOL     OW26521   2.616   1.969   3.622
 8541SOL    HW126522   2.547   2.004   3.685
 8541SOL    HW226523   2.614   2.023   3.538
 8542SOL     OW26524   4.429   4.453   6.419
 8542SOL    HW126525   4.359   4.382   6.420
 8542SOL    HW226526   4.425   4.503   6.333
 8543SOL     OW26527   2.645   1.614   1.409
 8543SOL    HW126528   2.694   1.537   1.448
 8543SOL    HW226529   2.560   1.629   1.459
 8544SOL     OW26530   5.228   3.426   3.863
 8544SOL    HW126531   5.186   3.341   3.896
 8544SOL    HW226532   5.300   3.403   3.797
 8545SOL     OW26533   4.226   0.022   5.066
 8545SOL    HW126534   4.304   0.024   5.128
 8545SOL    HW226535   4.211   0.113   5.028
 8546SOL     OW26536   5.921   1.639   4.457
 8546SOL    HW126537   5.865   1.634   4.374
 8546SOL    HW226538   5.939   1.735   4.478
 8547SOL     OW26539   1.375   6.537   5.896
 8547SOL    HW126540   1.329   6.472   5.835
 8547SOL    HW226541   1.358   6.512   5.991
 8548SOL     OW26542   6.186   2.684   6.115
 8548SOL    HW126543   6.151   2.769   6.076
 8548SOL    HW226544   6.284   2.677   6.096
 8549SOL     OW26545   1.134   3.013   3.950
 8549SOL    HW126546   1.146   2.914   3.951
 8549SOL    HW226547   1.126   3.045   3.855
 8550SOL     OW26548   1.966   4.787   0.406
 8550SOL    HW126549   1.985   4.885   0.409
 8550SOL    HW226550   2.050   4.736   0.424
 8551SOL     OW26551   3.709   4.174   5.793
 8551SOL    HW126552   3.627   4.225   5.765
 8551SOL    HW226553   3.744   4.122   5.715
 8552SOL     OW26554   2.266   6.815   3.496
 8552SOL    HW126555   2.316   6.733   3.526
 8552SOL    HW226556   2.300   6.895   3.546
 8553SOL     OW26557   4.990   4.388   6.468
 8553SOL    HW126558   4.973   4.295   6.435
 8553SOL    HW226559   4.960   4.395   6.563
 8554SOL     OW26560   0.451   4.901   0.449
 8554SOL    HW126561   0.550   4.891   0.457
 8554SOL    HW226562   0.410   4.900   0.541
 8555SOL     OW26563   1.257   0.202   2.141
 8555SOL    HW126564   1.175   0.257   2.123
 8555SOL    HW226565   1.339   0.257   2.127
 8556SOL     OW26566   0.575   6.654   5.043
 8556SOL    HW126567   0.655   6.660   4.983
 8556SOL    HW226568   0.580   6.570   5.097
 8557SOL     OW26569   5.883   0.552   2.759
 8557SOL    HW126570   5.908   0.588   2.850
 8557SOL    HW226571   5.933   0.603   2.689
 8558SOL     OW26572   2.783   5.723   3.300
 8558SOL    HW126573   2.777   5.730   3.400
 8558SOL    HW226574   2.807   5.629   3.276
 8559SOL     OW26575   6.906   0.484   2.020
 8559SOL    HW126576   6.919   0.574   2.063
 8559SOL    HW226577   6.928   0.412   2.085
 8560SOL     OW26578   0.193   5.955   2.169
 8560SOL    HW126579   0.109   5.909   2.140
 8560SOL    HW226580   0.170   6.030   2.231
 8561SOL     OW26581   3.784   0.220   2.303
 8561SOL    HW126582   3.724   0.173   2.368
 8561SOL    HW226583   3.728   0.272   2.238
 8562SOL     OW26584   4.664   6.326   5.228
 8562SOL    HW126585   4.566   6.318   5.249
 8562SOL    HW226586   4.683   6.417   5.191
 8563SOL     OW26587   2.660   4.618   0.271
 8563SOL    HW126588   2.586   4.569   0.224
 8563SOL    HW226589   2.627   4.708   0.300
 8564SOL     OW26590   2.853   1.031   3.913
 8564SOL    HW126591   2.850   1.130   3.903
 8564SOL    HW226592   2.908   0.991   3.840
 8565SOL     OW26593   4.338   5.974   1.441
 8565SOL    HW126594   4.362   5.932   1.528
 8565SOL    HW226595   4.392   5.933   1.367
 8566SOL     OW26596   1.081   0.442   1.497
 8566SOL    HW126597   1.092   0.509   1.570
 8566SOL    HW226598   1.002   0.383   1.517
 8567SOL     OW26599   6.459   1.263   2.629
 8567SOL    HW126600   6.366   1.228   2.615
 8567SOL    HW226601   6.525   1.188   2.620
 8568SOL     OW26602   5.363   1.192   5.990
 8568SOL    HW126603   5.426   1.216   5.916
 8568SOL    HW226604   5.269   1.193   5.956
 8569SOL     OW26605   5.029   1.664   5.317
 8569SOL    HW126606   4.949   1.605   5.330
 8569SOL    HW226607   5.110   1.619   5.354
 8570SOL     OW26608   1.216   2.347   5.189
 8570SOL    HW126609   1.295   2.321   5.134
 8570SOL    HW226610   1.170   2.264   5.222
 8571SOL     OW26611   1.184   5.240   5.866
 8571SOL    HW126612   1.164   5.333   5.837
 8571SOL    HW226613   1.146   5.224   5.957
 8572SOL     OW26614   3.294   5.255   6.197
 8572SOL    HW126615   3.267   5.350   6.186
 8572SOL    HW226616   3.309   5.235   6.294
 8573SOL     OW26617   3.336   0.054   6.212
 8573SOL    HW126618   3.386   0.140   6.214
 8573SOL    HW226619   3.331   0.016   6.305
 8574SOL     OW26620   0.118   6.222   5.904
 8574SOL    HW126621   0.213   6.192   5.904
 8574SOL    HW226622   0.062   6.155   5.855
 8575SOL     OW26623   3.251   2.718   5.840
 8575SOL    HW126624   3.326   2.683   5.895
 8575SOL    HW226625   3.267   2.815   5.819
 8576SOL     OW26626   1.267   5.982   0.286
 8576SOL    HW126627   1.262   6.050   0.360
 8576SOL    HW226628   1.362   5.966   0.261
 8577SOL     OW26629   0.157   5.815   4.459
 8577SOL    HW126630   0.087   5.748   4.485
 8577SOL    HW226631   0.163   5.820   4.359
 8578SOL     OW26632   5.264   0.550   4.381
 8578SOL    HW126633   5.291   0.518   4.471
 8578SOL    HW226634   5.340   0.599   4.338
 8579SOL     OW26635   1.344   7.018   3.428
 8579SOL    HW126636   1.435   6.986   3.456
 8579SOL    HW226637   1.347   0.024   3.331
 8580SOL     OW26638   2.096   6.743   2.378
 8580SOL    HW126639   2.017   6.797   2.347
 8580SOL    HW226640   2.079   6.712   2.472
 8581SOL     OW26641   3.297   3.181   1.822
 8581SOL    HW126642   3.292   3.270   1.776
 8581SOL    HW226643   3.231   3.178   1.897
 8582SOL     OW26644   4.051   4.808   2.240
 8582SOL    HW126645   3.951   4.808   2.242
 8582SOL    HW226646   4.086   4.769   2.325
 8583SOL     OW26647   5.715   0.723   5.519
 8583SOL    HW126648   5.645   0.658   5.488
 8583SOL    HW226649   5.676   0.815   5.520
 8584SOL     OW26650   0.167   3.638   5.850
 8584SOL    HW126651   0.212   3.723   5.824
 8584SOL    HW226652   0.088   3.623   5.791
 8585SOL     OW26653   0.638   6.211   5.698
 8585SOL    HW126654   0.648   6.291   5.757
 8585SOL    HW226655   0.543   6.204   5.668
 8586SOL     OW26656   2.966   0.308   3.535
 8586SOL    HW126657   2.888   0.341   3.483
 8586SOL    HW226658   2.938   0.289   3.629
 8587SOL     OW26659   1.922   6.975   3.009
 8587SOL    HW126660   1.831   7.012   3.029
 8587SOL    HW226661   1.913   6.894   2.952
 8588SOL     OW26662   2.540   0.620   6.950
 8588SOL    HW126663   2.492   0.643   6.865
 8588SOL    HW226664   2.487   0.551   7.000
 8589SOL     OW26665   5.121   2.964   3.887
 8589SOL    HW126666   5.149   2.960   3.791
 8589SOL    HW226667   5.033   3.011   3.894
 8590SOL     OW26668   6.550   6.392   4.037
 8590SOL    HW126669   6.627   6.442   3.997
 8590SOL    HW226670   6.549   6.299   4.000
 8591SOL     OW26671   0.860   4.527   6.470
 8591SOL    HW126672   0.815   4.455   6.417
 8591SOL    HW226673   0.873   4.608   6.412
 8592SOL     OW26674   0.096   3.655   6.946
 8592SOL    HW126675   0.108   3.754   6.934
 8592SOL    HW226676   0.049   3.637   0.013
 8593SOL     OW26677   1.695   0.336   1.962
 8593SOL    HW126678   1.602   0.346   1.999
 8593SOL    HW226679   1.729   0.425   1.933
 8594SOL     OW26680   3.900   3.161   4.878
 8594SOL    HW126681   3.821   3.200   4.830
 8594SOL    HW226682   3.983   3.207   4.847
 8595SOL     OW26683   1.921   1.774   3.306
 8595SOL    HW126684   1.947   1.804   3.397
 8595SOL    HW226685   1.948   1.678   3.293
 8596SOL     OW26686   6.396   5.435   3.379
 8596SOL    HW126687   6.419   5.340   3.359
 8596SOL    HW226688   6.303   5.440   3.417
 8597SOL     OW26689   4.387   1.327   0.982
 8597SOL    HW126690   4.347   1.259   1.044
 8597SOL    HW226691   4.342   1.321   0.893
 8598SOL     OW26692   7.001   5.671   1.097
 8598SOL    HW126693   6.934   5.596   1.105
 8598SOL    HW226694   0.050   5.661   1.168
 8599SOL     OW26695   1.066   2.412   3.670
 8599SOL    HW126696   1.044   2.402   3.767
 8599SOL    HW226697   0.982   2.403   3.616
 8600SOL     OW26698   5.153   5.068   6.105
 8600SOL    HW126699   5.107   5.016   6.177
 8600SOL    HW226700   5.132   5.166   6.116
 8601SOL     OW26701   1.122   0.779   5.241
 8601SOL    HW126702   1.028   0.747   5.250
 8601SOL    HW226703   1.175   0.715   5.186
 8602SOL     OW26704   3.035   5.756   3.536
 8602SOL    HW126705   3.082   5.751   3.448
 8602SOL    HW226706   3.077   5.690   3.599
 8603SOL     OW26707   3.724   5.381   0.625
 8603SOL    HW126708   3.789   5.305   0.622
 8603SOL    HW226709   3.706   5.406   0.720
 8604SOL     OW26710   0.204   3.302   3.665
 8604SOL    HW126711   0.244   3.216   3.697
 8604SOL    HW226712   0.259   3.378   3.699
 8605SOL     OW26713   3.100   4.892   4.369
 8605SOL    HW126714   3.094   4.882   4.270
 8605SOL    HW226715   3.013   4.869   4.411
 8606SOL     OW26716   1.963   4.750   6.116
 8606SOL    HW126717   1.866   4.765   6.134
 8606SOL    HW226718   1.974   4.668   6.060
 8607SOL     OW26719   3.511   6.039   0.473
 8607SOL    HW126720   3.427   5.998   0.438
 8607SOL    HW226721   3.540   5.989   0.555
 8608SOL     OW26722   4.535   5.155   3.048
 8608SOL    HW126723   4.492   5.193   3.131
 8608SOL    HW226724   4.634   5.153   3.060
 8609SOL     OW26725   5.207   0.925   3.387
 8609SOL    HW126726   5.260   0.853   3.430
 8609SOL    HW226727   5.223   0.924   3.288
 8610SOL     OW26728   1.173   1.224   2.544
 8610SOL    HW126729   1.134   1.276   2.469
 8610SOL    HW226730   1.270   1.249   2.555
 8611SOL     OW26731   1.953   1.840   4.086
 8611SOL    HW126732   2.026   1.909   4.087
 8611SOL    HW226733   1.991   1.751   4.110
 8612SOL     OW26734   3.160   3.088   0.327
 8612SOL    HW126735   3.149   3.018   0.256
 8612SOL    HW226736   3.134   3.050   0.416
 8613SOL     OW26737   2.243   2.008   1.584
 8613SOL    HW126738   2.218   1.929   1.639
 8613SOL    HW226739   2.319   1.984   1.523
 8614SOL     OW26740   0.504   3.493   2.945
 8614SOL    HW126741   0.430   3.536   2.894
 8614SOL    HW226742   0.535   3.411   2.896
 8615SOL     OW26743   5.036   1.993   5.387
 8615SOL    HW126744   5.086   2.079   5.390
 8615SOL    HW226745   5.089   1.925   5.336
 8616SOL     OW26746   2.431   5.259   1.353
 8616SOL    HW126747   2.511   5.205   1.326
 8616SOL    HW226748   2.415   5.248   1.451
 8617SOL     OW26749   6.768   0.926   6.792
 8617SOL    HW126750   6.685   0.940   6.738
 8617SOL    HW226751   6.838   0.992   6.764
 8618SOL     OW26752   6.166   6.650   1.280
 8618SOL    HW126753   6.230   6.708   1.229
 8618SOL    HW226754   6.215   6.572   1.319
 8619SOL     OW26755   3.436   5.106   2.258
 8619SOL    HW126756   3.345   5.130   2.291
 8619SOL    HW226757   3.433   5.090   2.159
 8620SOL     OW26758   0.811   0.024   3.397
 8620SOL    HW126759   0.772   0.111   3.367
 8620SOL    HW226760   0.831   0.029   3.495
 8621SOL     OW26761   6.008   1.655   3.030
 8621SOL    HW126762   6.009   1.667   2.931
 8621SOL    HW226763   6.040   1.564   3.053
 8622SOL     OW26764   4.929   4.188   0.259
 8622SOL    HW126765   4.948   4.208   0.355
 8622SOL    HW226766   4.830   4.193   0.243
 8623SOL     OW26767   1.108   4.070   3.088
 8623SOL    HW126768   1.166   4.037   3.014
 8623SOL    HW226769   1.013   4.048   3.068
 8624SOL     OW26770   1.617   3.762   3.867
 8624SOL    HW126771   1.532   3.731   3.909
 8624SOL    HW226772   1.689   3.695   3.883
 8625SOL     OW26773   4.951   6.745   5.135
 8625SOL    HW126774   5.003   6.790   5.208
 8625SOL    HW226775   4.971   6.790   5.048
 8626SOL     OW26776   3.722   2.958   4.843
 8626SOL    HW126777   3.741   2.952   4.745
 8626SOL    HW226778   3.801   2.996   4.890
 8627SOL     OW26779   0.394   0.765   3.799
 8627SOL    HW126780   0.413   0.861   3.779
 8627SOL    HW226781   0.426   0.708   3.724
 8628SOL     OW26782   5.885   6.945   1.446
 8628SOL    HW126783   5.914   6.849   1.440
 8628SOL    HW226784   5.889   6.986   1.355
 8629SOL     OW26785   1.152   4.800   5.487
 8629SOL    HW126786   1.180   4.870   5.421
 8629SOL    HW226787   1.187   4.823   5.577
 8630SOL     OW26788   5.659   4.506   4.416
 8630SOL    HW126789   5.750   4.476   4.447
 8630SOL    HW226790   5.611   4.551   4.491
 8631SOL     OW26791   2.992   5.757   6.287
 8631SOL    HW126792   2.909   5.782   6.337
 8631SOL    HW226793   3.033   5.676   6.330
 8632SOL     OW26794   3.026   6.882   4.088
 8632SOL    HW126795   2.930   6.877   4.116
 8632SOL    HW226796   3.079   6.816   4.140
 8633SOL     OW26797   5.140   1.691   4.650
 8633SOL    HW126798   5.116   1.630   4.726
 8633SOL    HW226799   5.235   1.675   4.623
 8634SOL     OW26800   5.669   3.203   0.477
 8634SOL    HW126801   5.582   3.250   0.496
 8634SOL    HW226802   5.742   3.271   0.468
 8635SOL     OW26803   5.964   4.412   6.559
 8635SOL    HW126804   5.943   4.493   6.505
 8635SOL    HW226805   5.879   4.362   6.577
 8636SOL     OW26806   5.125   6.014   0.655
 8636SOL    HW126807   5.212   6.007   0.605
 8636SOL    HW226808   5.075   5.928   0.648
 8637SOL     OW26809   1.999   1.395   0.059
 8637SOL    HW126810   2.096   1.406   0.084
 8637SOL    HW226811   1.983   1.438   6.990
 8638SOL     OW26812   2.727   3.071   6.639
 8638SOL    HW126813   2.740   3.169   6.651
 8638SOL    HW226814   2.687   3.032   6.722
 8639SOL     OW26815   5.643   2.090   1.700
 8639SOL    HW126816   5.719   2.080   1.636
 8639SOL    HW226817   5.616   2.186   1.704
 8640SOL     OW26818   4.401   3.769   0.764
 8640SOL    HW126819   4.376   3.676   0.735
 8640SOL    HW226820   4.411   3.827   0.683
 8641SOL     OW26821   6.470   4.976   3.987
 8641SOL    HW126822   6.484   5.038   4.065
 8641SOL    HW226823   6.374   4.949   3.983
 8642SOL     OW26824   3.486   1.260   2.603
 8642SOL    HW126825   3.527   1.277   2.693
 8642SOL    HW226826   3.394   1.222   2.614
 8643SOL     OW26827   3.891   0.412   6.884
 8643SOL    HW126828   3.881   0.494   6.940
 8643SOL    HW226829   3.984   0.408   6.846
 8644SOL     OW26830   4.643   2.540   5.551
 8644SOL    HW126831   4.558   2.554   5.500
 8644SOL    HW226832   4.721   2.554   5.490
 8645SOL     OW26833   4.530   4.117   1.358
 8645SOL    HW126834   4.475   4.147   1.437
 8645SOL    HW226835   4.514   4.179   1.282
 8646SOL     OW26836   6.469   1.550   1.566
 8646SOL    HW126837   6.373   1.523   1.557
 8646SOL    HW226838   6.479   1.646   1.538
 8647SOL     OW26839   2.562   5.305   6.021
 8647SOL    HW126840   2.558   5.225   6.080
 8647SOL    HW226841   2.497   5.374   6.054
 8648SOL     OW26842   6.312   0.717   3.656
 8648SOL    HW126843   6.283   0.675   3.570
 8648SOL    HW226844   6.237   0.711   3.723
 8649SOL     OW26845   5.576   4.148   0.175
 8649SOL    HW126846   5.590   4.164   0.077
 8649SOL    HW226847   5.660   4.170   0.224
 8650SOL     OW26848   1.756   4.104   5.988
 8650SOL    HW126849   1.713   4.131   6.075
 8650SOL    HW226850   1.845   4.063   6.007
 8651SOL     OW26851   3.384   1.060   0.731
 8651SOL    HW126852   3.365   1.001   0.653
 8651SOL    HW226853   3.375   1.007   0.816
 8652SOL     OW26854   1.208   3.786   3.365
 8652SOL    HW126855   1.192   3.688   3.358
 8652SOL    HW226856   1.306   3.804   3.371
 8653SOL     OW26857   5.775   1.123   6.263
 8653SOL    HW126858   5.802   1.106   6.358
 8653SOL    HW226859   5.818   1.208   6.231
 8654SOL     OW26860   1.203   5.814   1.391
 8654SOL    HW126861   1.268   5.775   1.326
 8654SOL    HW226862   1.163   5.898   1.352
 8655SOL     OW26863   6.259   1.078   3.822
 8655SOL    HW126864   6.170   1.123   3.817
 8655SOL    HW226865   6.254   1.002   3.887
 8656SOL     OW26866   6.128   1.122   0.656
 8656SOL    HW126867   6.145   1.053   0.586
 8656SOL    HW226868   6.165   1.210   0.625
 8657SOL     OW26869   4.688   4.905   0.135
 8657SOL    HW126870   4.702   4.840   0.210
 8657SOL    HW226871   4.614   4.872   0.076
 8658SOL     OW26872   4.237   6.649   0.067
 8658SOL    HW126873   4.196   6.722   0.013
 8658SOL    HW226874   4.265   6.574   0.008
 8659SOL     OW26875   4.653   1.614   3.489
 8659SOL    HW126876   4.561   1.651   3.488
 8659SOL    HW226877   4.653   1.523   3.448
 8660SOL     OW26878   5.601   3.953   0.860
 8660SOL    HW126879   5.616   4.001   0.774
 8660SOL    HW226880   5.667   3.984   0.928
 8661SOL     OW26881   5.655   4.136   1.233
 8661SOL    HW126882   5.704   4.060   1.275
 8661SOL    HW226883   5.713   4.178   1.163
 8662SOL     OW26884   4.497   5.748   1.510
 8662SOL    HW126885   4.524   5.789   1.423
 8662SOL    HW226886   4.537   5.800   1.585
 8663SOL     OW26887   2.691   5.875   1.068
 8663SOL    HW126888   2.613   5.898   1.126
 8663SOL    HW226889   2.771   5.859   1.126
 8664SOL     OW26890   2.878   5.807   1.262
 8664SOL    HW126891   2.972   5.812   1.298
 8664SOL    HW226892   2.826   5.740   1.314
 8665SOL     OW26893   5.246   6.035   5.030
 8665SOL    HW126894   5.327   5.983   5.054
 8665SOL    HW226895   5.264   6.133   5.043
 8666SOL     OW26896   4.758   2.049   4.686
 8666SOL    HW126897   4.677   2.006   4.646
 8666SOL    HW226898   4.841   2.005   4.650
 8667SOL     OW26899   4.847   2.706   3.042
 8667SOL    HW126900   4.941   2.725   3.013
 8667SOL    HW226901   4.818   2.618   3.004
 8668SOL     OW26902   6.057   3.411   3.034
 8668SOL    HW126903   5.991   3.486   3.041
 8668SOL    HW226904   6.013   3.331   2.993
 8669SOL     OW26905   2.212   6.211   6.894
 8669SOL    HW126906   2.171   6.141   6.835
 8669SOL    HW226907   2.220   6.297   6.844
 8670SOL     OW26908   3.785   4.922   5.682
 8670SOL    HW126909   3.712   4.986   5.706
 8670SOL    HW226910   3.760   4.830   5.713
 8671SOL     OW26911   5.748   1.747   3.364
 8671SOL    HW126912   5.698   1.794   3.291
 8671SOL    HW226913   5.750   1.804   3.446
 8672SOL     OW26914   1.971   5.340   3.533
 8672SOL    HW126915   1.895   5.299   3.483
 8672SOL    HW226916   1.937   5.409   3.597
 8673SOL     OW26917   6.527   2.104   6.533
 8673SOL    HW126918   6.568   2.099   6.442
 8673SOL    HW226919   6.544   2.195   6.571
 8674SOL     OW26920   5.897   6.152   2.054
 8674SOL    HW126921   5.812   6.125   2.008
 8674SOL    HW226922   5.913   6.250   2.039
 8675SOL     OW26923   3.605   2.083   4.852
 8675SOL    HW126924   3.665   2.040   4.784
 8675SOL    HW226925   3.658   2.146   4.908
 8676SOL     OW26926   4.186   0.252   2.817
 8676SOL    HW126927   4.276   0.226   2.852
 8676SOL    HW226928   4.170   0.349   2.834
 8677SOL     OW26929   2.666   6.313   5.425
 8677SOL    HW126930   2.729   6.282   5.496
 8677SOL    HW226931   2.627   6.402   5.450
 8678SOL     OW26932   7.004   0.185   1.464
 8678SOL    HW126933   0.072   0.210   1.423
 8678SOL    HW226934   6.944   0.265   1.465
 8679SOL     OW26935   6.262   2.606   4.240
 8679SOL    HW126936   6.251   2.507   4.246
 8679SOL    HW226937   6.308   2.639   4.322
 8680SOL     OW26938   0.800   4.202   1.951
 8680SOL    HW126939   0.798   4.261   2.031
 8680SOL    HW226940   0.894   4.190   1.920
 8681SOL     OW26941   4.891   5.314   6.711
 8681SOL    HW126942   4.958   5.356   6.650
 8681SOL    HW226943   4.816   5.377   6.726
 8682SOL     OW26944   5.121   6.736   1.693
 8682SOL    HW126945   5.028   6.764   1.714
 8682SOL    HW226946   5.136   6.643   1.725
 8683SOL     OW26947   1.714   2.330   2.570
 8683SOL    HW126948   1.699   2.387   2.490
 8683SOL    HW226949   1.811   2.310   2.579
 8684SOL     OW26950   0.573   2.657   4.922
 8684SOL    HW126951   0.527   2.568   4.917
 8684SOL    HW226952   0.530   2.713   4.993
 8685SOL     OW26953   0.654   2.290   5.279
 8685SOL    HW126954   0.726   2.308   5.346
 8685SOL    HW226955   0.690   2.305   5.187
 8686SOL     OW26956   0.029   1.285   0.949
 8686SOL    HW126957   0.075   1.240   1.025
 8686SOL    HW226958   0.096   1.309   0.879
 8687SOL     OW26959   3.804   5.571   2.725
 8687SOL    HW126960   3.708   5.544   2.722
 8687SOL    HW226961   3.823   5.618   2.811
 8688SOL     OW26962   2.857   6.047   6.806
 8688SOL    HW126963   2.786   6.092   6.861
 8688SOL    HW226964   2.943   6.046   6.857
 8689SOL     OW26965   3.244   4.534   1.451
 8689SOL    HW126966   3.317   4.466   1.438
 8689SOL    HW226967   3.156   4.494   1.425
 8690SOL     OW26968   1.648   3.046   3.083
 8690SOL    HW126969   1.719   3.035   3.013
 8690SOL    HW226970   1.672   2.994   3.164
 8691SOL     OW26971   3.545   2.021   6.675
 8691SOL    HW126972   3.548   2.092   6.605
 8691SOL    HW226973   3.631   2.022   6.726
 8692SOL     OW26974   2.593   1.574   3.519
 8692SOL    HW126975   2.668   1.632   3.486
 8692SOL    HW226976   2.528   1.630   3.570
 8693SOL     OW26977   6.589   1.318   0.004
 8693SOL    HW126978   6.620   1.397   0.058
 8693SOL    HW226979   6.667   1.258   7.006
 8694SOL     OW26980   3.713   1.258   5.030
 8694SOL    HW126981   3.678   1.167   5.006
 8694SOL    HW226982   3.639   1.325   5.021
 8695SOL     OW26983   4.039   2.670   5.781
 8695SOL    HW126984   4.123   2.629   5.745
 8695SOL    HW226985   4.048   2.683   5.880
 8696SOL     OW26986   2.181   5.946   0.502
 8696SOL    HW126987   2.231   5.864   0.531
 8696SOL    HW226988   2.222   5.981   0.418
 8697SOL     OW26989   6.582   2.957   0.094
 8697SOL    HW126990   6.640   2.995   0.166
 8697SOL    HW226991   6.623   2.974   0.005
 8698SOL     OW26992   5.895   5.279   4.605
 8698SOL    HW126993   5.955   5.274   4.525
 8698SOL    HW226994   5.934   5.342   4.672
 8699SOL     OW26995   2.462   2.492   5.077
 8699SOL    HW126996   2.473   2.468   5.174
 8699SOL    HW226997   2.366   2.513   5.059
 8700SOL     OW26998   1.063   0.601   4.320
 8700SOL    HW126999   1.088   0.611   4.416
 8700SOL    HW227000   1.113   0.523   4.280
 8701SOL     OW27001   1.876   0.733   0.122
 8701SOL    HW127002   1.934   0.671   0.175
 8701SOL    HW227003   1.932   0.808   0.087
 8702SOL     OW27004   5.516   4.413   0.344
 8702SOL    HW127005   5.612   4.387   0.338
 8702SOL    HW227006   5.509   4.512   0.359
 8703SOL     OW27007   3.277   5.643   1.102
 8703SOL    HW127008   3.304   5.737   1.120
 8703SOL    HW227009   3.210   5.641   1.028
 8704SOL     OW27010   6.936   3.647   2.983
 8704SOL    HW127011   0.013   3.624   2.978
 8704SOL    HW227012   6.925   3.746   2.993
 8705SOL     OW27013   5.111   0.622   0.378
 8705SOL    HW127014   5.202   0.659   0.358
 8705SOL    HW227015   5.112   0.523   0.365
 8706SOL     OW27016   4.456   2.205   6.022
 8706SOL    HW127017   4.420   2.229   6.113
 8706SOL    HW227018   4.543   2.158   6.033
 8707SOL     OW27019   6.299   2.295   6.866
 8707SOL    HW127020   6.335   2.232   6.935
 8707SOL    HW227021   6.202   2.277   6.851
 8708SOL     OW27022   4.285   1.737   2.368
 8708SOL    HW127023   4.229   1.654   2.375
 8708SOL    HW227024   4.345   1.730   2.288
 8709SOL     OW27025   6.664   5.716   0.036
 8709SOL    HW127026   6.688   5.664   0.118
 8709SOL    HW227027   6.672   5.814   0.055
 8710SOL     OW27028   2.249   2.965   3.704
 8710SOL    HW127029   2.255   2.951   3.803
 8710SOL    HW227030   2.183   3.037   3.684
 8711SOL     OW27031   1.486   5.953   2.883
 8711SOL    HW127032   1.556   5.937   2.813
 8711SOL    HW227033   1.516   5.915   2.970
 8712SOL     OW27034   4.192   2.259   4.893
 8712SOL    HW127035   4.242   2.247   4.807
 8712SOL    HW227036   4.217   2.346   4.935
 8713SOL     OW27037   0.750   3.992   3.970
 8713SOL    HW127038   0.814   4.064   3.996
 8713SOL    HW227039   0.704   4.019   3.885
 8714SOL     OW27040   1.327   0.697   6.494
 8714SOL    HW127041   1.356   0.786   6.528
 8714SOL    HW227042   1.405   0.634   6.492
 8715SOL     OW27043   4.987   0.808   0.856
 8715SOL    HW127044   4.924   0.882   0.879
 8715SOL    HW227045   4.963   0.771   0.766
 8716SOL     OW27046   0.862   0.165   1.158
 8716SOL    HW127047   0.829   0.096   1.222
 8716SOL    HW227048   0.787   0.196   1.100
 8717SOL     OW27049   3.664   3.253   3.639
 8717SOL    HW127050   3.711   3.301   3.713
 8717SOL    HW227051   3.686   3.297   3.552
 8718SOL     OW27052   0.394   3.729   4.332
 8718SOL    HW127053   0.483   3.690   4.353
 8718SOL    HW227054   0.407   3.816   4.283
 8719SOL     OW27055   2.642   0.230   6.244
 8719SOL    HW127056   2.581   0.151   6.250
 8719SOL    HW227057   2.694   0.227   6.158
 8720SOL     OW27058   6.308   5.362   5.480
 8720SOL    HW127059   6.218   5.378   5.521
 8720SOL    HW227060   6.296   5.319   5.391
 8721SOL     OW27061   6.772   2.600   2.867
 8721SOL    HW127062   6.740   2.665   2.936
 8721SOL    HW227063   6.834   2.534   2.910
 8722SOL     OW27064   4.029   1.554   6.211
 8722SOL    HW127065   4.121   1.516   6.200
 8722SOL    HW227066   4.002   1.548   6.307
 8723SOL     OW27067   4.738   5.597   1.914
 8723SOL    HW127068   4.696   5.615   2.003
 8723SOL    HW227069   4.667   5.569   1.849
 8724SOL     OW27070   5.900   0.110   6.261
 8724SOL    HW127071   5.823   0.151   6.310
 8724SOL    HW227072   5.952   0.182   6.215
 8725SOL     OW27073   2.158   0.127   6.905
 8725SOL    HW127074   2.110   0.096   6.987
 8725SOL    HW227075   2.128   0.220   6.882
 8726SOL     OW27076   6.335   0.115   1.929
 8726SOL    HW127077   6.396   0.094   1.852
 8726SOL    HW227078   6.302   0.030   1.969
 8727SOL     OW27079   0.200   6.326   2.118
 8727SOL    HW127080   0.275   6.357   2.177
 8727SOL    HW227081   0.237   6.304   2.027
 8728SOL     OW27082   4.091   0.662   4.422
 8728SOL    HW127083   4.020   0.709   4.475
 8728SOL    HW227084   4.055   0.575   4.388
 8729SOL     OW27085   4.846   5.819   3.940
 8729SOL    HW127086   4.876   5.913   3.920
 8729SOL    HW227087   4.844   5.805   4.039
 8730SOL     OW27088   6.163   4.276   2.454
 8730SOL    HW127089   6.212   4.190   2.466
 8730SOL    HW227090   6.204   4.328   2.379
 8731SOL     OW27091   1.845   2.677   2.596
 8731SOL    HW127092   1.832   2.663   2.498
 8731SOL    HW227093   1.938   2.652   2.621
 8732SOL     OW27094   5.628   4.296   1.839
 8732SOL    HW127095   5.563   4.333   1.773
 8732SOL    HW227096   5.596   4.315   1.931
 8733SOL     OW27097   2.045   5.280   1.577
 8733SOL    HW127098   1.955   5.316   1.601
 8733SOL    HW227099   2.068   5.308   1.483
 8734SOL     OW27100   1.079   4.314   2.262
 8734SOL    HW127101   1.156   4.322   2.198
 8734SOL    HW227102   1.080   4.223   2.304
 8735SOL     OW27103   1.175   1.799   0.266
 8735SOL    HW127104   1.139   1.721   0.216
 8735SOL    HW227105   1.176   1.879   0.206
 8736SOL     OW27106   0.825   6.138   5.915
 8736SOL    HW127107   0.756   6.136   5.843
 8736SOL    HW227108   0.782   6.163   6.002
 8737SOL     OW27109   2.669   6.350   5.929
 8737SOL    HW127110   2.761   6.375   5.959
 8737SOL    HW227111   2.643   6.407   5.851
 8738SOL     OW27112   2.035   5.408   4.271
 8738SOL    HW127113   2.016   5.353   4.353
 8738SOL    HW227114   2.021   5.504   4.292
 8739SOL     OW27115   5.832   5.569   6.327
 8739SOL    HW127116   5.803   5.644   6.267
 8739SOL    HW227117   5.863   5.492   6.272
 8740SOL     OW27118   4.963   1.047   5.354
 8740SOL    HW127119   5.046   1.101   5.373
 8740SOL    HW227120   4.903   1.050   5.434
 8741SOL     OW27121   2.771   1.402   1.512
 8741SOL    HW127122   2.734   1.387   1.604
 8741SOL    HW227123   2.751   1.323   1.455
 8742SOL     OW27124   5.727   6.493   1.543
 8742SOL    HW127125   5.759   6.459   1.631
 8742SOL    HW227126   5.796   6.553   1.503
 8743SOL     OW27127   1.717   0.416   2.322
 8743SOL    HW127128   1.726   0.380   2.415
 8743SOL    HW227129   1.790   0.379   2.265
 8744SOL     OW27130   3.917   2.785   6.107
 8744SOL    HW127131   3.979   2.847   6.059
 8744SOL    HW227132   3.822   2.813   6.091
 8745SOL     OW27133   6.126   2.967   6.083
 8745SOL    HW127134   6.051   3.002   6.027
 8745SOL    HW227135   6.211   3.013   6.058
 8746SOL     OW27136   5.096   3.677   5.039
 8746SOL    HW127137   5.125   3.772   5.048
 8746SOL    HW227138   5.004   3.673   5.000
 8747SOL     OW27139   0.111   2.225   2.766
 8747SOL    HW127140   0.209   2.209   2.759
 8747SOL    HW227141   0.092   2.323   2.760
 8748SOL     OW27142   6.974   1.639   5.540
 8748SOL    HW127143   0.038   1.683   5.506
 8748SOL    HW227144   6.896   1.668   5.484
 8749SOL     OW27145   2.857   0.236   6.424
 8749SOL    HW127146   2.859   0.328   6.461
 8749SOL    HW227147   2.772   0.221   6.374
 8750SOL     OW27148   3.035   3.609   5.691
 8750SOL    HW127149   3.123   3.649   5.717
 8750SOL    HW227150   3.050   3.527   5.636
 8751SOL     OW27151   6.596   0.357   2.543
 8751SOL    HW127152   6.551   0.397   2.624
 8751SOL    HW227153   6.537   0.285   2.505
 8752SOL     OW27154   2.412   4.814   0.121
 8752SOL    HW127155   2.408   4.866   0.206
 8752SOL    HW227156   2.447   4.872   0.047
 8753SOL     OW27157   4.826   1.598   5.067
 8753SOL    HW127158   4.818   1.694   5.040
 8753SOL    HW227159   4.817   1.540   4.987
 8754SOL     OW27160   1.189   2.190   4.927
 8754SOL    HW127161   1.103   2.172   4.973
 8754SOL    HW227162   1.185   2.279   4.881
 8755SOL     OW27163   2.469   0.866   0.034
 8755SOL    HW127164   2.493   0.772   0.010
 8755SOL    HW227165   2.501   0.928   6.982
 8756SOL     OW27166   2.239   2.945   3.414
 8756SOL    HW127167   2.222   2.862   3.362
 8756SOL    HW227168   2.254   2.922   3.511
 8757SOL     OW27169   4.980   6.423   5.757
 8757SOL    HW127170   4.926   6.351   5.801
 8757SOL    HW227171   4.957   6.427   5.660
 8758SOL     OW27172   4.530   6.868   2.147
 8758SOL    HW127173   4.530   6.829   2.055
 8758SOL    HW227174   4.457   6.827   2.202
 8759SOL     OW27175   3.662   2.231   0.342
 8759SOL    HW127176   3.734   2.298   0.324
 8759SOL    HW227177   3.623   2.200   0.256
 8760SOL     OW27178   1.513   1.846   5.189
 8760SOL    HW127179   1.554   1.827   5.100
 8760SOL    HW227180   1.450   1.772   5.213
 8761SOL     OW27181   4.430   1.731   2.127
 8761SOL    HW127182   4.395   1.638   2.123
 8761SOL    HW227183   4.492   1.746   2.050
 8762SOL     OW27184   0.558   4.252   1.817
 8762SOL    HW127185   0.648   4.242   1.859
 8762SOL    HW227186   0.568   4.277   1.721
 8763SOL     OW27187   5.970   6.254   5.614
 8763SOL    HW127188   5.947   6.280   5.707
 8763SOL    HW227189   6.007   6.333   5.565
 8764SOL     OW27190   4.926   0.853   4.465
 8764SOL    HW127191   4.915   0.829   4.369
 8764SOL    HW227192   4.940   0.952   4.474
 8765SOL     OW27193   6.357   6.130   5.368
 8765SOL    HW127194   6.343   6.227   5.385
 8765SOL    HW227195   6.446   6.116   5.325
 8766SOL     OW27196   4.548   4.433   3.420
 8766SOL    HW127197   4.555   4.428   3.519
 8766SOL    HW227198   4.492   4.512   3.394
 8767SOL     OW27199   3.926   6.887   3.227
 8767SOL    HW127200   4.021   6.887   3.194
 8767SOL    HW227201   3.897   6.981   3.245
 8768SOL     OW27202   1.204   2.905   0.838
 8768SOL    HW127203   1.108   2.880   0.834
 8768SOL    HW227204   1.245   2.898   0.747
 8769SOL     OW27205   1.537   6.681   4.317
 8769SOL    HW127206   1.450   6.727   4.298
 8769SOL    HW227207   1.595   6.684   4.236
 8770SOL     OW27208   5.684   3.782   2.149
 8770SOL    HW127209   5.736   3.864   2.176
 8770SOL    HW227210   5.747   3.713   2.114
 8771SOL     OW27211   0.673   0.318   6.033
 8771SOL    HW127212   0.741   0.385   6.004
 8771SOL    HW227213   0.613   0.359   6.102
 8772SOL     OW27214   5.217   6.200   6.232
 8772SOL    HW127215   5.276   6.187   6.311
 8772SOL    HW227216   5.222   6.120   6.172
 8773SOL     OW27217   4.476   2.488   3.765
 8773SOL    HW127218   4.534   2.408   3.750
 8773SOL    HW227219   4.494   2.525   3.856
 8774SOL     OW27220   1.883   1.931   0.138
 8774SOL    HW127221   1.954   1.861   0.144
 8774SOL    HW227222   1.796   1.888   0.114
 8775SOL     OW27223   6.603   0.408   5.067
 8775SOL    HW127224   6.534   0.464   5.021
 8775SOL    HW227225   6.685   0.463   5.081
 8776SOL     OW27226   3.809   3.635   4.828
 8776SOL    HW127227   3.885   3.699   4.823
 8776SOL    HW227228   3.780   3.610   4.736
 8777SOL     OW27229   7.015   4.010   1.295
 8777SOL    HW127230   0.063   3.985   1.225
 8777SOL    HW227231   0.042   4.054   1.372
 8778SOL     OW27232   6.155   1.967   4.761
 8778SOL    HW127233   6.171   2.065   4.749
 8778SOL    HW227234   6.101   1.933   4.683
 8779SOL     OW27235   3.115   5.226   2.214
 8779SOL    HW127236   3.166   5.301   2.171
 8779SOL    HW227237   3.120   5.145   2.156
 8780SOL     OW27238   1.119   5.270   3.172
 8780SOL    HW127239   1.170   5.226   3.099
 8780SOL    HW227240   1.141   5.367   3.175
 8781SOL     OW27241   6.049   1.921   3.926
 8781SOL    HW127242   6.000   1.922   4.014
 8781SOL    HW227243   6.049   1.828   3.890
 8782SOL     OW27244   5.214   6.773   1.995
 8782SOL    HW127245   5.191   6.796   2.090
 8782SOL    HW227246   5.132   6.783   1.938
 8783SOL     OW27247   6.451   3.799   3.408
 8783SOL    HW127248   6.390   3.768   3.482
 8783SOL    HW227249   6.487   3.890   3.431
 8784SOL     OW27250   5.645   4.031   6.456
 8784SOL    HW127251   5.640   4.021   6.356
 8784SOL    HW227252   5.556   4.062   6.490
 8785SOL     OW27253   6.874   3.518   6.395
 8785SOL    HW127254   6.920   3.583   6.456
 8785SOL    HW227255   6.880   3.426   6.434
 8786SOL     OW27256   2.277   6.619   0.696
 8786SOL    HW127257   2.301   6.692   0.633
 8786SOL    HW227258   2.274   6.655   0.789
 8787SOL     OW27259   2.141   2.799   1.888
 8787SOL    HW127260   2.182   2.708   1.890
 8787SOL    HW227261   2.174   2.848   1.807
 8788SOL     OW27262   0.197   2.279   5.737
 8788SOL    HW127263   0.232   2.373   5.740
 8788SOL    HW227264   0.252   2.222   5.798
 8789SOL     OW27265   6.443   0.052   5.431
 8789SOL    HW127266   6.392   0.135   5.452
 8789SOL    HW227267   6.436   7.007   5.507
 8790SOL     OW27268   0.084   0.622   6.770
 8790SOL    HW127269   0.094   0.710   6.723
 8790SOL    HW227270   0.170   0.597   6.814
 8791SOL     OW27271   5.711   6.770   4.770
 8791SOL    HW127272   5.671   6.679   4.759
 8791SOL    HW227273   5.787   6.766   4.834
 8792SOL     OW27274   3.287   6.160   3.562
 8792SOL    HW127275   3.194   6.124   3.548
 8792SOL    HW227276   3.353   6.097   3.523
 8793SOL     OW27277   0.910   5.294   3.775
 8793SOL    HW127278   0.876   5.318   3.866
 8793SOL    HW227279   1.000   5.335   3.761
 8794SOL     OW27280   4.256   6.979   1.748
 8794SOL    HW127281   4.341   0.000   1.715
 8794SOL    HW227282   4.277   6.914   1.821
 8795SOL     OW27283   1.248   6.783   5.044
 8795SOL    HW127284   1.248   6.778   5.144
 8795SOL    HW227285   1.339   6.763   5.009
 8796SOL     OW27286   4.252   1.247   4.611
 8796SOL    HW127287   4.263   1.320   4.678
 8796SOL    HW227288   4.340   1.226   4.569
 8797SOL     OW27289   0.940   0.061   5.097
 8797SOL    HW127290   0.922   0.159   5.106
 8797SOL    HW227291   0.918   0.015   5.183
 8798SOL     OW27292   4.863   5.026   5.560
 8798SOL    HW127293   4.919   4.945   5.572
 8798SOL    HW227294   4.838   5.036   5.464
 8799SOL     OW27295   2.218   4.560   3.691
 8799SOL    HW127296   2.252   4.466   3.688
 8799SOL    HW227297   2.233   4.598   3.782
 8800SOL     OW27298   6.257   4.528   5.264
 8800SOL    HW127299   6.246   4.468   5.185
 8800SOL    HW227300   6.188   4.505   5.332
 8801SOL     OW27301   0.872   1.614   4.666
 8801SOL    HW127302   0.949   1.656   4.713
 8801SOL    HW227303   0.786   1.647   4.705
 8802SOL     OW27304   1.742   0.049   1.083
 8802SOL    HW127305   1.841   0.045   1.066
 8802SOL    HW227306   1.725   0.086   1.174
 8803SOL     OW27307   0.239   5.267   6.312
 8803SOL    HW127308   0.142   5.263   6.339
 8803SOL    HW227309   0.263   5.361   6.290
 8804SOL     OW27310   3.633   0.688   2.335
 8804SOL    HW127311   3.646   0.779   2.374
 8804SOL    HW227312   3.549   0.687   2.279
 8805SOL     OW27313   2.544   0.057   4.405
 8805SOL    HW127314   2.623   0.118   4.400
 8805SOL    HW227315   2.558   6.998   4.344
 8806SOL     OW27316   2.276   4.949   2.046
 8806SOL    HW127317   2.214   5.018   2.010
 8806SOL    HW227318   2.234   4.858   2.039
 8807SOL     OW27319   5.511   6.907   6.443
 8807SOL    HW127320   5.416   6.876   6.434
 8807SOL    HW227321   5.536   6.960   6.362
 8808SOL     OW27322   5.393   2.307   0.644
 8808SOL    HW127323   5.425   2.357   0.725
 8808SOL    HW227324   5.386   2.370   0.566
 8809SOL     OW27325   4.784   4.913   3.274
 8809SOL    HW127326   4.767   4.816   3.256
 8809SOL    HW227327   4.726   4.943   3.350
 8810SOL     OW27328   5.642   0.600   6.219
 8810SOL    HW127329   5.579   0.540   6.169
 8810SOL    HW227330   5.714   0.545   6.261
 8811SOL     OW27331   2.846   1.295   3.916
 8811SOL    HW127332   2.874   1.349   3.837
 8811SOL    HW227333   2.823   1.357   3.992
 8812SOL     OW27334   2.135   0.105   1.318
 8812SOL    HW127335   2.213   0.061   1.362
 8812SOL    HW227336   2.067   0.130   1.387
 8813SOL     OW27337   1.739   4.597   1.524
 8813SOL    HW127338   1.791   4.570   1.443
 8813SOL    HW227339   1.751   4.529   1.596
 8814SOL     OW27340   5.675   0.640   0.797
 8814SOL    HW127341   5.596   0.627   0.737
 8814SOL    HW227342   5.734   0.712   0.760
 8815SOL     OW27343   6.638   6.025   0.839
 8815SOL    HW127344   6.571   5.953   0.824
 8815SOL    HW227345   6.673   6.019   0.933
 8816SOL     OW27346   1.432   0.896   0.284
 8816SOL    HW127347   1.460   0.904   0.188
 8816SOL    HW227348   1.501   0.844   0.334
 8817SOL     OW27349   0.883   5.859   5.362
 8817SOL    HW127350   0.948   5.890   5.431
 8817SOL    HW227351   0.908   5.899   5.273
 8818SOL     OW27352   0.649   3.521   4.407
 8818SOL    HW127353   0.740   3.500   4.371
 8818SOL    HW227354   0.600   3.436   4.427
 8819SOL     OW27355   4.962   4.813   4.548
 8819SOL    HW127356   4.967   4.724   4.503
 8819SOL    HW227357   5.053   4.838   4.582
 8820SOL     OW27358   2.410   1.280   5.125
 8820SOL    HW127359   2.375   1.265   5.033
 8820SOL    HW227360   2.425   1.192   5.170
 8821SOL     OW27361   2.908   6.262   0.109
 8821SOL    HW127362   2.875   6.353   0.084
 8821SOL    HW227363   2.925   6.258   0.207
 8822SOL     OW27364   0.679   6.992   4.672
 8822SOL    HW127365   0.667   6.908   4.725
 8822SOL    HW227366   0.775   7.004   4.650
 8823SOL     OW27367   2.145   0.806   1.192
 8823SOL    HW127368   2.226   0.864   1.179
 8823SOL    HW227369   2.159   0.719   1.144
 8824SOL     OW27370   0.980   3.406   1.266
 8824SOL    HW127371   0.902   3.466   1.282
 8824SOL    HW227372   0.969   3.322   1.319
 8825SOL     OW27373   1.694   0.605   3.088
 8825SOL    HW127374   1.686   0.650   2.999
 8825SOL    HW227375   1.675   0.672   3.160
 8826SOL     OW27376   6.501   3.002   0.689
 8826SOL    HW127377   6.564   2.924   0.693
 8826SOL    HW227378   6.509   3.047   0.600
 8827SOL     OW27379   3.663   0.977   3.314
 8827SOL    HW127380   3.685   0.903   3.378
 8827SOL    HW227381   3.566   1.002   3.324
 8828SOL     OW27382   4.344   5.382   5.010
 8828SOL    HW127383   4.312   5.291   5.036
 8828SOL    HW227384   4.267   5.445   5.005
 8829SOL     OW27385   6.749   2.046   0.699
 8829SOL    HW127386   6.749   2.007   0.606
 8829SOL    HW227387   6.677   2.114   0.706
 8830SOL     OW27388   0.218   1.622   1.953
 8830SOL    HW127389   0.152   1.669   2.011
 8830SOL    HW227390   0.281   1.688   1.913
 8831SOL     OW27391   5.325   1.081   4.087
 8831SOL    HW127392   5.225   1.079   4.081
 8831SOL    HW227393   5.353   1.140   4.163
 8832SOL     OW27394   0.035   5.948   2.867
 8832SOL    HW127395   7.017   5.980   2.954
 8832SOL    HW227396   0.045   5.849   2.869
 8833SOL     OW27397   2.711   6.125   5.706
 8833SOL    HW127398   2.696   6.085   5.796
 8833SOL    HW227399   2.623   6.132   5.658
 8834SOL     OW27400   5.257   3.591   4.584
 8834SOL    HW127401   5.343   3.541   4.572
 8834SOL    HW227402   5.180   3.530   4.566
 8835SOL     OW27403   5.815   0.999   6.031
 8835SOL    HW127404   5.893   1.047   5.992
 8835SOL    HW227405   5.804   1.024   6.127
 8836SOL     OW27406   4.486   2.106   6.526
 8836SOL    HW127407   4.527   2.159   6.451
 8836SOL    HW227408   4.386   2.106   6.515
 8837SOL     OW27409   0.070   6.333   3.294
 8837SOL    HW127410   0.117   6.246   3.281
 8837SOL    HW227411   0.071   6.385   3.209
 8838SOL     OW27412   2.678   4.582   2.894
 8838SOL    HW127413   2.580   4.563   2.892
 8838SOL    HW227414   2.705   4.609   2.987
 8839SOL     OW27415   5.371   5.193   2.894
 8839SOL    HW127416   5.426   5.275   2.880
 8839SOL    HW227417   5.424   5.112   2.870
 8840SOL     OW27418   6.873   2.046   1.644
 8840SOL    HW127419   6.958   2.079   1.683
 8840SOL    HW227420   6.829   1.983   1.707
 8841SOL     OW27421   0.721   0.439   5.461
 8841SOL    HW127422   0.664   0.405   5.387
 8841SOL    HW227423   0.688   0.530   5.489
 8842SOL     OW27424   3.095   2.848   1.789
 8842SOL    HW127425   3.162   2.836   1.863
 8842SOL    HW227426   3.059   2.759   1.762
 8843SOL     OW27427   1.943   3.417   5.411
 8843SOL    HW127428   1.880   3.462   5.347
 8843SOL    HW227429   2.027   3.394   5.363
 8844SOL     OW27430   6.049   2.260   6.806
 8844SOL    HW127431   5.986   2.337   6.812
 8844SOL    HW227432   6.061   2.235   6.710
 8845SOL     OW27433   4.296   3.683   0.110
 8845SOL    HW127434   4.233   3.689   0.188
 8845SOL    HW227435   4.319   3.587   0.093
 8846SOL     OW27436   3.347   5.792   3.746
 8846SOL    HW127437   3.447   5.792   3.757
 8846SOL    HW227438   3.317   5.701   3.720
 8847SOL     OW27439   2.844   1.772   2.957
 8847SOL    HW127440   2.842   1.672   2.959
 8847SOL    HW227441   2.898   1.807   3.034
 8848SOL     OW27442   2.435   0.724   1.959
 8848SOL    HW127443   2.362   0.735   2.026
 8848SOL    HW227444   2.451   0.626   1.943
 8849SOL     OW27445   3.782   6.057   2.762
 8849SOL    HW127446   3.865   6.069   2.816
 8849SOL    HW227447   3.770   6.135   2.701
 8850SOL     OW27448   1.346   2.411   0.385
 8850SOL    HW127449   1.259   2.376   0.350
 8850SOL    HW227450   1.329   2.493   0.440
 8851SOL     OW27451   1.200   4.287   2.839
 8851SOL    HW127452   1.203   4.368   2.780
 8851SOL    HW227453   1.286   4.279   2.889
 8852SOL     OW27454   0.520   1.950   5.059
 8852SOL    HW127455   0.525   1.852   5.039
 8852SOL    HW227456   0.564   2.001   4.986
 8853SOL     OW27457   2.650   0.745   1.756
 8853SOL    HW127458   2.583   0.739   1.830
 8853SOL    HW227459   2.707   0.663   1.757
 8854SOL     OW27460   1.945   2.706   5.376
 8854SOL    HW127461   2.044   2.707   5.366
 8854SOL    HW227462   1.904   2.653   5.302
 8855SOL     OW27463   6.427   4.986   1.276
 8855SOL    HW127464   6.469   4.901   1.244
 8855SOL    HW227465   6.498   5.045   1.315
 8856SOL     OW27466   1.117   6.687   6.462
 8856SOL    HW127467   1.057   6.763   6.486
 8856SOL    HW227468   1.092   6.652   6.372
 8857SOL     OW27469   6.116   1.764   4.149
 8857SOL    HW127470   6.154   1.853   4.175
 8857SOL    HW227471   6.189   1.695   4.152
 8858SOL     OW27472   0.004   4.013   4.507
 8858SOL    HW127473   0.084   4.057   4.546
 8858SOL    HW227474   6.985   4.071   4.436
 8859SOL     OW27475   1.068   1.438   4.105
 8859SOL    HW127476   1.123   1.405   4.027
 8859SOL    HW227477   0.978   1.467   4.072
 8860SOL     OW27478   6.836   2.413   1.409
 8860SOL    HW127479   6.931   2.390   1.385
 8860SOL    HW227480   6.791   2.333   1.446
 8861SOL     OW27481   3.808   0.976   5.734
 8861SOL    HW127482   3.852   1.059   5.699
 8861SOL    HW227483   3.783   0.990   5.830
 8862SOL     OW27484   5.644   6.798   3.988
 8862SOL    HW127485   5.635   6.793   3.888
 8862SOL    HW227486   5.565   6.755   4.031
 8863SOL     OW27487   2.906   4.784   3.642
 8863SOL    HW127488   2.966   4.715   3.683
 8863SOL    HW227489   2.811   4.763   3.666
 8864SOL     OW27490   3.495   4.543   6.367
 8864SOL    HW127491   3.445   4.609   6.312
 8864SOL    HW227492   3.462   4.546   6.461
 8865SOL     OW27493   3.021   0.840   4.566
 8865SOL    HW127494   3.091   0.794   4.512
 8865SOL    HW227495   3.054   0.930   4.595
 8866SOL     OW27496   5.653   6.904   2.821
 8866SOL    HW127497   5.711   6.984   2.803
 8866SOL    HW227498   5.656   6.843   2.742
 8867SOL     OW27499   5.660   4.601   3.773
 8867SOL    HW127500   5.682   4.698   3.783
 8867SOL    HW227501   5.677   4.554   3.860
 8868SOL     OW27502   7.015   3.169   2.208
 8868SOL    HW127503   6.998   3.165   2.110
 8868SOL    HW227504   0.078   3.118   2.230
 8869SOL     OW27505   4.335   6.111   5.335
 8869SOL    HW127506   4.240   6.086   5.316
 8869SOL    HW227507   4.396   6.054   5.280
 8870SOL     OW27508   2.178   6.670   1.980
 8870SOL    HW127509   2.094   6.718   1.956
 8870SOL    HW227510   2.210   6.702   2.069
 8871SOL     OW27511   2.086   0.270   3.577
 8871SOL    HW127512   2.039   0.188   3.544
 8871SOL    HW227513   2.032   0.311   3.650
 8872SOL     OW27514   1.300   4.971   6.000
 8872SOL    HW127515   1.279   5.061   5.963
 8872SOL    HW227516   1.392   4.944   5.973
 8873SOL     OW27517   2.239   6.971   2.539
 8873SOL    HW127518   2.202   0.042   2.517
 8873SOL    HW227519   2.190   6.902   2.485
 8874SOL     OW27520   2.185   5.692   2.307
 8874SOL    HW127521   2.254   5.679   2.379
 8874SOL    HW227522   2.195   5.621   2.238
 8875SOL     OW27523   6.860   3.639   4.464
 8875SOL    HW127524   6.779   3.627   4.407
 8875SOL    HW227525   6.840   3.704   4.538
 8876SOL     OW27526   2.555   0.778   5.890
 8876SOL    HW127527   2.630   0.806   5.830
 8876SOL    HW227528   2.589   0.712   5.957
 8877SOL     OW27529   2.041   2.530   3.897
 8877SOL    HW127530   2.073   2.532   3.802
 8877SOL    HW227531   2.058   2.619   3.940
 8878SOL     OW27532   3.479   5.200   1.481
 8878SOL    HW127533   3.522   5.173   1.567
 8878SOL    HW227534   3.534   5.271   1.437
 8879SOL     OW27535   4.817   4.878   2.202
 8879SOL    HW127536   4.883   4.843   2.269
 8879SOL    HW227537   4.772   4.959   2.238
 8880SOL     OW27538   3.907   6.611   4.830
 8880SOL    HW127539   3.997   6.574   4.806
 8880SOL    HW227540   3.863   6.647   4.747
 8881SOL     OW27541   5.367   5.695   4.294
 8881SOL    HW127542   5.289   5.737   4.341
 8881SOL    HW227543   5.387   5.747   4.211
 8882SOL     OW27544   4.741   1.210   1.374
 8882SOL    HW127545   4.741   1.260   1.288
 8882SOL    HW227546   4.827   1.227   1.422
 8883SOL     OW27547   1.907   6.516   6.231
 8883SOL    HW127548   1.818   6.509   6.185
 8883SOL    HW227549   1.905   6.590   6.298
 8884SOL     OW27550   5.868   3.677   5.876
 8884SOL    HW127551   5.939   3.744   5.901
 8884SOL    HW227552   5.814   3.713   5.800
 8885SOL     OW27553   4.628   4.736   1.105
 8885SOL    HW127554   4.656   4.671   1.175
 8885SOL    HW227555   4.709   4.774   1.060
 8886SOL     OW27556   3.268   5.696   5.783
 8886SOL    HW127557   3.322   5.740   5.711
 8886SOL    HW227558   3.257   5.599   5.762
 8887SOL     OW27559   4.101   0.858   0.716
 8887SOL    HW127560   4.147   0.772   0.737
 8887SOL    HW227561   4.097   0.871   0.617
 8888SOL     OW27562   2.264   2.060   4.880
 8888SOL    HW127563   2.283   2.154   4.853
 8888SOL    HW227564   2.348   2.016   4.912
 8889SOL     OW27565   6.531   6.786   6.998
 8889SOL    HW127566   6.604   6.822   6.940
 8889SOL    HW227567   6.561   6.784   0.073
 8890SOL     OW27568   0.541   5.738   5.852
 8890SOL    HW127569   0.544   5.779   5.943
 8890SOL    HW227570   0.634   5.722   5.820
 8891SOL     OW27571   3.748   3.941   0.522
 8891SOL    HW127572   3.848   3.937   0.526
 8891SOL    HW227573   3.715   3.880   0.451
 8892SOL     OW27574   3.586   5.031   3.246
 8892SOL    HW127575   3.533   5.026   3.330
 8892SOL    HW227576   3.580   4.943   3.198
 8893SOL     OW27577   0.977   5.324   4.870
 8893SOL    HW127578   0.919   5.401   4.896
 8893SOL    HW227579   1.002   5.332   4.773
 8894SOL     OW27580   3.271   2.157   6.622
 8894SOL    HW127581   3.205   2.145   6.696
 8894SOL    HW227582   3.338   2.083   6.625
 8895SOL     OW27583   6.706   2.221   1.511
 8895SOL    HW127584   6.618   2.205   1.467
 8895SOL    HW227585   6.730   2.142   1.568
 8896SOL     OW27586   2.040   3.160   4.616
 8896SOL    HW127587   2.042   3.186   4.712
 8896SOL    HW227588   2.045   3.061   4.608
 8897SOL     OW27589   2.399   2.296   3.859
 8897SOL    HW127590   2.321   2.321   3.916
 8897SOL    HW227591   2.444   2.379   3.826
 8898SOL     OW27592   5.364   3.340   1.877
 8898SOL    HW127593   5.337   3.304   1.967
 8898SOL    HW227594   5.286   3.385   1.834
 8899SOL     OW27595   1.561   4.509   0.256
 8899SOL    HW127596   1.574   4.572   0.179
 8899SOL    HW227597   1.495   4.547   0.320
 8900SOL     OW27598   5.090   3.118   3.168
 8900SOL    HW127599   5.129   3.204   3.200
 8900SOL    HW227600   5.006   3.135   3.118
 8901SOL     OW27601   0.634   1.285   4.086
 8901SOL    HW127602   0.707   1.241   4.136
 8901SOL    HW227603   0.606   1.228   4.008
 8902SOL     OW27604   1.203   5.627   0.205
 8902SOL    HW127605   1.274   5.670   0.149
 8902SOL    HW227606   1.186   5.684   0.286
 8903SOL     OW27607   0.563   2.205   4.341
 8903SOL    HW127608   0.525   2.282   4.290
 8903SOL    HW227609   0.626   2.238   4.411
 8904SOL     OW27610   0.289   1.155   4.733
 8904SOL    HW127611   0.258   1.061   4.749
 8904SOL    HW227612   0.353   1.156   4.656
 8905SOL     OW27613   2.046   3.118   2.491
 8905SOL    HW127614   2.087   3.187   2.431
 8905SOL    HW227615   2.111   3.044   2.506
 8906SOL     OW27616   1.010   6.335   1.379
 8906SOL    HW127617   0.970   6.405   1.320
 8906SOL    HW227618   1.062   6.378   1.453
 8907SOL     OW27619   3.512   2.881   5.837
 8907SOL    HW127620   3.580   2.886   5.764
 8907SOL    HW227621   3.433   2.937   5.813
 8908SOL     OW27622   2.102   5.781   0.178
 8908SOL    HW127623   2.180   5.807   0.235
 8908SOL    HW227624   2.036   5.730   0.234
 8909SOL     OW27625   2.923   1.152   6.125
 8909SOL    HW127626   2.948   1.247   6.144
 8909SOL    HW227627   2.991   1.092   6.167
 8910SOL     OW27628   0.470   2.718   5.202
 8910SOL    HW127629   0.489   2.811   5.168
 8910SOL    HW227630   0.556   2.672   5.223
 8911SOL     OW27631   4.963   3.566   4.728
 8911SOL    HW127632   4.896   3.576   4.801
 8911SOL    HW227633   5.015   3.651   4.718
 8912SOL     OW27634   2.283   3.108   6.005
 8912SOL    HW127635   2.200   3.147   6.044
 8912SOL    HW227636   2.287   3.128   5.907
 8913SOL     OW27637   4.120   5.513   6.512
 8913SOL    HW127638   4.048   5.559   6.461
 8913SOL    HW227639   4.090   5.496   6.606
 8914SOL     OW27640   4.721   0.190   4.616
 8914SOL    HW127641   4.773   0.114   4.656
 8914SOL    HW227642   4.772   0.275   4.627
 8915SOL     OW27643   1.412   2.046   3.988
 8915SOL    HW127644   1.404   1.948   3.966
 8915SOL    HW227645   1.426   2.056   4.087
 8916SOL     OW27646   6.858   2.724   6.843
 8916SOL    HW127647   6.947   2.710   6.887
 8916SOL    HW227648   6.805   2.639   6.846
 8917SOL     OW27649   5.693   2.604   0.892
 8917SOL    HW127650   5.674   2.694   0.930
 8917SOL    HW227651   5.776   2.567   0.933
 8918SOL     OW27652   1.159   4.904   0.735
 8918SOL    HW127653   1.141   5.001   0.722
 8918SOL    HW227654   1.100   4.869   0.808
 8919SOL     OW27655   5.107   4.494   6.748
 8919SOL    HW127656   5.012   4.464   6.745
 8919SOL    HW227657   5.167   4.415   6.737
 8920SOL     OW27658   0.071   2.121   0.024
 8920SOL    HW127659   0.146   2.060   0.050
 8920SOL    HW227660   0.104   2.186   6.975
 8921SOL     OW27661   1.825   2.936   2.754
 8921SOL    HW127662   1.917   2.906   2.779
 8921SOL    HW227663   1.778   2.862   2.704
 8922SOL     OW27664   3.740   5.832   2.206
 8922SOL    HW127665   3.710   5.753   2.152
 8922SOL    HW227666   3.826   5.811   2.252
 8923SOL     OW27667   1.708   1.158   6.688
 8923SOL    HW127668   1.734   1.109   6.771
 8923SOL    HW227669   1.735   1.105   6.607
 8924SOL     OW27670   4.051   5.601   5.274
 8924SOL    HW127671   4.102   5.678   5.234
 8924SOL    HW227672   4.018   5.542   5.201
 8925SOL     OW27673   0.475   1.079   2.374
 8925SOL    HW127674   0.503   1.063   2.469
 8925SOL    HW227675   0.528   1.155   2.336
 8926SOL     OW27676   7.017   3.319   5.537
 8926SOL    HW127677   0.055   3.247   5.499
 8926SOL    HW227678   6.957   3.280   5.607
 8927SOL     OW27679   6.195   1.152   4.328
 8927SOL    HW127680   6.191   1.241   4.282
 8927SOL    HW227681   6.250   1.089   4.273
 8928SOL     OW27682   1.362   0.345   5.920
 8928SOL    HW127683   1.431   0.281   5.954
 8928SOL    HW227684   1.276   0.297   5.905
 8929SOL     OW27685   5.613   2.098   5.099
 8929SOL    HW127686   5.634   2.001   5.114
 8929SOL    HW227687   5.555   2.132   5.174
 8930SOL     OW27688   1.081   2.831   3.524
 8930SOL    HW127689   0.982   2.822   3.526
 8930SOL    HW227690   1.124   2.743   3.545
 8931SOL     OW27691   3.050   3.698   1.195
 8931SOL    HW127692   3.023   3.792   1.175
 8931SOL    HW227693   3.101   3.661   1.117
 8932SOL     OW27694   6.144   2.146   2.464
 8932SOL    HW127695   6.059   2.154   2.412
 8932SOL    HW227696   6.206   2.082   2.418
 8933SOL     OW27697   2.681   2.696   6.204
 8933SOL    HW127698   2.611   2.674   6.273
 8933SOL    HW227699   2.638   2.738   6.125
 8934SOL     OW27700   2.910   5.473   4.670
 8934SOL    HW127701   2.943   5.391   4.717
 8934SOL    HW227702   2.909   5.457   4.571
 8935SOL     OW27703   0.478   4.411   0.239
 8935SOL    HW127704   0.492   4.494   0.292
 8935SOL    HW227705   0.524   4.334   0.284
 8936SOL     OW27706   1.554   4.334   1.856
 8936SOL    HW127707   1.467   4.314   1.812
 8936SOL    HW227708   1.575   4.263   1.923
 8937SOL     OW27709   0.460   0.479   5.831
 8937SOL    HW127710   0.469   0.533   5.747
 8937SOL    HW227711   0.509   0.393   5.821
 8938SOL     OW27712   0.148   5.501   0.923
 8938SOL    HW127713   0.065   5.553   0.941
 8938SOL    HW227714   0.184   5.527   0.833
 8939SOL     OW27715   4.856   3.077   3.949
 8939SOL    HW127716   4.805   3.028   4.021
 8939SOL    HW227717   4.822   3.049   3.860
 8940SOL     OW27718   0.232   1.305   2.689
 8940SOL    HW127719   0.295   1.232   2.713
 8940SOL    HW227720   0.155   1.268   2.636
 8941SOL     OW27721   6.285   2.617   5.144
 8941SOL    HW127722   6.227   2.539   5.168
 8941SOL    HW227723   6.281   2.633   5.046
 8942SOL     OW27724   6.727   4.572   5.194
 8942SOL    HW127725   6.705   4.655   5.245
 8942SOL    HW227726   6.806   4.587   5.136
 8943SOL     OW27727   3.624   4.323   6.281
 8943SOL    HW127728   3.655   4.349   6.190
 8943SOL    HW227729   3.578   4.401   6.324
 8944SOL     OW27730   5.398   4.959   5.082
 8944SOL    HW127731   5.403   4.936   5.179
 8944SOL    HW227732   5.436   4.884   5.028
 8945SOL     OW27733   0.813   0.581   3.231
 8945SOL    HW127734   0.773   0.558   3.142
 8945SOL    HW227735   0.810   0.500   3.290
 8946SOL     OW27736   3.039   1.191   5.078
 8946SOL    HW127737   3.110   1.256   5.049
 8946SOL    HW227738   2.966   1.241   5.124
 8947SOL     OW27739   1.923   3.500   5.011
 8947SOL    HW127740   1.872   3.586   5.004
 8947SOL    HW227741   2.016   3.519   5.042
 8948SOL     OW27742   6.556   6.432   4.357
 8948SOL    HW127743   6.529   6.338   4.375
 8948SOL    HW227744   6.588   6.440   4.262
 8949SOL     OW27745   2.633   7.007   1.046
 8949SOL    HW127746   2.627   6.910   1.022
 8949SOL    HW227747   2.586   0.002   1.133
 8950SOL     OW27748   4.588   3.866   6.431
 8950SOL    HW127749   4.678   3.861   6.388
 8950SOL    HW227750   4.581   3.950   6.485
 8951SOL     OW27751   0.397   1.861   5.328
 8951SOL    HW127752   0.424   1.932   5.393
 8951SOL    HW227753   0.420   1.890   5.235
 8952SOL     OW27754   1.490   6.877   2.384
 8952SOL    HW127755   1.443   6.808   2.440
 8952SOL    HW227756   1.456   6.870   2.290
 8953SOL     OW27757   1.552   4.400   6.671
 8953SOL    HW127758   1.573   4.403   6.769
 8953SOL    HW227759   1.589   4.482   6.626
 8954SOL     OW27760   1.163   0.157   5.837
 8954SOL    HW127761   1.069   0.179   5.811
 8954SOL    HW227762   1.207   0.106   5.764
 8955SOL     OW27763   0.259   5.015   2.452
 8955SOL    HW127764   0.163   4.994   2.435
 8955SOL    HW227765   0.316   4.960   2.391
 8956SOL     OW27766   0.922   1.747   6.603
 8956SOL    HW127767   0.983   1.798   6.663
 8956SOL    HW227768   0.976   1.688   6.543
 8957SOL     OW27769   2.897   4.077   1.728
 8957SOL    HW127770   2.920   4.076   1.825
 8957SOL    HW227771   2.895   4.172   1.695
 8958SOL     OW27772   0.173   0.401   4.738
 8958SOL    HW127773   0.221   0.382   4.652
 8958SOL    HW227774   0.157   0.499   4.747
 8959SOL     OW27775   1.629   4.794   1.856
 8959SOL    HW127776   1.613   4.776   1.954
 8959SOL    HW227777   1.674   4.716   1.815
 8960SOL     OW27778   4.627   5.641   2.905
 8960SOL    HW127779   4.678   5.555   2.908
 8960SOL    HW227780   4.541   5.630   2.954
 8961SOL     OW27781   2.715   1.744   4.766
 8961SOL    HW127782   2.683   1.762   4.673
 8961SOL    HW227783   2.690   1.820   4.825
 8962SOL     OW27784   6.675   6.518   2.061
 8962SOL    HW127785   6.767   6.546   2.087
 8962SOL    HW227786   6.618   6.599   2.046
 8963SOL     OW27787   5.000   6.417   4.097
 8963SOL    HW127788   4.999   6.473   4.014
 8963SOL    HW227789   5.069   6.453   4.160
 8964SOL     OW27790   4.879   3.703   3.153
 8964SOL    HW127791   4.862   3.604   3.154
 8964SOL    HW227792   4.882   3.737   3.246
 8965SOL     OW27793   2.203   4.717   0.630
 8965SOL    HW127794   2.214   4.631   0.580
 8965SOL    HW227795   2.293   4.760   0.640
 8966SOL     OW27796   6.946   4.213   5.812
 8966SOL    HW127797   6.919   4.276   5.885
 8966SOL    HW227798   0.020   4.184   5.827
 8967SOL     OW27799   3.432   6.962   2.056
 8967SOL    HW127800   3.479   6.978   2.143
 8967SOL    HW227801   3.340   7.002   2.060
 8968SOL     OW27802   5.033   4.833   3.163
 8968SOL    HW127803   4.958   4.870   3.218
 8968SOL    HW227804   5.029   4.733   3.164
 8969SOL     OW27805   6.829   1.182   4.366
 8969SOL    HW127806   6.811   1.194   4.268
 8969SOL    HW227807   6.927   1.168   4.380
 8970SOL     OW27808   2.732   3.531   6.996
 8970SOL    HW127809   2.691   3.602   0.034
 8970SOL    HW227810   2.681   3.446   7.007
 8971SOL     OW27811   5.127   5.130   2.361
 8971SOL    HW127812   5.216   5.167   2.386
 8971SOL    HW227813   5.128   5.031   2.369
 8972SOL     OW27814   4.591   4.325   6.667
 8972SOL    HW127815   4.519   4.390   6.691
 8972SOL    HW227816   4.559   4.266   6.593
 8973SOL     OW27817   1.209   3.362   2.365
 8973SOL    HW127818   1.196   3.435   2.297
 8973SOL    HW227819   1.136   3.367   2.433
 8974SOL     OW27820   1.930   4.474   5.707
 8974SOL    HW127821   1.916   4.570   5.682
 8974SOL    HW227822   1.847   4.421   5.688
 8975SOL     OW27823   2.162   0.158   6.563
 8975SOL    HW127824   2.138   0.069   6.602
 8975SOL    HW227825   2.229   0.203   6.622
 8976SOL     OW27826   0.172   4.782   4.990
 8976SOL    HW127827   0.156   4.809   5.086
 8976SOL    HW227828   0.085   4.761   4.946
 8977SOL     OW27829   5.743   2.091   0.106
 8977SOL    HW127830   5.697   2.073   0.019
 8977SOL    HW227831   5.839   2.065   0.099
 8978SOL     OW27832   5.704   7.004   5.808
 8978SOL    HW127833   5.800   6.977   5.810
 8978SOL    HW227834   5.679   0.013   5.715
 8979SOL     OW27835   1.006   3.036   4.676
 8979SOL    HW127836   1.019   2.968   4.748
 8979SOL    HW227837   0.916   3.078   4.685
 8980SOL     OW27838   2.354   3.080   5.612
 8980SOL    HW127839   2.402   3.114   5.693
 8980SOL    HW227840   2.393   3.122   5.530
 8981SOL     OW27841   4.456   2.093   5.325
 8981SOL    HW127842   4.510   2.099   5.409
 8981SOL    HW227843   4.382   2.161   5.328
 8982SOL     OW27844   1.634   2.248   0.830
 8982SOL    HW127845   1.662   2.155   0.805
 8982SOL    HW227846   1.558   2.277   0.772
 8983SOL     OW27847   1.715   6.639   0.017
 8983SOL    HW127848   1.723   6.646   6.938
 8983SOL    HW227849   1.625   6.670   0.046
 8984SOL     OW27850   0.367   0.308   4.516
 8984SOL    HW127851   0.312   0.307   4.433
 8984SOL    HW227852   0.459   0.343   4.495
 8985SOL     OW27853   2.407   3.733   0.633
 8985SOL    HW127854   2.437   3.713   0.726
 8985SOL    HW227855   2.307   3.736   0.630
 8986SOL     OW27856   5.015   5.378   2.469
 8986SOL    HW127857   5.068   5.445   2.416
 8986SOL    HW227858   5.015   5.290   2.421
 8987SOL     OW27859   4.601   0.029   1.448
 8987SOL    HW127860   4.518   0.070   1.486
 8987SOL    HW227861   4.615   6.959   1.488
 8988SOL     OW27862   1.530   4.018   4.999
 8988SOL    HW127863   1.580   4.057   5.076
 8988SOL    HW227864   1.485   3.934   5.027
 8989SOL     OW27865   4.992   3.968   0.706
 8989SOL    HW127866   5.008   4.049   0.650
 8989SOL    HW227867   5.060   3.898   0.685
 8990SOL     OW27868   1.462   6.125   3.896
 8990SOL    HW127869   1.435   6.079   3.811
 8990SOL    HW227870   1.561   6.124   3.904
 8991SOL     OW27871   2.087   2.350   5.885
 8991SOL    HW127872   2.062   2.278   5.950
 8991SOL    HW227873   2.004   2.386   5.842
 8992SOL     OW27874   5.200   1.380   6.865
 8992SOL    HW127875   5.276   1.358   6.926
 8992SOL    HW227876   5.170   1.297   6.817
 8993SOL     OW27877   5.401   2.392   2.179
 8993SOL    HW127878   5.453   2.359   2.100
 8993SOL    HW227879   5.305   2.365   2.170
 8994SOL     OW27880   0.976   4.328   4.849
 8994SOL    HW127881   1.044   4.287   4.909
 8994SOL    HW227882   0.888   4.334   4.897
 8995SOL     OW27883   1.344   2.832   0.362
 8995SOL    HW127884   1.272   2.837   0.292
 8995SOL    HW227885   1.331   2.749   0.416
 8996SOL     OW27886   5.928   5.350   0.347
 8996SOL    HW127887   6.005   5.327   0.407
 8996SOL    HW227888   5.892   5.440   0.373
 8997SOL     OW27889   5.259   1.630   6.007
 8997SOL    HW127890   5.300   1.662   5.921
 8997SOL    HW227891   5.331   1.593   6.066
 8998SOL     OW27892   5.896   3.419   3.734
 8998SOL    HW127893   5.959   3.342   3.735
 8998SOL    HW227894   5.946   3.503   3.712
 8999SOL     OW27895   4.481   6.044   6.427
 8999SOL    HW127896   4.421   5.964   6.431
 8999SOL    HW227897   4.562   6.022   6.372
 9000SOL     OW27898   1.509   3.847   1.517
 9000SOL    HW127899   1.426   3.899   1.495
 9000SOL    HW227900   1.515   3.768   1.456
 9001SOL     OW27901   1.271   5.467   2.294
 9001SOL    HW127902   1.307   5.377   2.270
 9001SOL    HW227903   1.332   5.538   2.259
 9002SOL     OW27904   0.812   4.857   5.233
 9002SOL    HW127905   0.856   4.768   5.224
 9002SOL    HW227906   0.826   4.910   5.150
 9003SOL     OW27907   5.579   3.233   1.652
 9003SOL    HW127908   5.494   3.253   1.700
 9003SOL    HW227909   5.617   3.147   1.686
 9004SOL     OW27910   3.851   6.520   1.519
 9004SOL    HW127911   3.840   6.619   1.509
 9004SOL    HW227912   3.917   6.501   1.592
 9005SOL     OW27913   5.533   2.473   4.529
 9005SOL    HW127914   5.617   2.486   4.477
 9005SOL    HW227915   5.551   2.488   4.626
 9006SOL     OW27916   2.506   5.537   1.265
 9006SOL    HW127917   2.478   5.562   1.172
 9006SOL    HW227918   2.488   5.440   1.280
 9007SOL     OW27919   3.107   1.139   3.491
 9007SOL    HW127920   3.080   1.049   3.457
 9007SOL    HW227921   3.039   1.207   3.462
 9008SOL     OW27922   1.410   5.885   3.729
 9008SOL    HW127923   1.459   5.840   3.655
 9008SOL    HW227924   1.323   5.839   3.744
 9009SOL     OW27925   3.045   6.428   0.747
 9009SOL    HW127926   3.048   6.502   0.679
 9009SOL    HW227927   2.950   6.401   0.763
 9010SOL     OW27928   1.635   6.412   4.157
 9010SOL    HW127929   1.607   6.383   4.065
 9010SOL    HW227930   1.686   6.498   4.151
 9011SOL     OW27931   4.919   1.630   2.045
 9011SOL    HW127932   4.822   1.621   2.025
 9011SOL    HW227933   4.939   1.721   2.081
 9012SOL     OW27934   2.203   4.046   0.437
 9012SOL    HW127935   2.129   4.003   0.385
 9012SOL    HW227936   2.289   3.998   0.418
 9013SOL     OW27937   0.497   6.512   5.461
 9013SOL    HW127938   0.449   6.599   5.463
 9013SOL    HW227939   0.527   6.492   5.368
 9014SOL     OW27940   6.383   1.968   0.263
 9014SOL    HW127941   6.352   1.989   0.356
 9014SOL    HW227942   6.319   1.904   0.220
 9015SOL     OW27943   4.153   1.879   1.819
 9015SOL    HW127944   4.116   1.894   1.911
 9015SOL    HW227945   4.221   1.805   1.822
 9016SOL     OW27946   0.539   6.738   6.626
 9016SOL    HW127947   0.449   6.727   6.668
 9016SOL    HW227948   0.550   6.671   6.553
 9017SOL     OW27949   4.178   1.947   3.703
 9017SOL    HW127950   4.129   2.035   3.701
 9017SOL    HW227951   4.240   1.945   3.782
 9018SOL     OW27952   3.578   3.028   6.986
 9018SOL    HW127953   3.494   2.996   6.944
 9018SOL    HW227954   3.615   3.105   6.935
 9019SOL     OW27955   1.428   5.622   2.141
 9019SOL    HW127956   1.385   5.571   2.067
 9019SOL    HW227957   1.408   5.720   2.130
 9020SOL     OW27958   0.039   3.545   0.322
 9020SOL    HW127959   0.084   3.456   0.325
 9020SOL    HW227960   6.988   3.548   0.393
 9021SOL     OW27961   6.661   6.877   3.824
 9021SOL    HW127962   6.696   6.879   3.918
 9021SOL    HW227963   6.723   6.929   3.765
 9022SOL     OW27964   3.592   1.441   6.874
 9022SOL    HW127965   3.538   1.480   6.800
 9022SOL    HW227966   3.687   1.432   6.846
 9023SOL     OW27967   3.395   2.898   2.368
 9023SOL    HW127968   3.318   2.934   2.316
 9023SOL    HW227969   3.453   2.843   2.308
 9024SOL     OW27970   0.693   4.002   4.569
 9024SOL    HW127971   0.776   4.057   4.575
 9024SOL    HW227972   0.618   4.058   4.532
 9025SOL     OW27973   0.914   5.259   0.914
 9025SOL    HW127974   0.827   5.307   0.901
 9025SOL    HW227975   0.968   5.307   0.983
 9026SOL     OW27976   3.945   2.866   0.422
 9026SOL    HW127977   3.868   2.812   0.455
 9026SOL    HW227978   4.028   2.810   0.421
 9027SOL     OW27979   1.705   2.429   3.087
 9027SOL    HW127980   1.735   2.460   2.997
 9027SOL    HW227981   1.667   2.337   3.080
 9028SOL     OW27982   2.977   3.476   5.431
 9028SOL    HW127983   3.000   3.562   5.386
 9028SOL    HW227984   2.909   3.426   5.376
 9029SOL     OW27985   3.881   7.015   4.785
 9029SOL    HW127986   3.851   0.039   4.701
 9029SOL    HW227987   3.971   6.972   4.770
 9030SOL     OW27988   2.957   1.440   3.650
 9030SOL    HW127989   2.983   1.534   3.630
 9030SOL    HW227990   3.026   1.398   3.708
 9031SOL     OW27991   4.073   6.381   4.413
 9031SOL    HW127992   4.060   6.338   4.503
 9031SOL    HW227993   3.993   6.363   4.356
 9032SOL     OW27994   3.744   3.577   0.917
 9032SOL    HW127995   3.776   3.501   0.975
 9032SOL    HW227996   3.792   3.576   0.830
 9033SOL     OW27997   0.199   3.917   2.913
 9033SOL    HW127998   0.292   3.902   2.948
 9033SOL    HW227999   0.199   3.903   2.813
 9034SOL     OW28000   3.048   6.644   5.079
 9034SOL    HW128001   3.115   6.570   5.064
 9034SOL    HW228002   2.970   6.631   5.018
 9035SOL     OW28003   1.869   4.855   6.543
 9035SOL    HW128004   1.858   4.763   6.505
 9035SOL    HW228005   1.947   4.900   6.500
 9036SOL     OW28006   1.949   1.927   5.480
 9036SOL    HW128007   1.952   1.986   5.399
 9036SOL    HW228008   2.024   1.953   5.542
 9037SOL     OW28009   1.268   3.952   4.711
 9037SOL    HW128010   1.177   3.934   4.747
 9037SOL    HW228011   1.313   4.023   4.766
 9038SOL     OW28012   3.869   1.002   6.003
 9038SOL    HW128013   3.943   0.954   5.956
 9038SOL    HW228014   3.836   0.948   6.080
 9039SOL     OW28015   2.037   5.614   5.510
 9039SOL    HW128016   2.113   5.564   5.550
 9039SOL    HW228017   1.961   5.553   5.494
 9040SOL     OW28018   3.764   2.093   2.898
 9040SOL    HW128019   3.717   2.097   2.810
 9040SOL    HW228020   3.842   2.155   2.898
 9041SOL     OW28021   1.088   2.097   1.827
 9041SOL    HW128022   1.112   2.194   1.817
 9041SOL    HW228023   1.138   2.043   1.759
 9042SOL     OW28024   3.733   6.711   5.384
 9042SOL    HW128025   3.824   6.709   5.423
 9042SOL    HW228026   3.727   6.645   5.309
 9043SOL     OW28027   1.074   0.251   0.148
 9043SOL    HW128028   1.054   0.312   0.224
 9043SOL    HW228029   1.108   0.163   0.183
 9044SOL     OW28030   6.242   0.370   0.508
 9044SOL    HW128031   6.193   0.420   0.437
 9044SOL    HW228032   6.187   0.366   0.591
 9045SOL     OW28033   2.476   2.014   2.668
 9045SOL    HW128034   2.532   1.993   2.748
 9045SOL    HW228035   2.438   2.107   2.677
 9046SOL     OW28036   3.471   3.549   2.728
 9046SOL    HW128037   3.436   3.467   2.773
 9046SOL    HW228038   3.567   3.534   2.703
 9047SOL     OW28039   2.020   4.078   5.072
 9047SOL    HW128040   1.969   4.053   4.990
 9047SOL    HW228041   2.118   4.061   5.057
 9048SOL     OW28042   5.744   3.460   5.958
 9048SOL    HW128043   5.795   3.538   5.923
 9048SOL    HW228044   5.646   3.476   5.947
 9049SOL     OW28045   3.567   6.772   6.006
 9049SOL    HW128046   3.473   6.789   6.033
 9049SOL    HW228047   3.575   6.779   5.907
 9050SOL     OW28048   0.734   2.836   1.018
 9050SOL    HW128049   0.651   2.781   1.031
 9050SOL    HW228050   0.720   2.898   0.941
 9051SOL     OW28051   3.988   0.354   1.129
 9051SOL    HW128052   4.075   0.350   1.081
 9051SOL    HW228053   3.921   0.403   1.072
 9052SOL     OW28054   2.874   2.238   4.246
 9052SOL    HW128055   2.894   2.333   4.271
 9052SOL    HW228056   2.787   2.233   4.198
 9053SOL     OW28057   1.937   1.095   2.715
 9053SOL    HW128058   1.912   1.038   2.637
 9053SOL    HW228059   1.908   1.050   2.800
 9054SOL     OW28060   2.971   5.981   3.794
 9054SOL    HW128061   2.915   5.970   3.712
 9054SOL    HW228062   2.974   5.894   3.844
 9055SOL     OW28063   6.402   2.753   4.432
 9055SOL    HW128064   6.478   2.794   4.381
 9055SOL    HW228065   6.319   2.804   4.413
 9056SOL     OW28066   0.804   2.543   2.004
 9056SOL    HW128067   0.901   2.528   1.984
 9056SOL    HW228068   0.779   2.635   1.974
 9057SOL     OW28069   4.855   3.459   6.065
 9057SOL    HW128070   4.829   3.541   6.015
 9057SOL    HW228071   4.845   3.379   6.006
 9058SOL     OW28072   2.232   1.111   1.681
 9058SOL    HW128073   2.163   1.182   1.695
 9058SOL    HW228074   2.314   1.132   1.734
 9059SOL     OW28075   1.316   1.508   3.536
 9059SOL    HW128076   1.390   1.454   3.495
 9059SOL    HW228077   1.312   1.598   3.492
 9060SOL     OW28078   6.067   2.952   4.100
 9060SOL    HW128079   6.053   2.855   4.077
 9060SOL    HW228080   6.026   3.009   4.029
 9061SOL     OW28081   2.118   5.192   1.886
 9061SOL    HW128082   2.079   5.174   1.795
 9061SOL    HW228083   2.189   5.261   1.879
 9062SOL     OW28084   1.780   6.588   2.004
 9062SOL    HW128085   1.705   6.637   2.048
 9062SOL    HW228086   1.842   6.552   2.074
 9063SOL     OW28087   3.423   0.608   3.711
 9063SOL    HW128088   3.408   0.650   3.801
 9063SOL    HW228089   3.521   0.605   3.693
 9064SOL     OW28090   6.138   2.409   5.488
 9064SOL    HW128091   6.218   2.349   5.493
 9064SOL    HW228092   6.083   2.399   5.570
 9065SOL     OW28093   4.086   0.548   6.571
 9065SOL    HW128094   4.142   0.466   6.561
 9065SOL    HW228095   4.122   0.603   6.647
 9066SOL     OW28096   5.136   6.494   1.014
 9066SOL    HW128097   5.176   6.438   1.086
 9066SOL    HW228098   5.153   6.451   0.925
 9067SOL     OW28099   0.915   0.409   4.665
 9067SOL    HW128100   0.906   0.349   4.745
 9067SOL    HW228101   0.917   0.353   4.582
 9068SOL     OW28102   2.234   6.502   4.691
 9068SOL    HW128103   2.183   6.451   4.761
 9068SOL    HW228104   2.275   6.438   4.627
 9069SOL     OW28105   1.421   3.177   1.812
 9069SOL    HW128106   1.352   3.185   1.884
 9069SOL    HW228107   1.398   3.239   1.737
 9070SOL     OW28108   1.198   3.252   5.056
 9070SOL    HW128109   1.271   3.198   5.097
 9070SOL    HW228110   1.221   3.273   4.961
 9071SOL     OW28111   6.067   6.669   1.961
 9071SOL    HW128112   6.006   6.720   2.020
 9071SOL    HW228113   6.033   6.670   1.867
 9072SOL     OW28114   6.842   2.116   1.225
 9072SOL    HW128115   6.750   2.092   1.254
 9072SOL    HW228116   6.905   2.110   1.302
 9073SOL     OW28117   2.833   6.771   2.547
 9073SOL    HW128118   2.793   6.807   2.631
 9073SOL    HW228119   2.760   6.741   2.485
 9074SOL     OW28120   1.280   1.331   1.899
 9074SOL    HW128121   1.187   1.329   1.935
 9074SOL    HW228122   1.292   1.415   1.845
 9075SOL     OW28123   6.895   1.074   2.045
 9075SOL    HW128124   6.866   1.116   1.959
 9075SOL    HW228125   6.927   1.145   2.108
 9076SOL     OW28126   0.386   2.726   5.471
 9076SOL    HW128127   0.295   2.757   5.501
 9076SOL    HW228128   0.389   2.723   5.371
 9077SOL     OW28129   4.872   0.322   0.320
 9077SOL    HW128130   4.836   0.404   0.274
 9077SOL    HW228131   4.810   0.245   0.304
 9078SOL     OW28132   3.871   3.454   5.015
 9078SOL    HW128133   3.801   3.419   5.078
 9078SOL    HW228134   3.831   3.522   4.954
 9079SOL     OW28135   2.490   0.382   4.442
 9079SOL    HW128136   2.506   0.441   4.521
 9079SOL    HW228137   2.568   0.388   4.379
 9080SOL     OW28138   4.722   2.492   6.011
 9080SOL    HW128139   4.656   2.508   6.085
 9080SOL    HW228140   4.753   2.580   5.975
 9081SOL     OW28141   4.059   0.209   2.299
 9081SOL    HW128142   3.960   0.196   2.297
 9081SOL    HW228143   4.092   0.204   2.393
 9082SOL     OW28144   2.196   0.327   5.415
 9082SOL    HW128145   2.149   0.298   5.499
 9082SOL    HW228146   2.133   0.376   5.356
 9083SOL     OW28147   3.540   5.362   6.063
 9083SOL    HW128148   3.523   5.407   5.976
 9083SOL    HW228149   3.454   5.331   6.103
 9084SOL     OW28150   3.522   3.811   3.196
 9084SOL    HW128151   3.509   3.786   3.100
 9084SOL    HW228152   3.454   3.763   3.252
 9085SOL     OW28153   2.457   0.656   1.556
 9085SOL    HW128154   2.470   0.675   1.653
 9085SOL    HW228155   2.388   0.718   1.519
 9086SOL     OW28156   0.635   4.513   6.831
 9086SOL    HW128157   0.544   4.552   6.818
 9086SOL    HW228158   0.673   4.543   6.918
 9087SOL     OW28159   5.061   2.336   1.363
 9087SOL    HW128160   4.975   2.339   1.413
 9087SOL    HW228161   5.126   2.277   1.412
 9088SOL     OW28162   0.066   6.799   1.555
 9088SOL    HW128163   0.074   6.762   1.462
 9088SOL    HW228164   0.117   6.741   1.618
 9089SOL     OW28165   5.292   5.708   5.518
 9089SOL    HW128166   5.196   5.688   5.538
 9089SOL    HW228167   5.298   5.792   5.463
 9090SOL     OW28168   6.277   0.992   5.106
 9090SOL    HW128169   6.210   1.032   5.169
 9090SOL    HW228170   6.261   0.894   5.098
 9091SOL     OW28171   2.863   4.396   0.319
 9091SOL    HW128172   2.766   4.375   0.318
 9091SOL    HW228173   2.876   4.495   0.309
 9092SOL     OW28174   6.603   0.934   0.027
 9092SOL    HW128175   6.519   0.883   0.015
 9092SOL    HW228176   6.675   0.895   6.989
 9093SOL     OW28177   1.495   5.882   5.601
 9093SOL    HW128178   1.514   5.880   5.502
 9093SOL    HW228179   1.502   5.977   5.633
 9094SOL     OW28180   6.035   4.670   3.002
 9094SOL    HW128181   6.031   4.658   2.903
 9094SOL    HW228182   6.108   4.734   3.025
 9095SOL     OW28183   4.984   4.917   6.294
 9095SOL    HW128184   5.034   4.927   6.380
 9095SOL    HW228185   4.959   4.821   6.280
 9096SOL     OW28186   6.450   4.914   2.490
 9096SOL    HW128187   6.519   4.888   2.558
 9096SOL    HW228188   6.414   5.005   2.512
 9097SOL     OW28189   2.037   2.075   0.887
 9097SOL    HW128190   1.995   2.050   0.799
 9097SOL    HW228191   2.022   2.001   0.953
 9098SOL     OW28192   2.966   1.913   4.743
 9098SOL    HW128193   2.975   1.979   4.818
 9098SOL    HW228194   2.895   1.846   4.765
 9099SOL     OW28195   2.522   3.186   5.795
 9099SOL    HW128196   2.619   3.213   5.793
 9099SOL    HW228197   2.506   3.126   5.873
 9100SOL     OW28198   0.488   3.621   3.182
 9100SOL    HW128199   0.567   3.628   3.243
 9100SOL    HW228200   0.517   3.582   3.095
 9101SOL     OW28201   2.575   1.871   1.923
 9101SOL    HW128202   2.482   1.864   1.959
 9101SOL    HW228203   2.637   1.898   1.996
 9102SOL     OW28204   2.971   6.647   1.769
 9102SOL    HW128205   2.931   6.680   1.683
 9102SOL    HW228206   2.941   6.706   1.844
 9103SOL     OW28207   5.609   1.802   0.086
 9103SOL    HW128208   5.518   1.763   0.103
 9103SOL    HW228209   5.637   1.854   0.167
 9104SOL     OW28210   0.054   6.661   1.329
 9104SOL    HW128211   0.093   6.574   1.300
 9104SOL    HW228212   0.063   6.728   1.255
 9105SOL     OW28213   0.936   0.305   5.523
 9105SOL    HW128214   0.858   0.367   5.514
 9105SOL    HW228215   0.932   0.261   5.613
 9106SOL     OW28216   6.382   2.816   0.936
 9106SOL    HW128217   6.418   2.896   0.888
 9106SOL    HW228218   6.453   2.779   0.997
 9107SOL     OW28219   2.171   0.760   6.813
 9107SOL    HW128220   2.147   0.796   6.903
 9107SOL    HW228221   2.095   0.775   6.750
 9108SOL     OW28222   4.766   4.158   5.441
 9108SOL    HW128223   4.845   4.100   5.423
 9108SOL    HW228224   4.797   4.250   5.466
 9109SOL     OW28225   4.976   3.476   2.926
 9109SOL    HW128226   4.939   3.569   2.917
 9109SOL    HW228227   4.961   3.426   2.841
 9110SOL     OW28228   1.214   5.581   4.441
 9110SOL    HW128229   1.222   5.672   4.482
 9110SOL    HW228230   1.285   5.570   4.372
 9111SOL     OW28231   4.624   2.653   6.491
 9111SOL    HW128232   4.604   2.733   6.549
 9111SOL    HW228233   4.548   2.588   6.498
 9112SOL     OW28234   1.491   4.801   2.626
 9112SOL    HW128235   1.456   4.709   2.606
 9112SOL    HW228236   1.504   4.811   2.725
 9113SOL     OW28237   5.267   2.202   2.836
 9113SOL    HW128238   5.358   2.225   2.802
 9113SOL    HW228239   5.200   2.267   2.801
 9114SOL     OW28240   0.650   5.697   3.781
 9114SOL    HW128241   0.650   5.665   3.875
 9114SOL    HW228242   0.722   5.765   3.768
 9115SOL     OW28243   5.739   5.783   5.049
 9115SOL    HW128244   5.799   5.716   5.006
 9115SOL    HW228245   5.756   5.785   5.148
 9116SOL     OW28246   0.410   0.003   3.072
 9116SOL    HW128247   0.410   6.964   3.153
 9116SOL    HW228248   0.318   0.040   3.058
 9117SOL     OW28249   3.839   2.613   6.481
 9117SOL    HW128250   3.803   2.692   6.431
 9117SOL    HW228251   3.928   2.588   6.444
 9118SOL     OW28252   6.549   3.341   0.108
 9118SOL    HW128253   6.535   3.252   0.065
 9118SOL    HW228254   6.647   3.362   0.109
 9119SOL     OW28255   4.122   1.325   1.322
 9119SOL    HW128256   4.042   1.386   1.329
 9119SOL    HW228257   4.132   1.273   1.407
 9120SOL     OW28258   6.333   3.034   5.431
 9120SOL    HW128259   6.387   2.955   5.402
 9120SOL    HW228260   6.291   3.077   5.351
 9121SOL     OW28261   3.658   6.764   5.704
 9121SOL    HW128262   3.681   6.840   5.643
 9121SOL    HW228263   3.729   6.755   5.774
 9122SOL     OW28264   2.324   4.087   2.054
 9122SOL    HW128265   2.326   4.185   2.033
 9122SOL    HW228266   2.395   4.066   2.121
 9123SOL     OW28267   1.681   0.303   4.104
 9123SOL    HW128268   1.717   0.262   4.188
 9123SOL    HW228269   1.663   0.231   4.037
 9124SOL     OW28270   3.689   5.624   2.054
 9124SOL    HW128271   3.610   5.581   2.097
 9124SOL    HW228272   3.758   5.554   2.034
 9125SOL     OW28273   3.943   4.249   1.018
 9125SOL    HW128274   3.855   4.252   1.065
 9125SOL    HW228275   3.929   4.251   0.919
 9126SOL     OW28276   4.778   3.937   0.975
 9126SOL    HW128277   4.782   4.011   1.043
 9126SOL    HW228278   4.839   3.959   0.899
 9127SOL     OW28279   6.428   2.806   5.329
 9127SOL    HW128280   6.510   2.821   5.273
 9127SOL    HW228281   6.363   2.749   5.279
 9128SOL     OW28282   6.016   2.490   4.684
 9128SOL    HW128283   6.002   2.447   4.595
 9128SOL    HW228284   6.032   2.588   4.671
 9129SOL     OW28285   0.366   1.975   0.464
 9129SOL    HW128286   0.440   1.958   0.399
 9129SOL    HW228287   0.369   2.070   0.495
 9130SOL     OW28288   0.850   4.100   5.972
 9130SOL    HW128289   0.774   4.122   5.911
 9130SOL    HW228290   0.936   4.131   5.931
 9131SOL     OW28291   5.378   3.471   0.107
 9131SOL    HW128292   5.318   3.436   0.178
 9131SOL    HW228293   5.360   3.568   0.093
 9132SOL     OW28294   0.995   4.583   4.218
 9132SOL    HW128295   0.900   4.615   4.213
 9132SOL    HW228296   1.044   4.612   4.136
 9133SOL     OW28297   3.407   1.054   1.088
 9133SOL    HW128298   3.427   1.145   1.053
 9133SOL    HW228299   3.487   0.995   1.073
 9134SOL     OW28300   3.861   5.639   1.118
 9134SOL    HW128301   3.885   5.695   1.198
 9134SOL    HW228302   3.941   5.630   1.058
 9135SOL     OW28303   1.666   6.193   1.592
 9135SOL    HW128304   1.579   6.205   1.640
 9135SOL    HW228305   1.697   6.282   1.558
 9136SOL     OW28306   4.259   5.922   5.851
 9136SOL    HW128307   4.349   5.965   5.845
 9136SOL    HW228308   4.270   5.823   5.863
 9137SOL     OW28309   4.243   0.146   5.746
 9137SOL    HW128310   4.315   0.080   5.724
 9137SOL    HW228311   4.267   0.195   5.829
 9138SOL     OW28312   2.180   3.544   0.390
 9138SOL    HW128313   2.225   3.465   0.349
 9138SOL    HW228314   2.246   3.598   0.441
 9139SOL     OW28315   0.957   1.316   1.586
 9139SOL    HW128316   0.932   1.405   1.623
 9139SOL    HW228317   0.879   1.275   1.540
 9140SOL     OW28318   0.405   4.839   2.294
 9140SOL    HW128319   0.482   4.817   2.355
 9140SOL    HW228320   0.437   4.895   2.218
 9141SOL     OW28321   7.018   5.989   6.860
 9141SOL    HW128322   0.085   5.964   6.904
 9141SOL    HW228323   0.003   6.085   6.831
 9142SOL     OW28324   0.025   2.713   2.944
 9142SOL    HW128325   0.045   2.772   2.867
 9142SOL    HW228326   6.967   2.750   2.996
 9143SOL     OW28327   0.784   3.933   1.118
 9143SOL    HW128328   0.862   3.879   1.152
 9143SOL    HW228329   0.794   3.947   1.020
 9144SOL     OW28330   2.782   4.848   4.799
 9144SOL    HW128331   2.817   4.768   4.849
 9144SOL    HW228332   2.705   4.887   4.849
 9145SOL     OW28333   1.328   6.959   6.552
 9145SOL    HW128334   1.309   0.008   6.482
 9145SOL    HW228335   1.264   6.883   6.543
 9146SOL     OW28336   5.383   2.728   3.174
 9146SOL    HW128337   5.350   2.730   3.079
 9146SOL    HW228338   5.337   2.800   3.226
 9147SOL     OW28339   6.278   0.696   5.096
 9147SOL    HW128340   6.279   0.700   5.196
 9147SOL    HW228341   6.227   0.616   5.066
 9148SOL     OW28342   5.779   0.119   2.012
 9148SOL    HW128343   5.736   0.167   1.935
 9148SOL    HW228344   5.868   0.160   2.032
 9149SOL     OW28345   5.443   3.037   2.367
 9149SOL    HW128346   5.359   3.002   2.326
 9149SOL    HW228347   5.425   3.069   2.460
 9150SOL     OW28348   3.195   4.245   0.790
 9150SOL    HW128349   3.179   4.328   0.844
 9150SOL    HW228350   3.293   4.226   0.788
 9151SOL     OW28351   2.345   4.289   3.723
 9151SOL    HW128352   2.395   4.336   3.650
 9151SOL    HW228353   2.309   4.202   3.689
 9152SOL     OW28354   2.039   4.360   4.073
 9152SOL    HW128355   2.044   4.319   4.164
 9152SOL    HW228356   2.121   4.336   4.021
 9153SOL     OW28357   0.631   3.600   6.410
 9153SOL    HW128358   0.633   3.512   6.364
 9153SOL    HW228359   0.565   3.597   6.486
 9154SOL     OW28360   4.782   5.128   3.098
 9154SOL    HW128361   4.804   5.037   3.135
 9154SOL    HW228362   4.858   5.191   3.119
 9155SOL     OW28363   1.530   4.483   3.234
 9155SOL    HW128364   1.610   4.539   3.211
 9155SOL    HW228365   1.559   4.391   3.257
 9156SOL     OW28366   6.770   2.563   0.795
 9156SOL    HW128367   6.714   2.592   0.873
 9156SOL    HW228368   6.865   2.549   0.826
 9157SOL     OW28369   3.255   3.836   6.140
 9157SOL    HW128370   3.212   3.924   6.159
 9157SOL    HW228371   3.344   3.850   6.098
 9158SOL     OW28372   6.646   4.762   4.309
 9158SOL    HW128373   6.742   4.789   4.312
 9158SOL    HW228374   6.638   4.670   4.271
 9159SOL     OW28375   2.098   6.805   3.157
 9159SOL    HW128376   2.040   6.857   3.094
 9159SOL    HW228377   2.070   6.822   3.251
 9160SOL     OW28378   0.223   4.958   6.644
 9160SOL    HW128379   0.130   4.921   6.641
 9160SOL    HW228380   0.253   4.981   6.552
 9161SOL     OW28381   5.796   4.950   3.104
 9161SOL    HW128382   5.740   5.032   3.090
 9161SOL    HW228383   5.785   4.888   3.026
 9162SOL     OW28384   3.863   1.046   3.131
 9162SOL    HW128385   3.792   0.999   3.184
 9162SOL    HW228386   3.933   0.980   3.102
 9163SOL     OW28387   6.927   2.722   1.700
 9163SOL    HW128388   7.011   2.691   1.657
 9163SOL    HW228389   6.848   2.682   1.653
 9164SOL     OW28390   2.160   0.815   0.066
 9164SOL    HW128391   2.252   0.834   0.100
 9164SOL    HW228392   2.105   0.899   0.068
 9165SOL     OW28393   5.324   2.411   5.784
 9165SOL    HW128394   5.417   2.379   5.767
 9165SOL    HW228395   5.259   2.351   5.738
 9166SOL     OW28396   4.263   5.890   1.022
 9166SOL    HW128397   4.212   5.955   0.967
 9166SOL    HW228398   4.336   5.938   1.072
 9167SOL     OW28399   1.066   2.077   6.733
 9167SOL    HW128400   1.086   2.012   6.806
 9167SOL    HW228401   1.149   2.092   6.679
 9168SOL     OW28402   6.473   5.442   6.099
 9168SOL    HW128403   6.521   5.401   6.021
 9168SOL    HW228404   6.490   5.388   6.181
 9169SOL     OW28405   7.014   6.559   6.461
 9169SOL    HW128406   6.943   6.566   6.531
 9169SOL    HW228407   6.972   6.528   6.375
 9170SOL     OW28408   2.070   1.647   6.392
 9170SOL    HW128409   2.005   1.714   6.427
 9170SOL    HW228410   2.111   1.680   6.307
 9171SOL     OW28411   2.578   5.082   0.814
 9171SOL    HW128412   2.665   5.102   0.860
 9171SOL    HW228413   2.523   5.165   0.809
 9172SOL     OW28414   4.670   1.568   4.800
 9172SOL    HW128415   4.610   1.544   4.876
 9172SOL    HW228416   4.654   1.504   4.724
 9173SOL     OW28417   6.950   3.103   4.350
 9173SOL    HW128418   6.944   3.180   4.413
 9173SOL    HW228419   6.893   3.028   4.383
 9174SOL     OW28420   0.650   5.865   6.758
 9174SOL    HW128421   0.606   5.783   6.793
 9174SOL    HW228422   0.697   5.912   6.833
 9175SOL     OW28423   1.533   6.321   0.378
 9175SOL    HW128424   1.524   6.297   0.281
 9175SOL    HW228425   1.583   6.248   0.425
 9176SOL     OW28426   2.236   0.483   2.614
 9176SOL    HW128427   2.250   0.415   2.542
 9176SOL    HW228428   2.314   0.481   2.677
 9177SOL     OW28429   1.622   3.317   3.634
 9177SOL    HW128430   1.630   3.351   3.540
 9177SOL    HW228431   1.538   3.264   3.643
 9178SOL     OW28432   2.258   5.747   6.479
 9178SOL    HW128433   2.204   5.691   6.416
 9178SOL    HW228434   2.325   5.800   6.427
 9179SOL     OW28435   3.573   6.160   4.510
 9179SOL    HW128436   3.519   6.123   4.434
 9179SOL    HW228437   3.511   6.202   4.576
 9180SOL     OW28438   6.384   1.980   4.320
 9180SOL    HW128439   6.476   2.013   4.341
 9180SOL    HW228440   6.348   2.030   4.241
 9181SOL     OW28441   4.728   2.799   3.763
 9181SOL    HW128442   4.791   2.740   3.815
 9181SOL    HW228443   4.671   2.742   3.704
 9182SOL     OW28444   2.447   1.259   2.758
 9182SOL    HW128445   2.491   1.282   2.671
 9182SOL    HW228446   2.383   1.183   2.743
 9183SOL     OW28447   4.687   3.385   6.842
 9183SOL    HW128448   4.727   3.438   6.768
 9183SOL    HW228449   4.680   3.289   6.814
 9184SOL     OW28450   3.201   2.094   0.858
 9184SOL    HW128451   3.296   2.088   0.887
 9184SOL    HW228452   3.166   2.003   0.839
 9185SOL     OW28453   0.202   0.063   6.144
 9185SOL    HW128454   0.124   0.007   6.115
 9185SOL    HW228455   0.285   0.031   6.099
 9186SOL     OW28456   4.924   0.447   5.851
 9186SOL    HW128457   5.020   0.423   5.838
 9186SOL    HW228458   4.914   0.546   5.858
 9187SOL     OW28459   4.554   1.886   6.868
 9187SOL    HW128460   4.459   1.869   6.843
 9187SOL    HW228461   4.568   1.984   6.884
 9188SOL     OW28462   1.595   0.882   1.364
 9188SOL    HW128463   1.546   0.936   1.296
 9188SOL    HW228464   1.673   0.837   1.322
 9189SOL     OW28465   3.395   1.135   3.363
 9189SOL    HW128466   3.350   1.122   3.275
 9189SOL    HW228467   3.328   1.164   3.431
 9190SOL     OW28468   5.954   4.020   5.529
 9190SOL    HW128469   5.871   4.003   5.582
 9190SOL    HW228470   5.978   4.117   5.534
 9191SOL     OW28471   5.107   6.552   6.988
 9191SOL    HW128472   5.195   6.507   6.976
 9191SOL    HW228473   5.075   6.539   0.062
 9192SOL     OW28474   5.855   3.982   5.826
 9192SOL    HW128475   5.769   3.932   5.813
 9192SOL    HW228476   5.839   4.060   5.886
 9193SOL     OW28477   2.980   3.448   3.885
 9193SOL    HW128478   3.071   3.450   3.926
 9193SOL    HW228479   2.929   3.530   3.914
 9194SOL     OW28480   3.511   6.241   2.380
 9194SOL    HW128481   3.500   6.184   2.299
 9194SOL    HW228482   3.422   6.251   2.426
 9195SOL     OW28483   1.401   3.125   3.692
 9195SOL    HW128484   1.435   3.093   3.781
 9195SOL    HW228485   1.302   3.110   3.687
 9196SOL     OW28486   4.137   6.995   3.946
 9196SOL    HW128487   4.092   6.961   3.864
 9196SOL    HW228488   4.237   6.987   3.936
 9197SOL     OW28489   2.820   3.484   0.554
 9197SOL    HW128490   2.768   3.480   0.639
 9197SOL    HW228491   2.903   3.537   0.568
 9198SOL     OW28492   5.663   4.423   6.086
 9198SOL    HW128493   5.661   4.393   6.182
 9198SOL    HW228494   5.628   4.516   6.080
 9199SOL     OW28495   1.011   3.357   6.231
 9199SOL    HW128496   1.034   3.372   6.135
 9199SOL    HW228497   0.916   3.385   6.247
 9200SOL     OW28498   0.903   5.936   0.500
 9200SOL    HW128499   0.957   5.855   0.474
 9200SOL    HW228500   0.808   5.909   0.513
 9201SOL     OW28501   0.664   4.289   1.564
 9201SOL    HW128502   0.670   4.355   1.488
 9201SOL    HW228503   0.618   4.206   1.532
 9202SOL     OW28504   2.425   5.551   4.730
 9202SOL    HW128505   2.504   5.492   4.715
 9202SOL    HW228506   2.347   5.495   4.760
 9203SOL     OW28507   5.279   1.946   6.113
 9203SOL    HW128508   5.225   1.879   6.164
 9203SOL    HW228509   5.223   1.985   6.039
 9204SOL     OW28510   5.625   3.939   3.074
 9204SOL    HW128511   5.620   3.900   3.166
 9204SOL    HW228512   5.535   3.972   3.046
 9205SOL     OW28513   5.183   3.191   2.847
 9205SOL    HW128514   5.204   3.268   2.907
 9205SOL    HW228515   5.090   3.200   2.811
 9206SOL     OW28516   2.942   0.033   4.629
 9206SOL    HW128517   2.867   0.079   4.677
 9206SOL    HW228518   2.908   7.015   4.543
 9207SOL     OW28519   3.620   6.371   5.938
 9207SOL    HW128520   3.656   6.450   5.888
 9207SOL    HW228521   3.677   6.353   6.018
 9208SOL     OW28522   4.883   3.337   2.319
 9208SOL    HW128523   4.890   3.240   2.298
 9208SOL    HW228524   4.910   3.391   2.238
 9209SOL     OW28525   3.912   1.147   1.915
 9209SOL    HW128526   3.865   1.203   1.847
 9209SOL    HW228527   3.925   1.054   1.880
 9210SOL     OW28528   2.426   0.235   2.002
 9210SOL    HW128529   2.379   0.164   2.053
 9210SOL    HW228530   2.510   0.198   1.962
 9211SOL     OW28531   5.683   1.555   6.084
 9211SOL    HW128532   5.698   1.653   6.093
 9211SOL    HW228533   5.612   1.525   6.148
 9212SOL     OW28534   4.620   4.430   4.883
 9212SOL    HW128535   4.614   4.405   4.786
 9212SOL    HW228536   4.530   4.460   4.915
 9213SOL     OW28537   5.695   6.996   4.618
 9213SOL    HW128538   5.717   6.909   4.663
 9213SOL    HW228539   5.775   0.036   4.620
 9214SOL     OW28540   1.561   2.271   4.813
 9214SOL    HW128541   1.492   2.321   4.867
 9214SOL    HW228542   1.526   2.256   4.721
 9215SOL     OW28543   6.963   4.387   2.363
 9215SOL    HW128544   6.974   4.473   2.314
 9215SOL    HW228545   6.976   4.311   2.299
 9216SOL     OW28546   2.382   6.341   4.522
 9216SOL    HW128547   2.381   6.259   4.580
 9216SOL    HW228548   2.459   6.400   4.548
 9217SOL     OW28549   5.074   1.031   6.211
 9217SOL    HW128550   5.066   1.076   6.301
 9217SOL    HW228551   5.122   0.944   6.222
 9218SOL     OW28552   4.535   0.109   6.268
 9218SOL    HW128553   4.503   0.051   6.193
 9218SOL    HW228554   4.519   0.063   6.355
 9219SOL     OW28555   4.042   2.977   5.308
 9219SOL    HW128556   4.138   2.950   5.300
 9219SOL    HW228557   4.020   3.041   5.235
 9220SOL     OW28558   2.440   6.132   3.004
 9220SOL    HW128559   2.413   6.096   2.915
 9220SOL    HW228560   2.465   6.057   3.064
 9221SOL     OW28561   2.302   0.789   5.953
 9221SOL    HW128562   2.392   0.782   5.910
 9221SOL    HW228563   2.263   0.879   5.933
 9222SOL     OW28564   2.468   4.501   4.109
 9222SOL    HW128565   2.541   4.493   4.042
 9222SOL    HW228566   2.479   4.586   4.161
 9223SOL     OW28567   0.966   3.217   4.086
 9223SOL    HW128568   0.947   3.290   4.152
 9223SOL    HW228569   0.961   3.128   4.133
 9224SOL     OW28570   0.986   3.629   3.797
 9224SOL    HW128571   0.976   3.706   3.859
 9224SOL    HW228572   1.053   3.564   3.835
 9225SOL     OW28573   3.812   6.578   6.325
 9225SOL    HW128574   3.909   6.567   6.347
 9225SOL    HW228575   3.801   6.646   6.253
 9226SOL     OW28576   1.201   0.140   1.566
 9226SOL    HW128577   1.255   0.166   1.645
 9226SOL    HW228578   1.141   0.217   1.540
 9227SOL     OW28579   1.441   5.722   1.256
 9227SOL    HW128580   1.380   5.643   1.261
 9227SOL    HW228581   1.506   5.709   1.181
 9228SOL     OW28582   2.129   2.553   6.077
 9228SOL    HW128583   2.114   2.504   5.991
 9228SOL    HW228584   2.142   2.488   6.151
 9229SOL     OW28585   1.183   5.174   6.848
 9229SOL    HW128586   1.088   5.157   6.873
 9229SOL    HW228587   1.213   5.261   6.887
 9230SOL     OW28588   4.944   2.198   4.401
 9230SOL    HW128589   4.948   2.134   4.478
 9230SOL    HW228590   5.026   2.256   4.401
 9231SOL     OW28591   0.349   5.178   5.660
 9231SOL    HW128592   0.417   5.135   5.601
 9231SOL    HW228593   0.263   5.127   5.655
 9232SOL     OW28594   1.757   5.167   1.751
 9232SOL    HW128595   1.790   5.259   1.734
 9232SOL    HW228596   1.720   5.161   1.843
 9233SOL     OW28597   0.902   6.522   0.727
 9233SOL    HW128598   0.910   6.512   0.628
 9233SOL    HW228599   0.940   6.441   0.772
 9234SOL     OW28600   2.486   5.045   1.085
 9234SOL    HW128601   2.562   5.052   1.020
 9234SOL    HW228602   2.423   5.122   1.071
 9235SOL     OW28603   2.409   2.588   3.299
 9235SOL    HW128604   2.464   2.551   3.374
 9235SOL    HW228605   2.351   2.662   3.333
 9236SOL     OW28606   2.051   3.513   6.996
 9236SOL    HW128607   1.995   3.556   6.926
 9236SOL    HW228608   1.993   3.460   0.038
 9237SOL     OW28609   6.935   6.028   3.092
 9237SOL    HW128610   6.895   5.959   3.153
 9237SOL    HW228611   6.886   6.114   3.102
 9238SOL     OW28612   2.287   2.845   5.748
 9238SOL    HW128613   2.303   2.924   5.690
 9238SOL    HW228614   2.368   2.786   5.748
 9239SOL     OW28615   6.915   4.593   6.737
 9239SOL    HW128616   6.857   4.607   6.818
 9239SOL    HW228617   6.874   4.639   6.658
 9240SOL     OW28618   5.222   3.399   3.028
 9240SOL    HW128619   5.125   3.410   3.007
 9240SOL    HW228620   5.232   3.366   3.122
 9241SOL     OW28621   0.454   5.688   6.848
 9241SOL    HW128622   0.427   5.615   6.911
 9241SOL    HW228623   0.375   5.746   6.828
 9242SOL     OW28624   1.477   2.552   1.790
 9242SOL    HW128625   1.505   2.648   1.780
 9242SOL    HW228626   1.542   2.504   1.849
 9243SOL     OW28627   1.069   6.998   1.953
 9243SOL    HW128628   1.142   0.001   2.017
 9243SOL    HW228629   0.984   0.021   1.982
 9244SOL     OW28630   2.823   6.558   5.713
 9244SOL    HW128631   2.897   6.589   5.653
 9244SOL    HW228632   2.735   6.583   5.674
 9245SOL     OW28633   1.136   4.073   3.386
 9245SOL    HW128634   1.219   4.030   3.422
 9245SOL    HW228635   1.126   4.051   3.289
 9246SOL     OW28636   6.079   0.380   4.016
 9246SOL    HW128637   6.133   0.425   4.088
 9246SOL    HW228638   6.066   0.284   4.039
 9247SOL     OW28639   3.943   5.323   2.918
 9247SOL    HW128640   3.916   5.388   2.847
 9247SOL    HW228641   3.860   5.282   2.957
 9248SOL     OW28642   2.902   1.080   4.777
 9248SOL    HW128643   2.805   1.101   4.762
 9248SOL    HW228644   2.913   0.981   4.788
 9249SOL     OW28645   3.870   4.610   1.685
 9249SOL    HW128646   3.931   4.538   1.718
 9249SOL    HW228647   3.792   4.618   1.747
 9250SOL     OW28648   6.601   4.016   3.489
 9250SOL    HW128649   6.585   4.071   3.407
 9250SOL    HW228650   6.648   4.071   3.558
 9251SOL     OW28651   3.551   2.582   1.457
 9251SOL    HW128652   3.597   2.671   1.455
 9251SOL    HW228653   3.597   2.523   1.523
 9252SOL     OW28654   4.566   0.575   5.020
 9252SOL    HW128655   4.616   0.497   4.982
 9252SOL    HW228656   4.470   0.550   5.032
 9253SOL     OW28657   5.528   4.933   5.809
 9253SOL    HW128658   5.468   4.899   5.881
 9253SOL    HW228659   5.580   5.012   5.843
 9254SOL     OW28660   5.473   4.213   2.373
 9254SOL    HW128661   5.410   4.169   2.310
 9254SOL    HW228662   5.567   4.190   2.349
 9255SOL     OW28663   5.840   3.444   6.650
 9255SOL    HW128664   5.843   3.487   6.740
 9255SOL    HW228665   5.863   3.347   6.659
 9256SOL     OW28666   2.102   0.018   1.916
 9256SOL    HW128667   2.118   6.943   1.888
 9256SOL    HW228668   2.004   0.034   1.926
 9257SOL     OW28669   6.093   5.777   3.566
 9257SOL    HW128670   6.033   5.781   3.646
 9257SOL    HW228671   6.099   5.868   3.525
 9258SOL     OW28672   3.417   3.357   0.413
 9258SOL    HW128673   3.437   3.265   0.447
 9258SOL    HW228674   3.494   3.417   0.433
 9259SOL     OW28675   2.090   1.669   0.377
 9259SOL    HW128676   2.089   1.721   0.292
 9259SOL    HW228677   2.083   1.732   0.455
 9260SOL     OW28678   6.954   2.958   6.174
 9260SOL    HW128679   6.935   2.957   6.076
 9260SOL    HW228680   6.947   3.052   6.208
 9261SOL     OW28681   4.722   1.160   0.005
 9261SOL    HW128682   4.692   1.115   0.089
 9261SOL    HW228683   4.716   1.259   0.017
 9262SOL     OW28684   0.739   6.740   4.760
 9262SOL    HW128685   0.686   6.660   4.729
 9262SOL    HW228686   0.834   6.713   4.776
 9263SOL     OW28687   2.981   5.594   3.057
 9263SOL    HW128688   3.058   5.539   3.025
 9263SOL    HW228689   2.983   5.683   3.012
 9264SOL     OW28690   5.254   3.315   6.739
 9264SOL    HW128691   5.200   3.381   6.687
 9264SOL    HW228692   5.266   3.232   6.685
 9265SOL     OW28693   3.633   2.432   6.568
 9265SOL    HW128694   3.639   2.436   6.667
 9265SOL    HW228695   3.696   2.499   6.528
 9266SOL     OW28696   0.345   5.658   1.056
 9266SOL    HW128697   0.291   5.596   1.000
 9266SOL    HW228698   0.391   5.724   0.996
 9267SOL     OW28699   0.845   1.767   3.988
 9267SOL    HW128700   0.858   1.672   3.961
 9267SOL    HW228701   0.879   1.827   3.916
 9268SOL     OW28702   1.333   6.663   2.472
 9268SOL    HW128703   1.259   6.713   2.427
 9268SOL    HW228704   1.305   6.640   2.565
 9269SOL     OW28705   4.229   0.241   6.591
 9269SOL    HW128706   4.227   0.171   6.520
 9269SOL    HW228707   4.138   0.283   6.599
 9270SOL     OW28708   3.232   1.211   5.416
 9270SOL    HW128709   3.314   1.195   5.361
 9270SOL    HW228710   3.201   1.125   5.456
 9271SOL     OW28711   0.707   0.029   0.727
 9271SOL    HW128712   0.676   0.124   0.722
 9271SOL    HW228713   0.631   6.988   0.705
 9272SOL     OW28714   0.806   6.804   6.773
 9272SOL    HW128715   0.791   6.816   6.871
 9272SOL    HW228716   0.718   6.805   6.726
 9273SOL     OW28717   5.079   5.982   4.093
 9273SOL    HW128718   5.158   5.983   4.032
 9273SOL    HW228719   5.021   5.903   4.071
 9274SOL     OW28720   0.061   3.094   0.395
 9274SOL    HW128721   6.981   3.099   0.405
 9274SOL    HW228722   0.105   3.135   0.475
 9275SOL     OW28723   0.480   6.446   0.711
 9275SOL    HW128724   0.462   6.461   0.808
 9275SOL    HW228725   0.527   6.525   0.673
 9276SOL     OW28726   2.891   4.853   0.213
 9276SOL    HW128727   2.885   4.753   0.213
 9276SOL    HW228728   2.985   4.881   0.191
 9277SOL     OW28729   4.045   4.765   3.130
 9277SOL    HW128730   4.130   4.757   3.078
 9277SOL    HW228731   4.066   4.781   3.226
 9278SOL     OW28732   0.057   0.763   5.634
 9278SOL    HW128733   0.056   0.758   5.535
 9278SOL    HW228734   0.116   0.691   5.671
 9279SOL     OW28735   3.436   6.336   1.816
 9279SOL    HW128736   3.446   6.359   1.719
 9279SOL    HW228737   3.519   6.360   1.865
 9280SOL     OW28738   2.157   1.956   2.188
 9280SOL    HW128739   2.249   1.990   2.169
 9280SOL    HW228740   2.136   1.970   2.285
 9281SOL     OW28741   3.438   3.910   5.782
 9281SOL    HW128742   3.486   3.872   5.703
 9281SOL    HW228743   3.357   3.855   5.801
 9282SOL     OW28744   4.447   0.883   4.360
 9282SOL    HW128745   4.396   0.833   4.430
 9282SOL    HW228746   4.465   0.823   4.282
 9283SOL     OW28747   5.532   0.283   6.267
 9283SOL    HW128748   5.506   0.345   6.193
 9283SOL    HW228749   5.450   0.247   6.311
 9284SOL     OW28750   3.036   3.870   4.744
 9284SOL    HW128751   2.990   3.824   4.667
 9284SOL    HW228752   2.999   3.835   4.830
 9285SOL     OW28753   5.224   3.465   1.379
 9285SOL    HW128754   5.316   3.425   1.383
 9285SOL    HW228755   5.217   3.525   1.299
 9286SOL     OW28756   4.960   5.575   0.329
 9286SOL    HW128757   4.950   5.519   0.411
 9286SOL    HW228758   4.871   5.609   0.300
 9287SOL     OW28759   1.971   4.211   5.533
 9287SOL    HW128760   1.917   4.163   5.602
 9287SOL    HW228761   2.064   4.225   5.567
 9288SOL     OW28762   4.531   2.648   3.277
 9288SOL    HW128763   4.453   2.597   3.240
 9288SOL    HW228764   4.615   2.618   3.232
 9289SOL     OW28765   4.650   0.645   6.280
 9289SOL    HW128766   4.719   0.572   6.283
 9289SOL    HW228767   4.650   0.686   6.189
 9290SOL     OW28768   6.029   0.623   3.731
 9290SOL    HW128769   6.043   0.538   3.679
 9290SOL    HW228770   5.958   0.608   3.800
 9291SOL     OW28771   1.234   6.392   5.682
 9291SOL    HW128772   1.236   6.293   5.669
 9291SOL    HW228773   1.140   6.421   5.703
 9292SOL     OW28774   1.794   1.036   6.461
 9292SOL    HW128775   1.771   1.045   6.364
 9292SOL    HW228776   1.887   1.071   6.476
 9293SOL     OW28777   4.546   2.585   6.227
 9293SOL    HW128778   4.458   2.599   6.181
 9293SOL    HW228779   4.547   2.634   6.314
 9294SOL     OW28780   5.058   1.266   0.325
 9294SOL    HW128781   5.137   1.207   0.305
 9294SOL    HW228782   5.017   1.238   0.412
 9295SOL     OW28783   0.282   0.924   4.870
 9295SOL    HW128784   0.289   0.861   4.948
 9295SOL    HW228785   0.373   0.946   4.836
 9296SOL     OW28786   2.497   3.591   0.890
 9296SOL    HW128787   2.595   3.599   0.903
 9296SOL    HW228788   2.456   3.542   0.967
 9297SOL     OW28789   0.897   5.734   3.156
 9297SOL    HW128790   0.884   5.777   3.245
 9297SOL    HW228791   0.848   5.647   3.154
 9298SOL     OW28792   1.252   6.764   5.792
 9298SOL    HW128793   1.282   6.678   5.832
 9298SOL    HW228794   1.240   6.832   5.864
 9299SOL     OW28795   2.155   1.345   4.303
 9299SOL    HW128796   2.202   1.319   4.387
 9299SOL    HW228797   2.081   1.280   4.285
 9300SOL     OW28798   0.393   5.818   5.045
 9300SOL    HW128799   0.474   5.862   5.007
 9300SOL    HW228800   0.418   5.728   5.081
 9301SOL     OW28801   0.246   4.362   4.517
 9301SOL    HW128802   0.148   4.346   4.532
 9301SOL    HW228803   0.271   4.334   4.424
 9302SOL     OW28804   2.268   2.767   4.685
 9302SOL    HW128805   2.224   2.677   4.676
 9302SOL    HW228806   2.320   2.770   4.770
 9303SOL     OW28807   3.234   4.626   0.118
 9303SOL    HW128808   3.304   4.555   0.118
 9303SOL    HW228809   3.146   4.587   0.145
 9304SOL     OW28810   4.744   5.275   0.953
 9304SOL    HW128811   4.812   5.287   1.025
 9304SOL    HW228812   4.659   5.241   0.992
 9305SOL     OW28813   3.526   1.589   0.537
 9305SOL    HW128814   3.562   1.500   0.567
 9305SOL    HW228815   3.440   1.576   0.489
 9306SOL     OW28816   6.817   3.870   4.612
 9306SOL    HW128817   6.758   3.950   4.625
 9306SOL    HW228818   6.905   3.900   4.575
 9307SOL     OW28819   1.882   4.121   0.591
 9307SOL    HW128820   1.978   4.136   0.616
 9307SOL    HW228821   1.874   4.040   0.533
 9308SOL     OW28822   1.203   4.833   1.562
 9308SOL    HW128823   1.260   4.755   1.537
 9308SOL    HW228824   1.113   4.800   1.594
 9309SOL     OW28825   4.763   6.534   6.304
 9309SOL    HW128826   4.842   6.576   6.259
 9309SOL    HW228827   4.685   6.597   6.301
 9310SOL     OW28828   5.135   5.436   5.768
 9310SOL    HW128829   5.078   5.356   5.749
 9310SOL    HW228830   5.100   5.514   5.717
 9311SOL     OW28831   4.719   3.914   1.304
 9311SOL    HW128832   4.671   4.002   1.296
 9311SOL    HW228833   4.696   3.872   1.391
 9312SOL     OW28834   1.652   2.398   1.256
 9312SOL    HW128835   1.688   2.482   1.296
 9312SOL    HW228836   1.614   2.418   1.165
 9313SOL     OW28837   1.141   0.888   1.516
 9313SOL    HW128838   1.082   0.815   1.484
 9313SOL    HW228839   1.219   0.849   1.565
 9314SOL     OW28840   5.531   3.700   0.785
 9314SOL    HW128841   5.555   3.794   0.806
 9314SOL    HW228842   5.491   3.656   0.866
 9315SOL     OW28843   5.774   0.788   6.547
 9315SOL    HW128844   5.789   0.707   6.491
 9315SOL    HW228845   5.861   0.835   6.562
 9316SOL     OW28846   5.780   0.160   4.985
 9316SOL    HW128847   5.760   0.228   5.055
 9316SOL    HW228848   5.822   0.205   4.906
 9317SOL     OW28849   3.142   5.337   3.397
 9317SOL    HW128850   3.198   5.280   3.337
 9317SOL    HW228851   3.196   5.416   3.426
 9318SOL     OW28852   4.704   5.648   0.266
 9318SOL    HW128853   4.640   5.575   0.292
 9318SOL    HW228854   4.691   5.726   0.327
 9319SOL     OW28855   2.588   3.294   0.959
 9319SOL    HW128856   2.610   3.198   0.941
 9319SOL    HW228857   2.490   3.309   0.946
 9320SOL     OW28858   4.770   7.002   5.967
 9320SOL    HW128859   4.715   6.935   5.917
 9320SOL    HW228860   4.776   0.067   5.915
 9321SOL     OW28861   1.145   2.067   5.204
 9321SOL    HW128862   1.078   2.027   5.266
 9321SOL    HW228863   1.100   2.093   5.118
 9322SOL     OW28864   6.088   4.952   6.223
 9322SOL    HW128865   6.159   4.942   6.154
 9322SOL    HW228866   6.026   4.873   6.218
 9323SOL     OW28867   2.371   2.777   4.414
 9323SOL    HW128868   2.395   2.682   4.394
 9323SOL    HW228869   2.351   2.787   4.511
 9324SOL     OW28870   1.848   3.826   0.510
 9324SOL    HW128871   1.789   3.859   0.436
 9324SOL    HW228872   1.792   3.795   0.586
 9325SOL     OW28873   1.910   6.314   1.493
 9325SOL    HW128874   1.990   6.371   1.470
 9325SOL    HW228875   1.911   6.292   1.590
 9326SOL     OW28876   3.728   5.132   0.264
 9326SOL    HW128877   3.629   5.131   0.276
 9326SOL    HW228878   3.768   5.057   0.316
 9327SOL     OW28879   4.428   0.092   3.118
 9327SOL    HW128880   4.412   0.190   3.110
 9327SOL    HW228881   4.497   0.075   3.188
 9328SOL     OW28882   2.135   6.818   5.184
 9328SOL    HW128883   2.127   6.917   5.184
 9328SOL    HW228884   2.228   6.792   5.211
 9329SOL     OW28885   0.319   5.920   6.601
 9329SOL    HW128886   0.387   5.957   6.538
 9329SOL    HW228887   0.276   5.839   6.561
 9330SOL     OW28888   0.618   0.188   6.891
 9330SOL    HW128889   0.637   0.189   6.793
 9330SOL    HW228890   0.689   0.135   6.938
 9331SOL     OW28891   1.853   2.599   5.078
 9331SOL    HW128892   1.831   2.601   4.980
 9331SOL    HW228893   1.933   2.657   5.095
 9332SOL     OW28894   4.341   5.603   0.388
 9332SOL    HW128895   4.371   5.662   0.313
 9332SOL    HW228896   4.400   5.522   0.392
 9333SOL     OW28897   3.507   5.892   0.716
 9333SOL    HW128898   3.443   5.816   0.710
 9333SOL    HW228899   3.480   5.954   0.790
 9334SOL     OW28900   5.083   0.471   4.180
 9334SOL    HW128901   5.145   0.517   4.243
 9334SOL    HW228902   5.109   0.493   4.086
 9335SOL     OW28903   1.846   2.206   1.176
 9335SOL    HW128904   1.909   2.248   1.111
 9335SOL    HW228905   1.781   2.275   1.208
 9336SOL     OW28906   6.098   6.910   4.178
 9336SOL    HW128907   6.102   6.928   4.276
 9336SOL    HW228908   6.045   6.981   4.133
 9337SOL     OW28909   4.867   0.233   6.877
 9337SOL    HW128910   4.806   0.216   6.954
 9337SOL    HW228911   4.869   0.153   6.818
 9338SOL     OW28912   0.480   6.034   7.018
 9338SOL    HW128913   0.569   6.012   6.977
 9338SOL    HW228914   0.490   6.114   0.058
 9339SOL     OW28915   5.536   5.360   0.266
 9339SOL    HW128916   5.469   5.343   0.193
 9339SOL    HW228917   5.597   5.434   0.238
 9340SOL     OW28918   3.928   4.787   2.778
 9340SOL    HW128919   3.900   4.760   2.870
 9340SOL    HW228920   3.848   4.793   2.719
 9341SOL     OW28921   6.589   4.563   6.640
 9341SOL    HW128922   6.490   4.564   6.633
 9341SOL    HW228923   6.621   4.647   6.684
 9342SOL     OW28924   3.045   0.286   4.660
 9342SOL    HW128925   3.081   0.334   4.739
 9342SOL    HW228926   3.035   0.189   4.682
 9343SOL     OW28927   4.980   3.970   2.104
 9343SOL    HW128928   4.990   3.978   2.005
 9343SOL    HW228929   4.918   4.042   2.137
 9344SOL     OW28930   5.550   5.273   6.620
 9344SOL    HW128931   5.630   5.238   6.670
 9344SOL    HW228932   5.500   5.197   6.579
 9345SOL     OW28933   6.412   6.200   6.885
 9345SOL    HW128934   6.353   6.128   6.849
 9345SOL    HW228935   6.442   6.176   6.978
 9346SOL     OW28936   4.922   5.648   2.786
 9346SOL    HW128937   4.836   5.693   2.764
 9346SOL    HW228938   4.916   5.550   2.764
 9347SOL     OW28939   3.337   5.677   0.810
 9347SOL    HW128940   3.243   5.644   0.813
 9347SOL    HW228941   3.394   5.622   0.871
 9348SOL     OW28942   2.513   5.379   3.298
 9348SOL    HW128943   2.436   5.405   3.240
 9348SOL    HW228944   2.599   5.401   3.252
 9349SOL     OW28945   6.445   5.518   2.244
 9349SOL    HW128946   6.461   5.528   2.342
 9349SOL    HW228947   6.509   5.576   2.194
 9350SOL     OW28948   6.718   1.360   4.123
 9350SOL    HW128949   6.623   1.329   4.128
 9350SOL    HW228950   6.724   1.454   4.155
 9351SOL     OW28951   2.178   1.078   5.878
 9351SOL    HW128952   2.277   1.093   5.877
 9351SOL    HW228953   2.136   1.122   5.798
 9352SOL     OW28954   1.505   2.819   5.391
 9352SOL    HW128955   1.431   2.759   5.423
 9352SOL    HW228956   1.544   2.868   5.469
 9353SOL     OW28957   1.254   4.217   2.078
 9353SOL    HW128958   1.232   4.120   2.082
 9353SOL    HW228959   1.353   4.229   2.088
 9354SOL     OW28960   6.386   1.626   0.974
 9354SOL    HW128961   6.435   1.564   1.035
 9354SOL    HW228962   6.290   1.598   0.967
 9355SOL     OW28963   6.527   1.237   3.710
 9355SOL    HW128964   6.504   1.332   3.688
 9355SOL    HW228965   6.444   1.186   3.729
 9356SOL     OW28966   4.676   5.107   2.323
 9356SOL    HW128967   4.644   5.151   2.239
 9356SOL    HW228968   4.616   5.131   2.399
 9357SOL     OW28969   2.250   4.101   0.072
 9357SOL    HW128970   2.177   4.069   0.134
 9357SOL    HW228971   2.289   4.022   0.024
 9358SOL     OW28972   5.706   3.454   1.899
 9358SOL    HW128973   5.715   3.388   1.824
 9358SOL    HW228974   5.650   3.415   1.971
 9359SOL     OW28975   0.195   3.637   5.402
 9359SOL    HW128976   0.144   3.672   5.324
 9359SOL    HW228977   0.292   3.627   5.378
 9360SOL     OW28978   1.560   0.012   5.860
 9360SOL    HW128979   1.486   6.967   5.843
 9360SOL    HW228980   1.555   0.043   5.955
 9361SOL     OW28981   2.498   0.151   3.444
 9361SOL    HW128982   2.519   0.063   3.401
 9361SOL    HW228983   2.581   0.206   3.450
 9362SOL     OW28984   1.253   1.092   1.740
 9362SOL    HW128985   1.178   1.103   1.675
 9362SOL    HW228986   1.270   1.180   1.786
 9363SOL     OW28987   3.896   5.507   1.902
 9363SOL    HW128988   3.904   5.599   1.864
 9363SOL    HW228989   3.932   5.441   1.836
 9364SOL     OW28990   3.693   3.406   6.422
 9364SOL    HW128991   3.640   3.330   6.460
 9364SOL    HW228992   3.749   3.372   6.346
 9365SOL     OW28993   2.271   2.281   4.526
 9365SOL    HW128994   2.248   2.184   4.515
 9365SOL    HW228995   2.291   2.300   4.622
 9366SOL     OW28996   3.404   1.808   6.790
 9366SOL    HW128997   3.451   1.897   6.791
 9366SOL    HW228998   3.361   1.794   6.701
 9367SOL     OW28999   6.827   6.083   3.558
 9367SOL    HW129000   6.787   6.154   3.617
 9367SOL    HW229001   6.770   6.001   3.561
 9368SOL     OW29002   3.144   1.475   3.137
 9368SOL    HW129003   3.090   1.420   3.073
 9368SOL    HW229004   3.173   1.419   3.214
 9369SOL     OW29005   0.563   0.633   6.042
 9369SOL    HW129006   0.536   0.586   5.958
 9369SOL    HW229007   0.662   0.639   6.047
 9370SOL     OW29008   5.478   0.365   2.216
 9370SOL    HW129009   5.423   0.303   2.160
 9370SOL    HW229010   5.571   0.370   2.178
 9371SOL     OW29011   2.338   5.201   0.451
 9371SOL    HW129012   2.312   5.277   0.391
 9371SOL    HW229013   2.265   5.185   0.518
 9372SOL     OW29014   5.762   6.196   2.718
 9372SOL    HW129015   5.787   6.219   2.624
 9372SOL    HW229016   5.800   6.106   2.741
 9373SOL     OW29017   4.880   2.018   3.212
 9373SOL    HW129018   4.896   2.013   3.113
 9373SOL    HW229019   4.799   2.076   3.229
 9374SOL     OW29020   6.222   2.956   6.866
 9374SOL    HW129021   6.208   3.039   6.813
 9374SOL    HW229022   6.134   2.916   6.890
 9375SOL     OW29023   6.697   1.562   3.844
 9375SOL    HW129024   6.667   1.488   3.904
 9375SOL    HW229025   6.788   1.592   3.872
 9376SOL     OW29026   2.741   3.860   1.055
 9376SOL    HW129027   2.669   3.865   1.124
 9376SOL    HW229028   2.828   3.887   1.096
 9377SOL     OW29029   1.294   5.499   3.944
 9377SOL    HW129030   1.267   5.541   4.030
 9377SOL    HW229031   1.386   5.462   3.952
 9378SOL     OW29032   1.175   0.262   5.389
 9378SOL    HW129033   1.173   0.270   5.290
 9378SOL    HW229034   1.082   0.268   5.425
 9379SOL     OW29035   4.571   5.227   5.179
 9379SOL    HW129036   4.642   5.281   5.134
 9379SOL    HW229037   4.482   5.247   5.138
 9380SOL     OW29038   5.935   4.872   4.631
 9380SOL    HW129039   5.948   4.787   4.580
 9380SOL    HW229040   6.008   4.936   4.609
 9381SOL     OW29041   2.152   3.222   5.713
 9381SOL    HW129042   2.190   3.172   5.636
 9381SOL    HW229043   2.165   3.320   5.698
 9382SOL     OW29044   3.359   1.363   2.958
 9382SOL    HW129045   3.430   1.308   2.914
 9382SOL    HW229046   3.401   1.437   3.010
 9383SOL     OW29047   2.649   6.181   4.814
 9383SOL    HW129048   2.721   6.250   4.821
 9383SOL    HW229049   2.626   6.147   4.905
 9384SOL     OW29050   3.746   6.356   1.330
 9384SOL    HW129051   3.774   6.414   1.406
 9384SOL    HW229052   3.793   6.268   1.336
 9385SOL     OW29053   4.478   1.261   2.341
 9385SOL    HW129054   4.543   1.322   2.296
 9385SOL    HW229055   4.498   1.258   2.439
 9386SOL     OW29056   2.134   6.032   5.317
 9386SOL    HW129057   2.162   6.128   5.312
 9386SOL    HW229058   2.051   6.024   5.372
 9387SOL     OW29059   3.980   0.284   0.126
 9387SOL    HW129060   3.944   0.341   0.052
 9387SOL    HW229061   3.904   0.243   0.176
 9388SOL     OW29062   1.851   5.340   2.584
 9388SOL    HW129063   1.895   5.380   2.504
 9388SOL    HW229064   1.753   5.332   2.568
 9389SOL     OW29065   2.118   0.225   5.672
 9389SOL    HW129066   2.164   0.292   5.730
 9389SOL    HW229067   2.152   0.133   5.693
 9390SOL     OW29068   4.068   5.939   4.640
 9390SOL    HW129069   4.154   5.893   4.618
 9390SOL    HW229070   4.007   5.875   4.687
 9391SOL     OW29071   2.493   0.801   5.315
 9391SOL    HW129072   2.410   0.747   5.298
 9391SOL    HW229073   2.513   0.801   5.413
 9392SOL     OW29074   6.981   0.221   4.831
 9392SOL    HW129075   7.008   0.198   4.925
 9392SOL    HW229076   0.037   0.264   4.784
 9393SOL     OW29077   3.087   0.986   5.498
 9393SOL    HW129078   3.056   0.892   5.512
 9393SOL    HW229079   3.069   1.013   5.403
 9394SOL     OW29080   6.386   1.760   2.177
 9394SOL    HW129081   6.324   1.822   2.128
 9394SOL    HW229082   6.341   1.671   2.189
 9395SOL     OW29083   2.635   2.703   0.434
 9395SOL    HW129084   2.590   2.713   0.345
 9395SOL    HW229085   2.733   2.723   0.424
 9396SOL     OW29086   0.445   5.640   3.624
 9396SOL    HW129087   0.471   5.556   3.576
 9396SOL    HW229088   0.523   5.672   3.679
 9397SOL     OW29089   2.488   0.305   0.359
 9397SOL    HW129090   2.502   0.360   0.277
 9397SOL    HW229091   2.577   0.281   0.399
 9398SOL     OW29092   1.844   0.392   5.579
 9398SOL    HW129093   1.839   0.365   5.483
 9398SOL    HW229094   1.867   0.312   5.635
 9399SOL     OW29095   0.473   1.413   0.266
 9399SOL    HW129096   0.516   1.500   0.293
 9399SOL    HW229097   0.430   1.423   0.177
 9400SOL     OW29098   5.569   2.886   1.299
 9400SOL    HW129099   5.499   2.957   1.309
 9400SOL    HW229100   5.542   2.824   1.225
 9401SOL     OW29101   3.765   6.692   3.129
 9401SOL    HW129102   3.804   6.652   3.046
 9401SOL    HW229103   3.832   6.754   3.170
 9402SOL     OW29104   0.744   5.155   4.635
 9402SOL    HW129105   0.832   5.195   4.660
 9402SOL    HW229106   0.745   5.057   4.655
 9403SOL     OW29107   5.488   1.582   3.021
 9403SOL    HW129108   5.579   1.544   3.039
 9403SOL    HW229109   5.474   1.587   2.922
 9404SOL     OW29110   0.668   3.559   5.959
 9404SOL    HW129111   0.707   3.628   6.019
 9404SOL    HW229112   0.572   3.581   5.941
 9405SOL     OW29113   0.392   6.445   2.290
 9405SOL    HW129114   0.425   6.537   2.268
 9405SOL    HW229115   0.467   6.390   2.325
 9406SOL     OW29116   0.185   2.883   6.236
 9406SOL    HW129117   0.091   2.907   6.213
 9406SOL    HW229118   0.186   2.808   6.302
 9407SOL     OW29119   2.435   5.300   3.566
 9407SOL    HW129120   2.459   5.339   3.477
 9407SOL    HW229121   2.426   5.200   3.557
 9408SOL     OW29122   3.912   1.963   6.302
 9408SOL    HW129123   3.964   2.018   6.237
 9408SOL    HW229124   3.844   1.909   6.253
 9409SOL     OW29125   5.892   4.655   6.426
 9409SOL    HW129126   5.828   4.721   6.385
 9409SOL    HW229127   5.959   4.704   6.481
 9410SOL     OW29128   3.665   6.372   1.967
 9410SOL    HW129129   3.712   6.408   1.886
 9410SOL    HW229130   3.636   6.449   2.025
 9411SOL     OW29131   3.792   3.661   1.521
 9411SOL    HW129132   3.720   3.699   1.580
 9411SOL    HW229133   3.879   3.706   1.542
 9412SOL     OW29134   0.164   3.381   1.557
 9412SOL    HW129135   0.114   3.434   1.625
 9412SOL    HW229136   0.107   3.372   1.475
 9413SOL     OW29137   4.207   6.556   4.527
 9413SOL    HW129138   4.207   6.523   4.622
 9413SOL    HW229139   4.176   6.482   4.467
 9414SOL     OW29140   3.243   1.103   3.763
 9414SOL    HW129141   3.232   1.099   3.664
 9414SOL    HW229142   3.254   1.010   3.799
 9415SOL     OW29143   2.666   0.227   2.634
 9415SOL    HW129144   2.755   0.225   2.680
 9415SOL    HW229145   2.656   0.312   2.583
 9416SOL     OW29146   0.854   1.620   1.089
 9416SOL    HW129147   0.798   1.563   1.150
 9416SOL    HW229148   0.871   1.570   1.004
 9417SOL     OW29149   4.118   6.941   5.908
 9417SOL    HW129150   4.128   6.949   6.007
 9417SOL    HW229151   4.208   6.931   5.866
 9418SOL     OW29152   3.292   6.713   1.076
 9418SOL    HW129153   3.353   6.769   1.020
 9418SOL    HW229154   3.197   6.741   1.059
 9419SOL     OW29155   3.173   5.062   5.783
 9419SOL    HW129156   3.173   5.083   5.686
 9419SOL    HW229157   3.125   5.134   5.833
 9420SOL     OW29158   6.856   2.109   4.641
 9420SOL    HW129159   6.910   2.053   4.579
 9420SOL    HW229160   6.917   2.160   4.702
 9421SOL     OW29161   2.364   6.492   5.060
 9421SOL    HW129162   2.402   6.400   5.057
 9421SOL    HW229163   2.275   6.491   5.104
 9422SOL     OW29164   4.468   6.102   2.710
 9422SOL    HW129165   4.453   6.056   2.797
 9422SOL    HW229166   4.501   6.195   2.727
 9423SOL     OW29167   4.170   0.937   3.299
 9423SOL    HW129168   4.114   0.932   3.216
 9423SOL    HW229169   4.266   0.926   3.274
 9424SOL     OW29170   4.479   0.733   5.304
 9424SOL    HW129171   4.388   0.762   5.277
 9424SOL    HW229172   4.524   0.687   5.228
 9425SOL     OW29173   0.460   3.934   6.049
 9425SOL    HW129174   0.530   3.892   6.106
 9425SOL    HW229175   0.453   3.884   5.963
 9426SOL     OW29176   2.680   2.152   0.358
 9426SOL    HW129177   2.598   2.112   0.398
 9426SOL    HW229178   2.687   2.248   0.386
 9427SOL     OW29179   3.693   5.269   4.737
 9427SOL    HW129180   3.737   5.249   4.650
 9427SOL    HW229181   3.678   5.184   4.787
 9428SOL     OW29182   5.191   1.015   0.680
 9428SOL    HW129183   5.108   0.991   0.629
 9428SOL    HW229184   5.220   0.936   0.734
 9429SOL     OW29185   1.637   4.748   2.201
 9429SOL    HW129186   1.607   4.676   2.138
 9429SOL    HW229187   1.646   4.709   2.293
 9430SOL     OW29188   0.256   5.011   2.014
 9430SOL    HW129189   0.342   4.971   2.043
 9430SOL    HW229190   0.253   5.108   2.040
 9431SOL     OW29191   5.337   4.252   0.873
 9431SOL    HW129192   5.286   4.166   0.870
 9431SOL    HW229193   5.397   4.252   0.953
 9432SOL     OW29194   5.310   0.432   2.632
 9432SOL    HW129195   5.391   0.395   2.586
 9432SOL    HW229196   5.263   0.496   2.571
 9433SOL     OW29197   3.322   4.966   3.467
 9433SOL    HW129198   3.353   5.059   3.449
 9433SOL    HW229199   3.384   4.922   3.532
 9434SOL     OW29200   5.730   5.346   2.844
 9434SOL    HW129201   5.753   5.432   2.888
 9434SOL    HW229202   5.706   5.278   2.914
 9435SOL     OW29203   0.817   1.929   4.405
 9435SOL    HW129204   0.849   1.891   4.491
 9435SOL    HW229205   0.796   1.855   4.341
 9436SOL     OW29206   1.104   3.831   1.934
 9436SOL    HW129207   1.137   3.876   2.016
 9436SOL    HW229208   1.020   3.876   1.903
 9437SOL     OW29209   1.530   6.380   3.883
 9437SOL    HW129210   1.627   6.391   3.862
 9437SOL    HW229211   1.506   6.283   3.877
 9438SOL     OW29212   1.019   6.706   1.552
 9438SOL    HW129213   1.072   6.758   1.619
 9438SOL    HW229214   0.972   6.630   1.597
 9439SOL     OW29215   0.413   2.579   2.499
 9439SOL    HW129216   0.350   2.637   2.449
 9439SOL    HW229217   0.504   2.583   2.456
 9440SOL     OW29218   4.506   5.980   4.395
 9440SOL    HW129219   4.564   5.921   4.450
 9440SOL    HW229220   4.482   5.933   4.309
 9441SOL     OW29221   1.469   3.540   4.979
 9441SOL    HW129222   1.458   3.620   4.919
 9441SOL    HW229223   1.459   3.569   5.074
 9442SOL     OW29224   5.159   3.343   0.285
 9442SOL    HW129225   5.091   3.270   0.285
 9442SOL    HW229226   5.146   3.402   0.364
 9443SOL     OW29227   2.959   5.891   1.638
 9443SOL    HW129228   3.046   5.876   1.591
 9443SOL    HW229229   2.961   5.845   1.727
 9444SOL     OW29230   1.380   3.705   6.279
 9444SOL    HW129231   1.388   3.784   6.340
 9444SOL    HW229232   1.471   3.683   6.243
 9445SOL     OW29233   5.458   3.648   2.788
 9445SOL    HW129234   5.373   3.699   2.800
 9445SOL    HW229235   5.463   3.574   2.854
 9446SOL     OW29236   6.233   6.902   3.944
 9446SOL    HW129237   6.164   6.856   3.888
 9446SOL    HW229238   6.191   6.929   4.031
 9447SOL     OW29239   6.160   3.096   3.350
 9447SOL    HW129240   6.240   3.043   3.380
 9447SOL    HW229241   6.094   3.036   3.305
 9448SOL     OW29242   6.878   6.682   6.136
 9448SOL    HW129243   6.889   6.593   6.091
 9448SOL    HW229244   6.792   6.683   6.186
 9449SOL     OW29245   6.978   5.940   6.506
 9449SOL    HW129246   6.904   5.996   6.541
 9449SOL    HW229247   0.039   5.997   6.489
 9450SOL     OW29248   3.553   4.963   4.542
 9450SOL    HW129249   3.457   4.988   4.551
 9450SOL    HW229250   3.595   4.957   4.633
 9451SOL     OW29251   3.908   6.050   6.109
 9451SOL    HW129252   3.907   6.061   6.209
 9451SOL    HW229253   3.844   5.977   6.083
 9452SOL     OW29254   0.740   3.697   0.815
 9452SOL    HW129255   0.805   3.645   0.760
 9452SOL    HW229256   0.770   3.792   0.821
 9453SOL     OW29257   1.968   5.038   3.934
 9453SOL    HW129258   2.053   4.994   3.904
 9453SOL    HW229259   1.891   5.003   3.880
 9454SOL     OW29260   1.927   3.513   5.945
 9454SOL    HW129261   1.857   3.444   5.929
 9454SOL    HW229262   1.889   3.588   6.000
 9455SOL     OW29263   3.675   1.537   2.922
 9455SOL    HW129264   3.696   1.632   2.898
 9455SOL    HW229265   3.608   1.535   2.996
 9456SOL     OW29266   0.801   3.843   0.060
 9456SOL    HW129267   0.809   3.811   6.985
 9456SOL    HW229268   0.881   3.814   0.111
 9457SOL     OW29269   2.343   4.060   5.517
 9457SOL    HW129270   2.260   4.008   5.495
 9457SOL    HW229271   2.405   4.003   5.571
 9458SOL     OW29272   1.231   3.086   6.178
 9458SOL    HW129273   1.265   3.175   6.209
 9458SOL    HW229274   1.197   3.094   6.084
 9459SOL     OW29275   5.660   4.638   2.404
 9459SOL    HW129276   5.735   4.572   2.409
 9459SOL    HW229277   5.683   4.720   2.456
 9460SOL     OW29278   6.922   1.429   5.149
 9460SOL    HW129279   7.017   1.459   5.152
 9460SOL    HW229280   6.872   1.472   5.225
 9461SOL     OW29281   6.678   1.740   2.950
 9461SOL    HW129282   6.580   1.755   2.949
 9461SOL    HW229283   6.697   1.642   2.939
 9462SOL     OW29284   2.079   3.619   3.390
 9462SOL    HW129285   2.098   3.576   3.479
 9462SOL    HW229286   2.076   3.718   3.401
 9463SOL     OW29287   0.428   0.947   1.203
 9463SOL    HW129288   0.493   1.013   1.240
 9463SOL    HW229289   0.374   0.908   1.278
 9464SOL     OW29290   5.722   6.416   0.599
 9464SOL    HW129291   5.809   6.462   0.617
 9464SOL    HW229292   5.669   6.410   0.684
 9465SOL     OW29293   0.403   6.217   3.233
 9465SOL    HW129294   0.411   6.310   3.267
 9465SOL    HW229295   0.326   6.211   3.169
 9466SOL     OW29296   3.613   4.324   5.181
 9466SOL    HW129297   3.574   4.398   5.235
 9466SOL    HW229298   3.712   4.324   5.192
 9467SOL     OW29299   1.297   2.686   2.044
 9467SOL    HW129300   1.303   2.784   2.023
 9467SOL    HW229301   1.380   2.640   2.012
 9468SOL     OW29302   5.660   2.662   5.970
 9468SOL    HW129303   5.606   2.618   6.041
 9468SOL    HW229304   5.709   2.741   6.009
 9469SOL     OW29305   5.906   5.974   1.122
 9469SOL    HW129306   5.806   5.978   1.121
 9469SOL    HW229307   5.935   5.904   1.187
 9470SOL     OW29308   4.591   3.874   5.789
 9470SOL    HW129309   4.581   3.959   5.737
 9470SOL    HW229310   4.546   3.799   5.740
 9471SOL     OW29311   6.115   1.187   4.611
 9471SOL    HW129312   6.146   1.114   4.673
 9471SOL    HW229313   6.166   1.181   4.525
 9472SOL     OW29314   5.949   3.113   4.313
 9472SOL    HW129315   5.991   3.201   4.287
 9472SOL    HW229316   5.976   3.043   4.247
 9473SOL     OW29317   2.510   4.810   5.623
 9473SOL    HW129318   2.591   4.838   5.572
 9473SOL    HW229319   2.535   4.786   5.716
 9474SOL     OW29320   6.557   2.628   0.118
 9474SOL    HW129321   6.520   2.543   0.156
 9474SOL    HW229322   6.492   2.702   0.131
 9475SOL     OW29323   3.221   3.710   0.423
 9475SOL    HW129324   3.307   3.732   0.470
 9475SOL    HW229325   3.180   3.794   0.387
 9476SOL     OW29326   2.992   3.312   5.031
 9476SOL    HW129327   3.056   3.243   5.064
 9476SOL    HW229328   2.910   3.311   5.088
 9477SOL     OW29329   0.430   3.184   2.844
 9477SOL    HW129330   0.370   3.221   2.773
 9477SOL    HW229331   0.379   3.118   2.899
 9478SOL     OW29332   4.481   3.341   6.024
 9478SOL    HW129333   4.399   3.287   6.040
 9478SOL    HW229334   4.485   3.367   5.928
 9479SOL     OW29335   5.366   6.465   6.671
 9479SOL    HW129336   5.410   6.447   6.583
 9479SOL    HW229337   5.426   6.435   6.745
 9480SOL     OW29338   4.823   4.475   0.175
 9480SOL    HW129339   4.923   4.465   0.173
 9480SOL    HW229340   4.800   4.565   0.212
 9481SOL     OW29341   5.752   3.507   1.345
 9481SOL    HW129342   5.778   3.413   1.321
 9481SOL    HW229343   5.728   3.557   1.262
 9482SOL     OW29344   6.500   0.787   2.993
 9482SOL    HW129345   6.566   0.740   3.051
 9482SOL    HW229346   6.410   0.787   3.037
 9483SOL     OW29347   1.520   1.925   1.244
 9483SOL    HW129348   1.427   1.911   1.211
 9483SOL    HW229349   1.530   1.887   1.335
 9484SOL     OW29350   4.325   1.513   3.154
 9484SOL    HW129351   4.276   1.482   3.236
 9484SOL    HW229352   4.292   1.462   3.074
 9485SOL     OW29353   0.862   0.101   2.553
 9485SOL    HW129354   0.821   0.036   2.617
 9485SOL    HW229355   0.944   0.140   2.594
 9486SOL     OW29356   2.628   5.044   1.342
 9486SOL    HW129357   2.568   5.042   1.262
 9486SOL    HW229358   2.600   4.973   1.406
 9487SOL     OW29359   2.883   3.577   2.856
 9487SOL    HW129360   2.882   3.613   2.949
 9487SOL    HW229361   2.909   3.481   2.858
 9488SOL     OW29362   2.574   6.317   0.919
 9488SOL    HW129363   2.545   6.341   1.012
 9488SOL    HW229364   2.516   6.243   0.884
 9489SOL     OW29365   3.864   4.030   1.560
 9489SOL    HW129366   3.769   4.039   1.530
 9489SOL    HW229367   3.866   4.004   1.657
 9490SOL     OW29368   6.285   6.064   0.971
 9490SOL    HW129369   6.321   5.988   0.917
 9490SOL    HW229370   6.229   6.123   0.912
 9491SOL     OW29371   6.790   4.231   3.618
 9491SOL    HW129372   6.864   4.191   3.564
 9491SOL    HW229373   6.739   4.296   3.562
 9492SOL     OW29374   3.582   3.227   2.796
 9492SOL    HW129375   3.610   3.133   2.814
 9492SOL    HW229376   3.573   3.240   2.697
 9493SOL     OW29377   4.286   5.418   4.122
 9493SOL    HW129378   4.345   5.491   4.087
 9493SOL    HW229379   4.207   5.407   4.062
 9494SOL     OW29380   4.429   4.231   1.600
 9494SOL    HW129381   4.430   4.256   1.697
 9494SOL    HW229382   4.507   4.272   1.554
 9495SOL     OW29383   5.932   1.640   4.814
 9495SOL    HW129384   6.002   1.666   4.747
 9495SOL    HW229385   5.878   1.721   4.838
 9496SOL     OW29386   5.381   4.893   0.518
 9496SOL    HW129387   5.286   4.922   0.514
 9496SOL    HW229388   5.396   4.817   0.455
 9497SOL     OW29389   5.935   4.606   0.253
 9497SOL    HW129390   5.903   4.638   0.165
 9497SOL    HW229391   6.035   4.613   0.257
 9498SOL     OW29392   5.404   0.204   5.580
 9498SOL    HW129393   5.356   0.136   5.635
 9498SOL    HW229394   5.478   0.245   5.633
 9499SOL     OW29395   2.429   4.244   6.113
 9499SOL    HW129396   2.439   4.342   6.096
 9499SOL    HW229397   2.485   4.218   6.191
 9500SOL     OW29398   4.191   0.331   1.625
 9500SOL    HW129399   4.132   0.271   1.680
 9500SOL    HW229400   4.164   0.324   1.528
 9501SOL     OW29401   3.059   1.361   4.717
 9501SOL    HW129402   3.004   1.402   4.644
 9501SOL    HW229403   3.002   1.301   4.773
 9502SOL     OW29404   0.204   2.026   4.363
 9502SOL    HW129405   0.204   2.121   4.397
 9502SOL    HW229406   0.297   1.999   4.340
 9503SOL     OW29407   0.646   1.626   1.336
 9503SOL    HW129408   0.567   1.648   1.395
 9503SOL    HW229409   0.684   1.711   1.300
 9504SOL     OW29410   0.155   1.578   0.578
 9504SOL    HW129411   0.228   1.519   0.545
 9504SOL    HW229412   0.157   1.665   0.528
 9505SOL     OW29413   5.668   4.096   4.192
 9505SOL    HW129414   5.641   4.159   4.265
 9505SOL    HW229415   5.666   4.002   4.227
 9506SOL     OW29416   0.486   3.647   6.658
 9506SOL    HW129417   0.482   3.730   6.603
 9506SOL    HW229418   0.393   3.616   6.679
 9507SOL     OW29419   1.177   1.307   3.759
 9507SOL    HW129420   1.143   1.402   3.756
 9507SOL    HW229421   1.274   1.306   3.738
 9508SOL     OW29422   5.690   3.384   0.895
 9508SOL    HW129423   5.746   3.302   0.893
 9508SOL    HW229424   5.721   3.447   0.824
 9509SOL     OW29425   0.981   0.411   5.823
 9509SOL    HW129426   0.887   0.434   5.849
 9509SOL    HW229427   1.045   0.460   5.883
 9510SOL     OW29428   1.025   4.486   1.910
 9510SOL    HW129429   0.994   4.579   1.928
 9510SOL    HW229430   0.967   4.420   1.959
 9511SOL     OW29431   0.358   1.336   0.013
 9511SOL    HW129432   0.373   1.428   6.995
 9511SOL    HW229433   0.311   1.279   6.965
 9512SOL     OW29434   5.966   0.897   2.523
 9512SOL    HW129435   5.997   0.982   2.566
 9512SOL    HW229436   5.878   0.913   2.478
 9513SOL     OW29437   1.491   3.086   5.052
 9513SOL    HW129438   1.572   3.050   5.098
 9513SOL    HW229439   1.518   3.157   4.987
 9514SOL     OW29440   2.463   4.537   0.097
 9514SOL    HW129441   2.384   4.492   0.056
 9514SOL    HW229442   2.449   4.636   0.095
 9515SOL     OW29443   1.462   5.697   0.698
 9515SOL    HW129444   1.368   5.693   0.665
 9515SOL    HW229445   1.466   5.749   0.784
 9516SOL     OW29446   5.558   3.790   5.139
 9516SOL    HW129447   5.513   3.744   5.062
 9516SOL    HW229448   5.645   3.827   5.109
 9517SOL     OW29449   1.719   4.716   0.130
 9517SOL    HW129450   1.687   4.754   0.043
 9517SOL    HW229451   1.817   4.700   0.126
 9518SOL     OW29452   1.211   2.031   0.126
 9518SOL    HW129453   1.156   2.092   0.069
 9518SOL    HW229454   1.298   2.013   0.080
 9519SOL     OW29455   4.135   3.368   3.958
 9519SOL    HW129456   4.049   3.355   4.008
 9519SOL    HW229457   4.178   3.453   3.988
 9520SOL     OW29458   0.463   0.720   2.654
 9520SOL    HW129459   0.399   0.796   2.667
 9520SOL    HW229460   0.528   0.718   2.731
 9521SOL     OW29461   3.795   4.113   1.241
 9521SOL    HW129462   3.740   4.061   1.175
 9521SOL    HW229463   3.859   4.051   1.286
 9522SOL     OW29464   4.294   6.103   2.442
 9522SOL    HW129465   4.197   6.083   2.457
 9522SOL    HW229466   4.344   6.093   2.528
 9523SOL     OW29467   2.588   4.930   4.973
 9523SOL    HW129468   2.663   4.959   5.033
 9523SOL    HW229469   2.519   4.882   5.027
 9524SOL     OW29470   2.129   2.555   0.421
 9524SOL    HW129471   2.102   2.481   0.482
 9524SOL    HW229472   2.156   2.635   0.475
 9525SOL     OW29473   1.873   2.212   5.243
 9525SOL    HW129474   1.810   2.135   5.251
 9525SOL    HW229475   1.899   2.243   5.335
 9526SOL     OW29476   6.514   4.233   1.391
 9526SOL    HW129477   6.579   4.309   1.398
 9526SOL    HW229478   6.561   4.152   1.356
 9527SOL     OW29479   2.254   0.725   5.463
 9527SOL    HW129480   2.186   0.652   5.454
 9527SOL    HW229481   2.234   0.780   5.544
 9528SOL     OW29482   6.643   1.692   6.966
 9528SOL    HW129483   6.707   1.768   6.973
 9528SOL    HW229484   6.588   1.701   6.883
 9529SOL     OW29485   6.322   3.517   6.415
 9529SOL    HW129486   6.408   3.514   6.467
 9529SOL    HW229487   6.257   3.577   6.461
 9530SOL     OW29488   1.321   3.261   3.390
 9530SOL    HW129489   1.317   3.307   3.479
 9530SOL    HW229490   1.270   3.176   3.394
 9531SOL     OW29491   5.031   4.310   2.243
 9531SOL    HW129492   4.949   4.268   2.204
 9531SOL    HW229493   5.029   4.301   2.342
 9532SOL     OW29494   0.224   5.244   0.905
 9532SOL    HW129495   0.177   5.328   0.933
 9532SOL    HW229496   0.310   5.268   0.859
 9533SOL     OW29497   0.985   6.055   4.407
 9533SOL    HW129498   0.888   6.035   4.394
 9533SOL    HW229499   1.011   6.134   4.351
 9534SOL     OW29500   5.991   4.124   4.990
 9534SOL    HW129501   6.043   4.070   4.924
 9534SOL    HW229502   6.020   4.220   4.985
 9535SOL     OW29503   2.215   0.491   5.722
 9535SOL    HW129504   2.150   0.537   5.662
 9535SOL    HW229505   2.300   0.475   5.672
 9536SOL     OW29506   3.030   3.714   5.270
 9536SOL    HW129507   3.001   3.808   5.283
 9536SOL    HW229508   3.130   3.709   5.271
 9537SOL     OW29509   2.118   0.817   4.559
 9537SOL    HW129510   2.213   0.798   4.587
 9537SOL    HW229511   2.064   0.733   4.565
 9538SOL     OW29512   5.062   0.946   4.185
 9538SOL    HW129513   5.146   0.913   4.227
 9538SOL    HW229514   5.044   1.040   4.214
 9539SOL     OW29515   3.621   4.057   4.277
 9539SOL    HW129516   3.576   3.973   4.246
 9539SOL    HW229517   3.639   4.051   4.375
 9540SOL     OW29518   5.814   4.766   4.305
 9540SOL    HW129519   5.776   4.686   4.352
 9540SOL    HW229520   5.741   4.833   4.289
 9541SOL     OW29521   2.935   0.567   6.197
 9541SOL    HW129522   2.978   0.655   6.178
 9541SOL    HW229523   3.004   0.496   6.198
 9542SOL     OW29524   5.185   4.647   5.278
 9542SOL    HW129525   5.226   4.559   5.253
 9542SOL    HW229526   5.095   4.655   5.235
 9543SOL     OW29527   3.740   0.909   6.269
 9543SOL    HW129528   3.757   0.814   6.295
 9543SOL    HW229529   3.729   0.965   6.351
 9544SOL     OW29530   5.661   2.844   4.019
 9544SOL    HW129531   5.659   2.939   3.986
 9544SOL    HW229532   5.716   2.789   3.958
 9545SOL     OW29533   5.824   5.475   3.465
 9545SOL    HW129534   5.908   5.493   3.413
 9545SOL    HW229535   5.767   5.411   3.415
 9546SOL     OW29536   3.565   1.955   5.981
 9546SOL    HW129537   3.614   2.038   6.009
 9546SOL    HW229538   3.620   1.875   6.003
 9547SOL     OW29539   2.347   5.407   4.182
 9547SOL    HW129540   2.249   5.388   4.184
 9547SOL    HW229541   2.376   5.441   4.271
 9548SOL     OW29542   6.994   4.628   5.151
 9548SOL    HW129543   0.012   4.536   5.140
 9548SOL    HW229544   0.031   4.680   5.215
 9549SOL     OW29545   3.033   2.034   1.557
 9549SOL    HW129546   3.064   2.100   1.489
 9549SOL    HW229547   2.934   2.041   1.570
 9550SOL     OW29548   0.323   0.509   0.189
 9550SOL    HW129549   0.310   0.411   0.175
 9550SOL    HW229550   0.312   0.531   0.286
 9551SOL     OW29551   5.800   2.890   6.023
 9551SOL    HW129552   5.784   2.891   6.122
 9551SOL    HW229553   5.844   2.976   5.996
 9552SOL     OW29554   2.187   6.074   4.835
 9552SOL    HW129555   2.178   5.983   4.875
 9552SOL    HW229556   2.156   6.143   4.900
 9553SOL     OW29557   5.617   2.449   6.684
 9553SOL    HW129558   5.641   2.510   6.609
 9553SOL    HW229559   5.525   2.471   6.717
 9554SOL     OW29560   2.739   6.753   2.813
 9554SOL    HW129561   2.688   6.837   2.829
 9554SOL    HW229562   2.746   6.701   2.898
 9555SOL     OW29563   0.884   1.654   2.186
 9555SOL    HW129564   0.793   1.644   2.226
 9555SOL    HW229565   0.946   1.691   2.255
 9556SOL     OW29566   1.801   4.405   2.130
 9556SOL    HW129567   1.785   4.326   2.071
 9556SOL    HW229568   1.894   4.401   2.167
 9557SOL     OW29569   6.959   6.279   1.482
 9557SOL    HW129570   6.916   6.331   1.408
 9557SOL    HW229571   6.889   6.241   1.541
 9558SOL     OW29572   6.016   5.967   5.655
 9558SOL    HW129573   5.939   5.941   5.714
 9558SOL    HW229574   5.998   6.058   5.617
 9559SOL     OW29575   0.443   4.562   0.680
 9559SOL    HW129576   0.479   4.545   0.588
 9559SOL    HW229577   0.360   4.617   0.673
 9560SOL     OW29578   2.895   1.024   3.175
 9560SOL    HW129579   2.990   1.006   3.199
 9560SOL    HW229580   2.835   0.984   3.245
 9561SOL     OW29581   1.731   0.668   1.047
 9561SOL    HW129582   1.778   0.589   1.009
 9561SOL    HW229583   1.726   0.660   1.146
 9562SOL     OW29584   2.756   0.539   5.720
 9562SOL    HW129585   2.763   0.634   5.750
 9562SOL    HW229586   2.666   0.503   5.746
 9563SOL     OW29587   6.906   6.448   0.504
 9563SOL    HW129588   6.946   6.357   0.512
 9563SOL    HW229589   6.874   6.463   0.410
 9564SOL     OW29590   2.564   1.269   0.804
 9564SOL    HW129591   2.503   1.311   0.737
 9564SOL    HW229592   2.560   1.170   0.794
 9565SOL     OW29593   4.656   1.171   4.668
 9565SOL    HW129594   4.603   1.145   4.586
 9565SOL    HW229595   4.608   1.138   4.749
 9566SOL     OW29596   2.884   5.372   6.672
 9566SOL    HW129597   2.814   5.439   6.649
 9566SOL    HW229598   2.869   5.339   6.765
 9567SOL     OW29599   4.660   5.198   0.709
 9567SOL    HW129600   4.583   5.255   0.680
 9567SOL    HW229601   4.681   5.217   0.805
 9568SOL     OW29602   4.138   2.457   5.975
 9568SOL    HW129603   4.065   2.398   5.941
 9568SOL    HW229604   4.196   2.484   5.899
 9569SOL     OW29605   6.674   0.950   2.575
 9569SOL    HW129606   6.680   0.857   2.537
 9569SOL    HW229607   6.603   0.952   2.646
 9570SOL     OW29608   0.688   3.337   2.149
 9570SOL    HW129609   0.672   3.381   2.061
 9570SOL    HW229610   0.786   3.327   2.164
 9571SOL     OW29611   3.789   3.686   6.272
 9571SOL    HW129612   3.698   3.698   6.311
 9571SOL    HW229613   3.858   3.707   6.341
 9572SOL     OW29614   2.399   4.557   2.183
 9572SOL    HW129615   2.472   4.591   2.125
 9572SOL    HW229616   2.357   4.633   2.233
 9573SOL     OW29617   1.054   2.356   6.461
 9573SOL    HW129618   1.046   2.438   6.405
 9573SOL    HW229619   1.142   2.312   6.443
 9574SOL     OW29620   4.033   3.532   2.896
 9574SOL    HW129621   3.965   3.463   2.873
 9574SOL    HW229622   4.053   3.528   2.994
 9575SOL     OW29623   0.724   0.684   1.667
 9575SOL    HW129624   0.719   0.606   1.730
 9575SOL    HW229625   0.645   0.743   1.681
 9576SOL     OW29626   1.829   1.738   1.300
 9576SOL    HW129627   1.751   1.676   1.294
 9576SOL    HW229628   1.826   1.803   1.224
 9577SOL     OW29629   1.103   0.282   6.155
 9577SOL    HW129630   1.118   0.354   6.223
 9577SOL    HW229631   1.123   0.318   6.064
 9578SOL     OW29632   0.928   4.154   2.837
 9578SOL    HW129633   0.916   4.129   2.933
 9578SOL    HW229634   1.022   4.184   2.822
 9579SOL     OW29635   1.188   4.998   3.284
 9579SOL    HW129636   1.196   5.084   3.234
 9579SOL    HW229637   1.103   4.998   3.337
 9580SOL     OW29638   4.667   3.324   0.791
 9580SOL    HW129639   4.742   3.344   0.854
 9580SOL    HW229640   4.580   3.323   0.842
 9581SOL     OW29641   0.687   6.450   5.835
 9581SOL    HW129642   0.762   6.512   5.860
 9581SOL    HW229643   0.611   6.503   5.798
 9582SOL     OW29644   4.583   5.336   5.922
 9582SOL    HW129645   4.515   5.269   5.952
 9582SOL    HW229646   4.559   5.369   5.831
 9583SOL     OW29647   3.465   4.318   1.452
 9583SOL    HW129648   3.497   4.355   1.540
 9583SOL    HW229649   3.476   4.218   1.452
 9584SOL     OW29650   0.205   5.451   6.711
 9584SOL    HW129651   0.210   5.521   6.641
 9584SOL    HW229652   0.296   5.413   6.728
 9585SOL     OW29653   6.463   6.802   4.604
 9585SOL    HW129654   6.385   6.805   4.666
 9585SOL    HW229655   6.466   6.886   4.550
 9586SOL     OW29656   5.523   4.786   2.209
 9586SOL    HW129657   5.555   4.732   2.287
 9586SOL    HW229658   5.567   4.752   2.125
 9587SOL     OW29659   0.491   0.251   1.922
 9587SOL    HW129660   0.511   0.250   1.824
 9587SOL    HW229661   0.492   0.157   1.958
 9588SOL     OW29662   6.955   0.582   1.264
 9588SOL    HW129663   6.930   0.662   1.210
 9588SOL    HW229664   6.873   0.544   1.308
 9589SOL     OW29665   2.449   4.915   6.729
 9589SOL    HW129666   2.366   4.860   6.738
 9589SOL    HW229667   2.490   4.898   6.640
 9590SOL     OW29668   6.464   2.874   1.886
 9590SOL    HW129669   6.381   2.866   1.942
 9590SOL    HW229670   6.544   2.873   1.945
 9591SOL     OW29671   3.049   5.874   5.819
 9591SOL    HW129672   2.994   5.864   5.736
 9591SOL    HW229673   3.118   5.802   5.822
 9592SOL     OW29674   3.548   4.626   0.570
 9592SOL    HW129675   3.517   4.721   0.571
 9592SOL    HW229676   3.520   4.581   0.654
 9593SOL     OW29677   0.682   0.911   6.042
 9593SOL    HW129678   0.762   0.856   6.022
 9593SOL    HW229679   0.607   0.851   6.070
 9594SOL     OW29680   1.102   5.252   2.743
 9594SOL    HW129681   1.137   5.226   2.653
 9594SOL    HW229682   1.005   5.230   2.749
 9595SOL     OW29683   0.484   3.260   4.784
 9595SOL    HW129684   0.421   3.337   4.797
 9595SOL    HW229685   0.569   3.276   4.834
 9596SOL     OW29686   0.188   5.593   6.252
 9596SOL    HW129687   0.104   5.645   6.236
 9596SOL    HW229688   0.217   5.549   6.167
 9597SOL     OW29689   1.011   4.049   1.542
 9597SOL    HW129690   1.009   4.050   1.442
 9597SOL    HW229691   0.973   4.134   1.578
 9598SOL     OW29692   1.700   4.264   4.034
 9598SOL    HW129693   1.763   4.187   4.030
 9598SOL    HW229694   1.741   4.343   3.988
 9599SOL     OW29695   3.247   6.967   4.712
 9599SOL    HW129696   3.241   6.973   4.613
 9599SOL    HW229697   3.300   0.024   4.747
 9600SOL     OW29698   2.530   6.571   6.877
 9600SOL    HW129699   2.436   6.589   6.905
 9600SOL    HW229700   2.546   6.608   6.785
 9601SOL     OW29701   4.648   4.026   0.697
 9601SOL    HW129702   4.632   4.036   0.599
 9601SOL    HW229703   4.720   3.958   0.712
 9602SOL     OW29704   6.281   4.955   6.007
 9602SOL    HW129705   6.367   4.908   6.028
 9602SOL    HW229706   6.290   5.053   6.027
 9603SOL     OW29707   3.818   1.794   4.136
 9603SOL    HW129708   3.875   1.720   4.173
 9603SOL    HW229709   3.852   1.819   4.045
 9604SOL     OW29710   4.790   0.150   6.548
 9604SOL    HW129711   4.816   0.092   6.471
 9604SOL    HW229712   4.842   0.235   6.546
 9605SOL     OW29713   0.510   5.395   3.509
 9605SOL    HW129714   0.538   5.453   3.433
 9605SOL    HW229715   0.581   5.327   3.527
 9606SOL     OW29716   1.747   6.661   6.780
 9606SOL    HW129717   1.740   6.561   6.776
 9606SOL    HW229718   1.675   6.702   6.725
 9607SOL     OW29719   1.765   1.803   0.438
 9607SOL    HW129720   1.754   1.824   0.535
 9607SOL    HW229721   1.747   1.886   0.384
 9608SOL     OW29722   6.833   5.048   2.714
 9608SOL    HW129723   6.797   4.991   2.788
 9608SOL    HW229724   6.909   5.103   2.747
 9609SOL     OW29725   2.683   4.429   6.936
 9609SOL    HW129726   2.617   4.432   7.011
 9609SOL    HW229727   2.637   4.453   6.850
 9610SOL     OW29728   1.291   4.525   4.282
 9610SOL    HW129729   1.334   4.435   4.285
 9610SOL    HW229730   1.195   4.515   4.255
 9611SOL     OW29731   0.816   6.239   6.687
 9611SOL    HW129732   0.891   6.211   6.627
 9611SOL    HW229733   0.805   6.338   6.683
 9612SOL     OW29734   0.612   3.930   1.871
 9612SOL    HW129735   0.540   3.878   1.826
 9612SOL    HW229736   0.594   4.028   1.860
 9613SOL     OW29737   5.313   6.585   3.343
 9613SOL    HW129738   5.308   6.684   3.345
 9613SOL    HW229739   5.221   6.547   3.329
 9614SOL     OW29740   3.027   2.081   0.641
 9614SOL    HW129741   2.955   2.028   0.687
 9614SOL    HW229742   3.078   2.135   0.708
 9615SOL     OW29743   1.498   0.043   6.892
 9615SOL    HW129744   1.507   0.059   6.794
 9615SOL    HW229745   1.523   6.968   6.913
 9616SOL     OW29746   4.257   3.455   1.493
 9616SOL    HW129747   4.235   3.451   1.590
 9616SOL    HW229748   4.259   3.551   1.463
 9617SOL     OW29749   2.086   2.839   2.952
 9617SOL    HW129750   2.118   2.931   2.974
 9617SOL    HW229751   2.004   2.819   3.007
 9618SOL     OW29752   4.082   6.936   5.623
 9618SOL    HW129753   4.090   0.004   5.576
 9618SOL    HW229754   4.083   6.951   5.722
 9619SOL     OW29755   1.302   0.277   0.349
 9619SOL    HW129756   1.295   0.217   0.429
 9619SOL    HW229757   1.355   0.231   0.278
 9620SOL     OW29758   4.751   2.087   6.341
 9620SOL    HW129759   4.838   2.043   6.318
 9620SOL    HW229760   4.691   2.020   6.385
 9621SOL     OW29761   1.079   0.977   1.928
 9621SOL    HW129762   0.988   0.991   1.889
 9621SOL    HW229763   1.149   0.997   1.859
 9622SOL     OW29764   6.871   1.266   6.960
 9622SOL    HW129765   6.891   1.310   6.873
 9622SOL    HW229766   6.946   1.204   6.984
 9623SOL     OW29767   2.988   4.346   6.258
 9623SOL    HW129768   3.031   4.366   6.346
 9623SOL    HW229769   3.059   4.319   6.193
 9624SOL     OW29770   0.070   4.630   2.162
 9624SOL    HW129771   7.001   4.675   2.171
 9624SOL    HW229772   0.109   4.652   2.072
 9625SOL     OW29773   5.099   5.425   0.122
 9625SOL    HW129774   5.028   5.363   0.156
 9625SOL    HW229775   5.096   5.511   0.174
 9626SOL     OW29776   2.897   5.755   0.076
 9626SOL    HW129777   2.887   5.838   0.130
 9626SOL    HW229778   2.948   5.774   7.013
 9627SOL     OW29779   6.597   5.931   3.046
 9627SOL    HW129780   6.644   5.863   3.103
 9627SOL    HW229781   6.602   6.020   3.091
 9628SOL     OW29782   5.442   4.675   0.331
 9628SOL    HW129783   5.505   4.746   0.300
 9628SOL    HW229784   5.379   4.652   0.257
 9629SOL     OW29785   0.658   6.966   2.314
 9629SOL    HW129786   0.630   6.954   2.409
 9629SOL    HW229787   0.724   6.895   2.290
 9630SOL     OW29788   6.260   5.951   5.777
 9630SOL    HW129789   6.323   6.027   5.789
 9630SOL    HW229790   6.177   5.984   5.732
 9631SOL     OW29791   6.552   0.074   0.057
 9631SOL    HW129792   6.616   0.028   7.015
 9631SOL    HW229793   6.479   0.010   0.083
 9632SOL     OW29794   2.380   5.706   2.517
 9632SOL    HW129795   2.319   5.704   2.597
 9632SOL    HW229796   2.475   5.713   2.548
 9633SOL     OW29797   5.337   5.301   0.063
 9633SOL    HW129798   5.246   5.340   0.081
 9633SOL    HW229799   5.349   5.218   0.118
 9634SOL     OW29800   1.018   0.173   3.747
 9634SOL    HW129801   0.989   0.262   3.709
 9634SOL    HW229802   1.052   0.186   3.840
 9635SOL     OW29803   1.417   4.876   5.627
 9635SOL    HW129804   1.465   4.855   5.712
 9635SOL    HW229805   1.480   4.866   5.550
 9636SOL     OW29806   3.573   2.178   6.461
 9636SOL    HW129807   3.590   2.268   6.502
 9636SOL    HW229808   3.523   2.190   6.375
 9637SOL     OW29809   2.982   1.792   6.612
 9637SOL    HW129810   2.903   1.795   6.673
 9637SOL    HW229811   2.973   1.863   6.542
 9638SOL     OW29812   6.761   3.281   6.545
 9638SOL    HW129813   6.857   3.253   6.541
 9638SOL    HW229814   6.704   3.209   6.505
 9639SOL     OW29815   3.952   1.784   2.562
 9639SOL    HW129816   3.998   1.858   2.514
 9639SOL    HW229817   3.991   1.774   2.654
 9640SOL     OW29818   2.717   1.992   2.867
 9640SOL    HW129819   2.638   1.997   2.929
 9640SOL    HW229820   2.779   1.920   2.899
 9641SOL     OW29821   4.984   6.002   1.101
 9641SOL    HW129822   4.941   5.962   1.019
 9641SOL    HW229823   4.967   5.942   1.179
 9642SOL     OW29824   3.486   6.320   5.697
 9642SOL    HW129825   3.457   6.410   5.729
 9642SOL    HW229826   3.585   6.310   5.711
 9643SOL     OW29827   5.833   5.072   4.262
 9643SOL    HW129828   5.820   5.044   4.166
 9643SOL    HW229829   5.914   5.026   4.299
 9644SOL     OW29830   0.998   5.056   5.745
 9644SOL    HW129831   0.965   5.086   5.655
 9644SOL    HW229832   1.064   5.122   5.780
 9645SOL     OW29833   3.995   4.943   3.850
 9645SOL    HW129834   3.950   4.955   3.938
 9645SOL    HW229835   4.069   4.876   3.859
 9646SOL     OW29836   2.886   4.802   2.197
 9646SOL    HW129837   2.892   4.714   2.151
 9646SOL    HW229838   2.791   4.834   2.196
 9647SOL     OW29839   6.560   5.272   1.678
 9647SOL    HW129840   6.591   5.177   1.684
 9647SOL    HW229841   6.553   5.299   1.582
 9648SOL     OW29842   3.738   2.276   6.870
 9648SOL    HW129843   3.748   2.267   6.969
 9648SOL    HW229844   3.660   2.336   6.850
 9649SOL     OW29845   2.728   5.564   0.165
 9649SOL    HW129846   2.694   5.521   0.081
 9649SOL    HW229847   2.792   5.637   0.140
 9650SOL     OW29848   5.525   4.983   2.848
 9650SOL    HW129849   5.621   4.957   2.858
 9650SOL    HW229850   5.466   4.907   2.877
 9651SOL     OW29851   0.097   0.577   6.436
 9651SOL    HW129852   0.181   0.551   6.388
 9651SOL    HW229853   0.110   0.666   6.479
 9652SOL     OW29854   2.003   5.064   0.419
 9652SOL    HW129855   2.082   5.080   0.478
 9652SOL    HW229856   1.964   5.152   0.392
 9653SOL     OW29857   4.156   5.146   4.762
 9653SOL    HW129858   4.169   5.157   4.663
 9653SOL    HW229859   4.083   5.206   4.793
 9654SOL     OW29860   3.843   3.144   1.554
 9654SOL    HW129861   3.757   3.098   1.578
 9654SOL    HW229862   3.834   3.242   1.572
 9655SOL     OW29863   0.303   1.584   6.938
 9655SOL    HW129864   0.221   1.636   6.915
 9655SOL    HW229865   0.357   1.634   7.006
 9656SOL     OW29866   3.280   2.525   0.872
 9656SOL    HW129867   3.286   2.473   0.957
 9656SOL    HW229868   3.238   2.614   0.891
 9657SOL     OW29869   6.692   2.087   3.768
 9657SOL    HW129870   6.607   2.124   3.732
 9657SOL    HW229871   6.743   2.044   3.694
 9658SOL     OW29872   6.147   1.292   2.622
 9658SOL    HW129873   6.181   1.384   2.604
 9658SOL    HW229874   6.076   1.296   2.692
 9659SOL     OW29875   0.008   4.414   0.144
 9659SOL    HW129876   0.029   4.351   0.070
 9659SOL    HW229877   6.930   4.412   0.164
 9660SOL     OW29878   0.323   5.779   1.315
 9660SOL    HW129879   0.356   5.734   1.232
 9660SOL    HW229880   0.246   5.727   1.352
 9661SOL     OW29881   3.949   6.415   2.109
 9661SOL    HW129882   3.950   6.481   2.034
 9661SOL    HW229883   3.911   6.329   2.077
 9662SOL     OW29884   4.822   2.949   5.230
 9662SOL    HW129885   4.893   2.886   5.260
 9662SOL    HW229886   4.762   2.904   5.164
 9663SOL     OW29887   1.072   6.350   4.595
 9663SOL    HW129888   1.168   6.348   4.567
 9663SOL    HW229889   1.044   6.444   4.613
 9664SOL     OW29890   6.076   6.500   3.822
 9664SOL    HW129891   6.078   6.445   3.738
 9664SOL    HW229892   6.161   6.485   3.873
 9665SOL     OW29893   5.655   6.152   6.799
 9665SOL    HW129894   5.596   6.078   6.830
 9665SOL    HW229895   5.671   6.216   6.875
 9666SOL     OW29896   5.866   4.395   1.425
 9666SOL    HW129897   5.909   4.360   1.342
 9666SOL    HW229898   5.934   4.441   1.481
 9667SOL     OW29899   3.568   3.662   4.023
 9667SOL    HW129900   3.667   3.657   4.006
 9667SOL    HW229901   3.544   3.602   4.099
 9668SOL     OW29902   6.146   1.707   6.935
 9668SOL    HW129903   6.208   1.631   6.955
 9668SOL    HW229904   6.133   1.713   6.836
 9669SOL     OW29905   1.389   6.948   1.934
 9669SOL    HW129906   1.445   6.871   1.904
 9669SOL    HW229907   1.358   6.931   2.028
 9670SOL     OW29908   5.335   4.814   6.848
 9670SOL    HW129909   5.337   4.742   6.779
 9670SOL    HW229910   5.285   4.893   6.813
 9671SOL     OW29911   6.274   5.393   6.350
 9671SOL    HW129912   6.232   5.304   6.370
 9671SOL    HW229913   6.369   5.391   6.378
 9672SOL     OW29914   1.146   6.143   4.779
 9672SOL    HW129915   1.093   6.217   4.737
 9672SOL    HW229916   1.244   6.161   4.765
 9673SOL     OW29917   6.045   3.761   0.335
 9673SOL    HW129918   6.064   3.755   0.433
 9673SOL    HW229919   6.065   3.673   0.292
 9674SOL     OW29920   2.359   5.713   3.543
 9674SOL    HW129921   2.299   5.684   3.618
 9674SOL    HW229922   2.435   5.649   3.534
 9675SOL     OW29923   5.878   1.923   0.713
 9675SOL    HW129924   5.855   1.921   0.615
 9675SOL    HW229925   5.953   1.987   0.728
 9676SOL     OW29926   1.481   3.726   5.202
 9676SOL    HW129927   1.578   3.749   5.205
 9676SOL    HW229928   1.427   3.807   5.226
 9677SOL     OW29929   1.892   5.417   5.402
 9677SOL    HW129930   1.833   5.347   5.442
 9677SOL    HW229931   1.880   5.418   5.303
 9678SOL     OW29932   3.331   3.053   2.873
 9678SOL    HW129933   3.344   3.016   2.781
 9678SOL    HW229934   3.406   3.115   2.895
 9679SOL     OW29935   2.003   1.290   2.542
 9679SOL    HW129936   1.990   1.215   2.607
 9679SOL    HW229937   2.094   1.281   2.500
 9680SOL     OW29938   5.979   0.802   3.468
 9680SOL    HW129939   6.059   0.854   3.496
 9680SOL    HW229940   6.007   0.710   3.440
 9681SOL     OW29941   3.779   1.475   0.197
 9681SOL    HW129942   3.733   1.394   0.232
 9681SOL    HW229943   3.712   1.537   0.157
 9682SOL     OW29944   5.126   5.126   3.688
 9682SOL    HW129945   5.122   5.056   3.618
 9682SOL    HW229946   5.180   5.204   3.655
 9683SOL     OW29947   2.841   5.371   1.165
 9683SOL    HW129948   2.796   5.424   1.093
 9683SOL    HW229949   2.832   5.418   1.252
 9684SOL     OW29950   0.145   2.146   4.966
 9684SOL    HW129951   0.148   2.182   4.873
 9684SOL    HW229952   0.097   2.210   5.026
 9685SOL     OW29953   1.646   3.714   1.125
 9685SOL    HW129954   1.581   3.678   1.192
 9685SOL    HW229955   1.698   3.789   1.167
 9686SOL     OW29956   6.690   1.928   0.425
 9686SOL    HW129957   6.676   1.975   0.338
 9686SOL    HW229958   6.602   1.903   0.464
 9687SOL     OW29959   1.931   1.192   3.941
 9687SOL    HW129960   2.017   1.230   3.906
 9687SOL    HW229961   1.943   1.093   3.957
 9688SOL     OW29962   6.702   2.102   3.240
 9688SOL    HW129963   6.754   2.148   3.311
 9688SOL    HW229964   6.739   2.011   3.225
 9689SOL     OW29965   1.587   5.944   0.323
 9689SOL    HW129966   1.616   5.889   0.401
 9689SOL    HW229967   1.667   5.985   0.280
 9690SOL     OW29968   5.770   6.131   6.347
 9690SOL    HW129969   5.757   6.184   6.431
 9690SOL    HW229970   5.738   6.037   6.362
 9691SOL     OW29971   3.134   4.948   2.121
 9691SOL    HW129972   3.168   4.919   2.032
 9691SOL    HW229973   3.045   4.906   2.138
 9692SOL     OW29974   3.047   5.391   2.719
 9692SOL    HW129975   3.040   5.378   2.620
 9692SOL    HW229976   3.000   5.316   2.766
 9693SOL     OW29977   6.455   5.935   1.389
 9693SOL    HW129978   6.488   6.025   1.417
 9693SOL    HW229979   6.505   5.905   1.307
 9694SOL     OW29980   2.512   0.664   6.445
 9694SOL    HW129981   2.513   0.721   6.527
 9694SOL    HW229982   2.432   0.686   6.389
 9695SOL     OW29983   6.748   3.830   1.938
 9695SOL    HW129984   6.748   3.894   1.862
 9695SOL    HW229985   6.820   3.855   2.003
 9696SOL     OW29986   5.219   3.086   1.075
 9696SOL    HW129987   5.230   3.047   0.983
 9696SOL    HW229988   5.135   3.052   1.115
 9697SOL     OW29989   0.140   6.263   6.506
 9697SOL    HW129990   0.041   6.273   6.511
 9697SOL    HW229991   0.165   6.212   6.424
 9698SOL     OW29992   5.154   2.086   5.900
 9698SOL    HW129993   5.204   2.037   5.829
 9698SOL    HW229994   5.088   2.148   5.858
 9699SOL     OW29995   0.192   4.602   6.380
 9699SOL    HW129996   0.178   4.579   6.477
 9699SOL    HW229997   0.143   4.686   6.358
 9700SOL     OW29998   4.259   5.104   5.124
 9700SOL    HW129999   4.316   5.050   5.186
 9700SOL    HW230000   4.168   5.115   5.163
 9701SOL     OW30001   3.963   5.402   5.102
 9701SOL    HW130002   3.951   5.379   5.005
 9701SOL    HW230003   3.885   5.366   5.154
 9702SOL     OW30004   5.091   0.614   6.747
 9702SOL    HW130005   5.146   0.613   6.663
 9702SOL    HW230006   5.058   0.706   6.765
 9703SOL     OW30007   4.160   5.121   4.460
 9703SOL    HW130008   4.237   5.157   4.407
 9703SOL    HW230009   4.108   5.056   4.404
 9704SOL     OW30010   2.923   0.875   2.932
 9704SOL    HW130011   2.925   0.925   3.019
 9704SOL    HW230012   2.831   0.840   2.917
 9705SOL     OW30013   4.898   5.430   6.287
 9705SOL    HW130014   4.876   5.522   6.321
 9705SOL    HW230015   4.816   5.372   6.294
 9706SOL     OW30016   0.940   2.362   0.885
 9706SOL    HW130017   1.031   2.388   0.852
 9706SOL    HW230018   0.872   2.423   0.846
 9707SOL     OW30019   6.258   4.276   1.448
 9707SOL    HW130020   6.350   4.255   1.416
 9707SOL    HW230021   6.196   4.283   1.370
 9708SOL     OW30022   1.347   2.177   2.476
 9708SOL    HW130023   1.380   2.271   2.477
 9708SOL    HW230024   1.413   2.118   2.523
 9709SOL     OW30025   5.926   6.169   2.425
 9709SOL    HW130026   6.002   6.106   2.443
 9709SOL    HW230027   5.851   6.119   2.383
 9710SOL     OW30028   0.672   1.645   1.999
 9710SOL    HW130029   0.606   1.716   2.023
 9710SOL    HW230030   0.758   1.661   2.047
 9711SOL     OW30031   2.014   4.025   5.990
 9711SOL    HW130032   2.079   4.036   5.914
 9711SOL    HW230033   2.062   4.038   6.076
 9712SOL     OW30034   6.142   4.774   5.841
 9712SOL    HW130035   6.183   4.855   5.883
 9712SOL    HW230036   6.057   4.752   5.888
 9713SOL     OW30037   1.216   4.859   3.553
 9713SOL    HW130038   1.218   4.759   3.549
 9713SOL    HW230039   1.158   4.894   3.479
 9714SOL     OW30040   2.961   1.047   1.514
 9714SOL    HW130041   2.872   1.089   1.498
 9714SOL    HW230042   3.032   1.099   1.467
 9715SOL     OW30043   5.288   4.274   6.421
 9715SOL    HW130044   5.369   4.325   6.450
 9715SOL    HW230045   5.207   4.313   6.464
 9716SOL     OW30046   4.018   2.583   6.268
 9716SOL    HW130047   3.988   2.611   6.177
 9716SOL    HW230048   4.094   2.641   6.297
 9717SOL     OW30049   6.047   5.399   5.598
 9717SOL    HW130050   5.965   5.344   5.614
 9717SOL    HW230051   6.049   5.475   5.663
 9718SOL     OW30052   4.949   2.536   1.617
 9718SOL    HW130053   4.932   2.437   1.621
 9718SOL    HW230054   4.864   2.584   1.636
 9719SOL     OW30055   0.321   1.843   6.608
 9719SOL    HW130056   0.372   1.915   6.562
 9719SOL    HW230057   0.361   1.827   6.699
 9720SOL     OW30058   6.847   5.598   2.284
 9720SOL    HW130059   6.879   5.543   2.361
 9720SOL    HW230060   6.855   5.544   2.200
 9721SOL     OW30061   0.357   3.081   1.098
 9721SOL    HW130062   0.399   3.002   1.143
 9721SOL    HW230063   0.420   3.158   1.101
 9722SOL     OW30064   0.241   0.232   3.948
 9722SOL    HW130065   0.324   0.201   3.994
 9722SOL    HW230066   0.166   0.240   4.015
 9723SOL     OW30067   1.994   6.137   3.587
 9723SOL    HW130068   2.088   6.131   3.553
 9723SOL    HW230069   1.994   6.120   3.686
 9724SOL     OW30070   1.918   3.588   0.399
 9724SOL    HW130071   1.895   3.676   0.440
 9724SOL    HW230072   2.018   3.579   0.391
 9725SOL     OW30073   3.967   4.388   6.447
 9725SOL    HW130074   3.929   4.455   6.383
 9725SOL    HW230075   3.902   4.373   6.521
 9726SOL     OW30076   5.199   0.618   3.966
 9726SOL    HW130077   5.192   0.590   3.871
 9726SOL    HW230078   5.145   0.701   3.982
 9727SOL     OW30079   0.469   3.615   5.388
 9727SOL    HW130080   0.501   3.539   5.445
 9727SOL    HW230081   0.475   3.589   5.292
 9728SOL     OW30082   7.012   0.429   6.085
 9728SOL    HW130083   7.015   0.519   6.043
 9728SOL    HW230084   6.975   0.437   6.178
 9729SOL     OW30085   1.152   4.367   3.130
 9729SOL    HW130086   1.153   4.281   3.078
 9729SOL    HW230087   1.060   4.405   3.130
 9730SOL     OW30088   0.339   3.254   3.194
 9730SOL    HW130089   0.430   3.294   3.198
 9730SOL    HW230090   0.334   3.190   3.118
 9731SOL     OW30091   4.503   3.692   1.082
 9731SOL    HW130092   4.427   3.735   1.132
 9731SOL    HW230093   4.568   3.654   1.147
 9732SOL     OW30094   5.670   5.791   3.474
 9732SOL    HW130095   5.730   5.711   3.469
 9732SOL    HW230096   5.592   5.770   3.533
 9733SOL     OW30097   5.202   5.186   0.460
 9733SOL    HW130098   5.198   5.195   0.560
 9733SOL    HW230099   5.275   5.244   0.424
 9734SOL     OW30100   5.736   1.471   3.104
 9734SOL    HW130101   5.827   1.441   3.076
 9734SOL    HW230102   5.736   1.491   3.202
 9735SOL     OW30103   1.781   4.623   3.210
 9735SOL    HW130104   1.848   4.664   3.148
 9735SOL    HW230105   1.828   4.557   3.270
 9736SOL     OW30106   5.876   1.855   5.898
 9736SOL    HW130107   5.797   1.912   5.920
 9736SOL    HW230108   5.884   1.783   5.968
 9737SOL     OW30109   6.482   3.349   4.722
 9737SOL    HW130110   6.441   3.280   4.782
 9737SOL    HW230111   6.565   3.386   4.764
 9738SOL     OW30112   2.073   0.186   2.541
 9738SOL    HW130113   2.058   0.212   2.636
 9738SOL    HW230114   1.985   0.182   2.494
 9739SOL     OW30115   6.220   5.500   2.077
 9739SOL    HW130116   6.134   5.484   2.124
 9739SOL    HW230117   6.295   5.461   2.131
 9740SOL     OW30118   6.298   2.380   4.032
 9740SOL    HW130119   6.322   2.439   3.955
 9740SOL    HW230120   6.370   2.313   4.047
 9741SOL     OW30121   5.089   1.981   2.774
 9741SOL    HW130122   5.111   1.926   2.694
 9741SOL    HW230123   5.155   2.055   2.783
 9742SOL     OW30124   3.744   0.365   2.047
 9742SOL    HW130125   3.657   0.392   2.088
 9742SOL    HW230126   3.770   0.431   1.977
 9743SOL     OW30127   1.312   1.476   4.742
 9743SOL    HW130128   1.302   1.538   4.664
 9743SOL    HW230129   1.257   1.393   4.727
 9744SOL     OW30130   0.740   0.275   2.794
 9744SOL    HW130131   0.641   0.278   2.779
 9744SOL    HW230132   0.787   0.267   2.707
 9745SOL     OW30133   6.437   2.885   6.246
 9745SOL    HW130134   6.472   2.979   6.250
 9745SOL    HW230135   6.338   2.886   6.259
 9746SOL     OW30136   6.467   1.170   6.186
 9746SOL    HW130137   6.429   1.204   6.272
 9746SOL    HW230138   6.551   1.219   6.165
 9747SOL     OW30139   1.823   0.214   1.735
 9747SOL    HW130140   1.767   0.270   1.796
 9747SOL    HW230141   1.902   0.266   1.704
 9748SOL     OW30142   1.120   1.067   3.610
 9748SOL    HW130143   1.202   1.017   3.639
 9748SOL    HW230144   1.122   1.159   3.649
 9749SOL     OW30145   2.147   1.807   4.872
 9749SOL    HW130146   2.054   1.838   4.889
 9749SOL    HW230147   2.210   1.885   4.880
 9750SOL     OW30148   5.462   4.671   3.525
 9750SOL    HW130149   5.542   4.683   3.466
 9750SOL    HW230150   5.433   4.759   3.562
 9751SOL     OW30151   1.464   1.338   0.558
 9751SOL    HW130152   1.531   1.264   0.546
 9751SOL    HW230153   1.439   1.346   0.654
 9752SOL     OW30154   5.247   1.756   6.990
 9752SOL    HW130155   5.262   1.691   0.044
 9752SOL    HW230156   5.264   1.711   6.902
 9753SOL     OW30157   6.279   5.300   5.216
 9753SOL    HW130158   6.206   5.369   5.219
 9753SOL    HW230159   6.252   5.227   5.152
 9754SOL     OW30160   0.954   1.430   6.337
 9754SOL    HW130161   0.953   1.371   6.256
 9754SOL    HW230162   0.869   1.420   6.387
 9755SOL     OW30163   3.741   3.717   5.331
 9755SOL    HW130164   3.827   3.672   5.306
 9755SOL    HW230165   3.747   3.814   5.309
 9756SOL     OW30166   5.873   3.235   0.057
 9756SOL    HW130167   5.922   3.209   0.140
 9756SOL    HW230168   5.780   3.263   0.081
 9757SOL     OW30169   5.649   3.465   3.197
 9757SOL    HW130170   5.740   3.504   3.184
 9757SOL    HW230171   5.605   3.509   3.275
 9758SOL     OW30172   2.767   0.057   0.086
 9758SOL    HW130173   2.856   0.075   0.128
 9758SOL    HW230174   2.746   6.980   0.093
 9759SOL     OW30175   2.389   6.982   6.843
 9759SOL    HW130176   2.308   0.020   6.858
 9759SOL    HW230177   2.468   0.004   6.889
 9760SOL     OW30178   4.521   3.362   5.353
 9760SOL    HW130179   4.545   3.452   5.389
 9760SOL    HW230180   4.601   3.302   5.357
 9761SOL     OW30181   6.181   0.257   1.766
 9761SOL    HW130182   6.242   0.238   1.689
 9761SOL    HW230183   6.218   0.213   1.849
 9762SOL     OW30184   2.656   2.438   4.227
 9762SOL    HW130185   2.587   2.477   4.287
 9762SOL    HW230186   2.620   2.355   4.185
 9763SOL     OW30187   4.634   2.183   1.836
 9763SOL    HW130188   4.591   2.101   1.873
 9763SOL    HW230189   4.629   2.181   1.736
 9764SOL     OW30190   0.825   2.697   3.484
 9764SOL    HW130191   0.823   2.597   3.493
 9764SOL    HW230192   0.788   2.723   3.395
 9765SOL     OW30193   6.537   2.097   3.028
 9765SOL    HW130194   6.598   2.136   3.098
 9765SOL    HW230195   6.490   2.017   3.066
 9766SOL     OW30196   2.896   0.415   3.129
 9766SOL    HW130197   2.854   0.456   3.048
 9766SOL    HW230198   2.952   0.484   3.176
 9767SOL     OW30199   5.228   2.104   5.020
 9767SOL    HW130200   5.284   2.116   4.938
 9767SOL    HW230201   5.287   2.080   5.098
 9768SOL     OW30202   4.628   1.456   2.284
 9768SOL    HW130203   4.605   1.511   2.204
 9768SOL    HW230204   4.582   1.494   2.364
 9769SOL     OW30205   2.012   1.162   2.129
 9769SOL    HW130206   1.989   1.065   2.120
 9769SOL    HW230207   2.054   1.179   2.218
 9770SOL     OW30208   5.329   0.171   6.887
 9770SOL    HW130209   5.364   0.129   6.803
 9770SOL    HW230210   5.247   0.224   6.866
 9771SOL     OW30211   3.632   4.893   1.444
 9771SOL    HW130212   3.595   4.814   1.491
 9771SOL    HW230213   3.630   4.972   1.505
 9772SOL     OW30214   1.319   5.970   2.597
 9772SOL    HW130215   1.325   5.912   2.678
 9772SOL    HW230216   1.275   6.057   2.621
 9773SOL     OW30217   5.481   6.933   4.479
 9773SOL    HW130218   5.562   6.964   4.529
 9773SOL    HW230219   5.416   6.893   4.543
 9774SOL     OW30220   6.237   4.971   1.861
 9774SOL    HW130221   6.145   4.938   1.836
 9774SOL    HW230222   6.303   4.936   1.795
 9775SOL     OW30223   2.649   0.910   3.342
 9775SOL    HW130224   2.721   0.966   3.382
 9775SOL    HW230225   2.563   0.925   3.390
 9776SOL     OW30226   6.991   5.629   4.530
 9776SOL    HW130227   7.004   5.586   4.619
 9776SOL    HW230228   6.909   5.686   4.532
 9777SOL     OW30229   5.579   4.832   6.499
 9777SOL    HW130230   5.523   4.907   6.464
 9777SOL    HW230231   5.601   4.849   6.595
 9778SOL     OW30232   0.314   0.986   3.250
 9778SOL    HW130233   0.263   0.962   3.332
 9778SOL    HW230234   0.338   1.083   3.253
 9779SOL     OW30235   2.298   1.582   4.947
 9779SOL    HW130236   2.257   1.670   4.925
 9779SOL    HW230237   2.242   1.508   4.909
 9780SOL     OW30238   2.234   1.800   1.274
 9780SOL    HW130239   2.178   1.724   1.309
 9780SOL    HW230240   2.308   1.818   1.338
 9781SOL     OW30241   1.359   3.698   3.984
 9781SOL    HW130242   1.356   3.727   4.079
 9781SOL    HW230243   1.301   3.758   3.929
 9782SOL     OW30244   0.120   0.496   1.438
 9782SOL    HW130245   0.046   0.524   1.377
 9782SOL    HW230246   0.207   0.496   1.388
 9783SOL     OW30247   5.262   2.198   2.490
 9783SOL    HW130248   5.163   2.184   2.488
 9783SOL    HW230249   5.282   2.294   2.508
 9784SOL     OW30250   3.974   1.419   3.771
 9784SOL    HW130251   4.027   1.335   3.759
 9784SOL    HW230252   4.030   1.498   3.747
 9785SOL     OW30253   0.001   4.371   5.130
 9785SOL    HW130254   0.010   4.299   5.061
 9785SOL    HW230255   7.002   4.331   5.219
 9786SOL     OW30256   2.302   4.762   6.349
 9786SOL    HW130257   2.385   4.791   6.397
 9786SOL    HW230258   2.275   4.672   6.382
 9787SOL     OW30259   4.595   3.812   1.571
 9787SOL    HW130260   4.628   3.718   1.563
 9787SOL    HW230261   4.666   3.869   1.611
 9788SOL     OW30262   0.508   0.627   3.600
 9788SOL    HW130263   0.591   0.571   3.604
 9788SOL    HW230264   0.483   0.643   3.505
 9789SOL     OW30265   1.322   6.057   6.767
 9789SOL    HW130266   1.387   5.984   6.786
 9789SOL    HW230267   1.246   6.022   6.713
 9790SOL     OW30268   5.835   3.912   6.087
 9790SOL    HW130269   5.887   3.908   6.002
 9790SOL    HW230270   5.895   3.939   6.162
 9791SOL     OW30271   0.443   1.194   2.835
 9791SOL    HW130272   0.499   1.132   2.891
 9791SOL    HW230273   0.419   1.275   2.888
 9792SOL     OW30274   5.518   5.318   1.740
 9792SOL    HW130275   5.456   5.379   1.788
 9792SOL    HW230276   5.524   5.346   1.644
 9793SOL     OW30277   5.581   5.050   3.452
 9793SOL    HW130278   5.529   4.978   3.498
 9793SOL    HW230279   5.670   5.060   3.496
 9794SOL     OW30280   6.710   3.939   6.164
 9794SOL    HW130281   6.653   3.941   6.081
 9794SOL    HW230282   6.688   4.017   6.221
 9795SOL     OW30283   1.190   1.851   4.204
 9795SOL    HW130284   1.273   1.850   4.259
 9795SOL    HW230285   1.199   1.788   4.128
 9796SOL     OW30286   3.949   2.868   1.098
 9796SOL    HW130287   3.919   2.905   1.186
 9796SOL    HW230288   4.029   2.918   1.066
 9797SOL     OW30289   3.292   4.289   6.644
 9797SOL    HW130290   3.261   4.266   6.551
 9797SOL    HW230291   3.221   4.344   6.690
 9798SOL     OW30292   2.107   0.860   0.789
 9798SOL    HW130293   2.063   0.915   0.861
 9798SOL    HW230294   2.198   0.831   0.821
 9799SOL     OW30295   3.345   3.528   3.240
 9799SOL    HW130296   3.302   3.534   3.150
 9799SOL    HW230297   3.404   3.448   3.243
 9800SOL     OW30298   3.440   6.509   5.425
 9800SOL    HW130299   3.452   6.486   5.522
 9800SOL    HW230300   3.483   6.439   5.368
 9801SOL     OW30301   4.154   4.753   0.727
 9801SOL    HW130302   4.148   4.654   0.722
 9801SOL    HW230303   4.250   4.780   0.736
 9802SOL     OW30304   0.711   2.626   2.912
 9802SOL    HW130305   0.736   2.659   2.821
 9802SOL    HW230306   0.673   2.701   2.966
 9803SOL     OW30307   5.911   1.504   6.876
 9803SOL    HW130308   5.933   1.578   6.940
 9803SOL    HW230309   5.869   1.542   6.794
 9804SOL     OW30310   0.602   5.566   3.338
 9804SOL    HW130311   0.650   5.642   3.382
 9804SOL    HW230312   0.637   5.554   3.245
 9805SOL     OW30313   1.384   5.679   5.946
 9805SOL    HW130314   1.345   5.629   6.024
 9805SOL    HW230315   1.483   5.665   5.943
 9806SOL     OW30316   1.081   1.870   0.511
 9806SOL    HW130317   1.101   1.826   0.423
 9806SOL    HW230318   0.988   1.906   0.510
 9807SOL     OW30319   2.064   2.557   6.989
 9807SOL    HW130320   2.114   2.534   0.053
 9807SOL    HW230321   2.083   2.488   6.919
 9808SOL     OW30322   5.506   1.012   5.462
 9808SOL    HW130323   5.418   0.987   5.421
 9808SOL    HW230324   5.501   1.003   5.561
 9809SOL     OW30325   0.856   1.764   6.246
 9809SOL    HW130326   0.955   1.752   6.250
 9809SOL    HW230327   0.815   1.729   6.330
 9810SOL     OW30328   2.750   2.402   3.738
 9810SOL    HW130329   2.672   2.458   3.767
 9810SOL    HW230330   2.799   2.370   3.819
 9811SOL     OW30331   6.059   5.540   3.994
 9811SOL    HW130332   6.150   5.572   4.018
 9811SOL    HW230333   6.007   5.520   4.077
 9812SOL     OW30334   3.454   2.586   5.984
 9812SOL    HW130335   3.537   2.534   6.007
 9812SOL    HW230336   3.399   2.598   6.066
 9813SOL     OW30337   5.818   6.520   6.871
 9813SOL    HW130338   5.768   6.580   6.935
 9813SOL    HW230339   5.876   6.575   6.812
 9814SOL     OW30340   0.585   1.275   6.671
 9814SOL    HW130341   0.649   1.220   6.617
 9814SOL    HW230342   0.551   1.221   6.748
 9815SOL     OW30343   6.700   2.702   2.286
 9815SOL    HW130344   6.746   2.631   2.339
 9815SOL    HW230345   6.689   2.784   2.343
 9816SOL     OW30346   6.325   1.537   6.511
 9816SOL    HW130347   6.326   1.439   6.492
 9816SOL    HW230348   6.391   1.583   6.452
 9817SOL     OW30349   3.117   5.619   1.926
 9817SOL    HW130350   3.166   5.703   1.903
 9817SOL    HW230351   3.033   5.642   1.975
 9818SOL     OW30352   1.427   1.156   3.703
 9818SOL    HW130353   1.396   1.066   3.735
 9818SOL    HW230354   1.513   1.179   3.748
 9819SOL     OW30355   5.052   3.260   5.057
 9819SOL    HW130356   5.124   3.297   4.999
 9819SOL    HW230357   5.022   3.329   5.122
 9820SOL     OW30358   3.559   3.153   6.489
 9820SOL    HW130359   3.626   3.089   6.528
 9820SOL    HW230360   3.474   3.148   6.542
 9821SOL     OW30361   4.235   1.921   0.948
 9821SOL    HW130362   4.226   1.903   1.046
 9821SOL    HW230363   4.235   2.019   0.931
 9822SOL     OW30364   3.587   5.552   4.196
 9822SOL    HW130365   3.534   5.607   4.132
 9822SOL    HW230366   3.606   5.462   4.156
 9823SOL     OW30367   1.683   0.086   2.097
 9823SOL    HW130368   1.695   0.175   2.052
 9823SOL    HW230369   1.669   0.100   2.195
 9824SOL     OW30370   2.249   5.768   5.361
 9824SOL    HW130371   2.220   5.863   5.357
 9824SOL    HW230372   2.173   5.711   5.392
 9825SOL     OW30373   5.557   6.071   4.788
 9825SOL    HW130374   5.567   6.071   4.689
 9825SOL    HW230375   5.533   5.979   4.819
 9826SOL     OW30376   3.509   6.317   5.242
 9826SOL    HW130377   3.541   6.358   5.157
 9826SOL    HW230378   3.558   6.231   5.257
 9827SOL     OW30379   1.971   4.191   3.116
 9827SOL    HW130380   2.047   4.209   3.054
 9827SOL    HW230381   1.960   4.092   3.128
 9828SOL     OW30382   3.361   2.023   4.965
 9828SOL    HW130383   3.316   2.106   4.998
 9828SOL    HW230384   3.446   2.048   4.919
 9829SOL     OW30385   4.632   5.766   6.214
 9829SOL    HW130386   4.560   5.716   6.261
 9829SOL    HW230387   4.669   5.709   6.140
 9830SOL     OW30388   5.209   1.574   1.945
 9830SOL    HW130389   5.272   1.607   1.875
 9830SOL    HW230390   5.120   1.619   1.934
 9831SOL     OW30391   0.756   4.589   1.723
 9831SOL    HW130392   0.672   4.640   1.706
 9831SOL    HW230393   0.737   4.491   1.716
 9832SOL     OW30394   4.568   5.294   3.462
 9832SOL    HW130395   4.521   5.373   3.501
 9832SOL    HW230396   4.646   5.269   3.520
 9833SOL     OW30397   3.386   3.263   3.410
 9833SOL    HW130398   3.334   3.343   3.439
 9833SOL    HW230399   3.479   3.268   3.446
 9834SOL     OW30400   1.930   4.757   5.703
 9834SOL    HW130401   1.883   4.812   5.772
 9834SOL    HW230402   2.027   4.749   5.727
 9835SOL     OW30403   3.621   2.974   3.924
 9835SOL    HW130404   3.553   2.949   3.993
 9835SOL    HW230405   3.575   3.013   3.845
 9836SOL     OW30406   0.932   4.171   4.601
 9836SOL    HW130407   0.939   4.220   4.688
 9836SOL    HW230408   0.962   4.231   4.527
 9837SOL     OW30409   5.505   1.589   2.712
 9837SOL    HW130410   5.516   1.510   2.652
 9837SOL    HW230411   5.596   1.620   2.743
 9838SOL     OW30412   1.614   0.010   0.843
 9838SOL    HW130413   1.625   6.930   0.835
 9838SOL    HW230414   1.653   0.040   0.930
 9839SOL     OW30415   4.192   6.784   3.209
 9839SOL    HW130416   4.291   6.797   3.204
 9839SOL    HW230417   4.163   6.786   3.305
 9840SOL     OW30418   4.566   1.822   0.295
 9840SOL    HW130419   4.591   1.767   0.374
 9840SOL    HW230420   4.531   1.762   0.223
 9841SOL     OW30421   0.949   4.918   3.416
 9841SOL    HW130422   0.912   4.938   3.507
 9841SOL    HW230423   0.880   4.872   3.361
 9842SOL     OW30424   3.542   3.098   0.476
 9842SOL    HW130425   3.500   3.007   0.478
 9842SOL    HW230426   3.592   3.109   0.390
 9843SOL     OW30427   6.664   0.444   1.880
 9843SOL    HW130428   6.748   0.467   1.930
 9843SOL    HW230429   6.588   0.496   1.918
 9844SOL     OW30430   6.129   0.846   3.935
 9844SOL    HW130431   6.065   0.777   3.970
 9844SOL    HW230432   6.112   0.861   3.837
 9845SOL     OW30433   0.877   2.564   3.164
 9845SOL    HW130434   0.796   2.607   3.202
 9845SOL    HW230435   0.853   2.474   3.127
 9846SOL     OW30436   5.022   1.414   0.072
 9846SOL    HW130437   5.094   1.401   0.140
 9846SOL    HW230438   5.063   1.425   7.001
 9847SOL     OW30439   3.856   3.002   2.105
 9847SOL    HW130440   3.836   2.941   2.029
 9847SOL    HW230441   3.871   2.947   2.188
 9848SOL     OW30442   3.363   4.782   5.239
 9848SOL    HW130443   3.398   4.700   5.284
 9848SOL    HW230444   3.281   4.759   5.187
 9849SOL     OW30445   1.109   6.713   6.981
 9849SOL    HW130446   1.123   6.615   6.991
 9849SOL    HW230447   1.012   6.733   6.970
 9850SOL     OW30448   6.896   0.196   3.745
 9850SOL    HW130449   6.804   0.201   3.784
 9850SOL    HW230450   6.947   0.278   3.770
 9851SOL     OW30451   2.851   6.120   4.581
 9851SOL    HW130452   2.791   6.102   4.660
 9851SOL    HW230453   2.797   6.118   4.497
 9852SOL     OW30454   1.160   1.658   5.450
 9852SOL    HW130455   1.076   1.706   5.476
 9852SOL    HW230456   1.239   1.715   5.475
 9853SOL     OW30457   6.655   3.638   5.231
 9853SOL    HW130458   6.734   3.673   5.280
 9853SOL    HW230459   6.576   3.635   5.292
 9854SOL     OW30460   0.688   5.233   5.139
 9854SOL    HW130461   0.732   5.207   5.225
 9854SOL    HW230462   0.719   5.172   5.066
 9855SOL     OW30463   1.003   3.415   0.990
 9855SOL    HW130464   0.985   3.413   1.088
 9855SOL    HW230465   1.099   3.393   0.972
 9856SOL     OW30466   5.937   4.364   3.936
 9856SOL    HW130467   5.943   4.461   3.958
 9856SOL    HW230468   5.926   4.312   4.021
 9857SOL     OW30469   5.601   2.966   2.925
 9857SOL    HW130470   5.553   2.915   2.853
 9857SOL    HW230471   5.598   3.064   2.904
 9858SOL     OW30472   1.205   6.814   1.730
 9858SOL    HW130473   1.290   6.814   1.677
 9858SOL    HW230474   1.200   6.898   1.784
 9859SOL     OW30475   6.587   5.002   4.850
 9859SOL    HW130476   6.633   5.010   4.762
 9859SOL    HW230477   6.650   5.025   4.924
 9860SOL     OW30478   1.666   2.010   4.751
 9860SOL    HW130479   1.623   2.087   4.796
 9860SOL    HW230480   1.736   2.043   4.688
 9861SOL     OW30481   2.966   0.926   3.681
 9861SOL    HW130482   3.054   0.893   3.648
 9861SOL    HW230483   2.892   0.868   3.646
 9862SOL     OW30484   2.983   4.059   0.763
 9862SOL    HW130485   2.987   4.147   0.715
 9862SOL    HW230486   3.069   4.042   0.810
 9863SOL     OW30487   3.132   5.792   1.349
 9863SOL    HW130488   3.214   5.846   1.369
 9863SOL    HW230489   3.156   5.695   1.343
 9864SOL     OW30490   2.990   6.938   5.468
 9864SOL    HW130491   3.024   0.005   5.433
 9864SOL    HW230492   3.057   6.865   5.450
 9865SOL     OW30493   0.490   6.104   5.348
 9865SOL    HW130494   0.458   6.178   5.407
 9865SOL    HW230495   0.512   6.024   5.404
 9866SOL     OW30496   6.032   4.574   4.939
 9866SOL    HW130497   6.106   4.515   4.972
 9866SOL    HW230498   5.979   4.525   4.870
 9867SOL     OW30499   6.105   2.485   2.595
 9867SOL    HW130500   6.082   2.387   2.594
 9867SOL    HW230501   6.198   2.497   2.558
 9868SOL     OW30502   0.816   3.596   4.170
 9868SOL    HW130503   0.870   3.517   4.198
 9868SOL    HW230504   0.877   3.673   4.150
 9869SOL     OW30505   0.266   2.367   0.874
 9869SOL    HW130506   0.327   2.305   0.824
 9869SOL    HW230507   0.227   2.434   0.811
 9870SOL     OW30508   4.299   0.867   2.965
 9870SOL    HW130509   4.356   0.799   3.010
 9870SOL    HW230510   4.271   0.834   2.875
 9871SOL     OW30511   6.950   3.223   6.278
 9871SOL    HW130512   6.972   3.274   6.195
 9871SOL    HW230513   7.002   3.259   6.355
 9872SOL     OW30514   2.411   5.298   5.092
 9872SOL    HW130515   2.390   5.241   5.171
 9872SOL    HW230516   2.476   5.251   5.033
 9873SOL     OW30517   2.257   2.269   6.319
 9873SOL    HW130518   2.179   2.208   6.332
 9873SOL    HW230519   2.315   2.234   6.245
 9874SOL     OW30520   0.514   3.275   4.472
 9874SOL    HW130521   0.538   3.220   4.551
 9874SOL    HW230522   0.416   3.295   4.473
 9875SOL     OW30523   0.015   5.859   1.568
 9875SOL    HW130524   0.082   5.825   1.634
 9875SOL    HW230525   0.058   5.930   1.511
 9876SOL     OW30526   4.556   0.129   4.161
 9876SOL    HW130527   4.655   0.138   4.171
 9876SOL    HW230528   4.522   0.066   4.231
 9877SOL     OW30529   6.925   4.548   4.312
 9877SOL    HW130530   6.865   4.492   4.369
 9877SOL    HW230531   6.889   4.552   4.219
 9878SOL     OW30532   1.763   3.265   6.849
 9878SOL    HW130533   1.787   3.352   6.892
 9878SOL    HW230534   1.723   3.282   6.759
 9879SOL     OW30535   0.662   4.734   5.978
 9879SOL    HW130536   0.741   4.793   5.960
 9879SOL    HW230537   0.622   4.704   5.891
 9880SOL     OW30538   2.797   1.006   0.263
 9880SOL    HW130539   2.812   1.072   0.189
 9880SOL    HW230540   2.730   1.044   0.327
 9881SOL     OW30541   5.450   0.507   4.693
 9881SOL    HW130542   5.404   0.582   4.645
 9881SOL    HW230543   5.383   0.435   4.713
 9882SOL     OW30544   3.771   3.610   4.561
 9882SOL    HW130545   3.839   3.651   4.501
 9882SOL    HW230546   3.679   3.629   4.527
 9883SOL     OW30547   2.011   6.290   1.795
 9883SOL    HW130548   2.085   6.326   1.852
 9883SOL    HW230549   1.961   6.219   1.846
 9884SOL     OW30550   2.950   2.913   6.656
 9884SOL    HW130551   2.867   2.968   6.647
 9884SOL    HW230552   2.957   2.851   6.577
 9885SOL     OW30553   0.836   3.222   3.810
 9885SOL    HW130554   0.885   3.225   3.897
 9885SOL    HW230555   0.885   3.162   3.746
 9886SOL     OW30556   5.914   6.858   2.093
 9886SOL    HW130557   5.928   6.889   2.187
 9886SOL    HW230558   5.848   6.917   2.048
 9887SOL     OW30559   3.629   0.217   0.515
 9887SOL    HW130560   3.679   0.301   0.491
 9887SOL    HW230561   3.536   0.222   0.478
 9888SOL     OW30562   5.951   5.958   3.209
 9888SOL    HW130563   5.948   6.007   3.122
 9888SOL    HW230564   5.973   5.862   3.194
 9889SOL     OW30565   0.548   4.915   2.792
 9889SOL    HW130566   0.583   5.008   2.802
 9889SOL    HW230567   0.551   4.869   2.881
 9890SOL     OW30568   6.350   2.834   0.149
 9890SOL    HW130569   6.430   2.879   0.108
 9890SOL    HW230570   6.301   2.782   0.079
 9891SOL     OW30571   5.305   5.031   1.327
 9891SOL    HW130572   5.255   4.944   1.321
 9891SOL    HW230573   5.402   5.012   1.342
 9892SOL     OW30574   2.349   5.312   3.808
 9892SOL    HW130575   2.292   5.394   3.816
 9892SOL    HW230576   2.378   5.301   3.712
 9893SOL     OW30577   6.979   5.607   2.952
 9893SOL    HW130578   6.940   5.604   2.860
 9893SOL    HW230579   6.927   5.547   3.013
 9894SOL     OW30580   2.842   1.410   6.819
 9894SOL    HW130581   2.884   1.455   6.741
 9894SOL    HW230582   2.784   1.475   6.869
 9895SOL     OW30583   5.908   2.186   6.074
 9895SOL    HW130584   6.000   2.222   6.058
 9895SOL    HW230585   5.842   2.238   6.020
 9896SOL     OW30586   4.037   2.673   0.954
 9896SOL    HW130587   4.022   2.695   0.857
 9896SOL    HW230588   3.995   2.744   1.010
 9897SOL     OW30589   5.345   1.097   2.573
 9897SOL    HW130590   5.276   1.169   2.566
 9897SOL    HW230591   5.343   1.057   2.665
 9898SOL     OW30592   0.649   5.003   5.750
 9898SOL    HW130593   0.722   4.949   5.792
 9898SOL    HW230594   0.656   5.098   5.782
 9899SOL     OW30595   6.012   4.111   1.935
 9899SOL    HW130596   5.968   4.026   1.906
 9899SOL    HW230597   6.106   4.093   1.963
 9900SOL     OW30598   1.905   1.948   2.837
 9900SOL    HW130599   1.891   1.865   2.892
 9900SOL    HW230600   1.917   2.027   2.897
 9901SOL     OW30601   1.450   2.109   6.883
 9901SOL    HW130602   1.486   2.084   6.973
 9901SOL    HW230603   1.441   2.208   6.876
 9902SOL     OW30604   3.341   3.097   0.730
 9902SOL    HW130605   3.405   3.021   0.727
 9902SOL    HW230606   3.324   3.123   0.825
 9903SOL     OW30607   4.812   0.346   2.305
 9903SOL    HW130608   4.795   0.340   2.207
 9903SOL    HW230609   4.870   0.426   2.324
 9904SOL     OW30610   0.373   3.847   6.490
 9904SOL    HW130611   0.368   3.946   6.488
 9904SOL    HW230612   0.349   3.811   6.399
 9905SOL     OW30613   1.627   6.521   0.711
 9905SOL    HW130614   1.661   6.536   0.618
 9905SOL    HW230615   1.697   6.549   0.777
 9906SOL     OW30616   1.642   3.322   6.622
 9906SOL    HW130617   1.608   3.411   6.591
 9906SOL    HW230618   1.679   3.272   6.543
 9907SOL     OW30619   2.819   6.222   3.360
 9907SOL    HW130620   2.781   6.308   3.396
 9907SOL    HW230621   2.755   6.148   3.376
 9908SOL     OW30622   0.620   3.404   6.228
 9908SOL    HW130623   0.571   3.317   6.223
 9908SOL    HW230624   0.631   3.441   6.135
 9909SOL     OW30625   3.512   1.060   2.998
 9909SOL    HW130626   3.583   0.989   2.993
 9909SOL    HW230627   3.538   1.128   3.066
 9910SOL     OW30628   0.224   5.055   1.521
 9910SOL    HW130629   0.306   5.108   1.542
 9910SOL    HW230630   0.234   5.013   1.430
 9911SOL     OW30631   5.007   5.276   3.197
 9911SOL    HW130632   5.074   5.301   3.127
 9911SOL    HW230633   4.992   5.353   3.259
 9912SOL     OW30634   4.003   0.628   2.540
 9912SOL    HW130635   3.932   0.698   2.543
 9912SOL    HW230636   3.966   0.542   2.578
 9913SOL     OW30637   5.697   3.121   2.029
 9913SOL    HW130638   5.775   3.115   1.967
 9913SOL    HW230639   5.613   3.096   1.981
 9914SOL     OW30640   1.117   0.510   5.583
 9914SOL    HW130641   1.066   0.491   5.667
 9914SOL    HW230642   1.095   0.442   5.514
 9915SOL     OW30643   5.611   3.585   4.209
 9915SOL    HW130644   5.540   3.640   4.165
 9915SOL    HW230645   5.630   3.504   4.154
 9916SOL     OW30646   2.889   2.317   3.194
 9916SOL    HW130647   2.954   2.243   3.208
 9916SOL    HW230648   2.876   2.368   3.279
 9917SOL     OW30649   3.280   3.156   4.995
 9917SOL    HW130650   3.302   3.152   4.898
 9917SOL    HW230651   3.223   3.078   5.020
 9918SOL     OW30652   1.406   1.153   0.023
 9918SOL    HW130653   1.456   1.067   0.022
 9918SOL    HW230654   1.449   1.217   0.086
 9919SOL     OW30655   2.128   4.665   2.329
 9919SOL    HW130656   2.045   4.719   2.342
 9919SOL    HW230657   2.182   4.667   2.413
 9920SOL     OW30658   3.660   0.448   2.468
 9920SOL    HW130659   3.747   0.401   2.482
 9920SOL    HW230660   3.676   0.534   2.418
 9921SOL     OW30661   6.564   6.115   3.784
 9921SOL    HW130662   6.569   6.188   3.716
 9921SOL    HW230663   6.530   6.032   3.741
 9922SOL     OW30664   4.181   4.028   1.087
 9922SOL    HW130665   4.128   4.095   1.138
 9922SOL    HW230666   4.173   4.048   0.989
 9923SOL     OW30667   6.670   2.514   6.895
 9923SOL    HW130668   6.618   2.429   6.906
 9923SOL    HW230669   6.646   2.577   6.968
 9924SOL     OW30670   5.733   1.636   1.797
 9924SOL    HW130671   5.711   1.582   1.715
 9924SOL    HW230672   5.666   1.710   1.807
 9925SOL     OW30673   2.132   3.911   5.297
 9925SOL    HW130674   2.203   3.927   5.229
 9925SOL    HW230675   2.051   3.965   5.274
 9926SOL     OW30676   3.112   2.222   1.368
 9926SOL    HW130677   3.104   2.179   1.278
 9926SOL    HW230678   3.184   2.291   1.366
 9927SOL     OW30679   0.731   2.336   1.439
 9927SOL    HW130680   0.777   2.420   1.409
 9927SOL    HW230681   0.795   2.259   1.433
 9928SOL     OW30682   6.128   4.347   2.175
 9928SOL    HW130683   6.190   4.355   2.097
 9928SOL    HW230684   6.080   4.259   2.170
 9929SOL     OW30685   2.955   4.240   5.588
 9929SOL    HW130686   2.873   4.192   5.618
 9929SOL    HW230687   2.937   4.285   5.500
 9930SOL     OW30688   6.799   0.486   5.698
 9930SOL    HW130689   6.746   0.545   5.637
 9930SOL    HW230690   6.850   0.419   5.643
 9931SOL     OW30691   0.137   5.961   5.132
 9931SOL    HW130692   0.208   5.933   5.067
 9931SOL    HW230693   0.088   5.881   5.166
 9932SOL     OW30694   1.741   2.088   0.508
 9932SOL    HW130695   1.711   2.163   0.449
 9932SOL    HW230696   1.662   2.050   0.557
 9933SOL     OW30697   2.658   0.650   3.392
 9933SOL    HW130698   2.657   0.745   3.362
 9933SOL    HW230699   2.564   0.619   3.409
 9934SOL     OW30700   5.645   1.974   0.339
 9934SOL    HW130701   5.675   2.037   0.268
 9934SOL    HW230702   5.591   2.024   0.407
 9935SOL     OW30703   3.073   2.170   1.083
 9935SOL    HW130704   3.133   2.154   1.004
 9935SOL    HW230705   3.035   2.083   1.114
 9936SOL     OW30706   5.541   4.466   6.708
 9936SOL    HW130707   5.581   4.492   6.795
 9936SOL    HW230708   5.465   4.527   6.686
 9937SOL     OW30709   1.105   0.817   2.770
 9937SOL    HW130710   1.112   0.767   2.684
 9937SOL    HW230711   1.009   0.839   2.788
 9938SOL     OW30712   5.630   0.513   3.831
 9938SOL    HW130713   5.644   0.438   3.766
 9938SOL    HW230714   5.712   0.524   3.887
 9939SOL     OW30715   1.203   3.224   0.908
 9939SOL    HW130716   1.162   3.156   0.970
 9939SOL    HW230717   1.277   3.181   0.856
 9940SOL     OW30718   6.977   0.178   3.465
 9940SOL    HW130719   0.041   0.230   3.447
 9940SOL    HW230720   6.946   0.196   3.558
 9941SOL     OW30721   3.802   5.641   5.371
 9941SOL    HW130722   3.898   5.622   5.348
 9941SOL    HW230723   3.762   5.700   5.301
 9942SOL     OW30724   4.823   4.485   2.636
 9942SOL    HW130725   4.738   4.478   2.584
 9942SOL    HW230726   4.815   4.431   2.719
 9943SOL     OW30727   1.106   4.321   6.169
 9943SOL    HW130728   1.138   4.255   6.101
 9943SOL    HW230729   1.009   4.307   6.187
 9944SOL     OW30730   6.855   5.659   6.518
 9944SOL    HW130731   6.844   5.665   6.617
 9944SOL    HW230732   6.912   5.735   6.486
 9945SOL     OW30733   5.749   3.930   6.786
 9945SOL    HW130734   5.792   3.972   6.705
 9945SOL    HW230735   5.663   3.888   6.760
 9946SOL     OW30736   5.986   6.899   3.302
 9946SOL    HW130737   5.917   6.907   3.230
 9946SOL    HW230738   6.064   6.846   3.268
 9947SOL     OW30739   1.382   1.538   3.799
 9947SOL    HW130740   1.473   1.572   3.774
 9947SOL    HW230741   1.330   1.518   3.716
 9948SOL     OW30742   6.828   5.832   5.194
 9948SOL    HW130743   6.824   5.735   5.169
 9948SOL    HW230744   6.810   5.841   5.292
 9949SOL     OW30745   0.179   4.869   4.314
 9949SOL    HW130746   0.255   4.855   4.250
 9949SOL    HW230747   0.119   4.940   4.278
 9950SOL     OW30748   6.645   5.003   6.018
 9950SOL    HW130749   6.737   4.979   5.988
 9950SOL    HW230750   6.604   4.926   6.067
 9951SOL     OW30751   1.589   2.734   2.701
 9951SOL    HW130752   1.556   2.807   2.642
 9951SOL    HW230753   1.679   2.704   2.669
 9952SOL     OW30754   0.648   3.675   2.282
 9952SOL    HW130755   0.616   3.765   2.311
 9952SOL    HW230756   0.573   3.609   2.291
 9953SOL     OW30757   6.422   2.534   3.845
 9953SOL    HW130758   6.521   2.531   3.834
 9953SOL    HW230759   6.379   2.545   3.755
 9954SOL     OW30760   2.534   1.612   5.055
 9954SOL    HW130761   2.457   1.589   4.994
 9954SOL    HW230762   2.604   1.541   5.048
 9955SOL     OW30763   4.791   3.104   0.016
 9955SOL    HW130764   4.846   3.021   0.018
 9955SOL    HW230765   4.838   3.174   6.982
 9956SOL     OW30766   0.563   4.326   2.183
 9956SOL    HW130767   0.604   4.416   2.164
 9956SOL    HW230768   0.624   4.254   2.149
 9957SOL     OW30769   5.312   6.982   1.285
 9957SOL    HW130770   5.305   6.959   1.382
 9957SOL    HW230771   5.227   6.957   1.239
 9958SOL     OW30772   3.264   5.537   6.202
 9958SOL    HW130773   3.302   5.588   6.125
 9958SOL    HW230774   3.335   5.520   6.270
 9959SOL     OW30775   4.530   3.514   1.674
 9959SOL    HW130776   4.449   3.567   1.699
 9959SOL    HW230777   4.506   3.418   1.667
 9960SOL     OW30778   0.127   6.093   1.478
 9960SOL    HW130779   0.156   6.099   1.574
 9960SOL    HW230780   0.051   6.157   1.463
 9961SOL     OW30781   1.860   4.539   2.500
 9961SOL    HW130782   1.839   4.637   2.499
 9961SOL    HW230783   1.957   4.525   2.521
 9962SOL     OW30784   3.507   0.679   1.932
 9962SOL    HW130785   3.461   0.618   1.996
 9962SOL    HW230786   3.543   0.759   1.981
 9963SOL     OW30787   2.612   2.299   0.695
 9963SOL    HW130788   2.580   2.225   0.754
 9963SOL    HW230789   2.678   2.355   0.744
 9964SOL     OW30790   3.749   5.191   6.126
 9964SOL    HW130791   3.674   5.253   6.106
 9964SOL    HW230792   3.721   5.097   6.105
 9965SOL     OW30793   3.880   5.766   4.832
 9965SOL    HW130794   3.806   5.776   4.765
 9965SOL    HW230795   3.842   5.773   4.924
 9966SOL     OW30796   2.603   4.888   2.326
 9966SOL    HW130797   2.617   4.882   2.425
 9966SOL    HW230798   2.516   4.933   2.307
 9967SOL     OW30799   6.346   5.455   3.102
 9967SOL    HW130800   6.343   5.466   3.201
 9967SOL    HW230801   6.286   5.523   3.059
 9968SOL     OW30802   4.716   5.513   6.805
 9968SOL    HW130803   4.771   5.491   6.885
 9968SOL    HW230804   4.664   5.597   6.823
 9969SOL     OW30805   1.411   3.064   4.763
 9969SOL    HW130806   1.507   3.041   4.750
 9969SOL    HW230807   1.364   2.990   4.810
 9970SOL     OW30808   5.984   4.913   1.759
 9970SOL    HW130809   5.968   4.827   1.710
 9970SOL    HW230810   5.903   4.936   1.812
 9971SOL     OW30811   1.296   2.717   1.325
 9971SOL    HW130812   1.245   2.673   1.252
 9971SOL    HW230813   1.389   2.738   1.294
 9972SOL     OW30814   3.019   3.951   1.100
 9972SOL    HW130815   3.032   3.940   1.001
 9972SOL    HW230816   3.066   4.035   1.130
 9973SOL     OW30817   4.785   3.039   4.461
 9973SOL    HW130818   4.768   2.958   4.517
 9973SOL    HW230819   4.775   3.121   4.518
 9974SOL     OW30820   6.783   1.703   3.345
 9974SOL    HW130821   6.691   1.741   3.347
 9974SOL    HW230822   6.834   1.744   3.269
 9975SOL     OW30823   0.765   5.358   6.500
 9975SOL    HW130824   0.745   5.269   6.541
 9975SOL    HW230825   0.720   5.364   6.411
 9976SOL     OW30826   0.694   5.273   5.833
 9976SOL    HW130827   0.628   5.266   5.908
 9976SOL    HW230828   0.758   5.348   5.851
 9977SOL     OW30829   5.376   4.589   5.907
 9977SOL    HW130830   5.459   4.623   5.951
 9977SOL    HW230831   5.297   4.614   5.963
 9978SOL     OW30832   6.880   1.928   5.614
 9978SOL    HW130833   6.964   1.962   5.572
 9978SOL    HW230834   6.833   2.003   5.661
 9979SOL     OW30835   5.681   4.328   6.334
 9979SOL    HW130836   5.721   4.329   6.426
 9979SOL    HW230837   5.665   4.234   6.305
 9980SOL     OW30838   2.433   0.254   1.250
 9980SOL    HW130839   2.479   0.166   1.245
 9980SOL    HW230840   2.391   0.265   1.340
 9981SOL     OW30841   1.515   2.352   1.034
 9981SOL    HW130842   1.459   2.298   1.096
 9981SOL    HW230843   1.552   2.293   0.962
 9982SOL     OW30844   1.511   1.082   4.574
 9982SOL    HW130845   1.482   1.175   4.553
 9982SOL    HW230846   1.565   1.046   4.497
 9983SOL     OW30847   6.887   2.040   2.126
 9983SOL    HW130848   6.911   2.008   2.218
 9983SOL    HW230849   6.970   2.043   2.069
 9984SOL     OW30850   0.610   6.143   0.424
 9984SOL    HW130851   0.568   6.141   0.514
 9984SOL    HW230852   0.697   6.095   0.426
 9985SOL     OW30853   3.059   5.226   1.086
 9985SOL    HW130854   3.139   5.280   1.111
 9985SOL    HW230855   2.976   5.277   1.108
 9986SOL     OW30856   5.927   4.959   0.714
 9986SOL    HW130857   5.983   4.996   0.640
 9986SOL    HW230858   5.943   4.861   0.721
 9987SOL     OW30859   5.568   2.629   2.288
 9987SOL    HW130860   5.643   2.565   2.303
 9987SOL    HW230861   5.490   2.580   2.248
 9988SOL     OW30862   6.993   4.985   4.139
 9988SOL    HW130863   6.917   4.925   4.112
 9988SOL    HW230864   0.001   5.040   4.061
 9989SOL     OW30865   5.817   3.921   1.868
 9989SOL    HW130866   5.722   3.947   1.886
 9989SOL    HW230867   5.839   3.839   1.920
 9990SOL     OW30868   2.375   6.280   3.254
 9990SOL    HW130869   2.397   6.232   3.170
 9990SOL    HW230870   2.383   6.379   3.240
 9991SOL     OW30871   2.019   3.609   3.731
 9991SOL    HW130872   1.963   3.687   3.756
 9991SOL    HW230873   2.070   3.577   3.811
 9992SOL     OW30874   3.329   3.416   0.922
 9992SOL    HW130875   3.262   3.369   0.864
 9992SOL    HW230876   3.397   3.351   0.954
 9993SOL     OW30877   3.612   6.053   3.714
 9993SOL    HW130878   3.647   6.128   3.770
 9993SOL    HW230879   3.609   6.082   3.618
 9994SOL     OW30880   6.946   3.946   2.963
 9994SOL    HW130881   0.017   3.904   2.969
 9994SOL    HW230882   6.903   3.921   2.876
 9995SOL     OW30883   3.412   1.528   3.368
 9995SOL    HW130884   3.378   1.466   3.438
 9995SOL    HW230885   3.413   1.621   3.404
 9996SOL     OW30886   3.397   4.094   1.019
 9996SOL    HW130887   3.320   4.037   0.990
 9996SOL    HW230888   3.473   4.036   1.045
 9997SOL     OW30889   5.868   0.690   3.168
 9997SOL    HW130890   5.936   0.663   3.100
 9997SOL    HW230891   5.848   0.788   3.158
 9998SOL     OW30892   5.343   3.976   1.918
 9998SOL    HW130893   5.379   3.896   1.965
 9998SOL    HW230894   5.405   4.002   1.844
 9999SOL     OW30895   0.118   6.386   4.758
 9999SOL    HW130896   0.039   6.411   4.815
 9999SOL    HW230897   0.201   6.392   4.813
10000SOL     OW30898   5.377   1.806   0.807
10000SOL    HW130899   5.471   1.837   0.821
10000SOL    HW230900   5.374   1.706   0.803
10001SOL     OW30901   3.244   0.330   1.757
10001SOL    HW130902   3.200   0.281   1.681
10001SOL    HW230903   3.335   0.359   1.729
10002SOL     OW30904   2.379   1.238   1.032
10002SOL    HW130905   2.281   1.255   1.024
10002SOL    HW230906   2.423   1.251   0.943
10003SOL     OW30907   3.388   2.140   2.740
10003SOL    HW130908   3.473   2.191   2.729
10003SOL    HW230909   3.400   2.047   2.705
10004SOL     OW30910   5.271   3.455   5.365
10004SOL    HW130911   5.297   3.373   5.415
10004SOL    HW230912   5.187   3.493   5.404
10005SOL     OW30913   3.540   5.470   2.755
10005SOL    HW130914   3.536   5.371   2.743
10005SOL    HW230915   3.524   5.493   2.851
10006SOL     OW30916   5.415   6.860   5.441
10006SOL    HW130917   5.471   6.925   5.389
10006SOL    HW230918   5.451   6.854   5.534
10007SOL     OW30919   1.240   3.414   4.307
10007SOL    HW130920   1.325   3.405   4.360
10007SOL    HW230921   1.224   3.330   4.256
10008SOL     OW30922   5.124   1.495   3.202
10008SOL    HW130923   5.041   1.551   3.208
10008SOL    HW230924   5.098   1.401   3.182
10009SOL     OW30925   2.080   4.195   2.081
10009SOL    HW130926   2.089   4.283   2.127
10009SOL    HW230927   2.170   4.160   2.056
10010SOL     OW30928   2.502   6.101   0.429
10010SOL    HW130929   2.500   6.027   0.363
10010SOL    HW230930   2.419   6.156   0.420
10011SOL     OW30931   0.174   4.291   6.913
10011SOL    HW130932   0.228   4.369   6.942
10011SOL    HW230933   0.234   4.222   6.872
10012SOL     OW30934   5.285   6.973   2.219
10012SOL    HW130935   5.375   6.936   2.240
10012SOL    HW230936   5.251   0.007   2.296
10013SOL     OW30937   1.448   3.031   3.927
10013SOL    HW130938   1.359   3.010   3.967
10013SOL    HW230939   1.492   3.105   3.979
10014SOL     OW30940   1.261   0.432   1.864
10014SOL    HW130941   1.198   0.440   1.942
10014SOL    HW230942   1.264   0.519   1.815
10015SOL     OW30943   4.247   5.306   0.429
10015SOL    HW130944   4.161   5.308   0.378
10015SOL    HW230945   4.284   5.213   0.426
10016SOL     OW30946   2.515   1.033   4.597
10016SOL    HW130947   2.582   0.988   4.539
10016SOL    HW230948   2.562   1.085   4.668
10017SOL     OW30949   1.572   1.698   2.835
10017SOL    HW130950   1.478   1.725   2.856
10017SOL    HW230951   1.578   1.672   2.739
10018SOL     OW30952   6.955   4.769   5.783
10018SOL    HW130953   7.003   4.727   5.860
10018SOL    HW230954   6.860   4.740   5.783
10019SOL     OW30955   6.985   1.535   3.104
10019SOL    HW130956   6.923   1.612   3.090
10019SOL    HW230957   7.018   1.503   3.015
10020SOL     OW30958   0.200   1.205   1.810
10020SOL    HW130959   0.144   1.147   1.868
10020SOL    HW230960   0.144   1.246   1.738
10021SOL     OW30961   0.680   3.062   2.841
10021SOL    HW130962   0.767   3.109   2.856
10021SOL    HW230963   0.618   3.123   2.791
10022SOL     OW30964   3.447   6.296   0.514
10022SOL    HW130965   3.455   6.197   0.506
10022SOL    HW230966   3.527   6.332   0.562
10023SOL     OW30967   2.121   5.619   4.661
10023SOL    HW130968   2.132   5.527   4.698
10023SOL    HW230969   2.142   5.686   4.732
10024SOL     OW30970   1.139   5.806   2.478
10024SOL    HW130971   1.215   5.866   2.506
10024SOL    HW230972   1.108   5.832   2.387
10025SOL     OW30973   1.061   2.955   2.392
10025SOL    HW130974   1.094   2.968   2.299
10025SOL    HW230975   1.138   2.934   2.453
10026SOL     OW30976   5.272   0.219   3.396
10026SOL    HW130977   5.289   0.315   3.376
10026SOL    HW230978   5.352   0.165   3.372
10027SOL     OW30979   0.458   2.428   4.843
10027SOL    HW130980   0.367   2.449   4.806
10027SOL    HW230981   0.490   2.341   4.805
10028SOL     OW30982   1.980   1.501   2.130
10028SOL    HW130983   1.950   1.541   2.044
10028SOL    HW230984   2.050   1.432   2.112
10029SOL     OW30985   1.807   2.613   3.716
10029SOL    HW130986   1.737   2.610   3.788
10029SOL    HW230987   1.821   2.520   3.680
10030SOL     OW30988   3.323   0.276   5.251
10030SOL    HW130989   3.270   0.360   5.245
10030SOL    HW230990   3.385   0.281   5.330
10031SOL     OW30991   5.166   4.632   4.831
10031SOL    HW130992   5.206   4.561   4.774
10031SOL    HW230993   5.184   4.722   4.790
10032SOL     OW30994   4.753   0.682   5.730
10032SOL    HW130995   4.720   0.737   5.654
10032SOL    HW230996   4.779   0.591   5.696
10033SOL     OW30997   4.644   2.647   4.273
10033SOL    HW130998   4.606   2.570   4.323
10033SOL    HW230999   4.742   2.633   4.260
10034SOL     OW31000   2.890   0.339   4.006
10034SOL    HW131001   2.839   0.326   3.921
10034SOL    HW231002   2.983   0.304   3.995
10035SOL     OW31003   6.741   4.899   0.818
10035SOL    HW131004   6.729   4.902   0.718
10035SOL    HW231005   6.740   4.993   0.853
10036SOL     OW31006   6.740   0.723   0.892
10036SOL    HW131007   6.790   0.767   0.966
10036SOL    HW231008   6.677   0.788   0.850
10037SOL     OW31009   6.402   0.638   0.441
10037SOL    HW131010   6.422   0.596   0.352
10037SOL    HW231011   6.451   0.724   0.449
10038SOL     OW31012   4.412   6.964   6.781
10038SOL    HW131013   4.356   6.884   6.759
10038SOL    HW231014   4.405   6.983   6.879
10039SOL     OW31015   4.844   6.499   5.495
10039SOL    HW131016   4.890   6.487   5.407
10039SOL    HW231017   4.756   6.452   5.492
10040SOL     OW31018   4.240   5.676   6.193
10040SOL    HW131019   4.144   5.658   6.214
10040SOL    HW231020   4.250   5.693   6.095
10041SOL     OW31021   5.095   5.726   6.422
10041SOL    HW131022   5.094   5.709   6.520
10041SOL    HW231023   5.185   5.761   6.395
10042SOL     OW31024   0.849   1.857   5.054
10042SOL    HW131025   0.793   1.819   5.127
10042SOL    HW231026   0.942   1.820   5.061
10043SOL     OW31027   0.130   1.632   4.429
10043SOL    HW131028   0.035   1.646   4.456
10043SOL    HW231029   0.143   1.664   4.335
10044SOL     OW31030   2.559   2.451   3.499
10044SOL    HW131031   2.550   2.462   3.598
10044SOL    HW231032   2.649   2.414   3.477
10045SOL     OW31033   5.088   6.864   3.659
10045SOL    HW131034   5.051   6.956   3.673
10045SOL    HW231035   5.021   6.808   3.610
10046SOL     OW31036   1.333   3.349   1.547
10046SOL    HW131037   1.367   3.431   1.594
10046SOL    HW231038   1.408   3.304   1.499
10047SOL     OW31039   5.951   3.916   4.796
10047SOL    HW131040   5.964   3.828   4.842
10047SOL    HW231041   5.854   3.939   4.794
10048SOL     OW31042   4.437   2.020   2.209
10048SOL    HW131043   4.498   2.052   2.281
10048SOL    HW231044   4.425   1.921   2.216
10049SOL     OW31045   0.489   0.500   6.576
10049SOL    HW131046   0.426   0.483   6.652
10049SOL    HW231047   0.462   0.584   6.529
10050SOL     OW31048   6.457   2.388   5.296
10050SOL    HW131049   6.399   2.452   5.246
10050SOL    HW231050   6.519   2.343   5.232
10051SOL     OW31051   6.336   2.156   5.418
10051SOL    HW131052   6.259   2.135   5.358
10051SOL    HW231053   6.380   2.240   5.388
10052SOL     OW31054   3.134   2.123   2.895
10052SOL    HW131055   3.216   2.100   2.843
10052SOL    HW231056   3.057   2.134   2.833
10053SOL     OW31057   3.617   5.779   1.833
10053SOL    HW131058   3.684   5.758   1.761
10053SOL    HW231059   3.653   5.749   1.921
10054SOL     OW31060   4.627   5.350   6.215
10054SOL    HW131061   4.608   5.439   6.256
10054SOL    HW231062   4.618   5.356   6.116
10055SOL     OW31063   6.104   2.420   5.231
10055SOL    HW131064   6.131   2.429   5.327
10055SOL    HW231065   6.093   2.323   5.209
10056SOL     OW31066   5.666   4.935   1.108
10056SOL    HW131067   5.760   4.913   1.131
10056SOL    HW231068   5.605   4.908   1.183
10057SOL     OW31069   3.662   1.996   4.498
10057SOL    HW131070   3.706   2.053   4.429
10057SOL    HW231071   3.584   2.045   4.537
10058SOL     OW31072   0.822   3.755   4.629
10058SOL    HW131073   0.755   3.820   4.593
10058SOL    HW231074   0.873   3.715   4.553
10059SOL     OW31075   5.342   6.290   1.188
10059SOL    HW131076   5.405   6.331   1.255
10059SOL    HW231077   5.344   6.190   1.199
10060SOL     OW31078   1.874   1.639   1.894
10060SOL    HW131079   1.789   1.637   1.947
10060SOL    HW231080   1.853   1.634   1.797
10061SOL     OW31081   5.714   1.492   4.884
10061SOL    HW131082   5.721   1.392   4.883
10061SOL    HW231083   5.803   1.532   4.863
10062SOL     OW31084   6.661   0.024   4.116
10062SOL    HW131085   6.640   0.017   4.213
10062SOL    HW231086   6.721   0.102   4.100
10063SOL     OW31087   1.647   1.231   3.824
10063SOL    HW131088   1.697   1.312   3.793
10063SOL    HW231089   1.606   1.250   3.913
10064SOL     OW31090   5.362   6.140   0.055
10064SOL    HW131091   5.298   6.208   0.018
10064SOL    HW231092   5.413   6.098   7.000
10065SOL     OW31093   2.089   6.659   2.634
10065SOL    HW131094   2.016   6.700   2.688
10065SOL    HW231095   2.157   6.619   2.695
10066SOL     OW31096   0.635   1.034   3.341
10066SOL    HW131097   0.686   0.970   3.283
10066SOL    HW231098   0.538   1.030   3.316
10067SOL     OW31099   6.225   4.389   5.025
10067SOL    HW131100   6.316   4.411   4.991
10067SOL    HW231101   6.233   4.321   5.098
10068SOL     OW31102   6.625   2.898   2.781
10068SOL    HW131103   6.703   2.868   2.726
10068SOL    HW231104   6.545   2.911   2.722
10069SOL     OW31105   1.894   5.477   3.831
10069SOL    HW131106   1.801   5.496   3.861
10069SOL    HW231107   1.933   5.404   3.886
10070SOL     OW31108   6.584   0.150   4.969
10070SOL    HW131109   6.578   0.246   4.999
10070SOL    HW231110   6.523   0.095   5.025
10071SOL     OW31111   6.205   5.454   3.785
10071SOL    HW131112   6.256   5.393   3.846
10071SOL    HW231113   6.144   5.512   3.838
10072SOL     OW31114   0.545   6.460   3.786
10072SOL    HW131115   0.482   6.383   3.775
10072SOL    HW231116   0.639   6.428   3.770
10073SOL     OW31117   6.005   4.756   5.150
10073SOL    HW131118   6.015   4.683   5.083
10073SOL    HW231119   6.070   4.741   5.225
10074SOL     OW31120   1.375   0.839   5.291
10074SOL    HW131121   1.285   0.805   5.317
10074SOL    HW231122   1.367   0.896   5.209
10075SOL     OW31123   1.212   3.010   3.369
10075SOL    HW131124   1.152   2.962   3.433
10075SOL    HW231125   1.181   2.991   3.275
10076SOL     OW31126   6.788   0.239   3.220
10076SOL    HW131127   6.865   0.199   3.269
10076SOL    HW231128   6.769   0.330   3.256
10077SOL     OW31129   3.758   3.068   6.060
10077SOL    HW131130   3.811   3.063   5.975
10077SOL    HW231131   3.695   2.991   6.065
10078SOL     OW31132   0.198   5.701   3.625
10078SOL    HW131133   0.153   5.719   3.713
10078SOL    HW231134   0.297   5.692   3.640
10079SOL     OW31135   0.300   3.906   2.158
10079SOL    HW131136   0.307   3.814   2.119
10079SOL    HW231137   0.331   3.973   2.090
10080SOL     OW31138   3.459   1.176   5.254
10080SOL    HW131139   3.413   1.262   5.233
10080SOL    HW231140   3.464   1.120   5.171
10081SOL     OW31141   0.086   6.849   0.736
10081SOL    HW131142   0.090   6.918   0.808
10081SOL    HW231143   0.165   6.860   0.675
10082SOL     OW31144   0.160   4.769   1.898
10082SOL    HW131145   0.193   4.848   1.949
10082SOL    HW231146   0.236   4.730   1.845
10083SOL     OW31147   5.187   0.455   3.167
10083SOL    HW131148   5.192   0.355   3.165
10083SOL    HW231149   5.237   0.492   3.089
10084SOL     OW31150   2.796   1.098   5.902
10084SOL    HW131151   2.869   1.101   5.833
10084SOL    HW231152   2.835   1.112   5.992
10085SOL     OW31153   1.466   6.204   2.042
10085SOL    HW131154   1.551   6.236   2.000
10085SOL    HW231155   1.484   6.171   2.134
10086SOL     OW31156   5.512   5.571   2.256
10086SOL    HW131157   5.507   5.545   2.159
10086SOL    HW231158   5.600   5.542   2.293
10087SOL     OW31159   0.283   0.029   3.730
10087SOL    HW131160   0.242   0.089   3.798
10087SOL    HW231161   0.333   0.083   3.663
10088SOL     OW31162   6.665   0.055   0.511
10088SOL    HW131163   6.603   0.091   0.581
10088SOL    HW231164   6.650   0.104   0.425
10089SOL     OW31165   3.146   2.075   2.358
10089SOL    HW131166   3.177   1.980   2.353
10089SOL    HW231167   3.086   2.095   2.280
10090SOL     OW31168   1.084   4.801   1.093
10090SOL    HW131169   1.114   4.706   1.082
10090SOL    HW231170   0.994   4.802   1.137
10091SOL     OW31171   1.352   3.745   5.544
10091SOL    HW131172   1.452   3.742   5.546
10091SOL    HW231173   1.316   3.652   5.536
10092SOL     OW31174   1.964   3.001   4.994
10092SOL    HW131175   1.972   3.052   5.080
10092SOL    HW231176   2.054   2.991   4.952
10093SOL     OW31177   6.751   3.644   4.942
10093SOL    HW131178   6.670   3.678   4.894
10093SOL    HW231179   6.753   3.684   5.034
10094SOL     OW31180   2.105   5.615   1.873
10094SOL    HW131181   2.008   5.638   1.872
10094SOL    HW231182   2.130   5.581   1.964
10095SOL     OW31183   5.922   1.393   5.153
10095SOL    HW131184   5.971   1.383   5.066
10095SOL    HW231185   5.891   1.488   5.163
10096SOL     OW31186   5.264   4.863   2.279
10096SOL    HW131187   5.362   4.843   2.273
10096SOL    HW231188   5.220   4.792   2.334
10097SOL     OW31189   0.855   0.875   0.789
10097SOL    HW131190   0.826   0.943   0.721
10097SOL    HW231191   0.823   0.785   0.761
10098SOL     OW31192   2.843   0.846   4.875
10098SOL    HW131193   2.914   0.809   4.934
10098SOL    HW231194   2.787   0.910   4.927
10099SOL     OW31195   0.009   5.044   1.267
10099SOL    HW131196   6.991   5.042   1.360
10099SOL    HW231197   0.041   4.953   1.241
10100SOL     OW31198   5.016   0.254   4.892
10100SOL    HW131199   5.093   0.274   4.831
10100SOL    HW231200   4.957   0.185   4.850
10101SOL     OW31201   6.053   4.190   1.637
10101SOL    HW131202   5.990   4.267   1.650
10101SOL    HW231203   6.127   4.217   1.575
10102SOL     OW31204   1.445   0.928   1.811
10102SOL    HW131205   1.371   0.981   1.770
10102SOL    HW231206   1.499   0.987   1.871
10103SOL     OW31207   2.477   1.215   6.526
10103SOL    HW131208   2.421   1.267   6.461
10103SOL    HW231209   2.539   1.154   6.476
10104SOL     OW31210   1.690   2.145   3.988
10104SOL    HW131211   1.616   2.096   3.943
10104SOL    HW231212   1.708   2.104   4.077
10105SOL     OW31213   1.437   0.885   0.612
10105SOL    HW131214   1.475   0.834   0.689
10105SOL    HW231215   1.417   0.821   0.537
10106SOL     OW31216   4.209   6.634   0.810
10106SOL    HW131217   4.185   6.725   0.778
10106SOL    HW231218   4.300   6.609   0.778
10107SOL     OW31219   6.936   1.098   6.635
10107SOL    HW131220   6.874   1.069   6.562
10107SOL    HW231221   0.008   1.109   6.598
10108SOL     OW31222   6.653   6.574   0.517
10108SOL    HW131223   6.723   6.636   0.553
10108SOL    HW231224   6.604   6.532   0.593
10109SOL     OW31225   4.863   0.397   0.677
10109SOL    HW131226   4.822   0.402   0.586
10109SOL    HW231227   4.798   0.355   0.740
10110SOL     OW31228   4.158   6.227   4.666
10110SOL    HW131229   4.125   6.138   4.697
10110SOL    HW231230   4.221   6.215   4.589
10111SOL     OW31231   5.192   3.601   3.400
10111SOL    HW131232   5.104   3.570   3.437
10111SOL    HW231233   5.188   3.699   3.381
10112SOL     OW31234   5.593   3.746   3.621
10112SOL    HW131235   5.544   3.825   3.658
10112SOL    HW231236   5.624   3.687   3.695
10113SOL     OW31237   4.445   0.275   5.945
10113SOL    HW131238   4.476   0.331   5.869
10113SOL    HW231239   4.458   0.325   6.031
10114SOL     OW31240   6.185   1.407   0.595
10114SOL    HW131241   6.267   1.409   0.652
10114SOL    HW231242   6.105   1.394   0.654
10115SOL     OW31243   3.890   1.502   4.305
10115SOL    HW131244   3.863   1.481   4.399
10115SOL    HW231245   3.983   1.469   4.289
10116SOL     OW31246   0.251   5.652   0.675
10116SOL    HW131247   0.258   5.748   0.646
10116SOL    HW231248   0.155   5.626   0.680
10117SOL     OW31249   6.610   5.972   5.633
10117SOL    HW131250   6.566   5.920   5.560
10117SOL    HW231251   6.582   5.936   5.722
10118SOL     OW31252   1.975   5.078   2.923
10118SOL    HW131253   1.963   5.164   2.873
10118SOL    HW231254   1.960   5.094   3.020
10119SOL     OW31255   0.731   5.912   4.337
10119SOL    HW131256   0.727   5.870   4.427
10119SOL    HW231257   0.715   6.010   4.345
10120SOL     OW31258   1.795   4.021   4.904
10120SOL    HW131259   1.695   4.020   4.909
10120SOL    HW231260   1.824   4.089   4.837
10121SOL     OW31261   6.506   4.231   6.592
10121SOL    HW131262   6.407   4.244   6.602
10121SOL    HW231263   6.550   4.319   6.575
10122SOL     OW31264   6.237   3.272   1.293
10122SOL    HW131265   6.240   3.281   1.392
10122SOL    HW231266   6.190   3.187   1.268
10123SOL     OW31267   5.698   6.930   0.043
10123SOL    HW131268   5.727   7.001   0.107
10123SOL    HW231269   5.599   6.928   0.037
10124SOL     OW31270   1.481   3.970   0.018
10124SOL    HW131271   1.552   4.030   0.053
10124SOL    HW231272   1.429   4.017   6.966
10125SOL     OW31273   1.892   1.475   2.380
10125SOL    HW131274   1.939   1.489   2.293
10125SOL    HW231275   1.929   1.394   2.426
10126SOL     OW31276   0.414   6.940   6.058
10126SOL    HW131277   0.437   6.882   6.136
10126SOL    HW231278   0.355   6.890   5.995
10127SOL     OW31279   2.733   4.771   6.387
10127SOL    HW131280   2.777   4.736   6.469
10127SOL    HW231281   2.802   4.809   6.326
10128SOL     OW31282   2.401   1.255   1.474
10128SOL    HW131283   2.304   1.231   1.472
10128SOL    HW231284   2.446   1.222   1.391
10129SOL     OW31285   5.695   1.885   2.386
10129SOL    HW131286   5.609   1.933   2.400
10129SOL    HW231287   5.770   1.951   2.383
10130SOL     OW31288   1.382   3.602   1.689
10130SOL    HW131289   1.312   3.597   1.761
10130SOL    HW231290   1.406   3.697   1.672
10131SOL     OW31291   1.320   6.849   4.245
10131SOL    HW131292   1.244   6.898   4.288
10131SOL    HW231293   1.353   6.900   4.166
10132SOL     OW31294   3.294   0.074   5.066
10132SOL    HW131295   3.316   0.144   5.134
10132SOL    HW231296   3.323   0.104   4.976
10133SOL     OW31297   3.770   6.541   1.088
10133SOL    HW131298   3.762   6.477   1.165
10133SOL    HW231299   3.684   6.544   1.037
10134SOL     OW31300   0.154   6.425   3.676
10134SOL    HW131301   0.179   6.480   3.755
10134SOL    HW231302   0.149   6.483   3.595
10135SOL     OW31303   4.951   3.470   3.467
10135SOL    HW131304   4.943   3.436   3.561
10135SOL    HW231305   4.927   3.397   3.403
10136SOL     OW31306   5.292   0.512   2.886
10136SOL    HW131307   5.293   0.516   2.786
10136SOL    HW231308   5.377   0.473   2.920
10137SOL     OW31309   6.223   4.058   4.122
10137SOL    HW131310   6.229   4.152   4.157
10137SOL    HW231311   6.236   4.058   4.023
10138SOL     OW31312   5.100   3.337   0.745
10138SOL    HW131313   5.035   3.270   0.708
10138SOL    HW231314   5.052   3.401   0.804
10139SOL     OW31315   3.105   4.005   3.060
10139SOL    HW131316   3.145   3.914   3.049
10139SOL    HW231317   3.062   4.033   2.975
10140SOL     OW31318   5.832   6.275   6.993
10140SOL    HW131319   5.799   6.279   0.068
10140SOL    HW231320   5.811   6.362   6.947
10141SOL     OW31321   3.817   1.703   5.154
10141SOL    HW131322   3.826   1.664   5.062
10141SOL    HW231323   3.783   1.633   5.217
10142SOL     OW31324   6.350   6.389   5.071
10142SOL    HW131325   6.307   6.376   5.160
10142SOL    HW231326   6.420   6.460   5.078
10143SOL     OW31327   4.909   1.223   6.506
10143SOL    HW131328   4.895   1.274   6.420
10143SOL    HW231329   4.831   1.238   6.566
10144SOL     OW31330   3.714   0.470   6.590
10144SOL    HW131331   3.688   0.376   6.570
10144SOL    HW231332   3.654   0.508   6.660
10145SOL     OW31333   2.423   5.506   4.426
10145SOL    HW131334   2.349   5.459   4.472
10145SOL    HW231335   2.460   5.577   4.486
10146SOL     OW31336   4.340   4.673   4.764
10146SOL    HW131337   4.359   4.599   4.828
10146SOL    HW231338   4.294   4.748   4.812
10147SOL     OW31339   4.927   3.895   5.401
10147SOL    HW131340   4.921   3.941   5.489
10147SOL    HW231341   5.014   3.845   5.395
10148SOL     OW31342   5.170   5.052   6.796
10148SOL    HW131343   5.190   5.150   6.798
10148SOL    HW231344   5.073   5.037   6.817
10149SOL     OW31345   5.894   3.398   0.434
10149SOL    HW131346   5.949   3.328   0.388
10149SOL    HW231347   5.951   3.449   0.498
10150SOL     OW31348   3.719   3.831   0.067
10150SOL    HW131349   3.665   3.823   0.152
10150SOL    HW231350   3.675   3.898   0.007
10151SOL     OW31351   0.911   6.271   6.943
10151SOL    HW131352   0.846   6.344   6.966
10151SOL    HW231353   0.884   6.230   6.856
10152SOL     OW31354   6.723   6.009   4.389
10152SOL    HW131355   6.775   6.090   4.362
10152SOL    HW231356   6.772   5.960   4.460
10153SOL     OW31357   4.870   6.068   3.812
10153SOL    HW131358   4.850   6.165   3.798
10153SOL    HW231359   4.840   6.015   3.733
10154SOL     OW31360   4.652   6.858   5.764
10154SOL    HW131361   4.555   6.853   5.738
10154SOL    HW231362   4.709   6.846   5.683
10155SOL     OW31363   3.882   2.339   5.592
10155SOL    HW131364   3.939   2.413   5.557
10155SOL    HW231365   3.884   2.339   5.692
10156SOL     OW31366   5.675   0.712   2.610
10156SOL    HW131367   5.611   0.682   2.539
10156SOL    HW231368   5.730   0.634   2.641
10157SOL     OW31369   6.826   1.838   1.085
10157SOL    HW131370   6.845   1.925   1.129
10157SOL    HW231371   6.745   1.796   1.127
10158SOL     OW31372   5.840   5.025   0.363
10158SOL    HW131373   5.816   5.121   0.374
10158SOL    HW231374   5.791   4.970   0.431
10159SOL     OW31375   2.293   3.583   0.037
10159SOL    HW131376   2.336   3.503   7.016
10159SOL    HW231377   2.194   3.569   0.042
10160SOL     OW31378   1.851   2.891   2.374
10160SOL    HW131379   1.866   2.944   2.291
10160SOL    HW231380   1.910   2.926   2.447
10161SOL     OW31381   2.907   2.760   0.369
10161SOL    HW131382   2.969   2.753   0.447
10161SOL    HW231383   2.934   2.693   0.299
10162SOL     OW31384   3.568   4.563   0.830
10162SOL    HW131385   3.555   4.468   0.859
10162SOL    HW231386   3.660   4.593   0.854
10163SOL     OW31387   6.180   4.338   6.696
10163SOL    HW131388   6.086   4.362   6.672
10163SOL    HW231389   6.179   4.265   6.765
10164SOL     OW31390   6.139   3.739   4.436
10164SOL    HW131391   6.232   3.770   4.458
10164SOL    HW231392   6.142   3.670   4.365
10165SOL     OW31393   6.879   1.834   3.124
10165SOL    HW131394   6.814   1.802   3.056
10165SOL    HW231395   6.943   1.898   3.081
10166SOL     OW31396   3.250   1.894   2.086
10166SOL    HW131397   3.166   1.933   2.123
10166SOL    HW231398   3.317   1.967   2.072
10167SOL     OW31399   2.216   4.071   6.758
10167SOL    HW131400   2.269   3.991   6.730
10167SOL    HW231401   2.142   4.042   6.820
10168SOL     OW31402   5.940   3.107   6.323
10168SOL    HW131403   5.925   3.188   6.268
10168SOL    HW231404   6.038   3.088   6.328
10169SOL     OW31405   6.736   4.501   3.798
10169SOL    HW131406   6.814   4.498   3.736
10169SOL    HW231407   6.738   4.421   3.857
10170SOL     OW31408   0.112   5.718   5.893
10170SOL    HW131409   0.016   5.739   5.874
10170SOL    HW231410   0.154   5.680   5.810
10171SOL     OW31411   6.862   2.516   4.868
10171SOL    HW131412   6.793   2.474   4.927
10171SOL    HW231413   6.887   2.451   4.795
10172SOL     OW31414   6.990   5.625   4.811
10172SOL    HW131415   0.058   5.662   4.842
10172SOL    HW231416   6.921   5.697   4.813
10173SOL     OW31417   1.480   2.991   0.585
10173SOL    HW131418   1.538   2.995   0.503
10173SOL    HW231419   1.395   2.943   0.562
10174SOL     OW31420   5.315   4.807   3.303
10174SOL    HW131421   5.398   4.751   3.297
10174SOL    HW231422   5.239   4.751   3.336
10175SOL     OW31423   6.055   1.372   3.872
10175SOL    HW131424   6.015   1.305   3.811
10175SOL    HW231425   5.984   1.410   3.931
10176SOL     OW31426   0.517   3.702   4.905
10176SOL    HW131427   0.546   3.786   4.950
10176SOL    HW231428   0.425   3.713   4.867
10177SOL     OW31429   2.626   0.688   1.309
10177SOL    HW131430   2.595   0.667   1.402
10177SOL    HW231431   2.626   0.605   1.255
10178SOL     OW31432   0.910   0.799   5.916
10178SOL    HW131433   0.921   0.834   5.823
10178SOL    HW231434   0.999   0.776   5.954
10179SOL     OW31435   0.815   2.599   6.684
10179SOL    HW131436   0.850   2.506   6.692
10179SOL    HW231437   0.782   2.614   6.591
10180SOL     OW31438   4.247   0.685   5.936
10180SOL    HW131439   4.297   0.747   5.997
10180SOL    HW231440   4.248   0.593   5.974
10181SOL     OW31441   6.639   3.280   1.078
10181SOL    HW131442   6.728   3.239   1.056
10181SOL    HW231443   6.589   3.297   0.993
10182SOL     OW31444   4.590   1.048   1.866
10182SOL    HW131445   4.591   0.984   1.943
10182SOL    HW231446   4.534   1.011   1.793
10183SOL     OW31447   0.230   2.999   6.593
10183SOL    HW131448   0.166   2.970   6.522
10183SOL    HW231449   0.262   2.919   6.644
10184SOL     OW31450   4.287   1.415   5.792
10184SOL    HW131451   4.307   1.509   5.818
10184SOL    HW231452   4.287   1.356   5.873
10185SOL     OW31453   6.289   5.942   2.704
10185SOL    HW131454   6.338   5.893   2.776
10185SOL    HW231455   6.233   6.014   2.746
10186SOL     OW31456   5.671   3.423   4.019
10186SOL    HW131457   5.610   3.344   4.027
10186SOL    HW231458   5.747   3.401   3.958
10187SOL     OW31459   1.231   3.416   0.622
10187SOL    HW131460   1.312   3.465   0.588
10187SOL    HW231461   1.252   3.374   0.710
10188SOL     OW31462   4.025   5.485   0.655
10188SOL    HW131463   3.951   5.530   0.705
10188SOL    HW231464   4.056   5.405   0.707
10189SOL     OW31465   1.062   1.064   5.909
10189SOL    HW131466   1.159   1.087   5.908
10189SOL    HW231467   1.023   1.081   5.819
10190SOL     OW31468   5.024   3.475   2.103
10190SOL    HW131469   4.955   3.493   2.033
10190SOL    HW231470   5.087   3.552   2.109
10191SOL     OW31471   4.814   6.058   6.489
10191SOL    HW131472   4.768   6.144   6.467
10191SOL    HW231473   4.865   6.026   6.409
10192SOL     OW31474   4.332   1.543   4.765
10192SOL    HW131475   4.351   1.456   4.809
10192SOL    HW231476   4.308   1.611   4.834
10193SOL     OW31477   4.046   3.111   1.902
10193SOL    HW131478   4.115   3.046   1.936
10193SOL    HW231479   3.983   3.134   1.976
10194SOL     OW31480   5.697   6.190   5.477
10194SOL    HW131481   5.700   6.137   5.392
10194SOL    HW231482   5.789   6.220   5.501
10195SOL     OW31483   5.922   5.939   0.467
10195SOL    HW131484   5.954   5.917   0.375
10195SOL    HW231485   5.824   5.923   0.473
10196SOL     OW31486   4.790   2.078   3.661
10196SOL    HW131487   4.849   2.034   3.729
10196SOL    HW231488   4.827   2.065   3.570
10197SOL     OW31489   5.784   1.258   5.334
10197SOL    HW131490   5.818   1.309   5.255
10197SOL    HW231491   5.754   1.168   5.304
10198SOL     OW31492   2.713   6.532   2.653
10198SOL    HW131493   2.778   6.462   2.685
10198SOL    HW231494   2.745   6.622   2.681
10199SOL     OW31495   2.129   3.712   0.634
10199SOL    HW131496   2.062   3.647   0.669
10199SOL    HW231497   2.094   3.805   0.646
10200SOL     OW31498   4.958   2.497   6.630
10200SOL    HW131499   4.916   2.583   6.657
10200SOL    HW231500   4.966   2.493   6.530
10201SOL     OW31501   1.464   5.070   0.699
10201SOL    HW131502   1.563   5.058   0.684
10201SOL    HW231503   1.444   5.059   0.797
10202SOL     OW31504   3.511   4.755   1.205
10202SOL    HW131505   3.570   4.710   1.139
10202SOL    HW231506   3.566   4.786   1.283
10203SOL     OW31507   6.417   2.468   2.738
10203SOL    HW131508   6.366   2.514   2.810
10203SOL    HW231509   6.392   2.506   2.649
10204SOL     OW31510   5.061   6.222   0.497
10204SOL    HW131511   5.052   6.174   0.409
10204SOL    HW231512   5.084   6.156   0.568
10205SOL     OW31513   2.221   0.428   2.140
10205SOL    HW131514   2.303   0.395   2.093
10205SOL    HW231515   2.176   0.497   2.085
10206SOL     OW31516   6.307   0.638   6.759
10206SOL    HW131517   6.371   0.625   6.684
10206SOL    HW231518   6.251   0.556   6.770
10207SOL     OW31519   1.101   1.835   6.898
10207SOL    HW131520   1.100   1.739   6.926
10207SOL    HW231521   1.025   1.883   6.941
10208SOL     OW31522   6.371   4.572   3.956
10208SOL    HW131523   6.386   4.565   3.857
10208SOL    HW231524   6.457   4.555   4.004
10209SOL     OW31525   0.336   6.937   0.566
10209SOL    HW131526   0.352   0.013   0.590
10209SOL    HW231527   0.395   6.878   0.620
10210SOL     OW31528   4.540   0.094   2.051
10210SOL    HW131529   4.470   0.160   2.078
10210SOL    HW231530   4.534   0.013   2.108
10211SOL     OW31531   4.187   6.532   4.795
10211SOL    HW131532   4.243   6.455   4.827
10211SOL    HW231533   4.219   6.616   4.838
10212SOL     OW31534   0.311   0.520   5.360
10212SOL    HW131535   0.262   0.606   5.344
10212SOL    HW231536   0.247   0.450   5.390
10213SOL     OW31537   5.835   2.646   1.321
10213SOL    HW131538   5.892   2.608   1.248
10213SOL    HW231539   5.878   2.628   1.409
10214SOL     OW31540   0.587   1.583   1.761
10214SOL    HW131541   0.499   1.628   1.742
10214SOL    HW231542   0.620   1.611   1.851
10215SOL     OW31543   3.981   3.104   3.472
10215SOL    HW131544   3.956   3.013   3.506
10215SOL    HW231545   4.006   3.163   3.549
10216SOL     OW31546   0.338   1.265   1.399
10216SOL    HW131547   0.293   1.304   1.319
10216SOL    HW231548   0.370   1.338   1.459
10217SOL     OW31549   3.017   1.277   3.009
10217SOL    HW131550   2.997   1.243   2.917
10217SOL    HW231551   2.981   1.212   3.076
10218SOL     OW31552   1.359   1.645   1.949
10218SOL    HW131553   1.434   1.710   1.948
10218SOL    HW231554   1.367   1.585   2.029
10219SOL     OW31555   0.160   1.530   3.515
10219SOL    HW131556   0.123   1.591   3.585
10219SOL    HW231557   0.257   1.549   3.501
10220SOL     OW31558   4.954   1.685   0.644
10220SOL    HW131559   5.041   1.637   0.650
10220SOL    HW231560   4.961   1.773   0.692
10221SOL     OW31561   1.271   4.405   3.971
10221SOL    HW131562   1.319   4.328   4.013
10221SOL    HW231563   1.176   4.379   3.952
10222SOL     OW31564   3.084   4.081   5.336
10222SOL    HW131565   2.989   4.056   5.319
10222SOL    HW231566   3.121   4.023   5.408
10223SOL     OW31567   1.912   4.532   1.261
10223SOL    HW131568   1.979   4.588   1.212
10223SOL    HW231569   1.960   4.463   1.316
10224SOL     OW31570   5.930   3.220   5.697
10224SOL    HW131571   5.979   3.135   5.681
10224SOL    HW231572   5.881   3.247   5.614
10225SOL     OW31573   1.020   5.363   5.584
10225SOL    HW131574   0.924   5.362   5.554
10225SOL    HW231575   1.044   5.455   5.616
10226SOL     OW31576   2.494   0.377   5.904
10226SOL    HW131577   2.406   0.424   5.904
10226SOL    HW231578   2.481   0.282   5.877
10227SOL     OW31579   5.628   5.052   0.868
10227SOL    HW131580   5.651   4.998   0.949
10227SOL    HW231581   5.702   5.117   0.850
10228SOL     OW31582   0.365   6.314   1.867
10228SOL    HW131583   0.443   6.341   1.924
10228SOL    HW231584   0.339   6.390   1.808
10229SOL     OW31585   1.684   3.038   4.766
10229SOL    HW131586   1.732   3.125   4.780
10229SOL    HW231587   1.694   2.981   4.848
10230SOL     OW31588   5.964   6.361   3.089
10230SOL    HW131589   6.008   6.273   3.072
10230SOL    HW231590   5.866   6.348   3.100
10231SOL     OW31591   6.736   4.832   5.293
10231SOL    HW131592   6.658   4.863   5.347
10231SOL    HW231593   6.820   4.844   5.346
10232SOL     OW31594   3.336   1.390   3.595
10232SOL    HW131595   3.422   1.414   3.640
10232SOL    HW231596   3.260   1.419   3.652
10233SOL     OW31597   3.918   4.021   4.899
10233SOL    HW131598   3.913   4.119   4.922
10233SOL    HW231599   3.892   4.008   4.804
10234SOL     OW31600   6.247   1.020   0.948
10234SOL    HW131601   6.195   1.093   0.904
10234SOL    HW231602   6.254   0.942   0.886
10235SOL     OW31603   2.696   2.408   1.224
10235SOL    HW131604   2.770   2.436   1.163
10235SOL    HW231605   2.669   2.486   1.281
10236SOL     OW31606   2.401   0.936   0.279
10236SOL    HW131607   2.424   0.895   0.191
10236SOL    HW231608   2.337   1.012   0.265
10237SOL     OW31609   0.946   4.035   6.479
10237SOL    HW131610   0.859   4.075   6.508
10237SOL    HW231611   0.929   3.950   6.430
10238SOL     OW31612   3.836   4.284   1.711
10238SOL    HW131613   3.759   4.330   1.668
10238SOL    HW231614   3.808   4.246   1.799
10239SOL     OW31615   1.874   3.133   5.474
10239SOL    HW131616   1.883   3.232   5.487
10239SOL    HW231617   1.907   3.085   5.555
10240SOL     OW31618   1.980   4.914   2.402
10240SOL    HW131619   2.034   4.988   2.443
10240SOL    HW231620   1.965   4.934   2.305
10241SOL     OW31621   6.885   6.505   3.119
10241SOL    HW131622   6.982   6.519   3.100
10241SOL    HW231623   6.864   6.536   3.212
10242SOL     OW31624   0.211   1.309   0.757
10242SOL    HW131625   0.229   1.402   0.725
10242SOL    HW231626   0.201   1.247   0.679
10243SOL     OW31627   2.037   4.434   2.236
10243SOL    HW131628   2.080   4.367   2.297
10243SOL    HW231629   2.066   4.526   2.262
10244SOL     OW31630   1.727   4.484   0.587
10244SOL    HW131631   1.735   4.580   0.558
10244SOL    HW231632   1.812   4.456   0.630
10245SOL     OW31633   3.485   3.753   1.428
10245SOL    HW131634   3.542   3.738   1.508
10245SOL    HW231635   3.391   3.726   1.449
10246SOL     OW31636   3.372   3.285   3.858
10246SOL    HW131637   3.421   3.204   3.827
10246SOL    HW231638   3.340   3.337   3.779
10247SOL     OW31639   6.498   4.252   5.678
10247SOL    HW131640   6.403   4.223   5.688
10247SOL    HW231641   6.521   4.256   5.580
10248SOL     OW31642   1.486   6.128   2.318
10248SOL    HW131643   1.467   6.219   2.355
10248SOL    HW231644   1.512   6.067   2.392
10249SOL     OW31645   3.981   5.953   6.915
10249SOL    HW131646   3.993   5.906   6.828
10249SOL    HW231647   3.903   5.914   6.964
10250SOL     OW31648   6.747   3.065   1.680
10250SOL    HW131649   6.676   2.998   1.655
10250SOL    HW231650   6.806   3.026   1.750
10251SOL     OW31651   2.010   1.654   5.442
10251SOL    HW131652   2.109   1.647   5.453
10251SOL    HW231653   1.981   1.749   5.454
10252SOL     OW31654   4.221   4.290   6.434
10252SOL    HW131655   4.140   4.348   6.436
10252SOL    HW231656   4.245   4.261   6.527
10253SOL     OW31657   2.934   6.246   0.384
10253SOL    HW131658   2.864   6.219   0.450
10253SOL    HW231659   3.021   6.260   0.432
10254SOL     OW31660   4.788   1.074   5.557
10254SOL    HW131661   4.785   1.052   5.655
10254SOL    HW231662   4.814   1.169   5.545
10255SOL     OW31663   2.613   6.399   1.209
10255SOL    HW131664   2.655   6.341   1.278
10255SOL    HW231665   2.679   6.415   1.135
10256SOL     OW31666   4.692   2.128   2.326
10256SOL    HW131667   4.738   2.162   2.243
10256SOL    HW231668   4.650   2.205   2.374
10257SOL     OW31669   1.618   5.276   4.472
10257SOL    HW131670   1.533   5.293   4.521
10257SOL    HW231671   1.622   5.180   4.444
10258SOL     OW31672   3.592   2.006   3.398
10258SOL    HW131673   3.619   2.057   3.316
10258SOL    HW231674   3.666   2.008   3.465
10259SOL     OW31675   1.030   4.448   2.492
10259SOL    HW131676   0.961   4.518   2.473
10259SOL    HW231677   1.038   4.387   2.413
10260SOL     OW31678   1.344   1.096   3.249
10260SOL    HW131679   1.256   1.060   3.278
10260SOL    HW231680   1.375   1.164   3.315
10261SOL     OW31681   6.719   4.407   1.187
10261SOL    HW131682   6.751   4.312   1.192
10261SOL    HW231683   6.699   4.440   1.279
10262SOL     OW31684   2.295   6.608   5.760
10262SOL    HW131685   2.388   6.633   5.787
10262SOL    HW231686   2.283   6.628   5.663
10263SOL     OW31687   5.256   0.361   0.576
10263SOL    HW131688   5.215   0.342   0.487
10263SOL    HW231689   5.288   0.275   0.617
10264SOL     OW31690   6.048   6.966   6.846
10264SOL    HW131691   6.101   6.986   6.929
10264SOL    HW231692   6.073   6.875   6.813
10265SOL     OW31693   2.704   2.603   1.423
10265SOL    HW131694   2.791   2.622   1.468
10265SOL    HW231695   2.654   2.689   1.410
10266SOL     OW31696   3.471   2.872   3.522
10266SOL    HW131697   3.555   2.887   3.471
10266SOL    HW231698   3.468   2.777   3.556
10267SOL     OW31699   5.437   2.775   7.009
10267SOL    HW131700   5.506   2.765   0.061
10267SOL    HW231701   5.476   2.826   6.932
10268SOL     OW31702   6.649   6.128   2.496
10268SOL    HW131703   6.655   6.228   2.498
10268SOL    HW231704   6.708   6.090   2.568
10269SOL     OW31705   0.850   3.889   6.731
10269SOL    HW131706   0.845   3.851   6.639
10269SOL    HW231707   0.769   3.945   6.748
10270SOL     OW31708   2.942   4.842   2.457
10270SOL    HW131709   2.922   4.824   2.361
10270SOL    HW231710   2.917   4.763   2.512
10271SOL     OW31711   3.909   3.091   6.420
10271SOL    HW131712   3.874   3.180   6.390
10271SOL    HW231713   3.875   3.020   6.359
10272SOL     OW31714   1.208   1.173   5.519
10272SOL    HW131715   1.276   1.183   5.592
10272SOL    HW231716   1.232   1.234   5.443
10273SOL     OW31717   2.979   5.842   2.937
10273SOL    HW131718   3.017   5.900   2.864
10273SOL    HW231719   2.950   5.900   3.014
10274SOL     OW31720   0.684   5.110   6.096
10274SOL    HW131721   0.612   5.043   6.119
10274SOL    HW231722   0.767   5.061   6.071
10275SOL     OW31723   0.569   6.360   2.019
10275SOL    HW131724   0.541   6.322   2.107
10275SOL    HW231725   0.655   6.318   1.990
10276SOL     OW31726   5.298   5.456   5.385
10276SOL    HW131727   5.329   5.526   5.449
10276SOL    HW231728   5.211   5.485   5.344
10277SOL     OW31729   1.748   5.937   5.141
10277SOL    HW131730   1.666   5.894   5.104
10277SOL    HW231731   1.739   6.036   5.134
10278SOL     OW31732   1.603   1.772   3.517
10278SOL    HW131733   1.549   1.849   3.484
10278SOL    HW231734   1.594   1.695   3.454
10279SOL     OW31735   1.784   4.704   4.326
10279SOL    HW131736   1.817   4.799   4.328
10279SOL    HW231737   1.710   4.696   4.261
10280SOL     OW31738   0.087   2.673   6.927
10280SOL    HW131739   0.172   2.657   6.877
10280SOL    HW231740   0.106   2.730   7.007
10281SOL     OW31741   5.484   1.214   2.922
10281SOL    HW131742   5.430   1.134   2.896
10281SOL    HW231743   5.522   1.200   3.014
10282SOL     OW31744   5.497   3.503   4.525
10282SOL    HW131745   5.550   3.580   4.560
10282SOL    HW231746   5.512   3.423   4.585
10283SOL     OW31747   1.893   3.512   1.075
10283SOL    HW131748   1.838   3.588   1.109
10283SOL    HW231749   1.853   3.426   1.106
10284SOL     OW31750   4.778   2.417   5.062
10284SOL    HW131751   4.860   2.361   5.074
10284SOL    HW231752   4.771   2.447   4.967
10285SOL     OW31753   5.287   6.625   2.541
10285SOL    HW131754   5.347   6.673   2.477
10285SOL    HW231755   5.195   6.663   2.535
10286SOL     OW31756   3.425   2.022   3.649
10286SOL    HW131757   3.448   1.986   3.559
10286SOL    HW231758   3.338   2.071   3.644
10287SOL     OW31759   3.206   6.208   1.821
10287SOL    HW131760   3.194   6.166   1.731
10287SOL    HW231761   3.296   6.252   1.826
10288SOL     OW31762   4.731   5.560   3.320
10288SOL    HW131763   4.750   5.532   3.226
10288SOL    HW231764   4.633   5.570   3.333
10289SOL     OW31765   2.701   6.148   0.003
10289SOL    HW131766   2.791   6.185   0.024
10289SOL    HW231767   2.632   6.193   0.059
10290SOL     OW31768   2.894   3.750   2.631
10290SOL    HW131769   2.850   3.724   2.716
10290SOL    HW231770   2.861   3.692   2.557
10291SOL     OW31771   3.928   1.295   2.541
10291SOL    HW131772   3.884   1.380   2.569
10291SOL    HW231773   3.975   1.309   2.453
10292SOL     OW31774   1.741   2.182   5.848
10292SOL    HW131775   1.773   2.276   5.859
10292SOL    HW231776   1.660   2.167   5.906
10293SOL     OW31777   1.760   3.495   2.498
10293SOL    HW131778   1.666   3.466   2.519
10293SOL    HW231779   1.801   3.429   2.434
10294SOL     OW31780   5.221   2.956   3.360
10294SOL    HW131781   5.181   2.991   3.276
10294SOL    HW231782   5.321   2.964   3.355
10295SOL     OW31783   0.359   3.421   5.709
10295SOL    HW131784   0.291   3.490   5.685
10295SOL    HW231785   0.438   3.428   5.647
10296SOL     OW31786   5.085   1.684   6.585
10296SOL    HW131787   5.069   1.590   6.556
10296SOL    HW231788   5.012   1.714   6.646
10297SOL     OW31789   1.989   0.471   6.513
10297SOL    HW131790   2.089   0.465   6.504
10297SOL    HW231791   1.956   0.397   6.571
10298SOL     OW31792   2.543   4.462   0.803
10298SOL    HW131793   2.608   4.536   0.822
10298SOL    HW231794   2.571   4.381   0.854
10299SOL     OW31795   4.520   4.833   3.033
10299SOL    HW131796   4.601   4.785   3.066
10299SOL    HW231797   4.488   4.897   3.103
10300SOL     OW31798   0.889   4.014   2.366
10300SOL    HW131799   0.840   4.035   2.282
10300SOL    HW231800   0.914   3.917   2.366
10301SOL     OW31801   5.208   2.180   4.140
10301SOL    HW131802   5.182   2.243   4.213
10301SOL    HW231803   5.179   2.217   4.052
10302SOL     OW31804   2.003   6.122   5.098
10302SOL    HW131805   2.047   6.081   5.178
10302SOL    HW231806   1.960   6.050   5.043
10303SOL     OW31807   1.425   5.605   3.099
10303SOL    HW131808   1.424   5.704   3.112
10303SOL    HW231809   1.331   5.572   3.084
10304SOL     OW31810   5.485   0.232   1.544
10304SOL    HW131811   5.394   0.208   1.577
10304SOL    HW231812   5.533   0.149   1.516
10305SOL     OW31813   1.397   4.203   6.495
10305SOL    HW131814   1.298   4.214   6.486
10305SOL    HW231815   1.434   4.277   6.551
10306SOL     OW31816   5.019   5.933   7.010
10306SOL    HW131817   4.988   6.025   6.988
10306SOL    HW231818   4.949   5.867   6.983
10307SOL     OW31819   2.838   2.339   5.282
10307SOL    HW131820   2.847   2.405   5.357
10307SOL    HW231821   2.922   2.338   5.229
10308SOL     OW31822   1.621   4.050   2.937
10308SOL    HW131823   1.699   4.052   3.000
10308SOL    HW231824   1.628   3.969   2.878
10309SOL     OW31825   6.702   1.572   6.588
10309SOL    HW131826   6.714   1.665   6.555
10309SOL    HW231827   6.680   1.512   6.511
10310SOL     OW31828   3.138   3.616   0.946
10310SOL    HW131829   3.060   3.566   0.906
10310SOL    HW231830   3.217   3.554   0.952
10311SOL     OW31831   6.820   5.879   0.652
10311SOL    HW131832   6.784   5.854   0.562
10311SOL    HW231833   6.746   5.914   0.709
10312SOL     OW31834   3.517   5.196   2.729
10312SOL    HW131835   3.426   5.156   2.738
10312SOL    HW231836   3.584   5.137   2.774
10313SOL     OW31837   4.611   6.457   2.306
10313SOL    HW131838   4.645   6.484   2.216
10313SOL    HW231839   4.512   6.441   2.302
10314SOL     OW31840   6.410   0.645   1.691
10314SOL    HW131841   6.319   0.674   1.661
10314SOL    HW231842   6.403   0.600   1.780
10315SOL     OW31843   5.043   5.454   5.069
10315SOL    HW131844   5.120   5.391   5.070
10315SOL    HW231845   5.046   5.514   5.149
10316SOL     OW31846   5.348   1.465   5.088
10316SOL    HW131847   5.370   1.449   4.991
10316SOL    HW231848   5.392   1.395   5.144
10317SOL     OW31849   4.769   5.610   5.344
10317SOL    HW131850   4.676   5.578   5.363
10317SOL    HW231851   4.768   5.709   5.330
10318SOL     OW31852   5.439   6.632   6.284
10318SOL    HW131853   5.373   6.670   6.349
10318SOL    HW231854   5.399   6.550   6.242
10319SOL     OW31855   1.111   2.508   5.386
10319SOL    HW131856   1.043   2.451   5.432
10319SOL    HW231857   1.169   2.451   5.328
10320SOL     OW31858   0.225   0.489   2.378
10320SOL    HW131859   0.250   0.512   2.284
10320SOL    HW231860   0.307   0.462   2.428
10321SOL     OW31861   3.713   1.970   1.956
10321SOL    HW131862   3.684   2.066   1.958
10321SOL    HW231863   3.667   1.920   2.029
10322SOL     OW31864   6.472   5.555   5.581
10322SOL    HW131865   6.403   5.600   5.636
10322SOL    HW231866   6.430   5.480   5.529
10323SOL     OW31867   5.493   3.523   5.591
10323SOL    HW131868   5.479   3.428   5.565
10323SOL    HW231869   5.489   3.581   5.510
10324SOL     OW31870   3.171   3.505   1.965
10324SOL    HW131871   3.076   3.536   1.959
10324SOL    HW231872   3.173   3.413   2.003
10325SOL     OW31873   6.646   3.749   2.195
10325SOL    HW131874   6.557   3.770   2.235
10325SOL    HW231875   6.653   3.796   2.106
10326SOL     OW31876   3.431   5.162   0.603
10326SOL    HW131877   3.466   5.076   0.567
10326SOL    HW231878   3.431   5.159   0.703
10327SOL     OW31879   1.993   1.087   0.965
10327SOL    HW131880   1.979   1.167   0.906
10327SOL    HW231881   1.906   1.039   0.977
10328SOL     OW31882   6.276   2.175   0.963
10328SOL    HW131883   6.372   2.150   0.975
10328SOL    HW231884   6.265   2.274   0.978
10329SOL     OW31885   3.696   0.727   3.821
10329SOL    HW131886   3.645   0.797   3.872
10329SOL    HW231887   3.729   0.657   3.884
10330SOL     OW31888   4.786   0.631   2.182
10330SOL    HW131889   4.873   0.657   2.142
10330SOL    HW231890   4.736   0.571   2.119
10331SOL     OW31891   6.671   0.610   6.066
10331SOL    HW131892   6.677   0.697   6.017
10331SOL    HW231893   6.755   0.558   6.051
10332SOL     OW31894   6.801   6.941   1.191
10332SOL    HW131895   6.850   6.926   1.277
10332SOL    HW231896   6.743   0.002   1.200
10333SOL     OW31897   6.720   4.666   4.785
10333SOL    HW131898   6.671   4.682   4.870
10333SOL    HW231899   6.655   4.666   4.709
10334SOL     OW31900   3.553   0.281   3.736
10334SOL    HW131901   3.483   0.209   3.733
10334SOL    HW231902   3.535   0.341   3.814
10335SOL     OW31903   3.104   4.417   6.823
10335SOL    HW131904   3.025   4.406   6.763
10335SOL    HW231905   3.100   4.507   6.865
10336SOL     OW31906   6.698   6.912   2.224
10336SOL    HW131907   6.710   6.946   2.318
10336SOL    HW231908   6.705   6.989   2.160
10337SOL     OW31909   0.307   6.778   5.862
10337SOL    HW131910   0.210   6.801   5.871
10337SOL    HW231911   0.320   6.680   5.880
10338SOL     OW31912   2.253   6.589   2.854
10338SOL    HW131913   2.187   6.531   2.902
10338SOL    HW231914   2.322   6.621   2.919
10339SOL     OW31915   3.465   4.528   6.867
10339SOL    HW131916   3.442   4.572   6.780
10339SOL    HW231917   3.456   4.429   6.858
10340SOL     OW31918   1.827   4.207   1.114
10340SOL    HW131919   1.781   4.242   1.195
10340SOL    HW231920   1.803   4.262   1.034
10341SOL     OW31921   2.138   3.067   2.155
10341SOL    HW131922   2.195   2.986   2.169
10341SOL    HW231923   2.048   3.039   2.123
10342SOL     OW31924   1.008   0.329   5.173
10342SOL    HW131925   0.950   0.408   5.152
10342SOL    HW231926   1.093   0.337   5.122
10343SOL     OW31927   3.352   5.755   6.668
10343SOL    HW131928   3.416   5.680   6.653
10343SOL    HW231929   3.387   5.838   6.624
10344SOL     OW31930   4.361   3.926   1.621
10344SOL    HW131931   4.435   3.878   1.575
10344SOL    HW231932   4.380   4.024   1.622
10345SOL     OW31933   1.905   1.380   6.736
10345SOL    HW131934   1.834   1.317   6.705
10345SOL    HW231935   1.863   1.455   6.788
10346SOL     OW31936   6.688   6.038   1.863
10346SOL    HW131937   6.702   5.941   1.841
10346SOL    HW231938   6.590   6.056   1.874
10347SOL     OW31939   4.595   2.019   3.373
10347SOL    HW131940   4.651   1.947   3.413
10347SOL    HW231941   4.619   2.107   3.415
10348SOL     OW31942   6.183   1.778   0.182
10348SOL    HW131943   6.168   1.696   0.237
10348SOL    HW231944   6.179   1.753   0.085
10349SOL     OW31945   0.462   0.504   0.769
10349SOL    HW131946   0.490   0.593   0.805
10349SOL    HW231947   0.398   0.517   0.693
10350SOL     OW31948   1.722   6.769   5.301
10350SOL    HW131949   1.816   6.753   5.331
10350SOL    HW231950   1.712   6.737   5.207
10351SOL     OW31951   4.418   4.935   6.399
10351SOL    HW131952   4.319   4.950   6.399
10351SOL    HW231953   4.441   4.862   6.463
10352SOL     OW31954   4.065   1.764   6.037
10352SOL    HW131955   4.083   1.833   6.108
10352SOL    HW231956   4.042   1.677   6.081
10353SOL     OW31957   6.581   2.414   5.599
10353SOL    HW131958   6.663   2.375   5.557
10353SOL    HW231959   6.565   2.505   5.561
10354SOL     OW31960   5.805   2.354   2.051
10354SOL    HW131961   5.717   2.341   2.006
10354SOL    HW231962   5.862   2.415   1.995
10355SOL     OW31963   1.876   6.872   2.284
10355SOL    HW131964   1.861   6.853   2.381
10355SOL    HW231965   1.883   6.971   2.270
10356SOL     OW31966   0.851   4.332   6.157
10356SOL    HW131967   0.849   4.253   6.096
10356SOL    HW231968   0.784   4.320   6.230
10357SOL     OW31969   2.095   3.388   6.109
10357SOL    HW131970   2.039   3.435   6.041
10357SOL    HW231971   2.174   3.444   6.132
10358SOL     OW31972   6.286   2.620   2.922
10358SOL    HW131973   6.302   2.719   2.925
10358SOL    HW231974   6.193   2.603   2.889
10359SOL     OW31975   0.059   1.748   1.346
10359SOL    HW131976   0.080   1.688   1.268
10359SOL    HW231977   0.065   1.843   1.317
10360SOL     OW31978   5.270   5.317   3.117
10360SOL    HW131979   5.290   5.263   3.199
10360SOL    HW231980   5.303   5.267   3.037
10361SOL     OW31981   3.341   0.480   3.359
10361SOL    HW131982   3.287   0.411   3.311
10361SOL    HW231983   3.325   0.472   3.457
10362SOL     OW31984   0.577   5.184   4.844
10362SOL    HW131985   0.570   5.283   4.861
10362SOL    HW231986   0.620   5.169   4.755
10363SOL     OW31987   5.011   1.469   1.365
10363SOL    HW131988   5.109   1.488   1.371
10363SOL    HW231989   4.993   1.375   1.396
10364SOL     OW31990   3.382   3.477   1.640
10364SOL    HW131991   3.442   3.423   1.580
10364SOL    HW231992   3.288   3.445   1.629
10365SOL     OW31993   4.767   4.597   6.013
10365SOL    HW131994   4.793   4.525   5.949
10365SOL    HW231995   4.725   4.556   6.094
10366SOL     OW31996   3.991   0.101   4.169
10366SOL    HW131997   3.898   0.135   4.154
10366SOL    HW231998   4.021   0.052   4.087
10367SOL     OW31999   6.271   1.578   2.554
10367SOL    HW132000   6.336   1.572   2.478
10367SOL    HW232001   6.196   1.639   2.530
10368SOL     OW32002   1.788   1.188   1.731
10368SOL    HW132003   1.705   1.243   1.730
10368SOL    HW232004   1.811   1.159   1.638
10369SOL     OW32005   3.736   1.439   5.269
10369SOL    HW132006   3.655   1.407   5.220
10369SOL    HW232007   3.814   1.382   5.244
10370SOL     OW32008   5.248   1.912   5.218
10370SOL    HW132009   5.318   1.900   5.289
10370SOL    HW232010   5.217   1.823   5.186
10371SOL     OW32011   2.407   6.151   4.703
10371SOL    HW132012   2.337   6.106   4.758
10371SOL    HW232013   2.489   6.165   4.759
10372SOL     OW32014   1.062   1.566   0.018
10372SOL    HW132015   1.151   1.569   0.064
10372SOL    HW232016   1.011   1.486   0.050
10373SOL     OW32017   2.238   5.775   4.844
10373SOL    HW132018   2.167   5.786   4.913
10373SOL    HW232019   2.305   5.708   4.875
10374SOL     OW32020   4.078   1.148   2.715
10374SOL    HW132021   4.036   1.201   2.642
10374SOL    HW232022   4.048   1.182   2.803
10375SOL     OW32023   2.919   2.000   6.468
10375SOL    HW132024   2.850   2.054   6.515
10375SOL    HW232025   2.943   2.044   6.381
10376SOL     OW32026   1.374   6.375   4.245
10376SOL    HW132027   1.332   6.456   4.205
10376SOL    HW232028   1.472   6.375   4.225
10377SOL     OW32029   0.004   0.494   4.152
10377SOL    HW132030   7.014   0.592   4.137
10377SOL    HW232031   0.028   0.478   4.248
10378SOL     OW32032   6.527   6.909   6.216
10378SOL    HW132033   6.577   6.976   6.161
10378SOL    HW232034   6.593   6.846   6.259
10379SOL     OW32035   3.269   6.500   4.720
10379SOL    HW132036   3.274   6.585   4.772
10379SOL    HW232037   3.179   6.491   4.678
10380SOL     OW32038   0.424   1.200   3.880
10380SOL    HW132039   0.437   1.298   3.866
10380SOL    HW232040   0.455   1.150   3.800
10381SOL     OW32041   4.329   5.799   6.699
10381SOL    HW132042   4.357   5.728   6.634
10381SOL    HW232043   4.398   5.871   6.702
10382SOL     OW32044   2.210   4.512   0.465
10382SOL    HW132045   2.287   4.465   0.509
10382SOL    HW232046   2.156   4.446   0.413
10383SOL     OW32047   0.328   3.719   0.450
10383SOL    HW132048   0.343   3.804   0.399
10383SOL    HW232049   0.379   3.723   0.536
10384SOL     OW32050   1.002   0.402   1.132
10384SOL    HW132051   1.009   0.443   1.223
10384SOL    HW232052   0.953   0.315   1.138
10385SOL     OW32053   3.742   0.075   6.257
10385SOL    HW132054   3.828   0.113   6.291
10385SOL    HW232055   3.666   0.127   6.295
10386SOL     OW32056   6.030   3.251   5.275
10386SOL    HW132057   6.070   3.186   5.210
10386SOL    HW232058   5.953   3.208   5.322
10387SOL     OW32059   4.264   2.229   2.243
10387SOL    HW132060   4.176   2.209   2.284
10387SOL    HW232061   4.328   2.155   2.263
10388SOL     OW32062   1.599   5.646   2.815
10388SOL    HW132063   1.547   5.653   2.900
10388SOL    HW232064   1.655   5.562   2.816
10389SOL     OW32065   0.755   6.925   1.598
10389SOL    HW132066   0.737   6.929   1.500
10389SOL    HW232067   0.669   6.918   1.648
10390SOL     OW32068   1.644   3.477   1.802
10390SOL    HW132069   1.550   3.511   1.800
10390SOL    HW232070   1.706   3.547   1.767
10391SOL     OW32071   1.452   5.842   5.114
10391SOL    HW132072   1.434   5.911   5.184
10391SOL    HW232073   1.383   5.849   5.042
10392SOL     OW32074   6.278   4.071   0.353
10392SOL    HW132075   6.313   4.000   0.414
10392SOL    HW232076   6.305   4.050   0.259
10393SOL     OW32077   2.208   2.298   2.976
10393SOL    HW132078   2.276   2.240   3.021
10393SOL    HW232079   2.117   2.259   2.988
10394SOL     OW32080   2.600   6.619   5.563
10394SOL    HW132081   2.593   6.718   5.579
10394SOL    HW232082   2.560   6.596   5.474
10395SOL     OW32083   6.346   0.364   3.591
10395SOL    HW132084   6.431   0.345   3.542
10395SOL    HW232085   6.364   0.366   3.690
10396SOL     OW32086   2.234   0.554   4.782
10396SOL    HW132087   2.235   0.464   4.739
10396SOL    HW232088   2.268   0.622   4.717
10397SOL     OW32089   3.085   2.151   3.262
10397SOL    HW132090   3.087   2.140   3.361
10397SOL    HW232091   3.178   2.163   3.227
10398SOL     OW32092   5.797   2.998   0.624
10398SOL    HW132093   5.755   3.069   0.567
10398SOL    HW232094   5.754   3.000   0.714
10399SOL     OW32095   4.531   1.946   4.524
10399SOL    HW132096   4.507   1.984   4.435
10399SOL    HW232097   4.447   1.917   4.571
10400SOL     OW32098   3.407   5.943   1.984
10400SOL    HW132099   3.440   6.034   2.009
10400SOL    HW232100   3.482   5.891   1.944
10401SOL     OW32101   6.839   0.448   2.465
10401SOL    HW132102   6.852   0.507   2.545
10401SOL    HW232103   6.750   0.404   2.471
10402SOL     OW32104   6.976   2.502   5.285
10402SOL    HW132105   0.025   2.532   5.219
10402SOL    HW232106   7.018   2.493   5.375
10403SOL     OW32107   5.087   1.289   2.322
10403SOL    HW132108   5.171   1.344   2.333
10403SOL    HW232109   5.013   1.348   2.292
10404SOL     OW32110   0.898   6.664   3.350
10404SOL    HW132111   0.819   6.722   3.331
10404SOL    HW232112   0.912   6.600   3.274
10405SOL     OW32113   1.160   5.574   4.792
10405SOL    HW132114   1.080   5.541   4.742
10405SOL    HW232115   1.204   5.648   4.739
10406SOL     OW32116   2.125   3.798   5.003
10406SOL    HW132117   2.209   3.852   4.994
10406SOL    HW232118   2.145   3.714   5.054
10407SOL     OW32119   1.485   0.398   6.552
10407SOL    HW132120   1.427   0.376   6.630
10407SOL    HW232121   1.581   0.398   6.581
10408SOL     OW32122   4.037   6.024   2.396
10408SOL    HW132123   4.056   6.060   2.305
10408SOL    HW232124   3.988   5.937   2.388
10409SOL     OW32125   0.990   4.435   0.866
10409SOL    HW132126   0.954   4.457   0.775
10409SOL    HW232127   0.955   4.347   0.896
10410SOL     OW32128   5.631   1.670   1.290
10410SOL    HW132129   5.549   1.706   1.246
10410SOL    HW232130   5.707   1.673   1.225
10411SOL     OW32131   3.284   5.468   4.031
10411SOL    HW132132   3.333   5.399   4.084
10411SOL    HW232133   3.342   5.549   4.019
10412SOL     OW32134   0.347   1.400   0.494
10412SOL    HW132135   0.371   1.413   0.397
10412SOL    HW232136   0.356   1.304   0.517
10413SOL     OW32137   0.238   2.156   0.645
10413SOL    HW132138   0.236   2.207   0.559
10413SOL    HW232139   0.146   2.151   0.683
10414SOL     OW32140   4.931   6.100   5.530
10414SOL    HW132141   4.874   6.114   5.449
10414SOL    HW232142   4.889   6.144   5.609
10415SOL     OW32143   2.161   4.876   4.102
10415SOL    HW132144   2.062   4.862   4.109
10415SOL    HW232145   2.204   4.793   4.067
10416SOL     OW32146   6.633   1.443   5.729
10416SOL    HW132147   6.691   1.361   5.735
10416SOL    HW232148   6.600   1.467   5.821
10417SOL     OW32149   4.640   4.349   4.204
10417SOL    HW132150   4.694   4.432   4.221
10417SOL    HW232151   4.673   4.306   4.120
10418SOL     OW32152   6.405   4.477   5.491
10418SOL    HW132153   6.424   4.381   5.469
10418SOL    HW232154   6.355   4.519   5.415
10419SOL     OW32155   3.062   0.684   5.561
10419SOL    HW132156   3.103   0.602   5.599
10419SOL    HW232157   2.965   0.667   5.541
10420SOL     OW32158   6.992   3.768   3.476
10420SOL    HW132159   6.896   3.774   3.503
10420SOL    HW232160   0.029   3.757   3.558
10421SOL     OW32161   1.290   3.182   4.125
10421SOL    HW132162   1.224   3.139   4.063
10421SOL    HW232163   1.364   3.223   4.071
10422SOL     OW32164   6.656   3.843   5.704
10422SOL    HW132165   6.574   3.898   5.688
10422SOL    HW232166   6.638   3.775   5.776
10423SOL     OW32167   4.236   4.910   4.883
10423SOL    HW132168   4.214   4.997   4.840
10423SOL    HW232169   4.177   4.896   4.963
10424SOL     OW32170   5.042   2.157   6.904
10424SOL    HW132171   4.948   2.152   6.938
10424SOL    HW232172   5.044   2.202   6.815
10425SOL     OW32173   0.856   6.508   1.663
10425SOL    HW132174   0.793   6.444   1.619
10425SOL    HW232175   0.919   6.458   1.722
10426SOL     OW32176   5.097   3.663   5.742
10426SOL    HW132177   5.178   3.639   5.795
10426SOL    HW232178   5.019   3.609   5.774
10427SOL     OW32179   5.438   5.611   5.744
10427SOL    HW132180   5.378   5.631   5.667
10427SOL    HW232181   5.478   5.520   5.732
10428SOL     OW32182   1.313   1.775   3.950
10428SOL    HW132183   1.225   1.813   3.921
10428SOL    HW232184   1.335   1.695   3.895
10429SOL     OW32185   1.373   3.688   2.948
10429SOL    HW132186   1.429   3.765   2.917
10429SOL    HW232187   1.393   3.608   2.893
10430SOL     OW32188   3.242   6.099   4.255
10430SOL    HW132189   3.342   6.098   4.254
10430SOL    HW232190   3.208   6.023   4.200
10431SOL     OW32191   2.478   0.740   3.915
10431SOL    HW132192   2.446   0.776   3.827
10431SOL    HW232193   2.564   0.785   3.940
10432SOL     OW32194   0.572   0.861   5.345
10432SOL    HW132195   0.584   0.956   5.375
10432SOL    HW232196   0.607   0.851   5.252
10433SOL     OW32197   0.475   6.305   1.443
10433SOL    HW132198   0.402   6.240   1.422
10433SOL    HW232199   0.528   6.323   1.360
10434SOL     OW32200   4.745   6.196   4.587
10434SOL    HW132201   4.813   6.237   4.526
10434SOL    HW232202   4.790   6.164   4.670
10435SOL     OW32203   1.497   1.923   6.243
10435SOL    HW132204   1.514   1.867   6.324
10435SOL    HW232205   1.502   1.866   6.161
10436SOL     OW32206   6.225   3.635   3.945
10436SOL    HW132207   6.315   3.677   3.942
10436SOL    HW232208   6.223   3.557   3.882
10437SOL     OW32209   5.388   5.175   5.423
10437SOL    HW132210   5.327   5.103   5.390
10437SOL    HW232211   5.361   5.263   5.383
10438SOL     OW32212   0.312   6.485   5.844
10438SOL    HW132213   0.342   6.432   5.764
10438SOL    HW232214   0.214   6.471   5.858
10439SOL     OW32215   5.914   0.939   4.713
10439SOL    HW132216   6.005   0.973   4.735
10439SOL    HW232217   5.864   1.008   4.661
10440SOL     OW32218   6.950   0.142   6.975
10440SOL    HW132219   0.007   0.178   6.922
10440SOL    HW232220   6.875   0.208   6.973
10441SOL     OW32221   2.850   1.203   0.688
10441SOL    HW132222   2.857   1.249   0.777
10441SOL    HW232223   2.756   1.209   0.655
10442SOL     OW32224   4.026   1.039   4.944
10442SOL    HW132225   4.077   1.069   5.025
10442SOL    HW232226   4.089   1.029   4.867
10443SOL     OW32227   6.765   2.231   2.891
10443SOL    HW132228   6.849   2.267   2.930
10443SOL    HW232229   6.688   2.252   2.951
10444SOL     OW32230   3.091   4.972   3.152
10444SOL    HW132231   3.071   4.922   3.236
10444SOL    HW232232   3.161   5.042   3.171
10445SOL     OW32233   0.379   3.669   2.559
10445SOL    HW132234   0.289   3.678   2.516
10445SOL    HW232235   0.368   3.659   2.657
10446SOL     OW32236   1.770   4.388   6.018
10446SOL    HW132237   1.784   4.299   5.975
10446SOL    HW232238   1.858   4.432   6.035
10447SOL     OW32239   6.548   0.901   1.836
10447SOL    HW132240   6.594   0.848   1.907
10447SOL    HW232241   6.599   0.894   1.751
10448SOL     OW32242   3.345   0.770   3.272
10448SOL    HW132243   3.411   0.766   3.197
10448SOL    HW232244   3.334   0.679   3.311
10449SOL     OW32245   3.482   5.484   6.672
10449SOL    HW132246   3.571   5.502   6.714
10449SOL    HW232247   3.435   5.413   6.725
10450SOL     OW32248   6.723   0.710   6.348
10450SOL    HW132249   6.704   0.635   6.284
10450SOL    HW232250   6.638   0.760   6.365
10451SOL     OW32251   3.187   0.592   3.099
10451SOL    HW132252   3.143   0.647   3.169
10451SOL    HW232253   3.277   0.562   3.132
10452SOL     OW32254   0.035   2.467   2.742
10452SOL    HW132255   0.026   2.531   2.818
10452SOL    HW232256   6.974   2.473   2.683
10453SOL     OW32257   4.588   6.365   2.766
10453SOL    HW132258   4.537   6.393   2.847
10453SOL    HW232259   4.585   6.439   2.698
10454SOL     OW32260   6.191   0.941   0.473
10454SOL    HW132261   6.128   0.974   0.403
10454SOL    HW232262   6.165   0.848   0.500
10455SOL     OW32263   6.697   5.819   4.176
10455SOL    HW132264   6.702   5.872   4.260
10455SOL    HW232265   6.637   5.740   4.190
10456SOL     OW32266   0.263   5.498   0.230
10456SOL    HW132267   0.210   5.511   0.314
10456SOL    HW232268   0.358   5.526   0.245
10457SOL     OW32269   4.169   3.507   6.853
10457SOL    HW132270   4.226   3.530   6.775
10457SOL    HW232271   4.188   3.570   6.929
10458SOL     OW32272   6.454   0.551   6.457
10458SOL    HW132273   6.501   0.565   6.369
10458SOL    HW232274   6.521   0.525   6.526
10459SOL     OW32275   5.892   5.206   0.822
10459SOL    HW132276   5.903   5.107   0.813
10459SOL    HW232277   5.960   5.241   0.887
10460SOL     OW32278   0.204   3.766   1.870
10460SOL    HW132279   0.195   3.674   1.910
10460SOL    HW232280   0.126   3.785   1.812
10461SOL     OW32281   6.697   4.839   5.616
10461SOL    HW132282   6.642   4.777   5.672
10461SOL    HW232283   6.643   4.869   5.537
10462SOL     OW32284   4.834   1.891   2.366
10462SOL    HW132285   4.757   1.827   2.374
10462SOL    HW232286   4.799   1.984   2.360
10463SOL     OW32287   5.044   1.683   6.180
10463SOL    HW132288   5.114   1.677   6.109
10463SOL    HW232289   5.078   1.642   6.264
10464SOL     OW32290   5.641   5.602   1.956
10464SOL    HW132291   5.571   5.635   1.892
10464SOL    HW232292   5.673   5.678   2.013
10465SOL     OW32293   5.177   4.879   2.684
10465SOL    HW132294   5.187   4.853   2.780
10465SOL    HW232295   5.109   4.821   2.640
10466SOL     OW32296   4.469   4.116   6.533
10466SOL    HW132297   4.447   4.107   6.630
10466SOL    HW232298   4.390   4.088   6.478
10467SOL     OW32299   1.627   2.723   0.053
10467SOL    HW132300   1.611   2.791   0.125
10467SOL    HW232301   1.691   2.759   7.006
10468SOL     OW32302   3.843   4.877   3.436
10468SOL    HW132303   3.803   4.786   3.449
10468SOL    HW232304   3.830   4.931   3.518
10469SOL     OW32305   4.414   4.354   5.922
10469SOL    HW132306   4.390   4.326   6.016
10469SOL    HW232307   4.359   4.301   5.857
10470SOL     OW32308   2.531   1.678   3.248
10470SOL    HW132309   2.561   1.590   3.287
10470SOL    HW232310   2.602   1.747   3.264
10471SOL     OW32311   3.348   0.233   0.460
10471SOL    HW132312   3.296   0.214   0.377
10471SOL    HW232313   3.303   0.306   0.512
10472SOL     OW32314   2.750   5.582   1.405
10472SOL    HW132315   2.753   5.533   1.492
10472SOL    HW232316   2.659   5.573   1.365
10473SOL     OW32317   5.966   6.488   5.464
10473SOL    HW132318   6.012   6.504   5.551
10473SOL    HW232319   5.869   6.472   5.480
10474SOL     OW32320   4.700   1.624   3.771
10474SOL    HW132321   4.698   1.606   3.673
10474SOL    HW232322   4.756   1.554   3.817
10475SOL     OW32323   2.924   0.021   1.666
10475SOL    HW132324   2.935   0.065   1.755
10475SOL    HW232325   2.992   6.969   1.655
10476SOL     OW32326   4.919   6.319   6.306
10476SOL    HW132327   4.872   6.407   6.313
10476SOL    HW232328   4.949   6.290   6.396
10477SOL     OW32329   0.034   0.660   4.770
10477SOL    HW132330   0.001   0.691   4.681
10477SOL    HW232331   0.005   0.724   4.841
10478SOL     OW32332   6.935   6.548   7.001
10478SOL    HW132333   6.886   6.484   0.041
10478SOL    HW232334   6.950   6.634   0.030
10479SOL     OW32335   6.504   1.184   1.880
10479SOL    HW132336   6.441   1.245   1.832
10479SOL    HW232337   6.474   1.089   1.867
10480SOL     OW32338   1.742   0.604   1.968
10480SOL    HW132339   1.697   0.591   2.056
10480SOL    HW232340   1.766   0.700   1.957
10481SOL     OW32341   1.908   5.744   2.895
10481SOL    HW132342   1.976   5.772   2.962
10481SOL    HW232343   1.817   5.770   2.927
10482SOL     OW32344   6.227   5.284   4.552
10482SOL    HW132345   6.315   5.328   4.533
10482SOL    HW232346   6.164   5.302   4.476
10483SOL     OW32347   5.223   5.513   0.427
10483SOL    HW132348   5.147   5.567   0.388
10483SOL    HW232349   5.309   5.547   0.390
10484SOL     OW32350   4.388   1.863   1.551
10484SOL    HW132351   4.339   1.778   1.570
10484SOL    HW232352   4.330   1.941   1.575
10485SOL     OW32353   3.338   4.775   0.334
10485SOL    HW132354   3.293   4.719   0.404
10485SOL    HW232355   3.315   4.739   0.243
10486SOL     OW32356   6.838   1.014   0.256
10486SOL    HW132357   6.770   0.998   0.184
10486SOL    HW232358   6.805   0.976   0.342
10487SOL     OW32359   5.011   6.558   2.385
10487SOL    HW132360   5.023   6.656   2.400
10487SOL    HW232361   4.927   6.527   2.431
10488SOL     OW32362   3.007   2.157   6.203
10488SOL    HW132363   2.957   2.154   6.117
10488SOL    HW232364   3.104   2.173   6.185
10489SOL     OW32365   0.353   6.581   4.902
10489SOL    HW132366   0.310   6.504   4.949
10489SOL    HW232367   0.429   6.616   4.957
10490SOL     OW32368   6.208   1.340   1.993
10490SOL    HW132369   6.243   1.340   1.900
10490SOL    HW232370   6.209   1.247   2.030
10491SOL     OW32371   1.284   3.345   0.073
10491SOL    HW132372   1.352   3.272   0.072
10491SOL    HW232373   1.211   3.321   0.137
10492SOL     OW32374   5.579   4.084   6.194
10492SOL    HW132375   5.621   4.062   6.106
10492SOL    HW232376   5.483   4.108   6.180
10493SOL     OW32377   3.544   1.253   1.363
10493SOL    HW132378   3.492   1.251   1.448
10493SOL    HW232379   3.484   1.278   1.287
10494SOL     OW32380   4.458   3.695   5.634
10494SOL    HW132381   4.369   3.681   5.591
10494SOL    HW232382   4.527   3.639   5.588
10495SOL     OW32383   1.953   6.508   0.448
10495SOL    HW132384   1.984   6.427   0.398
10495SOL    HW232385   1.984   6.503   0.543
10496SOL     OW32386   0.475   5.240   0.207
10496SOL    HW132387   0.567   5.279   0.202
10496SOL    HW232388   0.444   5.240   0.301
10497SOL     OW32389   2.512   0.046   2.501
10497SOL    HW132390   2.427   0.017   2.544
10497SOL    HW232391   2.552   0.120   2.555
10498SOL     OW32392   3.100   6.861   1.651
10498SOL    HW132393   3.114   6.819   1.561
10498SOL    HW232394   3.150   6.808   1.720
10499SOL     OW32395   3.457   6.882   2.415
10499SOL    HW132396   3.422   6.803   2.365
10499SOL    HW232397   3.388   6.914   2.480
10500SOL     OW32398   0.344   0.439   6.794
10500SOL    HW132399   0.297   0.366   6.844
10500SOL    HW232400   0.360   0.516   6.855
10501SOL     OW32401   1.908   5.099   3.192
10501SOL    HW132402   1.859   5.169   3.245
10501SOL    HW232403   1.994   5.077   3.236
10502SOL     OW32404   2.903   0.672   0.951
10502SOL    HW132405   2.962   0.716   1.019
10502SOL    HW232406   2.887   0.734   0.875
10503SOL     OW32407   4.225   3.161   0.078
10503SOL    HW132408   4.146   3.146   0.019
10503SOL    HW232409   4.251   3.257   0.076
10504SOL     OW32410   2.038   2.106   0.287
10504SOL    HW132411   1.981   2.035   0.246
10504SOL    HW232412   2.128   2.105   0.244
10505SOL     OW32413   5.677   5.793   0.510
10505SOL    HW132414   5.661   5.817   0.606
10505SOL    HW232415   5.590   5.769   0.467
10506SOL     OW32416   6.850   5.138   6.568
10506SOL    HW132417   6.805   5.084   6.496
10506SOL    HW232418   6.879   5.226   6.530
10507SOL     OW32419   2.511   0.107   0.019
10507SOL    HW132420   2.453   0.047   0.074
10507SOL    HW232421   2.607   0.093   0.045
10508SOL     OW32422   6.102   6.191   4.397
10508SOL    HW132423   6.027   6.210   4.333
10508SOL    HW232424   6.114   6.268   4.459
10509SOL     OW32425   0.890   6.202   5.576
10509SOL    HW132426   0.799   6.184   5.614
10509SOL    HW232427   0.934   6.275   5.629
10510SOL     OW32428   5.017   5.760   5.867
10510SOL    HW132429   5.017   5.858   5.844
10510SOL    HW232430   4.990   5.707   5.786
10511SOL     OW32431   4.434   1.842   1.286
10511SOL    HW132432   4.434   1.839   1.386
10511SOL    HW232433   4.345   1.814   1.251
10512SOL     OW32434   4.030   0.332   5.656
10512SOL    HW132435   3.978   0.385   5.723
10512SOL    HW232436   4.083   0.261   5.702
10513SOL     OW32437   6.621   2.385   4.870
10513SOL    HW132438   6.536   2.336   4.852
10513SOL    HW232439   6.648   2.437   4.789
10514SOL     OW32440   0.026   3.770   0.186
10514SOL    HW132441   0.020   3.688   0.242
10514SOL    HW232442   0.081   3.839   0.233
10515SOL     OW32443   6.893   2.805   3.130
10515SOL    HW132444   6.795   2.811   3.112
10515SOL    HW232445   6.909   2.812   3.229
10516SOL     OW32446   4.227   0.995   6.996
10516SOL    HW132447   4.274   0.929   0.034
10516SOL    HW232448   4.241   0.972   6.900
10517SOL     OW32449   0.080   1.976   2.982
10517SOL    HW132450   0.107   1.957   2.887
10517SOL    HW232451   0.077   2.075   2.996
10518SOL     OW32452   0.893   4.760   6.305
10518SOL    HW132453   0.985   4.760   6.266
10518SOL    HW232454   0.874   4.849   6.347
10519SOL     OW32455   2.466   2.748   6.353
10519SOL    HW132456   2.385   2.762   6.296
10519SOL    HW232457   2.459   2.807   6.434
10520SOL     OW32458   1.762   2.329   6.149
10520SOL    HW132459   1.676   2.279   6.145
10520SOL    HW232460   1.838   2.265   6.148
10521SOL     OW32461   5.825   5.840   1.848
10521SOL    HW132462   5.842   5.828   1.946
10521SOL    HW232463   5.897   5.793   1.796
10522SOL     OW32464   5.978   0.569   6.987
10522SOL    HW132465   6.046   0.497   7.004
10522SOL    HW232466   5.887   0.528   6.981
10523SOL     OW32467   0.403   5.459   4.797
10523SOL    HW132468   0.339   5.399   4.749
10523SOL    HW232469   0.473   5.491   4.734
10524SOL     OW32470   2.101   0.827   5.175
10524SOL    HW132471   2.044   0.786   5.103
10524SOL    HW232472   2.050   0.829   5.261
10525SOL     OW32473   2.962   6.982   6.011
10525SOL    HW132474   2.994   6.974   6.105
10525SOL    HW232475   2.967   6.893   5.966
10526SOL     OW32476   0.559   0.016   2.863
10526SOL    HW132477   0.511   0.029   2.950
10526SOL    HW232478   0.594   0.104   2.830
10527SOL     OW32479   6.284   2.507   4.821
10527SOL    HW132480   6.308   2.415   4.849
10527SOL    HW232481   6.184   2.514   4.813
10528SOL     OW32482   0.975   3.178   5.658
10528SOL    HW132483   0.939   3.086   5.644
10528SOL    HW232484   0.913   3.244   5.616
10529SOL     OW32485   2.249   6.189   3.491
10529SOL    HW132486   2.208   6.275   3.522
10529SOL    HW232487   2.297   6.205   3.404
10530SOL     OW32488   2.180   0.997   6.289
10530SOL    HW132489   2.099   0.968   6.238
10530SOL    HW232490   2.151   1.052   6.368
10531SOL     OW32491   1.063   2.732   4.187
10531SOL    HW132492   1.076   2.765   4.281
10531SOL    HW232493   1.137   2.669   4.163
10532SOL     OW32494   2.005   4.311   6.768
10532SOL    HW132495   2.096   4.322   6.728
10532SOL    HW232496   1.955   4.240   6.718
10533SOL     OW32497   2.864   1.489   4.527
10533SOL    HW132498   2.828   1.407   4.481
10533SOL    HW232499   2.818   1.499   4.615
10534SOL     OW32500   5.819   5.399   1.495
10534SOL    HW132501   5.831   5.481   1.439
10534SOL    HW232502   5.828   5.423   1.592
10535SOL     OW32503   0.882   1.502   0.868
10535SOL    HW132504   0.847   1.410   0.887
10535SOL    HW232505   0.840   1.537   0.784
10536SOL     OW32506   3.814   0.660   3.043
10536SOL    HW132507   3.753   0.740   3.048
10536SOL    HW232508   3.766   0.580   3.077
10537SOL     OW32509   3.498   5.284   4.175
10537SOL    HW132510   3.430   5.231   4.227
10537SOL    HW232511   3.590   5.255   4.202
10538SOL     OW32512   4.527   2.606   0.020
10538SOL    HW132513   4.563   2.683   6.987
10538SOL    HW232514   4.600   2.541   0.038
10539SOL     OW32515   0.660   4.086   6.572
10539SOL    HW132516   0.679   4.131   6.659
10539SOL    HW232517   0.562   4.092   6.551
10540SOL     OW32518   1.434   2.114   5.215
10540SOL    HW132519   1.336   2.125   5.201
10540SOL    HW232520   1.464   2.025   5.181
10541SOL     OW32521   3.814   3.696   1.987
10541SOL    HW132522   3.793   3.603   1.954
10541SOL    HW232523   3.730   3.742   2.013
10542SOL     OW32524   6.384   1.880   6.557
10542SOL    HW132525   6.445   1.959   6.547
10542SOL    HW232526   6.289   1.911   6.549
10543SOL     OW32527   6.665   1.163   5.222
10543SOL    HW132528   6.665   1.204   5.313
10543SOL    HW232529   6.610   1.080   5.222
10544SOL     OW32530   1.670   0.057   2.669
10544SOL    HW132531   1.575   0.087   2.677
10544SOL    HW232532   1.730   0.122   2.716
10545SOL     OW32533   5.967   1.234   2.829
10545SOL    HW132534   5.958   1.263   2.924
10545SOL    HW232535   5.878   1.206   2.794
10546SOL     OW32536   0.660   0.958   6.463
10546SOL    HW132537   0.598   0.989   6.390
10546SOL    HW232538   0.646   0.860   6.477
10547SOL     OW32539   4.816   2.214   2.096
10547SOL    HW132540   4.740   2.249   2.041
10547SOL    HW232541   4.893   2.192   2.036
10548SOL     OW32542   4.971   4.279   5.212
10548SOL    HW132543   5.043   4.332   5.169
10548SOL    HW232544   4.990   4.270   5.310
10549SOL     OW32545   6.229   6.904   2.490
10549SOL    HW132546   6.159   6.913   2.419
10549SOL    HW232547   6.192   6.937   2.577
10550SOL     OW32548   4.327   6.363   4.974
10550SOL    HW132549   4.406   6.310   4.944
10550SOL    HW232550   4.261   6.302   5.017
10551SOL     OW32551   1.865   2.467   5.786
10551SOL    HW132552   1.773   2.445   5.755
10551SOL    HW232553   1.903   2.540   5.730
10552SOL     OW32554   3.989   2.239   5.859
10552SOL    HW132555   4.084   2.218   5.834
10552SOL    HW232556   3.928   2.169   5.822
10553SOL     OW32557   0.849   5.015   1.476
10553SOL    HW132558   0.910   5.041   1.400
10553SOL    HW232559   0.827   5.097   1.529
10554SOL     OW32560   4.901   5.033   0.032
10554SOL    HW132561   4.826   5.005   0.091
10554SOL    HW232562   4.968   4.959   0.026
10555SOL     OW32563   2.172   3.111   0.876
10555SOL    HW132564   2.241   3.054   0.919
10555SOL    HW232565   2.206   3.205   0.871
10556SOL     OW32566   2.211   2.489   5.012
10556SOL    HW132567   2.140   2.420   5.020
10556SOL    HW232568   2.170   2.580   5.023
10557SOL     OW32569   1.928   2.215   2.911
10557SOL    HW132570   1.959   2.259   2.826
10557SOL    HW232571   1.843   2.258   2.941
10558SOL     OW32572   4.228   0.297   4.100
10558SOL    HW132573   4.185   0.365   4.040
10558SOL    HW232574   4.164   0.223   4.118
10559SOL     OW32575   4.471   0.574   1.023
10559SOL    HW132576   4.481   0.559   0.925
10559SOL    HW232577   4.543   0.525   1.072
10560SOL     OW32578   2.856   6.861   3.598
10560SOL    HW132579   2.799   6.914   3.535
10560SOL    HW232580   2.945   6.904   3.608
10561SOL     OW32581   2.946   4.372   0.918
10561SOL    HW132582   2.866   4.312   0.926
10561SOL    HW232583   2.974   4.403   1.009
10562SOL     OW32584   5.366   6.046   0.515
10562SOL    HW132585   5.413   6.109   0.454
10562SOL    HW232586   5.432   5.983   0.555
10563SOL     OW32587   0.804   0.515   4.175
10563SOL    HW132588   0.810   0.528   4.076
10563SOL    HW232589   0.889   0.475   4.209
10564SOL     OW32590   5.957   6.424   2.326
10564SOL    HW132591   5.932   6.331   2.352
10564SOL    HW232592   6.053   6.426   2.297
10565SOL     OW32593   0.043   0.962   5.828
10565SOL    HW132594   0.047   0.889   5.760
10565SOL    HW232595   6.987   1.023   5.806
10566SOL     OW32596   4.153   2.730   6.893
10566SOL    HW132597   4.166   2.631   6.896
10566SOL    HW232598   4.080   2.752   6.828
10567SOL     OW32599   2.227   2.009   4.403
10567SOL    HW132600   2.281   2.004   4.319
10567SOL    HW232601   2.289   2.010   4.482
10568SOL     OW32602   5.904   2.083   1.559
10568SOL    HW132603   5.913   2.020   1.482
10568SOL    HW232604   5.993   2.123   1.580
10569SOL     OW32605   6.131   2.513   1.415
10569SOL    HW132606   6.148   2.594   1.471
10569SOL    HW232607   6.102   2.540   1.324
10570SOL     OW32608   1.585   4.592   3.545
10570SOL    HW132609   1.491   4.571   3.515
10570SOL    HW232610   1.587   4.598   3.644
10571SOL     OW32611   6.970   4.609   4.647
10571SOL    HW132612   6.896   4.623   4.713
10571SOL    HW232613   6.952   4.665   4.566
10572SOL     OW32614   7.016   4.214   3.804
10572SOL    HW132615   0.065   4.270   3.757
10572SOL    HW232616   6.932   4.214   3.750
10573SOL     OW32617   4.578   6.815   4.730
10573SOL    HW132618   4.484   6.829   4.698
10573SOL    HW232619   4.640   6.814   4.652
10574SOL     OW32620   1.206   1.466   4.352
10574SOL    HW132621   1.191   1.539   4.418
10574SOL    HW232622   1.147   1.481   4.272
10575SOL     OW32623   0.138   1.154   2.997
10575SOL    HW132624   0.105   1.121   3.086
10575SOL    HW232625   0.231   1.189   3.008
10576SOL     OW32626   0.191   6.506   5.522
10576SOL    HW132627   0.251   6.586   5.514
10576SOL    HW232628   0.160   6.478   5.431
10577SOL     OW32629   1.794   2.314   7.016
10577SOL    HW132630   1.748   2.357   0.073
10577SOL    HW232631   1.793   2.377   6.938
10578SOL     OW32632   6.404   0.491   3.147
10578SOL    HW132633   6.394   0.392   3.147
10578SOL    HW232634   6.356   0.530   3.226
10579SOL     OW32635   3.711   1.751   0.407
10579SOL    HW132636   3.803   1.713   0.408
10579SOL    HW232637   3.655   1.704   0.476
10580SOL     OW32638   6.774   0.458   0.476
10580SOL    HW132639   6.797   0.371   0.432
10580SOL    HW232640   6.831   0.531   0.437
10581SOL     OW32641   6.504   6.682   3.133
10581SOL    HW132642   6.414   6.719   3.111
10581SOL    HW232643   6.556   6.666   3.049
10582SOL     OW32644   4.435   4.792   6.616
10582SOL    HW132645   4.466   4.701   6.643
10582SOL    HW232646   4.392   4.837   6.694
10583SOL     OW32647   3.632   1.018   5.386
10583SOL    HW132648   3.724   1.007   5.348
10583SOL    HW232649   3.583   1.090   5.336
10584SOL     OW32650   6.377   6.612   1.558
10584SOL    HW132651   6.324   6.560   1.625
10584SOL    HW232652   6.410   6.697   1.600
10585SOL     OW32653   2.003   3.040   5.265
10585SOL    HW132654   2.080   2.983   5.295
10585SOL    HW232655   1.950   3.068   5.344
10586SOL     OW32656   0.770   5.471   5.011
10586SOL    HW132657   0.753   5.548   5.073
10586SOL    HW232658   0.712   5.394   5.036
10587SOL     OW32659   6.119   4.095   0.617
10587SOL    HW132660   6.096   3.997   0.614
10587SOL    HW232661   6.158   4.122   0.529
10588SOL     OW32662   0.176   3.941   2.416
10588SOL    HW132663   0.176   4.035   2.450
10588SOL    HW232664   0.210   3.940   2.322
10589SOL     OW32665   6.034   1.392   4.891
10589SOL    HW132666   6.120   1.359   4.853
10589SOL    HW232667   6.004   1.474   4.841
10590SOL     OW32668   1.402   0.212   1.760
10590SOL    HW132669   1.353   0.285   1.808
10590SOL    HW232670   1.454   0.158   1.826
10591SOL     OW32671   1.257   1.311   6.342
10591SOL    HW132672   1.193   1.242   6.308
10591SOL    HW232673   1.226   1.345   6.430
10592SOL     OW32674   6.465   2.749   0.484
10592SOL    HW132675   6.397   2.810   0.442
10592SOL    HW232676   6.541   2.803   0.519
10593SOL     OW32677   2.743   5.309   0.688
10593SOL    HW132678   2.674   5.282   0.621
10593SOL    HW232679   2.799   5.229   0.711
10594SOL     OW32680   5.267   0.972   2.306
10594SOL    HW132681   5.291   0.971   2.403
10594SOL    HW232682   5.172   1.000   2.295
10595SOL     OW32683   3.535   0.454   5.962
10595SOL    HW132684   3.476   0.472   5.883
10595SOL    HW232685   3.547   0.539   6.014
10596SOL     OW32686   4.943   0.135   0.532
10596SOL    HW132687   4.936   0.205   0.461
10596SOL    HW232688   4.905   0.170   0.618
10597SOL     OW32689   3.468   1.050   5.003
10597SOL    HW132690   3.431   0.957   5.006
10597SOL    HW232691   3.419   1.103   4.934
10598SOL     OW32692   2.613   2.588   6.757
10598SOL    HW132693   2.668   2.566   6.677
10598SOL    HW232694   2.653   2.545   6.838
10599SOL     OW32695   4.952   2.449   6.956
10599SOL    HW132696   4.882   2.421   6.889
10599SOL    HW232697   5.017   2.374   6.969
10600SOL     OW32698   1.899   3.051   0.252
10600SOL    HW132699   1.887   3.048   0.153
10600SOL    HW232700   1.916   2.958   0.287
10601SOL     OW32701   1.619   4.671   6.621
10601SOL    HW132702   1.568   4.755   6.635
10601SOL    HW232703   1.694   4.667   6.687
10602SOL     OW32704   5.179   1.680   2.921
10602SOL    HW132705   5.154   1.606   2.984
10602SOL    HW232706   5.183   1.766   2.972
10603SOL     OW32707   2.200   5.804   3.931
10603SOL    HW132708   2.256   5.881   3.900
10603SOL    HW232709   2.228   5.779   4.024
10604SOL     OW32710   5.812   3.851   5.332
10604SOL    HW132711   5.804   3.778   5.399
10604SOL    HW232712   5.877   3.920   5.366
10605SOL     OW32713   1.668   4.955   1.044
10605SOL    HW132714   1.623   4.872   1.012
10605SOL    HW232715   1.628   4.983   1.132
10606SOL     OW32716   6.266   0.032   2.717
10606SOL    HW132717   6.260   0.132   2.712
10606SOL    HW232718   6.352   0.006   2.761
10607SOL     OW32719   3.944   4.007   5.840
10607SOL    HW132720   3.988   4.035   5.925
10607SOL    HW232721   3.845   4.022   5.846
10608SOL     OW32722   5.406   1.883   5.426
10608SOL    HW132723   5.406   1.969   5.476
10608SOL    HW232724   5.500   1.850   5.415
10609SOL     OW32725   3.474   6.711   1.927
10609SOL    HW132726   3.422   6.648   1.985
10609SOL    HW232727   3.457   6.805   1.956
10610SOL     OW32728   0.380   3.492   5.974
10610SOL    HW132729   0.394   3.466   5.879
10610SOL    HW232730   0.300   3.553   5.981
10611SOL     OW32731   4.131   4.002   5.332
10611SOL    HW132732   4.214   4.036   5.287
10611SOL    HW232733   4.088   4.076   5.383
10612SOL     OW32734   2.820   6.941   5.660
10612SOL    HW132735   2.890   6.938   5.589
10612SOL    HW232736   2.850   6.888   5.740
10613SOL     OW32737   6.892   0.480   5.021
10613SOL    HW132738   6.943   0.396   5.042
10613SOL    HW232739   6.928   0.520   4.936
10614SOL     OW32740   6.623   1.980   4.716
10614SOL    HW132741   6.716   2.012   4.703
10614SOL    HW232742   6.576   2.039   4.782
10615SOL     OW32743   3.197   6.101   5.828
10615SOL    HW132744   3.257   6.086   5.749
10615SOL    HW232745   3.137   6.022   5.840
10616SOL     OW32746   2.790   6.367   0.762
10616SOL    HW132747   2.809   6.303   0.688
10616SOL    HW232748   2.710   6.336   0.813
10617SOL     OW32749   2.451   2.643   0.625
10617SOL    HW132750   2.373   2.705   0.627
10617SOL    HW232751   2.499   2.653   0.537
10618SOL     OW32752   5.931   3.582   6.883
10618SOL    HW132753   6.017   3.531   6.890
10618SOL    HW232754   5.948   3.679   6.903
10619SOL     OW32755   0.279   3.993   1.566
10619SOL    HW132756   0.375   4.021   1.553
10619SOL    HW232757   0.269   3.948   1.654
10620SOL     OW32758   1.112   5.514   5.842
10620SOL    HW132759   1.042   5.584   5.856
10620SOL    HW232760   1.178   5.546   5.773
10621SOL     OW32761   1.097   6.667   1.297
10621SOL    HW132762   1.063   6.681   1.389
10621SOL    HW232763   1.172   6.730   1.279
10622SOL     OW32764   5.376   0.987   1.019
10622SOL    HW132765   5.473   1.004   1.007
10622SOL    HW232766   5.342   0.933   0.942
10623SOL     OW32767   6.754   4.902   4.022
10623SOL    HW132768   6.655   4.920   4.018
10623SOL    HW232769   6.768   4.803   4.027
10624SOL     OW32770   0.509   1.313   4.802
10624SOL    HW132771   0.497   1.362   4.888
10624SOL    HW232772   0.420   1.277   4.772
10625SOL     OW32773   0.653   4.845   0.158
10625SOL    HW132774   0.555   4.857   0.146
10625SOL    HW232775   0.697   4.934   0.166
10626SOL     OW32776   0.784   3.119   1.160
10626SOL    HW132777   0.868   3.164   1.187
10626SOL    HW232778   0.806   3.031   1.117
10627SOL     OW32779   5.180   5.745   1.438
10627SOL    HW132780   5.215   5.748   1.532
10627SOL    HW232781   5.233   5.679   1.385
10628SOL     OW32782   5.337   5.343   6.010
10628SOL    HW132783   5.243   5.318   5.987
10628SOL    HW232784   5.352   5.439   5.987
10629SOL     OW32785   2.514   4.675   4.800
10629SOL    HW132786   2.600   4.716   4.832
10629SOL    HW232787   2.441   4.743   4.804
10630SOL     OW32788   6.532   1.494   3.641
10630SOL    HW132789   6.600   1.528   3.707
10630SOL    HW232790   6.574   1.487   3.551
10631SOL     OW32791   1.673   4.545   5.080
10631SOL    HW132792   1.763   4.586   5.065
10631SOL    HW232793   1.610   4.614   5.115
10632SOL     OW32794   5.517   1.731   4.077
10632SOL    HW132795   5.519   1.819   4.030
10632SOL    HW232796   5.532   1.746   4.175
10633SOL     OW32797   2.263   3.646   1.331
10633SOL    HW132798   2.341   3.677   1.385
10633SOL    HW232799   2.215   3.573   1.379
10634SOL     OW32800   3.059   5.222   1.406
10634SOL    HW132801   3.055   5.321   1.412
10634SOL    HW232802   3.141   5.194   1.357
10635SOL     OW32803   3.488   1.623   0.985
10635SOL    HW132804   3.392   1.639   1.007
10635SOL    HW232805   3.545   1.665   1.056
10636SOL     OW32806   1.152   2.195   1.453
10636SOL    HW132807   1.184   2.231   1.365
10636SOL    HW232808   1.187   2.252   1.527
10637SOL     OW32809   3.402   4.941   5.476
10637SOL    HW132810   3.388   4.891   5.391
10637SOL    HW232811   3.383   4.882   5.554
10638SOL     OW32812   0.213   5.690   2.940
10638SOL    HW132813   0.119   5.657   2.939
10638SOL    HW232814   0.221   5.766   3.005
10639SOL     OW32815   0.235   2.664   3.226
10639SOL    HW132816   0.320   2.639   3.273
10639SOL    HW232817   0.229   2.616   3.139
10640SOL     OW32818   4.004   0.194   6.352
10640SOL    HW132819   3.983   0.204   6.449
10640SOL    HW232820   4.034   0.281   6.314
10641SOL     OW32821   3.582   2.151   0.072
10641SOL    HW132822   3.644   2.072   0.069
10641SOL    HW232823   3.519   2.147   7.015
10642SOL     OW32824   0.267   2.515   1.875
10642SOL    HW132825   0.361   2.493   1.848
10642SOL    HW232826   0.208   2.437   1.856
10643SOL     OW32827   1.856   4.808   5.428
10643SOL    HW132828   1.932   4.804   5.364
10643SOL    HW232829   1.882   4.765   5.514
10644SOL     OW32830   5.819   2.016   3.172
10644SOL    HW132831   5.818   2.094   3.109
10644SOL    HW232832   5.739   1.959   3.154
10645SOL     OW32833   0.555   0.972   4.765
10645SOL    HW132834   0.586   1.050   4.710
10645SOL    HW232835   0.616   0.894   4.750
10646SOL     OW32836   0.647   1.654   5.527
10646SOL    HW132837   0.725   1.646   5.589
10646SOL    HW232838   0.614   1.562   5.504
10647SOL     OW32839   4.267   5.767   6.995
10647SOL    HW132840   4.246   5.819   6.912
10647SOL    HW232841   4.251   5.669   6.978
10648SOL     OW32842   4.750   3.471   6.578
10648SOL    HW132843   4.676   3.528   6.542
10648SOL    HW232844   4.783   3.409   6.507
10649SOL     OW32845   0.344   4.291   3.021
10649SOL    HW132846   0.340   4.353   3.099
10649SOL    HW232847   0.252   4.276   2.985
10650SOL     OW32848   1.433   6.248   3.039
10650SOL    HW132849   1.489   6.201   3.107
10650SOL    HW232850   1.350   6.283   3.083
10651SOL     OW32851   5.030   6.904   5.896
10651SOL    HW132852   5.053   6.817   5.853
10651SOL    HW232853   4.931   6.913   5.905
10652SOL     OW32854   3.617   0.220   6.536
10652SOL    HW132855   3.672   0.187   6.613
10652SOL    HW232856   3.520   0.201   6.554
10653SOL     OW32857   5.162   4.471   4.422
10653SOL    HW132858   5.211   4.402   4.367
10653SOL    HW232859   5.197   4.470   4.515
10654SOL     OW32860   4.437   1.168   0.630
10654SOL    HW132861   4.510   1.116   0.675
10654SOL    HW232862   4.377   1.106   0.581
10655SOL     OW32863   2.779   5.419   1.641
10655SOL    HW132864   2.736   5.329   1.650
10655SOL    HW232865   2.869   5.417   1.685
10656SOL     OW32866   6.050   2.345   0.577
10656SOL    HW132867   5.965   2.294   0.564
10656SOL    HW232868   6.055   2.418   0.509
10657SOL     OW32869   6.045   6.553   0.041
10657SOL    HW132870   6.042   6.503   6.975
10657SOL    HW232871   5.951   6.568   0.073
10658SOL     OW32872   6.714   4.127   4.606
10658SOL    HW132873   6.770   4.150   4.686
10658SOL    HW232874   6.619   4.152   4.624
10659SOL     OW32875   6.344   6.336   0.667
10659SOL    HW132876   6.264   6.322   0.726
10659SOL    HW232877   6.406   6.402   0.710
10660SOL     OW32878   5.324   4.622   6.670
10660SOL    HW132879   5.240   4.574   6.694
10660SOL    HW232880   5.332   4.626   6.570
10661SOL     OW32881   0.517   6.686   2.235
10661SOL    HW132882   0.435   6.727   2.197
10661SOL    HW232883   0.598   6.730   2.197
10662SOL     OW32884   5.836   0.782   1.963
10662SOL    HW132885   5.772   0.747   2.032
10662SOL    HW232886   5.819   0.880   1.949
10663SOL     OW32887   0.358   6.550   1.481
10663SOL    HW132888   0.321   6.564   1.389
10663SOL    HW232889   0.413   6.467   1.482
10664SOL     OW32890   1.850   4.054   5.706
10664SOL    HW132891   1.836   4.078   5.802
10664SOL    HW232892   1.864   3.956   5.698
10665SOL     OW32893   0.792   0.348   0.481
10665SOL    HW132894   0.753   0.395   0.402
10665SOL    HW232895   0.885   0.381   0.497
10666SOL     OW32896   3.882   4.711   0.169
10666SOL    HW132897   3.881   4.685   0.265
10666SOL    HW232898   3.816   4.656   0.118
10667SOL     OW32899   3.457   2.446   5.422
10667SOL    HW132900   3.441   2.350   5.400
10667SOL    HW232901   3.530   2.452   5.491
10668SOL     OW32902   1.233   1.549   4.993
10668SOL    HW132903   1.296   1.523   5.066
10668SOL    HW232904   1.273   1.526   4.904
10669SOL     OW32905   6.292   6.811   0.781
10669SOL    HW132906   6.252   6.856   0.701
10669SOL    HW232907   6.391   6.826   0.782
10670SOL     OW32908   5.152   4.384   5.806
10670SOL    HW132909   5.057   4.381   5.836
10670SOL    HW232910   5.162   4.454   5.735
10671SOL     OW32911   2.318   2.701   2.433
10671SOL    HW132912   2.384   2.626   2.437
10671SOL    HW232913   2.305   2.728   2.338
10672SOL     OW32914   0.032   2.691   0.532
10672SOL    HW132915   0.017   2.732   0.622
10672SOL    HW232916   0.012   2.593   0.536
10673SOL     OW32917   2.009   2.174   6.086
10673SOL    HW132918   1.929   2.121   6.060
10673SOL    HW232919   2.030   2.159   6.182
10674SOL     OW32920   3.771   3.136   0.634
10674SOL    HW132921   3.760   3.146   0.733
10674SOL    HW232922   3.689   3.095   0.595
10675SOL     OW32923   1.944   0.840   6.206
10675SOL    HW132924   1.882   0.910   6.172
10675SOL    HW232925   1.903   0.750   6.193
10676SOL     OW32926   6.182   0.157   6.463
10676SOL    HW132927   6.122   0.109   6.400
10676SOL    HW232928   6.276   0.126   6.450
10677SOL     OW32929   0.552   0.366   2.194
10677SOL    HW132930   0.537   0.319   2.107
10677SOL    HW232931   0.647   0.396   2.199
10678SOL     OW32932   3.474   5.394   3.231
10678SOL    HW132933   3.436   5.459   3.298
10678SOL    HW232934   3.506   5.444   3.151
10679SOL     OW32935   5.055   4.561   6.057
10679SOL    HW132936   4.998   4.583   6.136
10679SOL    HW232937   5.029   4.472   6.021
10680SOL     OW32938   2.158   2.331   4.067
10680SOL    HW132939   2.157   2.368   4.160
10680SOL    HW232940   2.096   2.383   4.009
10681SOL     OW32941   6.861   3.903   6.400
10681SOL    HW132942   6.809   3.941   6.323
10681SOL    HW232943   6.914   3.976   6.443
10682SOL     OW32944   1.694   1.880   3.166
10682SOL    HW132945   1.737   1.847   3.082
10682SOL    HW232946   1.742   1.843   3.245
10683SOL     OW32947   2.851   2.013   3.724
10683SOL    HW132948   2.761   1.999   3.682
10683SOL    HW232949   2.912   1.938   3.699
10684SOL     OW32950   4.442   3.756   0.366
10684SOL    HW132951   4.438   3.702   0.282
10684SOL    HW232952   4.534   3.749   0.406
10685SOL     OW32953   6.893   4.162   2.191
10685SOL    HW132954   6.967   4.096   2.198
10685SOL    HW232955   6.806   4.118   2.212
10686SOL     OW32956   4.314   5.835   6.404
10686SOL    HW132957   4.293   5.771   6.330
10686SOL    HW232958   4.240   5.900   6.415
10687SOL     OW32959   6.991   5.024   2.115
10687SOL    HW132960   6.946   5.024   2.026
10687SOL    HW232961   0.070   5.031   2.102
10688SOL     OW32962   5.902   4.286   2.460
10688SOL    HW132963   5.871   4.205   2.509
10688SOL    HW232964   6.002   4.287   2.458
10689SOL     OW32965   0.632   0.147   3.218
10689SOL    HW132966   0.570   0.087   3.169
10689SOL    HW232967   0.591   0.238   3.225
10690SOL     OW32968   5.968   5.245   3.715
10690SOL    HW132969   5.907   5.322   3.733
10690SOL    HW232970   6.058   5.264   3.752
10691SOL     OW32971   0.117   2.018   1.962
10691SOL    HW132972   0.200   2.072   1.979
10691SOL    HW232973   0.129   1.965   1.878
10692SOL     OW32974   3.163   5.149   3.650
10692SOL    HW132975   3.232   5.076   3.642
10692SOL    HW232976   3.179   5.218   3.580
10693SOL     OW32977   1.864   0.864   1.700
10693SOL    HW132978   1.817   0.776   1.700
10693SOL    HW232979   1.871   0.898   1.606
10694SOL     OW32980   3.540   6.183   1.280
10694SOL    HW132981   3.578   6.137   1.200
10694SOL    HW232982   3.574   6.277   1.284
10695SOL     OW32983   6.251   2.048   4.078
10695SOL    HW132984   6.333   2.092   4.043
10695SOL    HW232985   6.191   2.023   4.002
10696SOL     OW32986   6.913   5.038   1.859
10696SOL    HW132987   6.849   5.115   1.851
10696SOL    HW232988   6.870   4.955   1.823
10697SOL     OW32989   0.245   6.235   3.998
10697SOL    HW132990   0.212   6.141   3.992
10697SOL    HW232991   0.320   6.248   3.933
10698SOL     OW32992   3.238   6.457   3.981
10698SOL    HW132993   3.174   6.530   3.957
10698SOL    HW232994   3.207   6.371   3.942
10699SOL     OW32995   4.883   1.983   2.941
10699SOL    HW132996   4.975   1.979   2.903
10699SOL    HW232997   4.835   1.897   2.921
10700SOL     OW32998   1.076   0.411   0.439
10700SOL    HW132999   1.162   0.463   0.444
10700SOL    HW233000   1.097   0.314   0.436
10701SOL     OW33001   4.442   6.249   0.108
10701SOL    HW133002   4.479   6.329   0.157
10701SOL    HW233003   4.362   6.277   0.055
10702SOL     OW33004   5.422   2.510   1.590
10702SOL    HW133005   5.512   2.539   1.622
10702SOL    HW233006   5.383   2.445   1.655
10703SOL     OW33007   3.488   3.061   3.712
10703SOL    HW133008   3.544   3.135   3.675
10703SOL    HW233009   3.471   2.993   3.640
10704SOL     OW33010   4.974   6.236   2.153
10704SOL    HW133011   5.040   6.307   2.131
10704SOL    HW233012   4.986   6.208   2.248
10705SOL     OW33013   0.956   3.631   0.140
10705SOL    HW133014   0.904   3.554   0.104
10705SOL    HW233015   1.037   3.647   0.083
10706SOL     OW33016   4.935   0.395   1.503
10706SOL    HW133017   4.909   0.375   1.409
10706SOL    HW233018   4.864   0.450   1.546
10707SOL     OW33019   0.336   6.729   5.501
10707SOL    HW133020   0.370   6.786   5.576
10707SOL    HW233021   0.328   6.785   5.418
10708SOL     OW33022   4.956   1.246   1.554
10708SOL    HW133023   4.900   1.244   1.637
10708SOL    HW233024   5.051   1.267   1.578
10709SOL     OW33025   6.284   0.744   5.373
10709SOL    HW133026   6.313   0.824   5.427
10709SOL    HW233027   6.320   0.661   5.416
10710SOL     OW33028   0.590   6.349   4.880
10710SOL    HW133029   0.531   6.375   4.804
10710SOL    HW233030   0.547   6.275   4.932
10711SOL     OW33031   1.975   0.017   3.998
10711SOL    HW133032   1.959   0.079   3.921
10711SOL    HW233033   2.064   0.038   4.039
10712SOL     OW33034   3.871   0.981   3.670
10712SOL    HW133035   3.826   0.899   3.703
10712SOL    HW233036   3.945   0.956   3.608
10713SOL     OW33037   1.806   5.446   1.663
10713SOL    HW133038   1.710   5.438   1.693
10713SOL    HW233039   1.825   5.540   1.635
10714SOL     OW33040   0.090   4.174   4.950
10714SOL    HW133041   0.140   4.153   4.866
10714SOL    HW233042   0.127   4.122   5.026
10715SOL     OW33043   5.433   0.222   3.104
10715SOL    HW133044   5.488   0.146   3.068
10715SOL    HW233045   5.479   0.309   3.085
10716SOL     OW33046   6.979   1.319   3.742
10716SOL    HW133047   0.035   1.356   3.690
10716SOL    HW233048   6.900   1.305   3.682
10717SOL     OW33049   0.231   1.363   1.177
10717SOL    HW133050   0.305   1.405   1.125
10717SOL    HW233051   0.156   1.429   1.187
10718SOL     OW33052   6.712   5.044   0.544
10718SOL    HW133053   6.697   5.141   0.562
10718SOL    HW233054   6.642   5.010   0.481
10719SOL     OW33055   5.148   6.437   2.204
10719SOL    HW133056   5.107   6.468   2.290
10719SOL    HW233057   5.242   6.470   2.199
10720SOL     OW33058   6.724   3.397   6.032
10720SOL    HW133059   6.823   3.382   6.036
10720SOL    HW233060   6.701   3.480   6.084
10721SOL     OW33061   6.042   2.238   4.035
10721SOL    HW133062   6.110   2.292   3.987
10721SOL    HW233063   6.022   2.155   3.983
10722SOL     OW33064   0.347   3.651   0.078
10722SOL    HW133065   0.272   3.705   0.041
10722SOL    HW233066   0.433   3.702   0.065
10723SOL     OW33067   5.469   3.694   6.917
10723SOL    HW133068   5.401   3.632   6.880
10723SOL    HW233069   5.553   3.644   6.938
10724SOL     OW33070   4.201   6.740   6.265
10724SOL    HW133071   4.169   6.830   6.234
10724SOL    HW233072   4.209   6.739   6.364
10725SOL     OW33073   6.898   5.189   4.311
10725SOL    HW133074   6.918   5.097   4.277
10725SOL    HW233075   6.800   5.196   4.330
10726SOL     OW33076   5.808   0.452   4.926
10726SOL    HW133077   5.806   0.550   4.908
10726SOL    HW233078   5.754   0.431   5.008
10727SOL     OW33079   1.348   4.981   5.187
10727SOL    HW133080   1.289   4.997   5.108
10727SOL    HW233081   1.375   4.885   5.189
10728SOL     OW33082   5.589   6.648   3.012
10728SOL    HW133083   5.648   6.567   3.009
10728SOL    HW233084   5.533   6.651   2.929
10729SOL     OW33085   6.300   1.924   2.410
10729SOL    HW133086   6.339   1.922   2.502
10729SOL    HW233087   6.370   1.899   2.343
10730SOL     OW33088   2.626   5.957   2.147
10730SOL    HW133089   2.642   6.052   2.171
10730SOL    HW233090   2.562   5.916   2.213
10731SOL     OW33091   2.531   5.845   0.793
10731SOL    HW133092   2.532   5.764   0.852
10731SOL    HW233093   2.625   5.870   0.769
10732SOL     OW33094   6.739   6.846   3.180
10732SOL    HW133095   6.677   6.768   3.167
10732SOL    HW233096   6.685   6.929   3.196
10733SOL     OW33097   6.044   2.104   0.025
10733SOL    HW133098   6.122   2.041   0.020
10733SOL    HW233099   6.033   2.151   6.957
10734SOL     OW33100   0.483   0.324   6.303
10734SOL    HW133101   0.468   0.412   6.346
10734SOL    HW233102   0.396   0.287   6.269
10735SOL     OW33103   0.919   4.986   2.237
10735SOL    HW133104   0.967   4.929   2.305
10735SOL    HW233105   0.962   5.076   2.234
10736SOL     OW33106   0.459   0.685   3.334
10736SOL    HW133107   0.483   0.700   3.239
10736SOL    HW233108   0.361   0.702   3.347
10737SOL     OW33109   0.566   2.027   0.938
10737SOL    HW133110   0.623   1.967   0.993
10737SOL    HW233111   0.624   2.092   0.889
10738SOL     OW33112   2.450   0.426   2.747
10738SOL    HW133113   2.482   0.369   2.823
10738SOL    HW233114   2.528   0.470   2.704
10739SOL     OW33115   6.428   2.034   1.815
10739SOL    HW133116   6.354   2.008   1.877
10739SOL    HW233117   6.501   2.079   1.867
10740SOL     OW33118   1.488   6.475   5.555
10740SOL    HW133119   1.515   6.439   5.466
10740SOL    HW233120   1.408   6.424   5.589
10741SOL     OW33121   2.015   1.907   3.531
10741SOL    HW133122   2.109   1.902   3.564
10741SOL    HW233123   1.984   2.002   3.533
10742SOL     OW33124   5.690   6.488   2.332
10742SOL    HW133125   5.776   6.460   2.375
10742SOL    HW233126   5.626   6.411   2.332
10743SOL     OW33127   3.811   1.573   4.915
10743SOL    HW133128   3.850   1.484   4.895
10743SOL    HW233129   3.837   1.638   4.843
10744SOL     OW33130   2.964   1.434   2.214
10744SOL    HW133131   3.023   1.373   2.266
10744SOL    HW233132   2.962   1.405   2.118
10745SOL     OW33133   2.462   4.887   0.646
10745SOL    HW133134   2.538   4.853   0.591
10745SOL    HW233135   2.493   4.959   0.707
10746SOL     OW33136   2.318   5.720   1.397
10746SOL    HW133137   2.279   5.668   1.473
10746SOL    HW233138   2.374   5.660   1.340
10747SOL     OW33139   5.427   1.881   3.425
10747SOL    HW133140   5.350   1.866   3.364
10747SOL    HW233141   5.440   1.979   3.438
10748SOL     OW33142   5.327   5.573   1.232
10748SOL    HW133143   5.383   5.647   1.195
10748SOL    HW233144   5.385   5.509   1.281
10749SOL     OW33145   6.537   4.634   3.124
10749SOL    HW133146   6.568   4.577   3.201
10749SOL    HW233147   6.514   4.575   3.047
10750SOL     OW33148   4.799   4.150   4.589
10750SOL    HW133149   4.718   4.190   4.547
10750SOL    HW233150   4.793   4.160   4.689
10751SOL     OW33151   1.239   2.872   5.165
10751SOL    HW133152   1.331   2.891   5.131
10751SOL    HW233153   1.209   2.948   5.224
10752SOL     OW33154   5.987   4.532   6.873
10752SOL    HW133155   6.083   4.556   6.889
10752SOL    HW233156   5.977   4.433   6.871
10753SOL     OW33157   4.958   0.245   4.072
10753SOL    HW133158   5.008   0.314   4.125
10753SOL    HW233159   4.925   0.286   3.986
10754SOL     OW33160   0.741   2.846   1.952
10754SOL    HW133161   0.821   2.836   2.010
10754SOL    HW233162   0.693   2.931   1.975
10755SOL     OW33163   0.207   1.701   0.825
10755SOL    HW133164   0.252   1.785   0.795
10755SOL    HW233165   0.177   1.649   0.745
10756SOL     OW33166   6.432   2.377   0.164
10756SOL    HW133167   6.401   2.327   0.244
10756SOL    HW233168   6.410   2.326   0.081
10757SOL     OW33169   0.326   4.309   0.493
10757SOL    HW133170   0.264   4.296   0.571
10757SOL    HW233171   0.295   4.387   0.439
10758SOL     OW33172   0.334   5.544   6.018
10758SOL    HW133173   0.275   5.569   5.941
10758SOL    HW233174   0.352   5.624   6.075
10759SOL     OW33175   1.690   3.357   5.845
10759SOL    HW133176   1.594   3.374   5.870
10759SOL    HW233177   1.717   3.266   5.876
10760SOL     OW33178   1.287   5.683   1.006
10760SOL    HW133179   1.351   5.758   1.026
10760SOL    HW233180   1.200   5.720   0.975
10761SOL     OW33181   0.985   2.577   6.320
10761SOL    HW133182   1.062   2.591   6.258
10761SOL    HW233183   0.900   2.586   6.270
10762SOL     OW33184   4.675   0.749   6.017
10762SOL    HW133185   4.688   0.706   5.927
10762SOL    HW233186   4.739   0.824   6.028
10763SOL     OW33187   5.075   0.376   1.753
10763SOL    HW133188   5.101   0.473   1.758
10763SOL    HW233189   5.008   0.364   1.680
10764SOL     OW33190   5.292   1.220   5.610
10764SOL    HW133191   5.364   1.220   5.679
10764SOL    HW233192   5.208   1.257   5.649
10765SOL     OW33193   5.608   1.408   2.523
10765SOL    HW133194   5.703   1.428   2.546
10765SOL    HW233195   5.600   1.315   2.488
10766SOL     OW33196   2.060   4.301   0.362
10766SOL    HW133197   1.973   4.252   0.367
10766SOL    HW233198   2.135   4.235   0.353
10767SOL     OW33199   2.031   6.275   0.800
10767SOL    HW133200   2.051   6.372   0.807
10767SOL    HW233201   2.090   6.234   0.730
10768SOL     OW33202   5.019   5.385   0.535
10768SOL    HW133203   5.015   5.323   0.457
10768SOL    HW233204   5.101   5.442   0.528
10769SOL     OW33205   2.882   4.377   5.329
10769SOL    HW133206   2.887   4.437   5.249
10769SOL    HW233207   2.803   4.317   5.321
10770SOL     OW33208   5.285   0.270   4.752
10770SOL    HW133209   5.338   0.190   4.779
10770SOL    HW233210   5.214   0.243   4.687
10771SOL     OW33211   4.377   0.304   5.174
10771SOL    HW133212   4.282   0.315   5.145
10771SOL    HW233213   4.394   0.363   5.253
10772SOL     OW33214   6.883   6.423   3.741
10772SOL    HW133215   6.884   6.418   3.641
10772SOL    HW233216   6.816   6.491   3.771
10773SOL     OW33217   6.956   4.284   6.747
10773SOL    HW133218   0.017   4.284   6.806
10773SOL    HW233219   6.899   4.363   6.768
10774SOL     OW33220   1.686   2.694   1.583
10774SOL    HW133221   1.721   2.616   1.634
10774SOL    HW233222   1.693   2.675   1.485
10775SOL     OW33223   2.081   4.315   1.724
10775SOL    HW133224   2.159   4.310   1.663
10775SOL    HW233225   2.085   4.399   1.778
10776SOL     OW33226   0.429   6.805   2.480
10776SOL    HW133227   0.488   6.781   2.404
10776SOL    HW233228   0.400   6.900   2.471
10777SOL     OW33229   4.262   0.362   3.412
10777SOL    HW133230   4.332   0.407   3.356
10777SOL    HW233231   4.270   0.394   3.507
10778SOL     OW33232   6.338   5.906   4.776
10778SOL    HW133233   6.265   5.851   4.816
10778SOL    HW233234   6.299   5.973   4.713
10779SOL     OW33235   6.313   4.432   2.628
10779SOL    HW133236   6.258   4.363   2.580
10779SOL    HW233237   6.295   4.426   2.726
10780SOL     OW33238   6.867   5.421   4.157
10780SOL    HW133239   6.876   5.327   4.189
10780SOL    HW233240   6.954   5.453   4.121
10781SOL     OW33241   5.259   0.859   4.397
10781SOL    HW133242   5.233   0.796   4.471
10781SOL    HW233243   5.335   0.819   4.346
10782SOL     OW33244   6.287   3.343   4.263
10782SOL    HW133245   6.358   3.400   4.221
10782SOL    HW233246   6.202   3.395   4.267
10783SOL     OW33247   2.180   2.897   2.598
10783SOL    HW133248   2.200   2.834   2.524
10783SOL    HW233249   2.229   2.869   2.681
10784SOL     OW33250   2.566   6.340   2.014
10784SOL    HW133251   2.626   6.294   2.079
10784SOL    HW233252   2.490   6.384   2.063
10785SOL     OW33253   1.479   5.301   1.366
10785SOL    HW133254   1.454   5.299   1.463
10785SOL    HW233255   1.553   5.236   1.349
10786SOL     OW33256   4.273   1.970   2.530
10786SOL    HW133257   4.297   1.880   2.494
10786SOL    HW233258   4.281   1.969   2.630
10787SOL     OW33259   3.357   1.218   4.037
10787SOL    HW133260   3.373   1.181   3.945
10787SOL    HW233261   3.390   1.312   4.041
10788SOL     OW33262   1.989   4.041   0.185
10788SOL    HW133263   1.931   4.111   0.142
10788SOL    HW233264   1.964   3.951   0.149
10789SOL     OW33265   6.516   1.184   0.438
10789SOL    HW133266   6.588   1.248   0.414
10789SOL    HW233267   6.454   1.173   0.361
10790SOL     OW33268   6.240   1.287   5.643
10790SOL    HW133269   6.221   1.352   5.717
10790SOL    HW233270   6.327   1.242   5.661
10791SOL     OW33271   1.981   1.931   1.970
10791SOL    HW133272   2.041   1.953   2.047
10791SOL    HW233273   1.995   1.836   1.943
10792SOL     OW33274   3.485   2.643   1.189
10792SOL    HW133275   3.444   2.562   1.148
10792SOL    HW233276   3.516   2.622   1.281
10793SOL     OW33277   5.232   1.964   4.346
10793SOL    HW133278   5.229   1.868   4.321
10793SOL    HW233279   5.238   2.020   4.263
10794SOL     OW33280   3.867   3.919   1.827
10794SOL    HW133281   3.874   3.833   1.878
10794SOL    HW233282   3.841   3.993   1.890
10795SOL     OW33283   6.433   3.842   2.325
10795SOL    HW133284   6.342   3.835   2.285
10795SOL    HW233285   6.436   3.793   2.412
10796SOL     OW33286   4.524   6.746   6.358
10796SOL    HW133287   4.465   6.806   6.411
10796SOL    HW233288   4.470   6.673   6.317
10797SOL     OW33289   3.896   2.783   6.702
10797SOL    HW133290   3.844   2.740   6.775
10797SOL    HW233291   3.895   2.725   6.621
10798SOL     OW33292   2.626   0.101   6.590
10798SOL    HW133293   2.721   0.120   6.567
10798SOL    HW233294   2.591   0.174   6.649
10799SOL     OW33295   3.694   2.090   2.619
10799SOL    HW133296   3.717   2.129   2.530
10799SOL    HW233297   3.628   2.016   2.606
10800SOL     OW33298   2.457   6.670   1.053
10800SOL    HW133299   2.388   6.742   1.065
10800SOL    HW233300   2.415   6.581   1.063
10801SOL     OW33301   1.926   6.294   5.489
10801SOL    HW133302   2.015   6.281   5.534
10801SOL    HW233303   1.886   6.205   5.469
10802SOL     OW33304   1.957   3.125   3.701
10802SOL    HW133305   1.950   3.197   3.632
10802SOL    HW233306   1.882   3.060   3.689
10803SOL     OW33307   5.572   4.649   5.626
10803SOL    HW133308   5.564   4.719   5.555
10803SOL    HW233309   5.485   4.642   5.675
10804SOL     OW33310   6.796   3.739   0.736
10804SOL    HW133311   6.788   3.790   0.821
10804SOL    HW233312   6.793   3.641   0.755
10805SOL     OW33313   3.489   6.676   6.983
10805SOL    HW133314   3.447   6.633   0.043
10805SOL    HW233315   3.564   6.735   7.013
10806SOL     OW33316   6.038   3.951   0.153
10806SOL    HW133317   6.061   3.878   0.218
10806SOL    HW233318   6.122   3.996   0.123
10807SOL     OW33319   3.329   6.637   3.429
10807SOL    HW133320   3.327   6.564   3.497
10807SOL    HW233321   3.289   6.604   3.344
10808SOL     OW33322   0.517   4.026   6.911
10808SOL    HW133323   0.615   4.046   6.915
10808SOL    HW233324   0.496   3.947   6.969
10809SOL     OW33325   2.780   0.954   4.454
10809SOL    HW133326   2.854   0.894   4.484
10809SOL    HW233327   2.809   1.006   4.374
10810SOL     OW33328   0.563   1.257   5.926
10810SOL    HW133329   0.537   1.342   5.881
10810SOL    HW233330   0.499   1.238   6.001
10811SOL     OW33331   3.841   5.288   5.894
10811SOL    HW133332   3.891   5.369   5.924
10811SOL    HW233333   3.813   5.234   5.973
10812SOL     OW33334   0.465   2.543   2.811
10812SOL    HW133335   0.552   2.557   2.858
10812SOL    HW233336   0.476   2.562   2.714
10813SOL     OW33337   3.018   6.173   1.619
10813SOL    HW133338   2.993   6.078   1.599
10813SOL    HW233339   2.936   6.230   1.616
10814SOL     OW33340   1.660   0.375   5.840
10814SOL    HW133341   1.664   0.457   5.897
10814SOL    HW233342   1.621   0.299   5.894
10815SOL     OW33343   4.954   4.543   2.998
10815SOL    HW133344   4.974   4.628   2.949
10815SOL    HW233345   5.031   4.520   3.058
10816SOL     OW33346   1.371   1.374   2.234
10816SOL    HW133347   1.288   1.405   2.281
10816SOL    HW233348   1.349   1.296   2.176
10817SOL     OW33349   5.397   6.928   2.846
10817SOL    HW133350   5.396   6.948   2.944
10817SOL    HW233351   5.491   6.917   2.815
10818SOL     OW33352   5.532   2.893   6.507
10818SOL    HW133353   5.454   2.841   6.542
10818SOL    HW233354   5.501   2.983   6.476
10819SOL     OW33355   0.849   3.745   6.515
10819SOL    HW133356   0.773   3.697   6.470
10819SOL    HW233357   0.922   3.680   6.533
10820SOL     OW33358   0.056   6.959   4.108
10820SOL    HW133359   0.091   6.866   4.093
10820SOL    HW233360   6.991   6.971   4.056
10821SOL     OW33361   0.113   6.148   2.329
10821SOL    HW133362   0.015   6.141   2.345
10821SOL    HW233363   0.132   6.230   2.274
10822SOL     OW33364   1.393   3.611   2.522
10822SOL    HW133365   1.434   3.522   2.504
10822SOL    HW233366   1.321   3.602   2.591
10823SOL     OW33367   1.986   6.034   1.508
10823SOL    HW133368   2.047   6.112   1.524
10823SOL    HW233369   1.913   6.035   1.577
10824SOL     OW33370   5.278   6.886   3.426
10824SOL    HW133371   5.361   6.941   3.427
10824SOL    HW233372   5.233   6.892   3.515
10825SOL     OW33373   2.136   1.401   1.139
10825SOL    HW133374   2.117   1.473   1.206
10825SOL    HW233375   2.133   1.440   1.047
10826SOL     OW33376   6.835   3.674   2.348
10826SOL    HW133377   6.857   3.585   2.310
10826SOL    HW233378   6.756   3.712   2.299
10827SOL     OW33379   6.226   3.432   3.786
10827SOL    HW133380   6.198   3.346   3.745
10827SOL    HW233381   6.315   3.459   3.747
10828SOL     OW33382   0.844   5.991   1.591
10828SOL    HW133383   0.793   6.024   1.671
10828SOL    HW233384   0.834   6.057   1.516
10829SOL     OW33385   2.206   3.246   1.291
10829SOL    HW133386   2.271   3.233   1.366
10829SOL    HW233387   2.136   3.313   1.318
10830SOL     OW33388   6.178   2.913   4.421
10830SOL    HW133389   6.126   2.924   4.336
10830SOL    HW233390   6.212   3.002   4.451
10831SOL     OW33391   5.176   0.278   1.989
10831SOL    HW133392   5.118   0.327   1.924
10831SOL    HW233393   5.272   0.287   1.961
10832SOL     OW33394   0.730   2.304   0.565
10832SOL    HW133395   0.693   2.395   0.548
10832SOL    HW233396   0.809   2.288   0.506
10833SOL     OW33397   2.292   0.158   3.849
10833SOL    HW133398   2.305   0.198   3.940
10833SOL    HW233399   2.345   0.210   3.783
10834SOL     OW33400   0.332   1.615   5.181
10834SOL    HW133401   0.243   1.660   5.179
10834SOL    HW233402   0.378   1.638   5.267
10835SOL     OW33403   6.728   1.869   1.786
10835SOL    HW133404   6.652   1.838   1.844
10835SOL    HW233405   6.787   1.791   1.765
10836SOL     OW33406   6.782   1.710   5.369
10836SOL    HW133407   6.710   1.712   5.300
10836SOL    HW233408   6.745   1.737   5.457
10837SOL     OW33409   6.853   4.705   0.202
10837SOL    HW133410   6.953   4.708   0.211
10837SOL    HW233411   6.825   4.611   0.183
10838SOL     OW33412   5.641   0.305   5.707
10838SOL    HW133413   5.674   0.336   5.796
10838SOL    HW233414   5.717   0.266   5.655
10839SOL     OW33415   3.000   2.296   0.074
10839SOL    HW133416   2.953   2.251   7.018
10839SOL    HW233417   2.937   2.303   0.152
10840SOL     OW33418   3.587   6.043   1.541
10840SOL    HW133419   3.635   6.084   1.464
10840SOL    HW233420   3.549   6.115   1.599
10841SOL     OW33421   3.922   6.178   5.847
10841SOL    HW133422   3.913   6.278   5.844
10841SOL    HW233423   3.893   6.145   5.936
10842SOL     OW33424   6.567   2.963   1.144
10842SOL    HW133425   6.584   3.007   1.232
10842SOL    HW233426   6.579   3.030   1.070
10843SOL     OW33427   0.877   1.918   1.863
10843SOL    HW133428   0.929   2.003   1.861
10843SOL    HW233429   0.936   1.843   1.894
10844SOL     OW33430   6.483   6.201   4.448
10844SOL    HW133431   6.556   6.132   4.442
10844SOL    HW233432   6.472   6.230   4.543
10845SOL     OW33433   1.168   1.308   1.398
10845SOL    HW133434   1.088   1.299   1.457
10845SOL    HW233435   1.175   1.226   1.340
10846SOL     OW33436   4.992   1.599   0.373
10846SOL    HW133437   5.032   1.508   0.363
10846SOL    HW233438   5.008   1.633   0.465
10847SOL     OW33439   2.524   1.676   5.964
10847SOL    HW133440   2.534   1.665   6.063
10847SOL    HW233441   2.556   1.593   5.918
10848SOL     OW33442   2.786   1.878   6.979
10848SOL    HW133443   2.875   1.906   7.016
10848SOL    HW233444   2.719   1.872   0.033
10849SOL     OW33445   3.537   4.906   3.666
10849SOL    HW133446   3.635   4.887   3.671
10849SOL    HW233447   3.497   4.902   3.758
10850SOL     OW33448   4.091   6.789   6.908
10850SOL    HW133449   4.059   6.882   6.923
10850SOL    HW233450   4.020   6.736   6.861
10851SOL     OW33451   3.285   3.014   5.799
10851SOL    HW133452   3.319   3.075   5.728
10851SOL    HW233453   3.251   3.068   5.876
10852SOL     OW33454   0.120   1.121   6.458
10852SOL    HW133455   0.206   1.173   6.455
10852SOL    HW233456   0.109   1.072   6.371
10853SOL     OW33457   3.282   1.828   4.217
10853SOL    HW133458   3.303   1.731   4.227
10853SOL    HW233459   3.188   1.845   4.246
10854SOL     OW33460   5.745   0.443   6.863
10854SOL    HW133461   5.677   0.390   6.914
10854SOL    HW233462   5.771   0.393   6.781
10855SOL     OW33463   2.908   5.996   2.494
10855SOL    HW133464   2.937   5.901   2.508
10855SOL    HW233465   2.834   6.017   2.558
10856SOL     OW33466   5.907   0.100   0.815
10856SOL    HW133467   5.868   0.150   0.892
10856SOL    HW233468   6.007   0.097   0.825
10857SOL     OW33469   6.291   2.423   3.098
10857SOL    HW133470   6.205   2.371   3.092
10857SOL    HW233471   6.294   2.490   3.024
10858SOL     OW33472   1.930   3.315   0.126
10858SOL    HW133473   1.900   3.225   0.096
10858SOL    HW233474   1.854   3.364   0.169
10859SOL     OW33475   1.853   3.614   2.961
10859SOL    HW133476   1.937   3.618   3.015
10859SOL    HW233477   1.799   3.534   2.990
10860SOL     OW33478   6.426   1.120   0.193
10860SOL    HW133479   6.442   1.022   0.193
10860SOL    HW233480   6.470   1.161   0.113
10861SOL     OW33481   3.733   2.899   1.864
10861SOL    HW133482   3.781   2.834   1.804
10861SOL    HW233483   3.663   2.947   1.811
10862SOL     OW33484   2.573   2.347   6.463
10862SOL    HW133485   2.644   2.326   6.396
10862SOL    HW233486   2.495   2.285   6.450
10863SOL     OW33487   2.784   0.467   2.880
10863SOL    HW133488   2.771   0.519   2.796
10863SOL    HW233489   2.839   0.385   2.861
10864SOL     OW33490   2.308   4.780   1.331
10864SOL    HW133491   2.277   4.686   1.318
10864SOL    HW233492   2.252   4.825   1.400
10865SOL     OW33493   5.588   3.203   3.637
10865SOL    HW133494   5.543   3.291   3.654
10865SOL    HW233495   5.521   3.138   3.602
10866SOL     OW33496   6.214   3.139   0.974
10866SOL    HW133497   6.225   3.238   0.986
10866SOL    HW233498   6.187   3.097   1.060
10867SOL     OW33499   2.770   2.999   0.356
10867SOL    HW133500   2.820   3.049   0.426
10867SOL    HW233501   2.819   2.915   0.333
10868SOL     OW33502   1.044   2.033   3.271
10868SOL    HW133503   1.025   2.093   3.350
10868SOL    HW233504   1.118   1.971   3.294
10869NA      NA33505   0.699   1.884   6.091
10870NA      NA33506   4.528   4.430   5.168
10871NA      NA33507   1.869   4.879   2.884
10872NA      NA33508   5.211   4.386   3.860
10873NA      NA33509   4.337   2.469   5.251
10874NA      NA33510   3.046   4.886   1.459
10875NA      NA33511   1.305   4.815   0.406
10876NA      NA33512   4.034   4.225   1.599
10877NA      NA33513   4.568   3.863   0.921
10878NA      NA33514   3.423   1.239   5.720
10879NA      NA33515   5.042   5.899   2.064
10880NA      NA33516   1.603   0.399   5.584
10881NA      NA33517   5.086   5.081   1.918
10882NA      NA33518   3.223   3.328   0.258
   7.01984   7.01984   7.01984
