Generated by trjconv : CNT in water t= 122.00000
33518
    1C        C    1   2.841   2.767   4.747
    1C        C    2   2.892   2.716   4.868
    1C        C    3   2.836   2.768   4.986
    1C        C    4   2.844   2.771   4.262
    1C        C    5   2.899   2.724   4.383
    1C        C    6   2.844   2.772   4.504
    1C        C    7   3.010   2.641   4.626
    1C        C    8   2.893   2.719   4.625
    1C        C    9   3.071   2.598   4.746
    1C        C   10   3.003   2.629   4.865
    1C        C   11   3.177   2.492   4.975
    1C        C   12   3.060   2.568   4.978
    1C        C   13   2.847   2.768   3.774
    1C        C   14   2.897   2.721   3.898
    1C        C   15   2.846   2.770   4.020
    1C        C   16   3.018   2.644   4.139
    1C        C   17   2.905   2.728   4.141
    1C        C   18   3.079   2.610   4.262
    1C        C   19   3.014   2.642   4.383
    1C        C   20   3.208   2.558   4.506
    1C        C   21   3.074   2.604   4.505
    1C        C   22   3.278   2.544   4.627
    1C        C   23   3.204   2.547   4.747
    1C        C   24   3.412   2.490   4.867
    1C        C   25   3.269   2.502   4.865
    1C        C   26   3.489   2.480   4.983
    1C        C   27   2.844   2.762   3.282
    1C        C   28   2.900   2.719   3.405
    1C        C   29   2.852   2.770   3.528
    1C        C   30   3.013   2.637   3.650
    1C        C   31   2.902   2.724   3.652
    1C        C   32   3.076   2.606   3.773
    1C        C   33   3.012   2.640   3.895
    1C        C   34   3.209   2.557   4.017
    1C        C   35   3.076   2.606   4.016
    1C        C   36   3.277   2.537   4.139
    1C        C   37   3.211   2.560   4.262
    1C        C   38   3.418   2.520   4.383
    1C        C   39   3.278   2.540   4.385
    1C        C   40   3.489   2.506   4.505
    1C        C   41   3.417   2.515   4.626
    1C        C   42   3.630   2.492   4.747
    1C        C   43   3.487   2.495   4.747
    1C        C   44   3.705   2.490   4.866
    1C        C   45   3.628   2.474   4.982
    1C        C   46   2.831   2.747   2.791
    1C        C   47   2.885   2.704   2.915
    1C        C   48   2.838   2.755   3.038
    1C        C   49   3.015   2.638   3.161
    1C        C   50   2.895   2.712   3.160
    1C        C   51   3.078   2.605   3.283
    1C        C   52   3.017   2.641   3.405
    1C        C   53   3.208   2.552   3.529
    1C        C   54   3.076   2.603   3.528
    1C        C   55   3.276   2.533   3.652
    1C        C   56   3.208   2.555   3.774
    1C        C   57   3.416   2.511   3.896
    1C        C   58   3.277   2.534   3.895
    1C        C   59   3.487   2.509   4.018
    1C        C   60   3.416   2.513   4.140
    1C        C   61   3.629   2.504   4.262
    1C        C   62   3.488   2.509   4.261
    1C        C   63   3.702   2.514   4.383
    1C        C   64   3.630   2.508   4.504
    1C        C   65   3.837   2.548   4.621
    1C        C   66   3.700   2.513   4.626
    1C        C   67   3.903   2.567   4.744
    1C        C   68   3.841   2.527   4.865
    1C        C   69   4.052   2.591   4.978
    1C        C   70   3.925   2.534   4.977
    1C        C   71   2.824   2.732   2.307
    1C        C   72   2.884   2.696   2.430
    1C        C   73   2.830   2.745   2.551
    1C        C   74   3.006   2.621   2.674
    1C        C   75   2.886   2.697   2.671
    1C        C   76   3.070   2.594   2.797
    1C        C   77   3.005   2.629   2.918
    1C        C   78   3.207   2.552   3.037
    1C        C   79   3.075   2.604   3.038
    1C        C   80   3.273   2.533   3.160
    1C        C   81   3.209   2.552   3.284
    1C        C   82   3.415   2.511   3.405
    1C        C   83   3.275   2.529   3.407
    1C        C   84   3.484   2.505   3.528
    1C        C   85   3.415   2.509   3.651
    1C        C   86   3.627   2.509   3.771
    1C        C   87   3.486   2.505   3.773
    1C        C   88   3.696   2.520   3.894
    1C        C   89   3.628   2.517   4.018
    1C        C   90   3.837   2.548   4.136
    1C        C   91   3.699   2.519   4.140
    1C        C   92   3.905   2.574   4.257
    1C        C   93   3.839   2.548   4.379
    1C        C   94   4.033   2.634   4.499
    1C        C   95   3.907   2.570   4.501
    1C        C   96   4.093   2.670   4.622
    1C        C   97   4.033   2.625   4.741
    1C        C   98   4.194   2.766   4.861
    1C        C   99   4.105   2.654   4.861
    1C        C  100   4.213   2.844   4.976
    1C        C  101   2.827   2.733   2.071
    1C        C  102   2.993   2.590   2.189
    1C        C  103   2.878   2.675   2.188
    1C        C  104   3.061   2.570   2.312
    1C        C  105   3.001   2.617   2.432
    1C        C  106   3.198   2.533   2.552
    1C        C  107   3.067   2.584   2.552
    1C        C  108   3.269   2.516   2.673
    1C        C  109   3.200   2.538   2.794
    1C        C  110   3.412   2.504   2.916
    1C        C  111   3.273   2.528   2.914
    1C        C  112   3.482   2.498   3.039
    1C        C  113   3.412   2.510   3.161
    1C        C  114   3.626   2.511   3.280
    1C        C  115   3.485   2.507   3.283
    1C        C  116   3.695   2.517   3.403
    1C        C  117   3.626   2.508   3.525
    1C        C  118   3.833   2.547   3.647
    1C        C  119   3.695   2.517   3.648
    1C        C  120   3.900   2.573   3.768
    1C        C  121   3.834   2.550   3.892
    1C        C  122   4.026   2.639   4.014
    1C        C  123   3.904   2.568   4.013
    1C        C  124   4.092   2.673   4.134
    1C        C  125   4.033   2.633   4.257
    1C        C  126   4.202   2.764   4.377
    1C        C  127   4.095   2.673   4.378
    1C        C  128   4.244   2.822   4.500
    1C        C  129   4.198   2.765   4.620
    1C        C  130   4.328   2.937   4.741
    1C        C  131   4.248   2.819   4.741
    1C        C  132   4.361   3.001   4.863
    1C        C  133   4.284   2.963   4.974
    1C        C  134   3.177   2.475   2.083
    1C        C  135   3.042   2.511   2.080
    1C        C  136   3.263   2.481   2.193
    1C        C  137   3.194   2.520   2.310
    1C        C  138   3.405   2.483   2.431
    1C        C  139   3.265   2.503   2.431
    1C        C  140   3.480   2.489   2.550
    1C        C  141   3.409   2.501   2.671
    1C        C  142   3.622   2.499   2.792
    1C        C  143   3.481   2.495   2.793
    1C        C  144   3.693   2.512   2.913
    1C        C  145   3.623   2.504   3.035
    1C        C  146   3.833   2.537   3.159
    1C        C  147   3.695   2.509   3.156
    1C        C  148   3.903   2.561   3.280
    1C        C  149   3.835   2.541   3.402
    1C        C  150   4.028   2.627   3.523
    1C        C  151   3.902   2.562   3.524
    1C        C  152   4.085   2.669   3.645
    1C        C  153   4.026   2.636   3.769
    1C        C  154   4.195   2.764   3.888
    1C        C  155   4.083   2.678   3.891
    1C        C  156   4.250   2.810   4.010
    1C        C  157   4.204   2.759   4.133
    1C        C  158   4.341   2.922   4.255
    1C        C  159   4.256   2.809   4.255
    1C        C  160   4.379   2.985   4.375
    1C        C  161   4.330   2.934   4.497
    1C        C  162   4.437   3.117   4.618
    1C        C  163   4.370   2.993   4.619
    1C        C  164   4.473   3.183   4.738
    1C        C  165   4.438   3.119   4.859
    1C        C  166   4.508   3.322   4.974
    1C        C  167   4.483   3.185   4.974
    1C        C  168   3.482   2.437   2.077
    1C        C  169   3.403   2.458   2.191
    1C        C  170   3.619   2.471   2.309
    1C        C  171   3.477   2.470   2.310
    1C        C  172   3.694   2.493   2.427
    1C        C  173   3.622   2.488   2.548
    1C        C  174   3.829   2.538   2.669
    1C        C  175   3.691   2.509   2.669
    1C        C  176   3.895   2.565   2.791
    1C        C  177   3.831   2.541   2.915
    1C        C  178   4.026   2.625   3.034
    1C        C  179   3.900   2.562   3.037
    1C        C  180   4.084   2.669   3.155
    1C        C  181   4.028   2.628   3.278
    1C        C  182   4.201   2.748   3.399
    1C        C  183   4.090   2.661   3.400
    1C        C  184   4.250   2.801   3.520
    1C        C  185   4.196   2.757   3.643
    1C        C  186   4.340   2.915   3.766
    1C        C  187   4.247   2.809   3.764
    1C        C  188   4.381   2.978   3.885
    1C        C  189   4.342   2.917   4.007
    1C        C  190   4.441   3.103   4.132
    1C        C  191   4.377   2.977   4.130
    1C        C  192   4.466   3.174   4.252
    1C        C  193   4.444   3.111   4.376
    1C        C  194   4.507   3.317   4.494
    1C        C  195   4.467   3.182   4.496
    1C        C  196   4.528   3.389   4.614
    1C        C  197   4.514   3.319   4.735
    1C        C  198   4.555   3.534   4.852
    1C        C  199   4.531   3.393   4.856
    1C        C  200   4.579   3.622   4.962
    1C        C  201   3.620   2.414   2.078
    1C        C  202   3.832   2.505   2.184
    1C        C  203   3.696   2.462   2.189
    1C        C  204   3.903   2.538   2.304
    1C        C  205   3.832   2.525   2.425
    1C        C  206   4.025   2.616   2.544
    1C        C  207   3.898   2.554   2.547
    1C        C  208   4.085   2.656   2.666
    1C        C  209   4.021   2.628   2.789
    1C        C  210   4.195   2.750   2.907
    1C        C  211   4.085   2.661   2.911
    1C        C  212   4.248   2.799   3.028
    1C        C  213   4.196   2.756   3.152
    1C        C  214   4.339   2.908   3.276
    1C        C  215   4.249   2.799   3.276
    1C        C  216   4.378   2.968   3.398
    1C        C  217   4.339   2.910   3.521
    1C        C  218   4.441   3.098   3.641
    1C        C  219   4.379   2.971   3.642
    1C        C  220   4.467   3.167   3.761
    1C        C  221   4.442   3.106   3.886
    1C        C  222   4.500   3.306   4.006
    1C        C  223   4.470   3.168   4.010
    1C        C  224   4.510   3.379   4.126
    1C        C  225   4.498   3.311   4.250
    1C        C  226   4.521   3.525   4.367
    1C        C  227   4.512   3.384   4.370
    1C        C  228   4.522   3.600   4.487
    1C        C  229   4.531   3.530   4.610
    1C        C  230   4.504   3.742   4.727
    1C        C  231   4.540   3.605   4.729
    1C        C  232   4.492   3.818   4.845
    1C        C  233   4.543   3.757   4.961
    1C        C  234   4.019   2.612   2.063
    1C        C  235   3.899   2.543   2.067
    1C        C  236   4.090   2.646   2.180
    1C        C  237   4.027   2.608   2.300
    1C        C  238   4.202   2.732   2.422
    1C        C  239   4.085   2.651   2.421
    1C        C  240   4.252   2.784   2.543
    1C        C  241   4.200   2.736   2.666
    1C        C  242   4.342   2.901   2.787
    1C        C  243   4.252   2.792   2.785
    1C        C  244   4.384   2.960   2.908
    1C        C  245   4.342   2.905   3.031
    1C        C  246   4.436   3.094   3.149
    1C        C  247   4.378   2.965   3.153
    1C        C  248   4.462   3.161   3.271
    1C        C  249   4.438   3.095   3.394
    1C        C  250   4.497   3.299   3.517
    1C        C  251   4.465   3.161   3.516
    1C        C  252   4.505   3.374   3.637
    1C        C  253   4.501   3.304   3.759
    1C        C  254   4.517   3.515   3.878
    1C        C  255   4.509   3.374   3.882
    1C        C  256   4.513   3.587   3.999
    1C        C  257   4.514   3.520   4.124
    1C        C  258   4.494   3.733   4.239
    1C        C  259   4.519   3.594   4.244
    1C        C  260   4.468   3.802   4.360
    1C        C  261   4.489   3.737   4.484
    1C        C  262   4.426   3.940   4.606
    1C        C  263   4.476   3.808   4.605
    1C        C  264   4.403   4.013   4.725
    1C        C  265   4.436   3.948   4.845
    1C        C  266   4.315   4.131   4.961
    1C        C  267   4.385   4.011   4.959
    1C        C  268   4.265   2.775   2.062
    1C        C  269   4.206   2.726   2.179
    1C        C  270   4.347   2.888   2.300
    1C        C  271   4.257   2.778   2.300
    1C        C  272   4.385   2.952   2.420
    1C        C  273   4.341   2.893   2.541
    1C        C  274   4.440   3.083   2.663
    1C        C  275   4.374   2.958   2.662
    1C        C  276   4.473   3.151   2.782
    1C        C  277   4.445   3.087   2.905
    1C        C  278   4.502   3.293   3.025
    1C        C  279   4.469   3.156   3.027
    1C        C  280   4.515   3.364   3.146
    1C        C  281   4.496   3.298   3.270
    1C        C  282   4.518   3.507   3.390
    1C        C  283   4.505   3.366   3.393
    1C        C  284   4.512   3.581   3.510
    1C        C  285   4.513   3.515   3.635
    1C        C  286   4.492   3.727   3.753
    1C        C  287   4.515   3.588   3.756
    1C        C  288   4.469   3.794   3.875
    1C        C  289   4.486   3.726   3.998
    1C        C  290   4.430   3.935   4.118
    1C        C  291   4.478   3.802   4.117
    1C        C  292   4.400   4.000   4.240
    1C        C  293   4.419   3.935   4.364
    1C        C  294   4.323   4.127   4.480
    1C        C  295   4.390   4.002   4.484
    1C        C  296   4.284   4.187   4.602
    1C        C  297   4.331   4.136   4.725
    1C        C  298   4.199   4.315   4.837
    1C        C  299   4.282   4.198   4.843
    1C        C  300   4.169   4.403   4.946
    1C        C  301   4.353   2.882   2.062
    1C        C  302   4.476   3.065   2.181
    1C        C  303   4.395   2.947   2.180
    1C        C  304   4.491   3.142   2.300
    1C        C  305   4.447   3.079   2.419
    1C        C  306   4.509   3.282   2.535
    1C        C  307   4.472   3.146   2.541
    1C        C  308   4.515   3.355   2.656
    1C        C  309   4.508   3.288   2.781
    1C        C  310   4.527   3.500   2.900
    1C        C  311   4.522   3.359   2.902
    1C        C  312   4.520   3.574   3.021
    1C        C  313   4.522   3.505   3.144
    1C        C  314   4.485   3.713   3.265
    1C        C  315   4.515   3.575   3.267
    1C        C  316   4.474   3.789   3.384
    1C        C  317   4.497   3.722   3.506
    1C        C  318   4.432   3.925   3.628
    1C        C  319   4.481   3.792   3.628
    1C        C  320   4.403   3.991   3.749
    1C        C  321   4.426   3.928   3.873
    1C        C  322   4.317   4.111   3.990
    1C        C  323   4.398   3.995   3.995
    1C        C  324   4.277   4.169   4.112
    1C        C  325   4.327   4.121   4.235
    1C        C  326   4.187   4.283   4.355
    1C        C  327   4.285   4.181   4.356
    1C        C  328   4.137   4.341   4.474
    1C        C  329   4.193   4.295   4.596
    1C        C  330   4.025   4.436   4.713
    1C        C  331   4.140   4.353   4.713
    1C        C  332   3.966   4.486   4.831
    1C        C  333   4.051   4.478   4.942
    1C        C  334   4.548   3.266   2.063
    1C        C  335   4.534   3.126   2.066
    1C        C  336   4.540   3.350   2.175
    1C        C  337   4.521   3.281   2.297
    1C        C  338   4.526   3.497   2.412
    1C        C  339   4.527   3.356   2.416
    1C        C  340   4.518   3.567   2.535
    1C        C  341   4.522   3.496   2.656
    1C        C  342   4.492   3.708   2.775
    1C        C  343   4.519   3.569   2.777
    1C        C  344   4.477   3.781   2.895
    1C        C  345   4.495   3.713   3.018
    1C        C  346   4.425   3.912   3.137
    1C        C  347   4.472   3.779   3.141
    1C        C  348   4.396   3.979   3.258
    1C        C  349   4.429   3.923   3.383
    1C        C  350   4.325   4.107   3.503
    1C        C  351   4.399   3.987   3.505
    1C        C  352   4.281   4.167   3.623
    1C        C  353   4.326   4.109   3.745
    1C        C  354   4.182   4.269   3.869
    1C        C  355   4.278   4.165   3.866
    1C        C  356   4.125   4.316   3.989
    1C        C  357   4.178   4.270   4.111
    1C        C  358   4.012   4.402   4.231
    1C        C  359   4.130   4.323   4.232
    1C        C  360   3.956   4.450   4.351
    1C        C  361   4.019   4.419   4.473
    1C        C  362   3.827   4.519   4.592
    1C        C  363   3.957   4.464   4.592
    1C        C  364   3.762   4.550   4.714
    1C        C  365   3.837   4.543   4.833
    1C        C  366   3.626   4.597   4.950
    1C        C  367   3.764   4.576   4.949
    1C        C  368   4.507   3.564   2.054
    1C        C  369   4.527   3.490   2.171
    1C        C  370   4.501   3.707   2.287
    1C        C  371   4.517   3.567   2.289
    1C        C  372   4.485   3.775   2.410
    1C        C  373   4.498   3.707   2.533
    1C        C  374   4.421   3.908   2.649
    1C        C  375   4.477   3.778   2.653
    1C        C  376   4.394   3.975   2.771
    1C        C  377   4.424   3.912   2.894
    1C        C  378   4.322   4.098   3.014
    1C        C  379   4.396   3.978   3.016
    1C        C  380   4.274   4.154   3.134
    1C        C  381   4.315   4.095   3.256
    1C        C  382   4.174   4.252   3.378
    1C        C  383   4.274   4.152   3.379
    1C        C  384   4.122   4.303   3.498
    1C        C  385   4.176   4.261   3.622
    1C        C  386   4.008   4.386   3.744
    1C        C  387   4.127   4.310   3.745
    1C        C  388   3.946   4.425   3.864
    1C        C  389   4.009   4.397   3.987
    1C        C  390   3.819   4.491   4.107
    1C        C  391   3.948   4.434   4.109
    1C        C  392   3.753   4.514   4.229
    1C        C  393   3.824   4.501   4.350
    1C        C  394   3.616   4.551   4.474
    1C        C  395   3.756   4.529   4.471
    1C        C  396   3.547   4.567   4.596
    1C        C  397   3.622   4.568   4.716
    1C        C  398   3.409   4.553   4.840
    1C        C  399   3.548   4.576   4.836
    1C        C  400   3.341   4.516   4.957
    1C        C  401   4.506   3.703   2.051
    1C        C  402   4.449   3.915   2.168
    1C        C  403   4.493   3.781   2.167
    1C        C  404   4.411   3.976   2.289
    1C        C  405   4.438   3.908   2.409
    1C        C  406   4.326   4.096   2.526
    1C        C  407   4.399   3.975   2.527
    1C        C  408   4.281   4.153   2.647
    1C        C  409   4.317   4.093   2.770
    1C        C  410   4.176   4.252   2.890
    1C        C  411   4.277   4.153   2.891
    1C        C  412   4.122   4.296   3.012
    1C        C  413   4.174   4.254   3.136
    1C        C  414   3.999   4.377   3.254
    1C        C  415   4.118   4.300   3.257
    1C        C  416   3.941   4.412   3.378
    1C        C  417   4.001   4.376   3.501
    1C        C  418   3.812   4.471   3.619
    1C        C  419   3.940   4.413   3.623
    1C        C  420   3.745   4.495   3.741
    1C        C  421   3.814   4.476   3.863
    1C        C  422   3.612   4.543   3.987
    1C        C  423   3.749   4.508   3.985
    1C        C  424   3.543   4.547   4.110
    1C        C  425   3.614   4.540   4.232
    1C        C  426   3.402   4.543   4.356
    1C        C  427   3.543   4.553   4.353
    1C        C  428   3.332   4.543   4.478
    1C        C  429   3.407   4.553   4.598
    1C        C  430   3.196   4.519   4.722
    1C        C  431   3.336   4.543   4.720
    1C        C  432   3.125   4.496   4.843
    1C        C  433   3.204   4.494   4.959
    1C        C  434   4.379   4.120   2.051
    1C        C  435   4.447   3.998   2.055
    1C        C  436   4.301   4.162   2.163
    1C        C  437   4.331   4.094   2.285
    1C        C  438   4.180   4.249   2.403
    1C        C  439   4.281   4.151   2.404
    1C        C  440   4.125   4.298   2.524
    1C        C  441   4.180   4.252   2.646
    1C        C  442   4.006   4.376   2.765
    1C        C  443   4.122   4.296   2.767
    1C        C  444   3.944   4.410   2.888
    1C        C  445   4.003   4.373   3.011
    1C        C  446   3.812   4.470   3.130
    1C        C  447   3.942   4.415   3.131
    1C        C  448   3.745   4.488   3.253
    1C        C  449   3.812   4.471   3.376
    1C        C  450   3.607   4.527   3.497
    1C        C  451   3.746   4.500   3.497
    1C        C  452   3.541   4.543   3.621
    1C        C  453   3.610   4.537   3.744
    1C        C  454   3.399   4.546   3.866
    1C        C  455   3.540   4.550   3.866
    1C        C  456   3.331   4.540   3.989
    1C        C  457   3.401   4.547   4.111
    1C        C  458   3.194   4.502   4.237
    1C        C  459   3.332   4.533   4.234
    1C        C  460   3.127   4.487   4.360
    1C        C  461   3.194   4.516   4.481
    1C        C  462   3.000   4.429   4.606
    1C        C  463   3.125   4.494   4.603
    1C        C  464   2.930   4.403   4.726
    1C        C  465   2.989   4.449   4.847
    1C        C  466   2.806   4.335   4.958
    1C        C  467   2.909   4.430   4.963
    1C        C  468   4.123   4.286   2.040
    1C        C  469   4.190   4.252   2.159
    1C        C  470   4.007   4.370   2.280
    1C        C  471   4.129   4.296   2.280
    1C        C  472   3.941   4.398   2.401
    1C        C  473   4.005   4.373   2.524
    1C        C  474   3.814   4.471   2.644
    1C        C  475   3.942   4.412   2.644
    1C        C  476   3.744   4.488   2.766
    1C        C  477   3.813   4.462   2.886
    1C        C  478   3.607   4.520   3.008
    1C        C  479   3.744   4.486   3.007
    1C        C  480   3.536   4.532   3.130
    1C        C  481   3.607   4.522   3.251
    1C        C  482   3.397   4.528   3.376
    1C        C  483   3.538   4.532   3.374
    1C        C  484   3.327   4.528   3.499
    1C        C  485   3.399   4.541   3.620
    1C        C  486   3.193   4.503   3.746
    1C        C  487   3.329   4.540   3.743
    1C        C  488   3.131   4.475   3.870
    1C        C  489   3.195   4.500   3.993
    1C        C  490   3.002   4.412   4.115
    1C        C  491   3.128   4.477   4.115
    1C        C  492   2.944   4.382   4.240
    1C        C  493   3.001   4.423   4.363
    1C        C  494   2.830   4.298   4.482
    1C        C  495   2.940   4.387   4.485
    1C        C  496   2.778   4.251   4.604
    1C        C  497   2.821   4.312   4.724
    1C        C  498   2.661   4.168   4.845
    1C        C  499   2.757   4.272   4.843
    1C        C  500   2.598   4.118   4.959
    1C        C  501   4.008   4.364   2.040
    1C        C  502   3.817   4.465   2.156
    1C        C  503   3.944   4.403   2.158
    1C        C  504   3.745   4.477   2.277
    1C        C  505   3.811   4.453   2.399
    1C        C  506   3.606   4.510   2.518
    1C        C  507   3.744   4.480   2.521
    1C        C  508   3.537   4.522   2.640
    1C        C  509   3.606   4.521   2.763
    1C        C  510   3.395   4.524   2.886
    1C        C  511   3.536   4.524   2.886
    1C        C  512   3.324   4.522   3.008
    1C        C  513   3.395   4.530   3.130
    1C        C  514   3.188   4.495   3.255
    1C        C  515   3.327   4.523   3.254
    1C        C  516   3.126   4.472   3.380
    1C        C  517   3.190   4.496   3.504
    1C        C  518   2.995   4.417   3.627
    1C        C  519   3.122   4.479   3.627
    1C        C  520   2.940   4.376   3.751
    1C        C  521   3.004   4.411   3.871
    1C        C  522   2.831   4.288   3.997
    1C        C  523   2.944   4.373   3.993
    1C        C  524   2.783   4.239   4.121
    1C        C  525   2.833   4.294   4.241
    1C        C  526   2.692   4.135   4.363
    1C        C  527   2.775   4.249   4.361
    1C        C  528   2.652   4.077   4.486
    1C        C  529   2.687   4.143   4.607
    1C        C  530   2.583   3.960   4.732
    1C        C  531   2.638   4.091   4.729
    1C        C  532   2.542   3.903   4.855
    1C        C  533   2.530   3.996   4.964
    1C        C  534   3.618   4.554   2.037
    1C        C  535   3.753   4.514   2.041
    1C        C  536   3.537   4.539   2.154
    1C        C  537   3.607   4.513   2.275
    1C        C  538   3.394   4.519   2.399
    1C        C  539   3.535   4.522   2.396
    1C        C  540   3.324   4.508   2.521
    1C        C  541   3.396   4.515   2.643
    1C        C  542   3.186   4.483   2.764
    1C        C  543   3.324   4.514   2.764
    1C        C  544   3.121   4.467   2.888
    1C        C  545   3.187   4.490   3.011
    1C        C  546   2.996   4.403   3.136
    1C        C  547   3.120   4.471   3.134
    1C        C  548   2.942   4.366   3.262
    1C        C  549   3.000   4.409   3.383
    1C        C  550   2.828   4.285   3.508
    1C        C  551   2.937   4.375   3.505
    1C        C  552   2.775   4.238   3.630
    1C        C  553   2.831   4.287   3.751
    1C        C  554   2.704   4.120   3.875
    1C        C  555   2.784   4.237   3.874
    1C        C  556   2.662   4.063   3.997
    1C        C  557   2.701   4.124   4.119
    1C        C  558   2.589   3.948   4.246
    1C        C  559   2.654   4.073   4.242
    1C        C  560   2.562   3.882   4.368
    1C        C  561   2.590   3.951   4.488
    1C        C  562   2.538   3.749   4.618
    1C        C  563   2.566   3.887   4.612
    1C        C  564   2.524   3.681   4.741
    1C        C  565   2.522   3.761   4.858
    1C        C  566   2.533   3.547   4.979
    1C        C  567   2.525   3.686   4.977
    1C        C  568   3.332   4.470   2.041
    1C        C  569   3.397   4.513   2.157
    1C        C  570   3.185   4.473   2.280
    1C        C  571   3.323   4.507   2.278
    1C        C  572   3.116   4.458   2.402
    1C        C  573   3.185   4.485   2.522
    1C        C  574   2.989   4.401   2.649
    1C        C  575   3.115   4.464   2.643
    1C        C  576   2.928   4.371   2.773
    1C        C  577   2.993   4.408   2.893
    1C        C  578   2.826   4.276   3.019
    1C        C  579   2.934   4.366   3.015
    1C        C  580   2.776   4.227   3.142
    1C        C  581   2.831   4.279   3.262
    1C        C  582   2.699   4.117   3.385
    1C        C  583   2.783   4.230   3.386
    1C        C  584   2.661   4.059   3.508
    1C        C  585   2.695   4.122   3.630
    1C        C  586   2.602   3.934   3.759
    1C        C  587   2.663   4.061   3.753
    1C        C  588   2.576   3.868   3.881
    1C        C  589   2.597   3.938   4.002
    1C        C  590   2.537   3.739   4.129
    1C        C  591   2.569   3.876   4.126
    1C        C  592   2.526   3.673   4.254
    1C        C  593   2.537   3.743   4.376
    1C        C  594   2.517   3.534   4.503
    1C        C  595   2.524   3.675   4.499
    1C        C  596   2.521   3.463   4.625
    1C        C  597   2.520   3.539   4.744
    1C        C  598   2.536   3.326   4.867
    1C        C  599   2.527   3.467   4.865
    1C        C  600   2.532   3.244   4.981
    1C        C  601   3.198   4.438   2.040
    1C        C  602   2.986   4.389   2.160
    1C        C  603   3.120   4.439   2.157
    1C        C  604   2.925   4.356   2.284
    1C        C  605   2.991   4.392   2.403
    1C        C  606   2.821   4.270   2.530
    1C        C  607   2.933   4.357   2.527
    1C        C  608   2.773   4.223   2.654
    1C        C  609   2.823   4.277   2.774
    1C        C  610   2.690   4.113   2.895
    1C        C  611   2.775   4.226   2.897
    1C        C  612   2.652   4.056   3.019
    1C        C  613   2.689   4.116   3.141
    1C        C  614   2.594   3.929   3.264
    1C        C  615   2.656   4.056   3.265
    1C        C  616   2.574   3.866   3.390
    1C        C  617   2.599   3.932   3.512
    1C        C  618   2.542   3.731   3.638
    1C        C  619   2.575   3.869   3.636
    1C        C  620   2.528   3.663   3.761
    1C        C  621   2.538   3.731   3.884
    1C        C  622   2.517   3.525   4.013
    1C        C  623   2.527   3.666   4.009
    1C        C  624   2.515   3.457   4.137
    1C        C  625   2.514   3.532   4.257
    1C        C  626   2.534   3.323   4.382
    1C        C  627   2.518   3.463   4.380
    1C        C  628   2.551   3.252   4.503
    1C        C  629   2.541   3.323   4.625
    1C        C  630   2.593   3.117   4.747
    1C        C  631   2.548   3.253   4.747
    1C        C  632   2.615   3.048   4.869
    1C        C  633   2.558   3.107   4.986
    1C        C  634   2.776   4.307   2.053
    1C        C  635   2.891   4.386   2.053
    1C        C  636   2.742   4.235   2.168
    1C        C  637   2.807   4.276   2.287
    1C        C  638   2.679   4.110   2.409
    1C        C  639   2.763   4.223   2.410
    1C        C  640   2.643   4.050   2.532
    1C        C  641   2.682   4.115   2.651
    1C        C  642   2.591   3.926   2.777
    1C        C  643   2.644   4.056   2.774
    1C        C  644   2.568   3.859   2.899
    1C        C  645   2.592   3.928   3.019
    1C        C  646   2.533   3.726   3.148
    1C        C  647   2.567   3.863   3.142
    1C        C  648   2.525   3.658   3.271
    1C        C  649   2.540   3.729   3.392
    1C        C  650   2.518   3.521   3.519
    1C        C  651   2.528   3.662   3.516
    1C        C  652   2.522   3.453   3.643
    1C        C  653   2.517   3.522   3.766
    1C        C  654   2.544   3.317   3.892
    1C        C  655   2.516   3.456   3.890
    1C        C  656   2.555   3.250   4.016
    1C        C  657   2.539   3.318   4.138
    1C        C  658   2.607   3.119   4.259
    1C        C  659   2.555   3.251   4.262
    1C        C  660   2.635   3.057   4.383
    1C        C  661   2.598   3.119   4.504
    1C        C  662   2.709   2.938   4.627
    1C        C  663   2.628   3.054   4.626
    1C        C  664   2.748   2.875   4.747
    1C        C  665   2.703   2.935   4.868
    1C        C  666   2.743   2.872   4.987
    1C        C  667   2.690   4.025   2.052
    1C        C  668   2.691   4.103   2.168
    1C        C  669   2.593   3.913   2.288
    1C        C  670   2.646   4.045   2.288
    1C        C  671   2.565   3.853   2.413
    1C        C  672   2.579   3.923   2.535
    1C        C  673   2.530   3.719   2.661
    1C        C  674   2.560   3.856   2.658
    1C        C  675   2.513   3.650   2.783
    1C        C  676   2.527   3.723   2.903
    1C        C  677   2.515   3.514   3.031
    1C        C  678   2.520   3.655   3.026
    1C        C  679   2.520   3.445   3.154
    1C        C  680   2.516   3.517   3.276
    1C        C  681   2.539   3.307   3.401
    1C        C  682   2.517   3.447   3.398
    1C        C  683   2.557   3.242   3.526
    1C        C  684   2.540   3.313   3.647
    1C        C  685   2.603   3.113   3.772
    1C        C  686   2.555   3.246   3.770
    1C        C  687   2.635   3.050   3.894
    1C        C  688   2.604   3.117   4.015
    1C        C  689   2.709   2.933   4.140
    1C        C  690   2.636   3.054   4.137
    1C        C  691   2.752   2.878   4.263
    1C        C  692   2.710   2.937   4.384
    1C        C  693   2.750   2.877   4.506
    1C        C  694   2.632   3.897   2.054
    1C        C  695   2.525   3.708   2.176
    1C        C  696   2.577   3.839   2.169
    1C        C  697   2.511   3.642   2.299
    1C        C  698   2.532   3.716   2.418
    1C        C  699   2.504   3.506   2.545
    1C        C  700   2.519   3.646   2.540
    1C        C  701   2.507   3.436   2.668
    1C        C  702   2.504   3.509   2.789
    1C        C  703   2.534   3.299   2.914
    1C        C  704   2.512   3.439   2.911
    1C        C  705   2.549   3.231   3.037
    1C        C  706   2.535   3.305   3.157
    1C        C  707   2.596   3.103   3.280
    1C        C  708   2.551   3.236   3.280
    1C        C  709   2.629   3.043   3.404
    1C        C  710   2.607   3.110   3.526
    1C        C  711   2.708   2.928   3.650
    1C        C  712   2.634   3.048   3.650
    1C        C  713   2.754   2.875   3.773
    1C        C  714   2.712   2.931   3.895
    1C        C  715   2.754   2.878   4.018
    1C        C  716   2.457   3.500   2.065
    1C        C  717   2.496   3.635   2.060
    1C        C  718   2.466   3.426   2.186
    1C        C  719   2.488   3.501   2.305
    1C        C  720   2.523   3.292   2.426
    1C        C  721   2.492   3.430   2.426
    1C        C  722   2.546   3.225   2.549
    1C        C  723   2.532   3.297   2.670
    1C        C  724   2.594   3.095   2.793
    1C        C  725   2.546   3.228   2.792
    1C        C  726   2.625   3.031   2.916
    1C        C  727   2.599   3.099   3.037
    1C        C  728   2.702   2.916   3.161
    1C        C  729   2.628   3.036   3.160
    1C        C  730   2.751   2.868   3.285
    1C        C  731   2.709   2.926   3.407
    1C        C  732   2.754   2.871   3.529
    1C        C  733   2.484   3.197   2.079
    1C        C  734   2.494   3.285   2.188
    1C        C  735   2.585   3.085   2.307
    1C        C  736   2.532   3.217   2.307
    1C        C  737   2.611   3.018   2.429
    1C        C  738   2.593   3.092   2.548
    1C        C  739   2.697   2.910   2.670
    1C        C  740   2.626   3.032   2.671
    1C        C  741   2.737   2.852   2.793
    1C        C  742   2.697   2.910   2.915
    1C        C  743   2.740   2.857   3.039
    1C        C  744   2.544   3.072   2.075
    1C        C  745   2.683   2.897   2.186
    1C        C  746   2.610   3.017   2.186
    1C        C  747   2.730   2.838   2.305
    1C        C  748   2.690   2.901   2.425
    1C        C  749   2.735   2.849   2.549
    1C        C  750   2.738   2.840   2.070
    1C        C  751   3.668   2.289   2.016
    1C        O  752   3.605   2.181   2.035
    1C        O  753   3.733   2.301   1.893
    1C        C  754   4.621   3.050   1.973
    1C        O  755   4.627   3.063   1.848
    1C        O  756   4.724   2.974   2.031
    1C        C  757   4.434   4.214   1.951
    1C        O  758   4.517   4.301   1.989
    1C        O  759   4.422   4.203   1.812
    1C        C  760   3.587   4.635   1.917
    1C        O  761   3.531   4.748   1.919
    1C        O  762   3.581   4.585   1.787
    1C        C  763   2.880   4.504   1.964
    1C        O  764   2.893   4.472   1.843
    1C        O  765   2.784   4.602   1.989
    1C        C  766   2.377   3.456   1.948
    1C        O  767   2.425   3.436   1.833
    1C        O  768   2.243   3.494   1.937
    1C        C  769   4.668   3.589   5.076
    1C        O  770   4.625   3.536   5.182
    1C        O  771   4.807   3.593   5.065
    1C        C  772   4.280   4.465   5.022
    1C        O  773   4.311   4.406   5.129
    1C        O  774   4.398   4.524   4.976
    1C        C  775   4.131   2.546   5.095
    1C        O  776   4.194   2.437   5.103
    1C        O  777   4.088   2.587   5.221
    1C        C  778   2.876   4.542   5.054
    1C        O  779   2.809   4.645   5.024
    1C        O  780   2.907   4.531   5.190
    1C        C  781   2.466   3.033   5.076
    1C        O  782   2.370   2.961   5.039
    1C        O  783   2.506   2.996   5.204
    1C        C  784   2.406   4.001   5.043
    1C        O  785   2.296   4.024   4.986
    1C        O  786   2.390   4.028   5.180
    1C        C  787   2.946   2.417   2.017
    1C        O  788   2.936   2.411   1.892
    1C        O  789   2.894   2.301   2.072
    1C        C  790   3.169   2.367   5.054
    1C        O  791   3.162   2.252   5.003
    1C        O  792   3.159   2.371   5.194
    1C        H  793   4.259   3.043   5.041
    1C        H  794   4.168   2.820   5.071
    1C        H  795   4.508   3.136   5.066
    1C        H  796   4.528   3.360   5.072
    1C        H  797   4.592   3.822   5.031
    1C        H  798   4.426   3.978   5.053
    1C        H  799   4.270   4.155   5.055
    1C        H  800   4.014   4.508   5.038
    1C        H  801   3.816   4.599   5.039
    1C        H  802   3.580   4.636   5.038
    1C        H  803   3.397   4.509   5.048
    1C        H  804   3.160   4.459   5.050
    1C        H  805   3.887   2.500   5.071
    1C        H  806   3.670   2.492   5.079
    1C        H  807   2.990   2.545   5.056
    1C        H  808   3.439   2.440   5.069
    1C        H  809   2.885   2.748   5.079
    1C        H  810   2.710   2.900   5.084
    1C        H  811   2.475   3.278   5.066
    1C        H  812   2.596   3.507   5.056
    1C        H  813   2.488   3.732   5.066
    1C        H  814   2.558   4.195   5.023
    1C        H  815   2.759   4.316   5.052
    1C        H  816   2.730   2.896   1.979
    1C        H  817   2.856   2.692   1.976
    1C        H  818   3.225   2.483   1.987
    1C        H  819   3.444   2.476   1.985
    1C        H  820   3.874   2.483   1.981
    1C        H  821   4.061   2.624   1.966
    1C        H  822   4.230   2.739   1.967
    1C        H  823   4.436   2.862   1.996
    1C        H  824   4.606   3.302   1.982
    1C        H  825   4.472   3.519   1.964
    1C        H  826   4.525   3.746   1.955
    1C        H  827   3.815   4.550   1.962
    1C        H  828   4.013   4.439   1.964
    1C        H  829   4.191   4.302   1.959
    1C        H  830   4.537   3.991   1.998
    1C        H  831   2.603   3.856   1.959
    1C        H  832   2.746   4.053   1.966
    1C        H  833   2.707   4.324   1.973
    1C        H  834   3.395   4.427   1.966
    1C        H  835   3.177   4.371   1.959
    1C        H  836   2.512   3.005   1.998
    1C        H  837   2.394   3.207   2.022
    1C        H  838   2.492   3.688   1.968
    2V3OU   H29  839   2.801   3.550   1.555
    2V3OU   C27  840   2.782   3.502   1.654
    2V3OU   H27  841   2.716   3.567   1.716
    2V3OU   H28  842   2.728   3.404   1.646
    2V3OU   O11  843   2.904   3.478   1.724
    2V3OU   C15  844   2.925   3.398   1.835
    2V3OU   C13  845   3.052   3.377   1.892
    2V3OU   C14  846   3.078   3.269   1.978
    2V3OU   C16  847   2.971   3.190   2.016
    2V3OU    H6  848   2.993   3.099   2.075
    2V3OU   C12  849   3.214   3.227   2.018
    2V3OU    O2  850   3.231   3.133   2.098
    2V3OU   C10  851   3.328   3.310   1.976
    2V3OU    C8  852   3.457   3.270   2.010
    2V3OU   O10  853   3.490   3.148   2.061
    2V3OU   H26  854   3.404   3.115   2.093
    2V3OU    C6  855   3.563   3.355   1.966
    2V3OU    C5  856   3.538   3.470   1.893
    2V3OU    C4  857   3.700   3.296   1.960
    2V3OU    H4  858   3.722   3.236   2.054
    2V3OU    H5  859   3.717   3.226   1.873
    2V3OU    C2  860   3.817   3.396   1.959
    2V3OU    O6  861   3.808   3.480   2.074
    2V3OU   H21  862   3.758   3.560   2.051
    2V3OU    C3  863   3.782   3.496   1.849
    2V3OU    H2  864   3.865   3.571   1.846
    2V3OU    H3  865   3.780   3.438   1.753
    2V3OU   C25  866   3.953   3.328   1.945
    2V3OU    O7  867   3.995   3.296   1.834
    2V3OU   C26  868   4.034   3.292   2.068
    2V3OU   H22  869   4.062   3.380   2.132
    2V3OU   H23  870   4.125   3.233   2.039
    2V3OU    O8  871   3.963   3.209   2.158
    2V3OU   H24  872   3.923   3.260   2.231
    2V3OU    C1  873   3.648   3.567   1.864
    2V3OU    H1  874   3.624   3.620   1.767
    2V3OU    O3  875   3.662   3.656   1.974
    2V3OU   C19  876   3.618   3.792   1.963
    2V3OU    H9  877   3.523   3.811   1.905
    2V3OU    O4  878   3.714   3.850   1.878
    2V3OU   C20  879   3.847   3.876   1.923
    2V3OU   H10  880   3.903   3.779   1.937
    2V3OU   C24  881   3.610   3.859   2.101
    2V3OU   H16  882   3.535   3.803   2.163
    2V3OU   H17  883   3.570   3.961   2.080
    2V3OU   C23  884   3.751   3.875   2.158
    2V3OU   H15  885   3.795   3.771   2.174
    2V3OU    N1  886   3.737   3.950   2.282
    2V3OU   H19  887   3.805   3.919   2.349
    2V3OU   H20  888   3.648   3.939   2.325
    2V3OU   C21  889   3.846   3.948   2.058
    2V3OU   H11  890   3.947   3.930   2.106
    2V3OU    O5  891   3.820   4.088   2.067
    2V3OU   H18  892   3.781   4.101   2.155
    2V3OU   C22  893   3.910   3.952   1.807
    2V3OU   H12  894   3.861   4.052   1.794
    2V3OU   H13  895   3.903   3.891   1.713
    2V3OU   H14  896   4.020   3.964   1.826
    2V3OU   C11  897   3.162   3.472   1.871
    2V3OU    O1  898   3.134   3.591   1.846
    2V3OU    C9  899   3.300   3.429   1.903
    2V3OU    C7  900   3.404   3.509   1.858
    2V3OU    O9  901   3.385   3.611   1.767
    2V3OU   H25  902   3.290   3.625   1.753
    2V3OU   C17  903   2.819   3.319   1.882
    2V3OU    H7  904   2.718   3.336   1.844
    2V3OU   C18  905   2.842   3.210   1.966
    2V3OU    H8  906   2.758   3.141   1.980
    3SOL     OW  907   2.208   4.568   1.501
    3SOL    HW1  908   2.292   4.517   1.482
    3SOL    HW2  909   2.152   4.573   1.419
    4SOL     OW  910   6.347   6.841   1.587
    4SOL    HW1  911   6.247   6.832   1.590
    4SOL    HW2  912   6.390   6.755   1.613
    5SOL     OW  913   4.314   1.407   1.839
    5SOL    HW1  914   4.217   1.397   1.815
    5SOL    HW2  915   4.362   1.322   1.816
    6SOL     OW  916   3.693   2.101   2.340
    6SOL    HW1  917   3.688   2.096   2.241
    6SOL    HW2  918   3.606   2.135   2.376
    7SOL     OW  919   6.097   2.250   2.062
    7SOL    HW1  920   6.138   2.246   2.153
    7SOL    HW2  921   6.145   2.187   2.002
    8SOL     OW  922   2.494   6.640   4.721
    8SOL    HW1  923   2.427   6.573   4.753
    8SOL    HW2  924   2.586   6.607   4.739
    9SOL     OW  925   1.633   5.824   5.888
    9SOL    HW1  926   1.542   5.828   5.930
    9SOL    HW2  927   1.637   5.891   5.814
   10SOL     OW  928   0.598   4.604   6.014
   10SOL    HW1  929   0.557   4.665   6.082
   10SOL    HW2  930   0.527   4.551   5.969
   11SOL     OW  931   3.259   0.013   0.192
   11SOL    HW1  932   3.307   6.988   0.263
   11SOL    HW2  933   3.316   0.088   0.158
   12SOL     OW  934   4.766   5.949   3.176
   12SOL    HW1  935   4.864   5.958   3.159
   12SOL    HW2  936   4.752   5.892   3.256
   13SOL     OW  937   2.774   6.563   4.356
   13SOL    HW1  938   2.745   6.541   4.263
   13SOL    HW2  939   2.800   6.480   4.404
   14SOL     OW  940   3.640   5.825   6.587
   14SOL    HW1  941   3.683   5.738   6.611
   14SOL    HW2  942   3.704   5.899   6.604
   15SOL     OW  943   1.298   6.305   0.100
   15SOL    HW1  944   1.267   6.393   0.138
   15SOL    HW2  945   1.278   6.302   0.002
   16SOL     OW  946   6.688   2.126   6.051
   16SOL    HW1  947   6.747   2.066   6.106
   16SOL    HW2  948   6.739   2.208   6.026
   17SOL     OW  949   5.024   6.197   4.390
   17SOL    HW1  950   5.090   6.147   4.447
   17SOL    HW2  951   5.046   6.182   4.294
   18SOL     OW  952   2.597   2.471   6.022
   18SOL    HW1  953   2.543   2.397   6.061
   18SOL    HW2  954   2.679   2.485   6.076
   19SOL     OW  955   0.088   0.078   3.414
   19SOL    HW1  956   0.014   0.141   3.437
   19SOL    HW2  957   0.092   0.005   3.482
   20SOL     OW  958   3.596   1.120   4.375
   20SOL    HW1  959   3.520   1.180   4.349
   20SOL    HW2  960   3.574   1.072   4.459
   21SOL     OW  961   3.202   1.776   2.084
   21SOL    HW1  962   3.206   1.683   2.122
   21SOL    HW2  963   3.151   1.835   2.147
   22SOL     OW  964   1.783   6.816   6.364
   22SOL    HW1  965   1.793   6.786   6.269
   22SOL    HW2  966   1.787   6.737   6.425
   23SOL     OW  967   4.383   6.521   3.524
   23SOL    HW1  968   4.304   6.572   3.490
   23SOL    HW2  969   4.449   6.583   3.565
   24SOL     OW  970   5.313   0.929   4.492
   24SOL    HW1  971   5.401   0.881   4.483
   24SOL    HW2  972   5.286   0.964   4.402
   25SOL     OW  973   3.001   6.189   0.241
   25SOL    HW1  974   3.078   6.180   0.305
   25SOL    HW2  975   3.032   6.236   0.159
   26SOL     OW  976   6.451   0.910   1.703
   26SOL    HW1  977   6.359   0.947   1.717
   26SOL    HW2  978   6.476   0.918   1.607
   27SOL     OW  979   6.735   0.593   2.516
   27SOL    HW1  980   6.828   0.615   2.486
   27SOL    HW2  981   6.737   0.558   2.609
   28SOL     OW  982   4.480   0.479   6.315
   28SOL    HW1  983   4.399   0.465   6.372
   28SOL    HW2  984   4.453   0.518   6.228
   29SOL     OW  985   5.363   2.417   2.093
   29SOL    HW1  986   5.438   2.476   2.062
   29SOL    HW2  987   5.326   2.367   2.015
   30SOL     OW  988   2.607   6.760   5.805
   30SOL    HW1  989   2.651   6.723   5.887
   30SOL    HW2  990   2.635   6.706   5.725
   31SOL     OW  991   0.656   1.019   5.781
   31SOL    HW1  992   0.680   1.034   5.685
   31SOL    HW2  993   0.580   0.953   5.786
   32SOL     OW  994   0.808   2.074   2.887
   32SOL    HW1  995   0.894   2.080   2.939
   32SOL    HW2  996   0.826   2.030   2.799
   33SOL     OW  997   1.665   2.553   5.945
   33SOL    HW1  998   1.703   2.581   5.856
   33SOL    HW2  999   1.582   2.608   5.963
   34SOL     OW 1000   1.940   0.217   4.916
   34SOL    HW1 1001   2.032   0.222   4.955
   34SOL    HW2 1002   1.946   0.210   4.817
   35SOL     OW 1003   4.227   2.163   6.261
   35SOL    HW1 1004   4.164   2.087   6.281
   35SOL    HW2 1005   4.281   2.182   6.342
   36SOL     OW 1006   1.030   0.852   6.617
   36SOL    HW1 1007   0.941   0.841   6.660
   36SOL    HW2 1008   1.089   0.775   6.643
   37SOL     OW 1009   2.326   6.951   1.424
   37SOL    HW1 1010   2.391   6.997   1.363
   37SOL    HW2 1011   2.262   6.897   1.369
   38SOL     OW 1012   0.055   5.973   2.805
   38SOL    HW1 1013   0.115   5.921   2.744
   38SOL    HW2 1014   6.985   5.958   2.778
   39SOL     OW 1015   6.523   3.714   6.124
   39SOL    HW1 1016   6.471   3.675   6.201
   39SOL    HW2 1017   6.491   3.807   6.106
   40SOL     OW 1018   6.364   1.880   2.416
   40SOL    HW1 1019   6.445   1.863   2.359
   40SOL    HW2 1020   6.391   1.932   2.497
   41SOL     OW 1021   2.019   6.250   4.390
   41SOL    HW1 1022   2.106   6.277   4.433
   41SOL    HW2 1023   1.992   6.160   4.423
   42SOL     OW 1024   3.268   6.913   6.136
   42SOL    HW1 1025   3.244   6.850   6.210
   42SOL    HW2 1026   3.350   6.880   6.089
   43SOL     OW 1027   5.879   5.725   5.581
   43SOL    HW1 1028   5.833   5.669   5.512
   43SOL    HW2 1029   5.965   5.682   5.607
   44SOL     OW 1030   6.854   2.787   6.233
   44SOL    HW1 1031   6.770   2.828   6.269
   44SOL    HW2 1032   6.931   2.849   6.251
   45SOL     OW 1033   3.445   0.613   2.782
   45SOL    HW1 1034   3.474   0.528   2.825
   45SOL    HW2 1035   3.350   0.632   2.806
   46SOL     OW 1036   0.869   3.592   4.632
   46SOL    HW1 1037   0.810   3.656   4.680
   46SOL    HW2 1038   0.959   3.590   4.676
   47SOL     OW 1039   6.501   3.564   3.941
   47SOL    HW1 1040   6.413   3.545   3.896
   47SOL    HW2 1041   6.485   3.581   4.038
   48SOL     OW 1042   0.399   2.516   5.041
   48SOL    HW1 1043   0.306   2.481   5.032
   48SOL    HW2 1044   0.406   2.603   4.991
   49SOL     OW 1045   4.929   4.350   1.250
   49SOL    HW1 1046   4.947   4.378   1.155
   49SOL    HW2 1047   4.844   4.391   1.281
   50SOL     OW 1048   6.817   3.314   4.550
   50SOL    HW1 1049   6.766   3.391   4.512
   50SOL    HW2 1050   6.857   3.341   4.638
   51SOL     OW 1051   3.251   5.040   2.875
   51SOL    HW1 1052   3.219   5.000   2.789
   51SOL    HW2 1053   3.252   5.140   2.867
   52SOL     OW 1054   2.991   1.827   3.067
   52SOL    HW1 1055   2.931   1.787   2.999
   52SOL    HW2 1056   2.945   1.828   3.156
   53SOL     OW 1057   4.442   0.243   3.690
   53SOL    HW1 1058   4.531   0.265   3.652
   53SOL    HW2 1059   4.428   0.295   3.775
   54SOL     OW 1060   2.856   5.049   6.135
   54SOL    HW1 1061   2.794   5.111   6.086
   54SOL    HW2 1062   2.818   5.027   6.224
   55SOL     OW 1063   3.843   1.328   5.881
   55SOL    HW1 1064   3.865   1.231   5.881
   55SOL    HW2 1065   3.750   1.341   5.915
   56SOL     OW 1066   1.902   0.474   2.294
   56SOL    HW1 1067   1.911   0.560   2.344
   56SOL    HW2 1068   1.805   0.451   2.285
   57SOL     OW 1069   5.116   0.564   0.751
   57SOL    HW1 1070   5.039   0.506   0.779
   57SOL    HW2 1071   5.095   0.659   0.772
   58SOL     OW 1072   0.137   5.949   6.850
   58SOL    HW1 1073   0.188   6.025   6.809
   58SOL    HW2 1074   0.057   5.984   6.899
   59SOL     OW 1075   1.501   0.599   6.517
   59SOL    HW1 1076   1.589   0.632   6.551
   59SOL    HW2 1077   1.480   0.511   6.560
   60SOL     OW 1078   4.572   0.337   5.728
   60SOL    HW1 1079   4.587   0.434   5.749
   60SOL    HW2 1080   4.544   0.289   5.811
   61SOL     OW 1081   5.002   0.229   4.215
   61SOL    HW1 1082   5.010   0.140   4.170
   61SOL    HW2 1083   4.910   0.266   4.199
   62SOL     OW 1084   0.773   0.621   4.101
   62SOL    HW1 1085   0.863   0.579   4.091
   62SOL    HW2 1086   0.703   0.556   4.069
   63SOL     OW 1087   6.324   2.069   3.283
   63SOL    HW1 1088   6.231   2.102   3.268
   63SOL    HW2 1089   6.390   2.138   3.250
   64SOL     OW 1090   6.943   3.717   5.972
   64SOL    HW1 1091   6.911   3.623   5.983
   64SOL    HW2 1092   6.911   3.753   5.884
   65SOL     OW 1093   6.433   3.956   5.484
   65SOL    HW1 1094   6.419   4.006   5.569
   65SOL    HW2 1095   6.531   3.948   5.466
   66SOL     OW 1096   3.596   0.759   6.796
   66SOL    HW1 1097   3.574   0.665   6.767
   66SOL    HW2 1098   3.695   0.770   6.800
   67SOL     OW 1099   5.790   6.232   5.283
   67SOL    HW1 1100   5.781   6.145   5.333
   67SOL    HW2 1101   5.782   6.215   5.185
   68SOL     OW 1102   6.060   1.456   6.774
   68SOL    HW1 1103   6.030   1.371   6.817
   68SOL    HW2 1104   6.088   1.438   6.680
   69SOL     OW 1105   1.548   4.216   6.725
   69SOL    HW1 1106   1.612   4.279   6.769
   69SOL    HW2 1107   1.519   4.255   6.637
   70SOL     OW 1108   6.707   5.693   2.567
   70SOL    HW1 1109   6.654   5.663   2.647
   70SOL    HW2 1110   6.684   5.788   2.546
   71SOL     OW 1111   3.070   2.211   3.833
   71SOL    HW1 1112   2.970   2.214   3.842
   71SOL    HW2 1113   3.112   2.250   3.915
   72SOL     OW 1114   2.774   5.961   4.014
   72SOL    HW1 1115   2.854   5.903   4.025
   72SOL    HW2 1116   2.788   6.047   4.063
   73SOL     OW 1117   3.284   2.521   6.858
   73SOL    HW1 1118   3.274   2.509   6.759
   73SOL    HW2 1119   3.371   2.481   6.888
   74SOL     OW 1120   5.238   6.717   0.291
   74SOL    HW1 1121   5.266   6.772   0.212
   74SOL    HW2 1122   5.300   6.734   0.367
   75SOL     OW 1123   3.431   5.169   5.140
   75SOL    HW1 1124   3.457   5.265   5.138
   75SOL    HW2 1125   3.431   5.132   5.047
   76SOL     OW 1126   2.127   2.886   1.319
   76SOL    HW1 1127   2.226   2.886   1.333
   76SOL    HW2 1128   2.081   2.859   1.404
   77SOL     OW 1129   5.148   5.618   4.766
   77SOL    HW1 1130   5.223   5.552   4.765
   77SOL    HW2 1131   5.166   5.690   4.699
   78SOL     OW 1132   6.594   6.873   6.257
   78SOL    HW1 1133   6.495   6.884   6.267
   78SOL    HW2 1134   6.614   6.799   6.194
   79SOL     OW 1135   3.162   0.118   0.513
   79SOL    HW1 1136   3.117   0.039   0.556
   79SOL    HW2 1137   3.261   0.110   0.525
   80SOL     OW 1138   6.438   0.871   5.207
   80SOL    HW1 1139   6.530   0.852   5.175
   80SOL    HW2 1140   6.424   0.827   5.296
   81SOL     OW 1141   2.529   0.724   2.951
   81SOL    HW1 1142   2.441   0.748   2.909
   81SOL    HW2 1143   2.579   0.661   2.892
   82SOL     OW 1144   6.696   5.611   0.219
   82SOL    HW1 1145   6.621   5.636   0.280
   82SOL    HW2 1146   6.712   5.513   0.226
   83SOL     OW 1147   6.924   6.808   0.447
   83SOL    HW1 1148   6.929   6.878   0.519
   83SOL    HW2 1149   6.839   6.819   0.396
   84SOL     OW 1150   5.089   3.935   2.497
   84SOL    HW1 1151   5.078   3.838   2.478
   84SOL    HW2 1152   5.001   3.981   2.489
   85SOL     OW 1153   0.924   0.934   5.165
   85SOL    HW1 1154   0.837   0.934   5.215
   85SOL    HW2 1155   0.929   1.013   5.105
   86SOL     OW 1156   0.596   0.440   5.838
   86SOL    HW1 1157   0.617   0.343   5.839
   86SOL    HW2 1158   0.514   0.456   5.784
   87SOL     OW 1159   4.442   2.703   0.014
   87SOL    HW1 1160   4.394   2.679   0.098
   87SOL    HW2 1161   4.441   2.626   6.976
   88SOL     OW 1162   4.736   1.684   0.000
   88SOL    HW1 1163   4.705   1.644   6.939
   88SOL    HW2 1164   4.703   1.628   0.076
   89SOL     OW 1165   1.914   2.758   6.775
   89SOL    HW1 1166   1.958   2.783   6.861
   89SOL    HW2 1167   1.852   2.832   6.747
   90SOL     OW 1168   4.976   6.996   4.122
   90SOL    HW1 1169   4.931   6.977   4.035
   90SOL    HW2 1170   4.907   6.998   4.195
   91SOL     OW 1171   4.821   4.589   3.744
   91SOL    HW1 1172   4.921   4.597   3.747
   91SOL    HW2 1173   4.784   4.660   3.684
   92SOL     OW 1174   2.818   5.849   0.701
   92SOL    HW1 1175   2.738   5.788   0.708
   92SOL    HW2 1176   2.827   5.881   0.607
   93SOL     OW 1177   2.913   4.435   6.237
   93SOL    HW1 1178   2.919   4.337   6.257
   93SOL    HW2 1179   2.899   4.448   6.139
   94SOL     OW 1180   2.975   5.423   6.675
   94SOL    HW1 1181   3.057   5.480   6.686
   94SOL    HW2 1182   2.909   5.446   6.747
   95SOL     OW 1183   0.271   1.863   3.890
   95SOL    HW1 1184   0.193   1.848   3.828
   95SOL    HW2 1185   0.315   1.775   3.909
   96SOL     OW 1186   2.653   7.021   5.712
   96SOL    HW1 1187   2.638   6.927   5.742
   96SOL    HW2 1188   2.671   0.054   5.791
   97SOL     OW 1189   6.895   4.114   5.049
   97SOL    HW1 1190   6.952   4.054   4.993
   97SOL    HW2 1191   6.942   4.134   5.135
   98SOL     OW 1192   6.153   3.323   6.628
   98SOL    HW1 1193   6.163   3.420   6.606
   98SOL    HW2 1194   6.129   3.314   6.725
   99SOL     OW 1195   4.259   2.865   1.298
   99SOL    HW1 1196   4.175   2.848   1.350
   99SOL    HW2 1197   4.324   2.915   1.355
  100SOL     OW 1198   0.330   6.701   6.464
  100SOL    HW1 1199   0.276   6.775   6.504
  100SOL    HW2 1200   0.428   6.720   6.476
  101SOL     OW 1201   0.804   5.823   2.749
  101SOL    HW1 1202   0.867   5.878   2.693
  101SOL    HW2 1203   0.855   5.748   2.792
  102SOL     OW 1204   4.329   0.822   3.051
  102SOL    HW1 1205   4.259   0.891   3.029
  102SOL    HW2 1206   4.364   0.783   2.966
  103SOL     OW 1207   4.407   1.542   1.630
  103SOL    HW1 1208   4.372   1.468   1.687
  103SOL    HW2 1209   4.361   1.540   1.541
  104SOL     OW 1210   6.577   5.630   2.790
  104SOL    HW1 1211   6.582   5.706   2.854
  104SOL    HW2 1212   6.576   5.544   2.841
  105SOL     OW 1213   6.403   1.345   6.776
  105SOL    HW1 1214   6.454   1.298   6.849
  105SOL    HW2 1215   6.322   1.388   6.815
  106SOL     OW 1216   3.031   6.500   6.198
  106SOL    HW1 1217   2.990   6.556   6.270
  106SOL    HW2 1218   3.092   6.556   6.142
  107SOL     OW 1219   1.691   2.441   1.662
  107SOL    HW1 1220   1.769   2.390   1.627
  107SOL    HW2 1221   1.667   2.406   1.753
  108SOL     OW 1222   4.741   4.355   0.055
  108SOL    HW1 1223   4.782   4.350   6.989
  108SOL    HW2 1224   4.807   4.396   0.119
  109SOL     OW 1225   0.639   0.458   1.527
  109SOL    HW1 1226   0.689   0.374   1.548
  109SOL    HW2 1227   0.694   0.537   1.555
  110SOL     OW 1228   4.154   5.529   5.437
  110SOL    HW1 1229   4.055   5.513   5.439
  110SOL    HW2 1230   4.198   5.461   5.377
  111SOL     OW 1231   4.038   0.527   3.953
  111SOL    HW1 1232   4.033   0.540   4.052
  111SOL    HW2 1233   3.946   0.517   3.916
  112SOL     OW 1234   5.651   5.498   5.731
  112SOL    HW1 1235   5.589   5.533   5.661
  112SOL    HW2 1236   5.641   5.553   5.814
  113SOL     OW 1237   6.389   4.751   3.467
  113SOL    HW1 1238   6.343   4.673   3.425
  113SOL    HW2 1239   6.418   4.815   3.395
  114SOL     OW 1240   0.960   0.580   0.881
  114SOL    HW1 1241   1.033   0.609   0.819
  114SOL    HW2 1242   0.936   0.656   0.942
  115SOL     OW 1243   4.539   1.110   4.077
  115SOL    HW1 1244   4.520   1.198   4.033
  115SOL    HW2 1245   4.522   1.117   4.175
  116SOL     OW 1246   5.909   5.067   2.146
  116SOL    HW1 1247   5.978   5.139   2.136
  116SOL    HW2 1248   5.818   5.108   2.151
  117SOL     OW 1249   0.697   1.212   6.706
  117SOL    HW1 1250   0.702   1.161   6.620
  117SOL    HW2 1251   0.790   1.227   6.740
  118SOL     OW 1252   0.022   0.994   1.984
  118SOL    HW1 1253   0.114   0.964   1.959
  118SOL    HW2 1254   7.016   1.065   1.920
  119SOL     OW 1255   0.081   2.455   6.426
  119SOL    HW1 1256   0.045   2.392   6.358
  119SOL    HW2 1257   0.006   2.494   6.480
  120SOL     OW 1258   6.722   6.780   1.243
  120SOL    HW1 1259   6.820   6.763   1.249
  120SOL    HW2 1260   6.685   6.734   1.162
  121SOL     OW 1261   2.392   3.858   6.953
  121SOL    HW1 1262   2.364   3.824   6.863
  121SOL    HW2 1263   2.477   3.813   6.980
  122SOL     OW 1264   1.660   3.906   5.840
  122SOL    HW1 1265   1.693   3.815   5.866
  122SOL    HW2 1266   1.585   3.897   5.775
  123SOL     OW 1267   0.101   2.303   1.169
  123SOL    HW1 1268   0.138   2.369   1.104
  123SOL    HW2 1269   0.167   2.230   1.184
  124SOL     OW 1270   5.377   3.164   0.370
  124SOL    HW1 1271   5.430   3.198   0.448
  124SOL    HW2 1272   5.440   3.137   0.297
  125SOL     OW 1273   2.209   2.081   3.213
  125SOL    HW1 1274   2.240   2.133   3.292
  125SOL    HW2 1275   2.259   1.995   3.207
  126SOL     OW 1276   3.201   4.677   0.938
  126SOL    HW1 1277   3.184   4.606   0.870
  126SOL    HW2 1278   3.298   4.699   0.941
  127SOL     OW 1279   6.931   4.680   6.170
  127SOL    HW1 1280   6.839   4.670   6.209
  127SOL    HW2 1281   6.994   4.617   6.217
  128SOL     OW 1282   4.589   2.642   1.538
  128SOL    HW1 1283   4.599   2.696   1.622
  128SOL    HW2 1284   4.678   2.629   1.495
  129SOL     OW 1285   4.194   3.391   5.855
  129SOL    HW1 1286   4.282   3.434   5.832
  129SOL    HW2 1287   4.211   3.306   5.906
  130SOL     OW 1288   0.578   0.745   4.580
  130SOL    HW1 1289   0.539   0.836   4.597
  130SOL    HW2 1290   0.658   0.754   4.520
  131SOL     OW 1291   4.633   1.275   2.895
  131SOL    HW1 1292   4.597   1.224   2.974
  131SOL    HW2 1293   4.572   1.351   2.875
  132SOL     OW 1294   1.617   2.908   0.544
  132SOL    HW1 1295   1.684   2.845   0.505
  132SOL    HW2 1296   1.647   3.002   0.529
  133SOL     OW 1297   5.801   6.514   3.426
  133SOL    HW1 1298   5.720   6.466   3.394
  133SOL    HW2 1299   5.873   6.448   3.447
  134SOL     OW 1300   5.941   2.588   2.714
  134SOL    HW1 1301   5.874   2.614   2.783
  134SOL    HW2 1302   5.962   2.667   2.657
  135SOL     OW 1303   4.965   1.980   2.895
  135SOL    HW1 1304   4.967   1.977   2.795
  135SOL    HW2 1305   5.023   2.055   2.926
  136SOL     OW 1306   4.657   4.362   6.016
  136SOL    HW1 1307   4.583   4.366   6.085
  136SOL    HW2 1308   4.683   4.267   6.002
  137SOL     OW 1309   4.031   0.052   5.596
  137SOL    HW1 1310   4.113   7.021   5.585
  137SOL    HW2 1311   3.984   0.026   5.680
  138SOL     OW 1312   0.403   4.895   4.075
  138SOL    HW1 1313   0.437   4.801   4.085
  138SOL    HW2 1314   0.354   4.904   3.988
  139SOL     OW 1315   2.451   6.018   5.504
  139SOL    HW1 1316   2.431   5.953   5.430
  139SOL    HW2 1317   2.474   6.107   5.465
  140SOL     OW 1318   6.540   4.906   4.341
  140SOL    HW1 1319   6.531   4.812   4.306
  140SOL    HW2 1320   6.625   4.913   4.393
  141SOL     OW 1321   0.359   1.667   5.537
  141SOL    HW1 1322   0.426   1.635   5.469
  141SOL    HW2 1323   0.294   1.594   5.556
  142SOL     OW 1324   1.972   6.315   1.410
  142SOL    HW1 1325   1.978   6.369   1.327
  142SOL    HW2 1326   2.064   6.296   1.445
  143SOL     OW 1327   5.556   4.316   2.153
  143SOL    HW1 1328   5.534   4.412   2.170
  143SOL    HW2 1329   5.474   4.267   2.123
  144SOL     OW 1330   1.547   6.684   6.131
  144SOL    HW1 1331   1.603   6.752   6.083
  144SOL    HW2 1332   1.597   6.598   6.136
  145SOL     OW 1333   1.277   5.312   0.943
  145SOL    HW1 1334   1.317   5.400   0.969
  145SOL    HW2 1335   1.348   5.250   0.912
  146SOL     OW 1336   4.503   5.927   6.762
  146SOL    HW1 1337   4.534   5.950   6.854
  146SOL    HW2 1338   4.415   5.970   6.744
  147SOL     OW 1339   6.220   2.746   0.463
  147SOL    HW1 1340   6.192   2.659   0.424
  147SOL    HW2 1341   6.262   2.802   0.393
  148SOL     OW 1342   0.444   4.847   5.553
  148SOL    HW1 1343   0.394   4.923   5.596
  148SOL    HW2 1344   0.434   4.854   5.453
  149SOL     OW 1345   2.564   1.152   4.206
  149SOL    HW1 1346   2.622   1.226   4.171
  149SOL    HW2 1347   2.472   1.188   4.223
  150SOL     OW 1348   6.927   4.985   6.179
  150SOL    HW1 1349   6.895   5.039   6.101
  150SOL    HW2 1350   6.921   4.888   6.157
  151SOL     OW 1351   3.765   2.310   1.327
  151SOL    HW1 1352   3.825   2.336   1.403
  151SOL    HW2 1353   3.697   2.244   1.360
  152SOL     OW 1354   2.065   0.917   4.585
  152SOL    HW1 1355   2.033   0.856   4.657
  152SOL    HW2 1356   1.995   0.923   4.514
  153SOL     OW 1357   2.421   0.055   2.274
  153SOL    HW1 1358   2.511   0.023   2.244
  153SOL    HW2 1359   2.413   0.153   2.257
  154SOL     OW 1360   6.516   3.108   1.768
  154SOL    HW1 1361   6.590   3.068   1.822
  154SOL    HW2 1362   6.489   3.045   1.695
  155SOL     OW 1363   0.414   1.303   3.724
  155SOL    HW1 1364   0.376   1.330   3.636
  155SOL    HW2 1365   0.490   1.239   3.710
  156SOL     OW 1366   6.842   1.171   1.557
  156SOL    HW1 1367   6.877   1.248   1.611
  156SOL    HW2 1368   6.773   1.122   1.610
  157SOL     OW 1369   6.272   3.712   2.160
  157SOL    HW1 1370   6.257   3.744   2.067
  157SOL    HW2 1371   6.270   3.612   2.162
  158SOL     OW 1372   3.069   0.306   2.143
  158SOL    HW1 1373   3.054   0.365   2.221
  158SOL    HW2 1374   3.009   0.226   2.149
  159SOL     OW 1375   4.926   4.785   1.244
  159SOL    HW1 1376   4.864   4.728   1.298
  159SOL    HW2 1377   4.877   4.868   1.214
  160SOL     OW 1378   6.655   4.781   6.606
  160SOL    HW1 1379   6.701   4.837   6.676
  160SOL    HW2 1380   6.614   4.701   6.650
  161SOL     OW 1381   1.788   5.100   5.061
  161SOL    HW1 1382   1.757   5.150   4.980
  161SOL    HW2 1383   1.872   5.051   5.041
  162SOL     OW 1384   3.961   6.799   0.144
  162SOL    HW1 1385   4.037   6.794   0.208
  162SOL    HW2 1386   3.974   6.732   0.071
  163SOL     OW 1387   4.547   6.199   1.374
  163SOL    HW1 1388   4.493   6.145   1.438
  163SOL    HW2 1389   4.615   6.140   1.330
  164SOL     OW 1390   6.692   3.723   1.446
  164SOL    HW1 1391   6.699   3.772   1.532
  164SOL    HW2 1392   6.612   3.663   1.448
  165SOL     OW 1393   5.109   3.088   0.744
  165SOL    HW1 1394   5.129   3.042   0.658
  165SOL    HW2 1395   5.107   3.021   0.818
  166SOL     OW 1396   0.234   5.406   3.890
  166SOL    HW1 1397   0.159   5.385   3.827
  166SOL    HW2 1398   0.302   5.334   3.886
  167SOL     OW 1399   5.914   1.976   0.243
  167SOL    HW1 1400   6.000   1.954   0.197
  167SOL    HW2 1401   5.855   1.895   0.241
  168SOL     OW 1402   2.836   3.625   0.536
  168SOL    HW1 1403   2.737   3.620   0.553
  168SOL    HW2 1404   2.884   3.622   0.624
  169SOL     OW 1405   3.110   0.126   1.799
  169SOL    HW1 1406   3.025   0.177   1.811
  169SOL    HW2 1407   3.137   0.128   1.703
  170SOL     OW 1408   0.658   1.842   4.311
  170SOL    HW1 1409   0.565   1.803   4.308
  170SOL    HW2 1410   0.653   1.940   4.294
  171SOL     OW 1411   3.452   3.944   7.010
  171SOL    HW1 1412   3.424   3.848   7.013
  171SOL    HW2 1413   3.481   3.973   0.077
  172SOL     OW 1414   6.401   1.493   4.726
  172SOL    HW1 1415   6.384   1.582   4.684
  172SOL    HW2 1416   6.429   1.428   4.655
  173SOL     OW 1417   6.753   0.333   4.440
  173SOL    HW1 1418   6.815   0.255   4.449
  173SOL    HW2 1419   6.662   0.302   4.415
  174SOL     OW 1420   3.050   5.249   3.603
  174SOL    HW1 1421   3.049   5.208   3.694
  174SOL    HW2 1422   3.090   5.184   3.538
  175SOL     OW 1423   1.673   6.841   1.930
  175SOL    HW1 1424   1.678   6.770   1.999
  175SOL    HW2 1425   1.620   6.918   1.965
  176SOL     OW 1426   2.387   4.144   1.118
  176SOL    HW1 1427   2.346   4.054   1.134
  176SOL    HW2 1428   2.480   4.133   1.084
  177SOL     OW 1429   5.852   2.778   3.062
  177SOL    HW1 1430   5.915   2.818   2.996
  177SOL    HW2 1431   5.828   2.846   3.131
  178SOL     OW 1432   4.698   3.929   6.396
  178SOL    HW1 1433   4.669   3.909   6.489
  178SOL    HW2 1434   4.728   4.025   6.391
  179SOL     OW 1435   2.858   1.370   6.532
  179SOL    HW1 1436   2.795   1.421   6.473
  179SOL    HW2 1437   2.892   1.290   6.482
  180SOL     OW 1438   0.978   1.184   6.771
  180SOL    HW1 1439   0.993   1.281   6.749
  180SOL    HW2 1440   1.058   1.148   6.819
  181SOL     OW 1441   3.574   1.909   6.618
  181SOL    HW1 1442   3.545   1.970   6.692
  181SOL    HW2 1443   3.518   1.926   6.537
  182SOL     OW 1444   4.421   2.477   4.009
  182SOL    HW1 1445   4.339   2.429   3.980
  182SOL    HW2 1446   4.431   2.470   4.108
  183SOL     OW 1447   3.668   6.983   1.953
  183SOL    HW1 1448   3.761   6.988   1.915
  183SOL    HW2 1449   3.650   0.041   2.006
  184SOL     OW 1450   1.664   5.812   3.935
  184SOL    HW1 1451   1.598   5.786   3.865
  184SOL    HW2 1452   1.743   5.855   3.892
  185SOL     OW 1453   1.287   2.926   6.628
  185SOL    HW1 1454   1.320   2.832   6.634
  185SOL    HW2 1455   1.355   2.988   6.667
  186SOL     OW 1456   6.571   0.733   3.431
  186SOL    HW1 1457   6.520   0.803   3.482
  186SOL    HW2 1458   6.668   0.757   3.428
  187SOL     OW 1459   5.435   0.803   3.740
  187SOL    HW1 1460   5.484   0.871   3.685
  187SOL    HW2 1461   5.498   0.759   3.803
  188SOL     OW 1462   5.864   2.577   3.249
  188SOL    HW1 1463   5.874   2.658   3.191
  188SOL    HW2 1464   5.781   2.528   3.223
  189SOL     OW 1465   1.730   5.758   2.728
  189SOL    HW1 1466   1.727   5.665   2.764
  189SOL    HW2 1467   1.738   5.823   2.804
  190SOL     OW 1468   3.769   1.195   4.685
  190SOL    HW1 1469   3.729   1.139   4.758
  190SOL    HW2 1470   3.736   1.162   4.597
  191SOL     OW 1471   5.758   5.201   5.982
  191SOL    HW1 1472   5.661   5.192   5.959
  191SOL    HW2 1473   5.775   5.162   6.073
  192SOL     OW 1474   0.144   6.472   1.833
  192SOL    HW1 1475   0.188   6.467   1.923
  192SOL    HW2 1476   0.188   6.543   1.779
  193SOL     OW 1477   4.939   2.813   6.717
  193SOL    HW1 1478   4.888   2.815   6.631
  193SOL    HW2 1479   5.014   2.747   6.710
  194SOL     OW 1480   3.739   0.804   2.974
  194SOL    HW1 1481   3.803   0.727   2.973
  194SOL    HW2 1482   3.673   0.793   2.900
  195SOL     OW 1483   1.602   6.104   3.477
  195SOL    HW1 1484   1.528   6.048   3.514
  195SOL    HW2 1485   1.581   6.201   3.494
  196SOL     OW 1486   2.366   2.547   0.215
  196SOL    HW1 1487   2.451   2.548   0.267
  196SOL    HW2 1488   2.310   2.626   0.239
  197SOL     OW 1489   2.198   1.853   1.224
  197SOL    HW1 1490   2.293   1.880   1.209
  197SOL    HW2 1491   2.171   1.879   1.317
  198SOL     OW 1492   4.435   0.783   3.328
  198SOL    HW1 1493   4.382   0.787   3.244
  198SOL    HW2 1494   4.445   0.875   3.366
  199SOL     OW 1495   1.880   2.624   4.230
  199SOL    HW1 1496   1.978   2.606   4.234
  199SOL    HW2 1497   1.836   2.555   4.172
  200SOL     OW 1498   0.647   2.104   0.988
  200SOL    HW1 1499   0.660   2.048   1.069
  200SOL    HW2 1500   0.711   2.076   0.916
  201SOL     OW 1501   0.361   0.913   5.803
  201SOL    HW1 1502   0.398   0.891   5.893
  201SOL    HW2 1503   0.397   0.848   5.735
  202SOL     OW 1504   4.905   0.605   6.610
  202SOL    HW1 1505   4.927   0.663   6.688
  202SOL    HW2 1506   4.906   0.660   6.526
  203SOL     OW 1507   5.852   2.549   5.240
  203SOL    HW1 1508   5.758   2.514   5.237
  203SOL    HW2 1509   5.913   2.478   5.274
  204SOL     OW 1510   0.351   0.133   5.839
  204SOL    HW1 1511   0.345   0.074   5.759
  204SOL    HW2 1512   0.281   0.203   5.835
  205SOL     OW 1513   1.138   2.215   2.771
  205SOL    HW1 1514   1.163   2.281   2.841
  205SOL    HW2 1515   1.080   2.258   2.703
  206SOL     OW 1516   0.387   3.181   1.792
  206SOL    HW1 1517   0.440   3.195   1.709
  206SOL    HW2 1518   0.340   3.093   1.787
  207SOL     OW 1519   4.918   1.572   3.198
  207SOL    HW1 1520   4.870   1.595   3.282
  207SOL    HW2 1521   4.959   1.654   3.158
  208SOL     OW 1522   0.130   4.158   5.201
  208SOL    HW1 1523   0.204   4.171   5.267
  208SOL    HW2 1524   0.129   4.235   5.137
  209SOL     OW 1525   6.546   4.651   2.618
  209SOL    HW1 1526   6.531   4.714   2.695
  209SOL    HW2 1527   6.597   4.699   2.546
  210SOL     OW 1528   4.184   2.362   0.339
  210SOL    HW1 1529   4.155   2.298   0.410
  210SOL    HW2 1530   4.268   2.408   0.369
  211SOL     OW 1531   2.120   0.590   3.011
  211SOL    HW1 1532   2.068   0.505   3.019
  211SOL    HW2 1533   2.076   0.661   3.065
  212SOL     OW 1534   1.212   3.786   2.472
  212SOL    HW1 1535   1.120   3.747   2.475
  212SOL    HW2 1536   1.275   3.726   2.522
  213SOL     OW 1537   1.425   6.198   0.942
  213SOL    HW1 1538   1.367   6.125   0.979
  213SOL    HW2 1539   1.504   6.212   1.003
  214SOL     OW 1540   4.128   5.121   2.156
  214SOL    HW1 1541   4.032   5.092   2.156
  214SOL    HW2 1542   4.146   5.176   2.238
  215SOL     OW 1543   2.670   4.875   1.110
  215SOL    HW1 1544   2.607   4.854   1.185
  215SOL    HW2 1545   2.646   4.964   1.071
  216SOL     OW 1546   1.350   0.317   2.549
  216SOL    HW1 1547   1.355   0.364   2.461
  216SOL    HW2 1548   1.255   0.314   2.579
  217SOL     OW 1549   1.172   2.721   5.710
  217SOL    HW1 1550   1.246   2.753   5.651
  217SOL    HW2 1551   1.207   2.652   5.774
  218SOL     OW 1552   0.810   2.050   5.417
  218SOL    HW1 1553   0.771   2.122   5.361
  218SOL    HW2 1554   0.749   1.970   5.416
  219SOL     OW 1555   3.895   0.635   0.201
  219SOL    HW1 1556   3.940   0.576   0.269
  219SOL    HW2 1557   3.796   0.619   0.204
  220SOL     OW 1558   3.214   0.649   0.792
  220SOL    HW1 1559   3.288   0.657   0.725
  220SOL    HW2 1560   3.250   0.609   0.877
  221SOL     OW 1561   5.964   5.014   1.231
  221SOL    HW1 1562   5.971   5.025   1.132
  221SOL    HW2 1563   5.871   5.036   1.261
  222SOL     OW 1564   1.658   4.446   6.844
  222SOL    HW1 1565   1.675   4.475   6.938
  222SOL    HW2 1566   1.569   4.481   6.814
  223SOL     OW 1567   6.985   2.923   5.483
  223SOL    HW1 1568   6.913   2.925   5.414
  223SOL    HW2 1569   0.045   2.891   5.440
  224SOL     OW 1570   3.353   2.247   5.938
  224SOL    HW1 1571   3.254   2.234   5.939
  224SOL    HW2 1572   3.374   2.344   5.925
  225SOL     OW 1573   4.481   3.665   5.899
  225SOL    HW1 1574   4.520   3.639   5.988
  225SOL    HW2 1575   4.547   3.719   5.848
  226SOL     OW 1576   1.173   1.712   0.001
  226SOL    HW1 1577   1.144   1.807   0.012
  226SOL    HW2 1578   1.150   1.681   6.934
  227SOL     OW 1579   2.181   4.188   2.767
  227SOL    HW1 1580   2.096   4.231   2.737
  227SOL    HW2 1581   2.198   4.105   2.713
  228SOL     OW 1582   1.997   0.864   3.398
  228SOL    HW1 1583   1.934   0.799   3.440
  228SOL    HW2 1584   1.993   0.855   3.298
  229SOL     OW 1585   5.140   4.719   6.553
  229SOL    HW1 1586   5.047   4.755   6.564
  229SOL    HW2 1587   5.199   4.791   6.517
  230SOL     OW 1588   4.592   6.069   4.550
  230SOL    HW1 1589   4.640   6.115   4.475
  230SOL    HW2 1590   4.535   5.996   4.514
  231SOL     OW 1591   5.564   1.262   0.111
  231SOL    HW1 1592   5.471   1.280   0.141
  231SOL    HW2 1593   5.613   1.213   0.184
  232SOL     OW 1594   0.319   2.985   6.702
  232SOL    HW1 1595   0.227   3.023   6.710
  232SOL    HW2 1596   0.338   2.929   6.783
  233SOL     OW 1597   3.015   2.142   3.562
  233SOL    HW1 1598   3.049   2.174   3.650
  233SOL    HW2 1599   2.916   2.129   3.567
  234SOL     OW 1600   5.818   0.971   5.858
  234SOL    HW1 1601   5.838   1.069   5.851
  234SOL    HW2 1602   5.874   0.931   5.931
  235SOL     OW 1603   4.713   2.800   2.462
  235SOL    HW1 1604   4.633   2.826   2.408
  235SOL    HW2 1605   4.683   2.750   2.543
  236SOL     OW 1606   4.766   3.604   6.802
  236SOL    HW1 1607   4.767   3.509   6.772
  236SOL    HW2 1608   4.860   3.638   6.809
  237SOL     OW 1609   6.853   4.347   2.635
  237SOL    HW1 1610   6.876   4.300   2.550
  237SOL    HW2 1611   6.870   4.445   2.625
  238SOL     OW 1612   6.452   1.141   0.568
  238SOL    HW1 1613   6.405   1.137   0.656
  238SOL    HW2 1614   6.550   1.127   0.581
  239SOL     OW 1615   0.837   4.228   0.428
  239SOL    HW1 1616   0.757   4.184   0.469
  239SOL    HW2 1617   0.876   4.167   0.359
  240SOL     OW 1618   6.894   3.265   3.430
  240SOL    HW1 1619   6.940   3.208   3.498
  240SOL    HW2 1620   6.910   3.362   3.451
  241SOL     OW 1621   2.940   2.187   4.355
  241SOL    HW1 1622   3.020   2.180   4.414
  241SOL    HW2 1623   2.858   2.167   4.409
  242SOL     OW 1624   3.680   3.509   3.604
  242SOL    HW1 1625   3.606   3.516   3.537
  242SOL    HW2 1626   3.688   3.414   3.635
  243SOL     OW 1627   4.687   1.546   6.794
  243SOL    HW1 1628   4.624   1.473   6.765
  243SOL    HW2 1629   4.742   1.576   6.716
  244SOL     OW 1630   5.979   3.165   6.427
  244SOL    HW1 1631   6.041   3.211   6.491
  244SOL    HW2 1632   6.025   3.084   6.390
  245SOL     OW 1633   3.690   1.866   3.810
  245SOL    HW1 1634   3.664   1.956   3.846
  245SOL    HW2 1635   3.788   1.854   3.818
  246SOL     OW 1636   5.006   1.653   3.550
  246SOL    HW1 1637   5.093   1.627   3.509
  246SOL    HW2 1638   5.016   1.656   3.650
  247SOL     OW 1639   2.602   2.043   0.750
  247SOL    HW1 1640   2.512   2.008   0.779
  247SOL    HW2 1641   2.656   2.065   0.831
  248SOL     OW 1642   2.542   1.288   2.904
  248SOL    HW1 1643   2.491   1.211   2.944
  248SOL    HW2 1644   2.640   1.275   2.919
  249SOL     OW 1645   5.079   6.802   5.297
  249SOL    HW1 1646   5.173   6.834   5.285
  249SOL    HW2 1647   5.081   6.712   5.342
  250SOL     OW 1648   4.063   3.237   0.967
  250SOL    HW1 1649   4.056   3.168   1.040
  250SOL    HW2 1650   3.986   3.300   0.975
  251SOL     OW 1651   4.694   3.429   5.419
  251SOL    HW1 1652   4.617   3.368   5.441
  251SOL    HW2 1653   4.680   3.467   5.327
  252SOL     OW 1654   6.428   6.927   5.665
  252SOL    HW1 1655   6.335   6.891   5.659
  252SOL    HW2 1656   6.431   7.000   5.733
  253SOL     OW 1657   3.806   4.732   5.829
  253SOL    HW1 1658   3.806   4.689   5.919
  253SOL    HW2 1659   3.717   4.774   5.812
  254SOL     OW 1660   6.802   2.336   3.639
  254SOL    HW1 1661   6.751   2.414   3.676
  254SOL    HW2 1662   6.738   2.264   3.612
  255SOL     OW 1663   1.384   5.113   5.976
  255SOL    HW1 1664   1.457   5.179   5.958
  255SOL    HW2 1665   1.417   5.020   5.959
  256SOL     OW 1666   5.592   2.999   6.116
  256SOL    HW1 1667   5.554   3.043   6.034
  256SOL    HW2 1668   5.656   3.062   6.161
  257SOL     OW 1669   5.520   6.723   3.071
  257SOL    HW1 1670   5.443   6.663   3.091
  257SOL    HW2 1671   5.579   6.730   3.152
  258SOL     OW 1672   2.262   4.050   5.574
  258SOL    HW1 1673   2.351   4.024   5.611
  258SOL    HW2 1674   2.274   4.107   5.493
  259SOL     OW 1675   5.321   0.986   2.090
  259SOL    HW1 1676   5.404   0.943   2.124
  259SOL    HW2 1677   5.241   0.935   2.122
  260SOL     OW 1678   3.737   5.038   3.287
  260SOL    HW1 1679   3.645   5.055   3.252
  260SOL    HW2 1680   3.732   5.004   3.381
  261SOL     OW 1681   5.554   4.733   1.492
  261SOL    HW1 1682   5.605   4.804   1.541
  261SOL    HW2 1683   5.543   4.653   1.550
  262SOL     OW 1684   1.762   3.921   0.858
  262SOL    HW1 1685   1.704   3.896   0.936
  262SOL    HW2 1686   1.746   4.017   0.835
  263SOL     OW 1687   1.325   0.226   4.026
  263SOL    HW1 1688   1.311   0.325   4.026
  263SOL    HW2 1689   1.417   0.206   4.060
  264SOL     OW 1690   6.441   2.942   0.494
  264SOL    HW1 1691   6.520   3.002   0.502
  264SOL    HW2 1692   6.361   2.985   0.536
  265SOL     OW 1693   6.033   6.816   3.058
  265SOL    HW1 1694   5.981   6.744   3.106
  265SOL    HW2 1695   5.993   6.905   3.079
  266SOL     OW 1696   4.660   3.135   6.086
  266SOL    HW1 1697   4.652   3.041   6.053
  266SOL    HW2 1698   4.647   3.198   6.010
  267SOL     OW 1699   1.323   0.821   5.225
  267SOL    HW1 1700   1.260   0.744   5.217
  267SOL    HW2 1701   1.351   0.832   5.320
  268SOL     OW 1702   3.505   1.151   6.292
  268SOL    HW1 1703   3.456   1.226   6.248
  268SOL    HW2 1704   3.580   1.187   6.347
  269SOL     OW 1705   3.060   2.476   0.323
  269SOL    HW1 1706   2.993   2.411   0.358
  269SOL    HW2 1707   3.034   2.504   0.230
  270SOL     OW 1708   0.722   6.099   0.302
  270SOL    HW1 1709   0.811   6.075   0.340
  270SOL    HW2 1710   0.712   6.199   0.300
  271SOL     OW 1711   0.505   1.734   6.337
  271SOL    HW1 1712   0.497   1.703   6.432
  271SOL    HW2 1713   0.437   1.806   6.321
  272SOL     OW 1714   3.547   6.337   4.049
  272SOL    HW1 1715   3.598   6.293   3.975
  272SOL    HW2 1716   3.459   6.368   4.015
  273SOL     OW 1717   1.671   5.156   5.402
  273SOL    HW1 1718   1.588   5.202   5.435
  273SOL    HW2 1719   1.648   5.091   5.330
  274SOL     OW 1720   3.890   0.921   3.717
  274SOL    HW1 1721   3.950   0.920   3.637
  274SOL    HW2 1722   3.795   0.931   3.688
  275SOL     OW 1723   0.181   6.434   2.523
  275SOL    HW1 1724   0.191   6.378   2.605
  275SOL    HW2 1725   0.091   6.477   2.523
  276SOL     OW 1726   0.582   6.747   3.569
  276SOL    HW1 1727   0.548   6.794   3.488
  276SOL    HW2 1728   0.505   6.705   3.617
  277SOL     OW 1729   1.517   3.351   6.872
  277SOL    HW1 1730   1.505   3.444   6.836
  277SOL    HW2 1731   1.475   3.345   6.962
  278SOL     OW 1732   0.249   3.275   2.991
  278SOL    HW1 1733   0.260   3.226   3.078
  278SOL    HW2 1734   0.320   3.345   2.984
  279SOL     OW 1735   5.148   2.745   4.382
  279SOL    HW1 1736   5.175   2.825   4.436
  279SOL    HW2 1737   5.229   2.689   4.362
  280SOL     OW 1738   2.549   5.504   1.415
  280SOL    HW1 1739   2.577   5.495   1.319
  280SOL    HW2 1740   2.469   5.564   1.420
  281SOL     OW 1741   2.058   4.518   1.739
  281SOL    HW1 1742   2.094   4.552   1.652
  281SOL    HW2 1743   2.128   4.460   1.783
  282SOL     OW 1744   3.163   1.070   4.907
  282SOL    HW1 1745   3.068   1.039   4.915
  282SOL    HW2 1746   3.211   1.049   4.992
  283SOL     OW 1747   5.647   2.768   6.735
  283SOL    HW1 1748   5.675   2.817   6.653
  283SOL    HW2 1749   5.568   2.813   6.776
  284SOL     OW 1750   0.787   3.537   3.778
  284SOL    HW1 1751   0.823   3.630   3.776
  284SOL    HW2 1752   0.847   3.479   3.834
  285SOL     OW 1753   5.356   4.928   3.994
  285SOL    HW1 1754   5.413   4.871   4.054
  285SOL    HW2 1755   5.392   4.923   3.901
  286SOL     OW 1756   3.359   4.215   6.682
  286SOL    HW1 1757   3.266   4.215   6.645
  286SOL    HW2 1758   3.424   4.234   6.608
  287SOL     OW 1759   1.708   3.304   1.088
  287SOL    HW1 1760   1.634   3.344   1.034
  287SOL    HW2 1761   1.711   3.205   1.073
  288SOL     OW 1762   3.863   1.515   6.306
  288SOL    HW1 1763   3.955   1.546   6.283
  288SOL    HW2 1764   3.797   1.560   6.246
  289SOL     OW 1765   1.859   4.654   5.748
  289SOL    HW1 1766   1.920   4.604   5.687
  289SOL    HW2 1767   1.784   4.595   5.776
  290SOL     OW 1768   0.127   1.545   5.142
  290SOL    HW1 1769   0.131   1.500   5.231
  290SOL    HW2 1770   0.058   1.618   5.145
  291SOL     OW 1771   0.952   1.680   4.016
  291SOL    HW1 1772   0.897   1.673   4.099
  291SOL    HW2 1773   0.895   1.715   3.941
  292SOL     OW 1774   2.339   0.493   3.449
  292SOL    HW1 1775   2.268   0.505   3.380
  292SOL    HW2 1776   2.336   0.568   3.515
  293SOL     OW 1777   4.767   5.904   4.153
  293SOL    HW1 1778   4.736   5.990   4.193
  293SOL    HW2 1779   4.792   5.840   4.226
  294SOL     OW 1780   5.220   5.942   6.752
  294SOL    HW1 1781   5.320   5.940   6.754
  294SOL    HW2 1782   5.188   5.960   6.659
  295SOL     OW 1783   4.904   0.683   3.502
  295SOL    HW1 1784   4.811   0.667   3.468
  295SOL    HW2 1785   4.904   0.684   3.602
  296SOL     OW 1786   3.372   1.383   3.034
  296SOL    HW1 1787   3.319   1.342   2.960
  296SOL    HW2 1788   3.310   1.416   3.106
  297SOL     OW 1789   1.652   3.894   3.112
  297SOL    HW1 1790   1.615   3.986   3.126
  297SOL    HW2 1791   1.751   3.898   3.110
  298SOL     OW 1792   6.173   5.605   0.780
  298SOL    HW1 1793   6.098   5.670   0.767
  298SOL    HW2 1794   6.258   5.646   0.748
  299SOL     OW 1795   6.323   2.233   4.763
  299SOL    HW1 1796   6.257   2.280   4.822
  299SOL    HW2 1797   6.351   2.293   4.689
  300SOL     OW 1798   6.252   0.407   2.946
  300SOL    HW1 1799   6.325   0.440   2.886
  300SOL    HW2 1800   6.177   0.474   2.947
  301SOL     OW 1801   5.871   3.415   7.021
  301SOL    HW1 1802   5.783   3.370   0.006
  301SOL    HW2 1803   5.862   3.512   0.019
  302SOL     OW 1804   0.862   0.334   3.960
  302SOL    HW1 1805   0.774   0.339   4.006
  302SOL    HW2 1806   0.935   0.327   4.029
  303SOL     OW 1807   4.962   0.764   2.938
  303SOL    HW1 1808   4.998   0.850   2.903
  303SOL    HW2 1809   5.035   0.713   2.983
  304SOL     OW 1810   2.546   0.145   3.263
  304SOL    HW1 1811   2.574   0.238   3.289
  304SOL    HW2 1812   2.594   0.117   3.180
  305SOL     OW 1813   1.120   4.344   6.915
  305SOL    HW1 1814   1.130   4.434   6.958
  305SOL    HW2 1815   1.026   4.312   6.926
  306SOL     OW 1816   2.489   0.859   3.635
  306SOL    HW1 1817   2.410   0.867   3.574
  306SOL    HW2 1818   2.473   0.912   3.718
  307SOL     OW 1819   4.397   0.221   1.141
  307SOL    HW1 1820   4.298   0.223   1.152
  307SOL    HW2 1821   4.433   0.314   1.143
  308SOL     OW 1822   1.085   6.300   3.282
  308SOL    HW1 1823   1.063   6.275   3.188
  308SOL    HW2 1824   1.157   6.370   3.282
  309SOL     OW 1825   3.610   4.505   5.377
  309SOL    HW1 1826   3.698   4.544   5.348
  309SOL    HW2 1827   3.538   4.574   5.368
  310SOL     OW 1828   0.456   6.495   5.547
  310SOL    HW1 1829   0.444   6.581   5.596
  310SOL    HW2 1830   0.490   6.425   5.610
  311SOL     OW 1831   0.720   5.841   1.372
  311SOL    HW1 1832   0.777   5.837   1.454
  311SOL    HW2 1833   0.738   5.762   1.314
  312SOL     OW 1834   5.038   1.617   5.090
  312SOL    HW1 1835   5.121   1.597   5.142
  312SOL    HW2 1836   5.051   1.589   4.994
  313SOL     OW 1837   2.153   4.379   2.149
  313SOL    HW1 1838   2.241   4.425   2.136
  313SOL    HW2 1839   2.079   4.444   2.133
  314SOL     OW 1840   3.433   5.663   0.374
  314SOL    HW1 1841   3.387   5.602   0.310
  314SOL    HW2 1842   3.511   5.706   0.329
  315SOL     OW 1843   0.433   2.740   3.354
  315SOL    HW1 1844   0.416   2.839   3.349
  315SOL    HW2 1845   0.477   2.718   3.441
  316SOL     OW 1846   2.383   2.740   3.686
  316SOL    HW1 1847   2.377   2.728   3.785
  316SOL    HW2 1848   2.476   2.717   3.656
  317SOL     OW 1849   6.583   1.584   6.966
  317SOL    HW1 1850   6.626   1.494   6.976
  317SOL    HW2 1851   6.495   1.584   7.013
  318SOL     OW 1852   1.696   4.218   0.554
  318SOL    HW1 1853   1.718   4.225   0.651
  318SOL    HW2 1854   1.734   4.297   0.506
  319SOL     OW 1855   1.536   0.317   1.148
  319SOL    HW1 1856   1.593   0.243   1.112
  319SOL    HW2 1857   1.560   0.333   1.244
  320SOL     OW 1858   6.468   3.228   1.066
  320SOL    HW1 1859   6.500   3.312   1.022
  320SOL    HW2 1860   6.388   3.193   1.019
  321SOL     OW 1861   1.717   2.313   1.930
  321SOL    HW1 1862   1.755   2.234   1.979
  321SOL    HW2 1863   1.618   2.302   1.922
  322SOL     OW 1864   3.516   2.950   4.909
  322SOL    HW1 1865   3.478   2.973   4.819
  322SOL    HW2 1866   3.463   2.874   4.948
  323SOL     OW 1867   6.689   4.214   0.856
  323SOL    HW1 1868   6.707   4.126   0.813
  323SOL    HW2 1869   6.592   4.238   0.843
  324SOL     OW 1870   1.152   3.325   4.599
  324SOL    HW1 1871   1.100   3.242   4.620
  324SOL    HW2 1872   1.249   3.307   4.611
  325SOL     OW 1873   2.051   2.810   2.036
  325SOL    HW1 1874   2.008   2.721   2.047
  325SOL    HW2 1875   1.983   2.876   2.002
  326SOL     OW 1876   2.037   6.253   6.519
  326SOL    HW1 1877   2.080   6.179   6.570
  326SOL    HW2 1878   2.018   6.330   6.581
  327SOL     OW 1879   6.142   4.798   5.281
  327SOL    HW1 1880   6.101   4.711   5.254
  327SOL    HW2 1881   6.105   4.826   5.369
  328SOL     OW 1882   4.531   4.747   1.805
  328SOL    HW1 1883   4.473   4.829   1.810
  328SOL    HW2 1884   4.473   4.665   1.803
  329SOL     OW 1885   3.523   3.885   3.162
  329SOL    HW1 1886   3.597   3.875   3.229
  329SOL    HW2 1887   3.556   3.858   3.072
  330SOL     OW 1888   3.379   6.978   1.449
  330SOL    HW1 1889   3.376   6.885   1.485
  330SOL    HW2 1890   3.292   7.024   1.468
  331SOL     OW 1891   4.996   5.183   5.680
  331SOL    HW1 1892   4.937   5.147   5.608
  331SOL    HW2 1893   5.055   5.109   5.714
  332SOL     OW 1894   3.011   1.649   4.069
  332SOL    HW1 1895   2.998   1.738   4.114
  332SOL    HW2 1896   2.937   1.587   4.097
  333SOL     OW 1897   4.001   6.307   5.982
  333SOL    HW1 1898   4.091   6.349   5.969
  333SOL    HW2 1899   3.985   6.291   6.079
  334SOL     OW 1900   3.434   6.968   2.438
  334SOL    HW1 1901   3.393   6.946   2.349
  334SOL    HW2 1902   3.384   6.920   2.510
  335SOL     OW 1903   3.510   5.750   3.621
  335SOL    HW1 1904   3.412   5.748   3.600
  335SOL    HW2 1905   3.555   5.818   3.564
  336SOL     OW 1906   3.318   1.139   3.307
  336SOL    HW1 1907   3.312   1.138   3.207
  336SOL    HW2 1908   3.226   1.147   3.346
  337SOL     OW 1909   0.176   3.496   1.742
  337SOL    HW1 1910   0.080   3.471   1.742
  337SOL    HW2 1911   0.201   3.534   1.832
  338SOL     OW 1912   2.772   2.990   1.507
  338SOL    HW1 1913   2.690   2.967   1.560
  338SOL    HW2 1914   2.851   2.942   1.545
  339SOL     OW 1915   3.908   6.448   2.871
  339SOL    HW1 1916   3.858   6.509   2.808
  339SOL    HW2 1917   3.886   6.474   2.965
  340SOL     OW 1918   4.925   3.745   4.668
  340SOL    HW1 1919   4.930   3.743   4.768
  340SOL    HW2 1920   4.893   3.656   4.634
  341SOL     OW 1921   5.461   5.369   3.871
  341SOL    HW1 1922   5.383   5.396   3.927
  341SOL    HW2 1923   5.435   5.368   3.774
  342SOL     OW 1924   5.953   5.240   0.433
  342SOL    HW1 1925   5.920   5.309   0.369
  342SOL    HW2 1926   6.046   5.213   0.408
  343SOL     OW 1927   3.598   6.737   1.695
  343SOL    HW1 1928   3.638   6.826   1.712
  343SOL    HW2 1929   3.670   6.670   1.679
  344SOL     OW 1930   1.959   5.260   0.465
  344SOL    HW1 1931   2.054   5.249   0.497
  344SOL    HW2 1932   1.902   5.291   0.541
  345SOL     OW 1933   1.047   0.516   5.423
  345SOL    HW1 1934   1.079   0.561   5.340
  345SOL    HW2 1935   1.110   0.442   5.447
  346SOL     OW 1936   1.604   0.339   3.046
  346SOL    HW1 1937   1.634   0.274   2.976
  346SOL    HW2 1938   1.606   0.294   3.135
  347SOL     OW 1939   5.428   7.006   6.781
  347SOL    HW1 1940   5.520   0.007   6.809
  347SOL    HW2 1941   5.385   0.057   6.733
  348SOL     OW 1942   3.525   5.263   1.046
  348SOL    HW1 1943   3.488   5.303   0.962
  348SOL    HW2 1944   3.464   5.190   1.077
  349SOL     OW 1945   0.374   4.857   2.542
  349SOL    HW1 1946   0.322   4.930   2.497
  349SOL    HW2 1947   0.350   4.769   2.500
  350SOL     OW 1948   3.945   3.506   1.441
  350SOL    HW1 1949   3.899   3.420   1.465
  350SOL    HW2 1950   3.877   3.572   1.408
  351SOL     OW 1951   2.742   1.679   0.062
  351SOL    HW1 1952   2.656   1.700   0.108
  351SOL    HW2 1953   2.727   1.671   6.989
  352SOL     OW 1954   3.342   0.218   5.798
  352SOL    HW1 1955   3.312   0.311   5.817
  352SOL    HW2 1956   3.290   0.153   5.854
  353SOL     OW 1957   1.630   6.013   0.589
  353SOL    HW1 1958   1.548   6.061   0.619
  353SOL    HW2 1959   1.667   6.056   0.507
  354SOL     OW 1960   4.324   1.248   0.063
  354SOL    HW1 1961   4.233   1.276   0.029
  354SOL    HW2 1962   4.318   1.229   0.161
  355SOL     OW 1963   6.964   3.571   2.533
  355SOL    HW1 1964   6.871   3.588   2.500
  355SOL    HW2 1965   6.988   3.641   2.601
  356SOL     OW 1966   4.114   5.124   3.509
  356SOL    HW1 1967   4.077   5.036   3.539
  356SOL    HW2 1968   4.206   5.112   3.472
  357SOL     OW 1969   0.372   5.784   5.243
  357SOL    HW1 1970   0.401   5.753   5.333
  357SOL    HW2 1971   0.420   5.868   5.219
  358SOL     OW 1972   5.693   0.488   1.877
  358SOL    HW1 1973   5.606   0.517   1.837
  358SOL    HW2 1974   5.738   0.423   1.815
  359SOL     OW 1975   1.599   1.936   2.344
  359SOL    HW1 1976   1.673   2.000   2.325
  359SOL    HW2 1977   1.571   1.945   2.440
  360SOL     OW 1978   4.435   6.864   0.096
  360SOL    HW1 1979   4.427   6.768   0.122
  360SOL    HW2 1980   4.404   6.875   0.002
  361SOL     OW 1981   5.051   6.361   2.696
  361SOL    HW1 1982   5.068   6.276   2.647
  361SOL    HW2 1983   5.066   6.439   2.635
  362SOL     OW 1984   3.242   3.593   1.159
  362SOL    HW1 1985   3.249   3.543   1.245
  362SOL    HW2 1986   3.198   3.536   1.090
  363SOL     OW 1987   4.440   5.155   3.984
  363SOL    HW1 1988   4.522   5.193   3.941
  363SOL    HW2 1989   4.466   5.081   4.045
  364SOL     OW 1990   1.557   5.218   6.289
  364SOL    HW1 1991   1.612   5.244   6.368
  364SOL    HW2 1992   1.601   5.251   6.205
  365SOL     OW 1993   5.215   6.249   1.910
  365SOL    HW1 1994   5.285   6.250   1.838
  365SOL    HW2 1995   5.137   6.304   1.881
  366SOL     OW 1996   5.801   1.019   6.976
  366SOL    HW1 1997   5.726   0.957   6.955
  366SOL    HW2 1998   5.884   0.966   6.996
  367SOL     OW 1999   5.444   3.026   1.205
  367SOL    HW1 2000   5.479   3.040   1.297
  367SOL    HW2 2001   5.493   3.086   1.142
  368SOL     OW 2002   1.392   4.656   5.325
  368SOL    HW1 2003   1.417   4.602   5.406
  368SOL    HW2 2004   1.324   4.725   5.351
  369SOL     OW 2005   0.552   4.216   1.883
  369SOL    HW1 2006   0.486   4.147   1.856
  369SOL    HW2 2007   0.512   4.276   1.953
  370SOL     OW 2008   3.288   1.626   5.198
  370SOL    HW1 2009   3.244   1.716   5.202
  370SOL    HW2 2010   3.221   1.555   5.221
  371SOL     OW 2011   3.063   3.739   0.107
  371SOL    HW1 2012   3.028   3.802   0.177
  371SOL    HW2 2013   3.141   3.781   0.061
  372SOL     OW 2014   0.159   6.798   5.824
  372SOL    HW1 2015   0.111   6.776   5.908
  372SOL    HW2 2016   0.094   6.808   5.749
  373SOL     OW 2017   0.279   6.306   0.766
  373SOL    HW1 2018   0.248   6.288   0.860
  373SOL    HW2 2019   0.199   6.314   0.706
  374SOL     OW 2020   3.593   0.694   1.639
  374SOL    HW1 2021   3.648   0.644   1.706
  374SOL    HW2 2022   3.627   0.788   1.632
  375SOL     OW 2023   6.720   5.225   3.714
  375SOL    HW1 2024   6.623   5.247   3.701
  375SOL    HW2 2025   6.728   5.142   3.768
  376SOL     OW 2026   2.048   2.843   4.302
  376SOL    HW1 2027   2.090   2.759   4.337
  376SOL    HW2 2028   1.975   2.819   4.237
  377SOL     OW 2029   4.812   2.151   3.245
  377SOL    HW1 2030   4.734   2.175   3.304
  377SOL    HW2 2031   4.894   2.197   3.280
  378SOL     OW 2032   4.533   3.230   5.447
  378SOL    HW1 2033   4.438   3.248   5.422
  378SOL    HW2 2034   4.568   3.153   5.393
  379SOL     OW 2035   5.337   3.856   0.981
  379SOL    HW1 2036   5.323   3.757   0.982
  379SOL    HW2 2037   5.345   3.889   0.887
  380SOL     OW 2038   1.686   1.814   1.185
  380SOL    HW1 2039   1.600   1.862   1.167
  380SOL    HW2 2040   1.697   1.801   1.284
  381SOL     OW 2041   3.330   3.904   0.893
  381SOL    HW1 2042   3.369   3.928   0.804
  381SOL    HW2 2043   3.386   3.833   0.936
  382SOL     OW 2044   3.007   6.091   0.726
  382SOL    HW1 2045   2.970   6.078   0.634
  382SOL    HW2 2046   3.021   6.188   0.743
  383SOL     OW 2047   6.568   2.692   0.439
  383SOL    HW1 2048   6.624   2.672   0.520
  383SOL    HW2 2049   6.504   2.766   0.460
  384SOL     OW 2050   1.032   5.442   4.795
  384SOL    HW1 2051   1.129   5.420   4.798
  384SOL    HW2 2052   0.981   5.378   4.852
  385SOL     OW 2053   4.530   6.109   0.239
  385SOL    HW1 2054   4.553   6.037   0.174
  385SOL    HW2 2055   4.431   6.109   0.255
  386SOL     OW 2056   3.672   6.286   5.687
  386SOL    HW1 2057   3.708   6.328   5.770
  386SOL    HW2 2058   3.672   6.352   5.613
  387SOL     OW 2059   0.180   0.620   5.426
  387SOL    HW1 2060   0.108   0.551   5.438
  387SOL    HW2 2061   0.256   0.580   5.374
  388SOL     OW 2062   6.687   2.569   5.180
  388SOL    HW1 2063   6.717   2.557   5.085
  388SOL    HW2 2064   6.767   2.584   5.239
  389SOL     OW 2065   4.446   4.860   1.273
  389SOL    HW1 2066   4.435   4.948   1.321
  389SOL    HW2 2067   4.458   4.877   1.175
  390SOL     OW 2068   3.278   1.911   0.566
  390SOL    HW1 2069   3.341   1.833   0.565
  390SOL    HW2 2070   3.248   1.931   0.473
  391SOL     OW 2071   3.048   4.053   6.055
  391SOL    HW1 2072   3.004   3.967   6.028
  391SOL    HW2 2073   3.050   4.115   5.977
  392SOL     OW 2074   1.213   3.547   1.718
  392SOL    HW1 2075   1.251   3.529   1.627
  392SOL    HW2 2076   1.279   3.520   1.788
  393SOL     OW 2077   1.100   4.603   1.283
  393SOL    HW1 2078   1.028   4.557   1.335
  393SOL    HW2 2079   1.155   4.534   1.235
  394SOL     OW 2080   6.515   1.163   6.385
  394SOL    HW1 2081   6.495   1.259   6.366
  394SOL    HW2 2082   6.478   1.138   6.474
  395SOL     OW 2083   5.626   4.638   1.248
  395SOL    HW1 2084   5.722   4.661   1.232
  395SOL    HW2 2085   5.588   4.702   1.314
  396SOL     OW 2086   2.762   1.419   2.523
  396SOL    HW1 2087   2.786   1.339   2.576
  396SOL    HW2 2088   2.823   1.495   2.546
  397SOL     OW 2089   4.132   1.744   5.399
  397SOL    HW1 2090   4.149   1.646   5.413
  397SOL    HW2 2091   4.105   1.785   5.486
  398SOL     OW 2092   2.252   1.160   4.383
  398SOL    HW1 2093   2.344   1.169   4.419
  398SOL    HW2 2094   2.253   1.176   4.284
  399SOL     OW 2095   5.727   6.121   3.916
  399SOL    HW1 2096   5.677   6.179   3.980
  399SOL    HW2 2097   5.789   6.177   3.861
  400SOL     OW 2098   6.790   0.604   4.803
  400SOL    HW1 2099   6.724   0.548   4.753
  400SOL    HW2 2100   6.842   0.546   4.866
  401SOL     OW 2101   6.747   5.577   5.835
  401SOL    HW1 2102   6.794   5.533   5.911
  401SOL    HW2 2103   6.700   5.660   5.868
  402SOL     OW 2104   6.956   0.591   2.347
  402SOL    HW1 2105   6.937   0.500   2.311
  402SOL    HW2 2106   6.923   0.660   2.282
  403SOL     OW 2107   2.583   0.993   5.517
  403SOL    HW1 2108   2.581   1.043   5.430
  403SOL    HW2 2109   2.563   0.896   5.500
  404SOL     OW 2110   4.020   4.871   3.867
  404SOL    HW1 2111   4.069   4.815   3.801
  404SOL    HW2 2112   4.085   4.927   3.919
  405SOL     OW 2113   2.893   4.845   3.976
  405SOL    HW1 2114   2.986   4.843   4.013
  405SOL    HW2 2115   2.896   4.866   3.878
  406SOL     OW 2116   0.562   5.525   6.143
  406SOL    HW1 2117   0.623   5.523   6.222
  406SOL    HW2 2118   0.610   5.489   6.063
  407SOL     OW 2119   2.055   3.119   4.675
  407SOL    HW1 2120   2.058   3.216   4.651
  407SOL    HW2 2121   2.082   3.108   4.770
  408SOL     OW 2122   2.947   1.312   3.824
  408SOL    HW1 2123   2.926   1.304   3.922
  408SOL    HW2 2124   2.955   1.409   3.800
  409SOL     OW 2125   1.073   3.640   2.948
  409SOL    HW1 2126   1.134   3.712   2.914
  409SOL    HW2 2127   0.987   3.644   2.898
  410SOL     OW 2128   1.989   2.117   1.703
  410SOL    HW1 2129   1.911   2.055   1.710
  410SOL    HW2 2130   2.042   2.114   1.788
  411SOL     OW 2131   0.830   2.573   1.096
  411SOL    HW1 2132   0.834   2.495   1.033
  411SOL    HW2 2133   0.891   2.557   1.173
  412SOL     OW 2134   1.984   4.858   1.547
  412SOL    HW1 2135   1.915   4.930   1.535
  412SOL    HW2 2136   1.944   4.782   1.598
  413SOL     OW 2137   5.114   5.342   2.792
  413SOL    HW1 2138   5.201   5.391   2.798
  413SOL    HW2 2139   5.124   5.264   2.730
  414SOL     OW 2140   2.602   6.171   3.554
  414SOL    HW1 2141   2.623   6.269   3.546
  414SOL    HW2 2142   2.620   6.140   3.647
  415SOL     OW 2143   6.617   0.931   0.811
  415SOL    HW1 2144   6.626   0.888   0.901
  415SOL    HW2 2145   6.577   0.865   0.747
  416SOL     OW 2146   4.882   3.206   4.831
  416SOL    HW1 2147   4.790   3.237   4.808
  416SOL    HW2 2148   4.889   3.107   4.816
  417SOL     OW 2149   3.426   1.998   6.012
  417SOL    HW1 2150   3.363   1.986   6.089
  417SOL    HW2 2151   3.417   2.091   5.976
  418SOL     OW 2152   4.000   5.687   4.795
  418SOL    HW1 2153   4.076   5.687   4.730
  418SOL    HW2 2154   3.913   5.679   4.746
  419SOL     OW 2155   0.872   6.785   1.207
  419SOL    HW1 2156   0.905   6.756   1.297
  419SOL    HW2 2157   0.948   6.783   1.142
  420SOL     OW 2158   5.214   1.467   6.130
  420SOL    HW1 2159   5.279   1.521   6.077
  420SOL    HW2 2160   5.214   1.372   6.097
  421SOL     OW 2161   5.297   3.294   2.361
  421SOL    HW1 2162   5.309   3.384   2.319
  421SOL    HW2 2163   5.349   3.290   2.446
  422SOL     OW 2164   4.944   3.259   1.738
  422SOL    HW1 2165   4.975   3.204   1.816
  422SOL    HW2 2166   4.848   3.284   1.751
  423SOL     OW 2167   3.588   1.312   6.605
  423SOL    HW1 2168   3.630   1.243   6.664
  423SOL    HW2 2169   3.639   1.318   6.519
  424SOL     OW 2170   1.135   3.674   3.200
  424SOL    HW1 2171   1.123   3.676   3.101
  424SOL    HW2 2172   1.145   3.579   3.231
  425SOL     OW 2173   2.493   0.924   5.118
  425SOL    HW1 2174   2.579   0.885   5.085
  425SOL    HW2 2175   2.507   1.020   5.142
  426SOL     OW 2176   2.540   2.497   4.324
  426SOL    HW1 2177   2.586   2.471   4.239
  426SOL    HW2 2178   2.497   2.587   4.311
  427SOL     OW 2179   3.462   1.980   3.177
  427SOL    HW1 2180   3.457   2.032   3.262
  427SOL    HW2 2181   3.372   1.976   3.135
  428SOL     OW 2182   2.393   1.785   6.023
  428SOL    HW1 2183   2.378   1.769   6.120
  428SOL    HW2 2184   2.435   1.875   6.010
  429SOL     OW 2185   1.552   5.776   3.664
  429SOL    HW1 2186   1.489   5.844   3.629
  429SOL    HW2 2187   1.532   5.687   3.623
  430SOL     OW 2188   1.728   0.292   3.658
  430SOL    HW1 2189   1.746   0.208   3.607
  430SOL    HW2 2190   1.633   0.319   3.646
  431SOL     OW 2191   2.934   1.780   1.644
  431SOL    HW1 2192   2.968   1.873   1.653
  431SOL    HW2 2193   2.896   1.767   1.552
  432SOL     OW 2194   4.241   2.346   2.127
  432SOL    HW1 2195   4.282   2.386   2.045
  432SOL    HW2 2196   4.142   2.350   2.119
  433SOL     OW 2197   2.428   5.764   0.412
  433SOL    HW1 2198   2.509   5.718   0.374
  433SOL    HW2 2199   2.401   5.838   0.351
  434SOL     OW 2200   3.963   6.304   3.635
  434SOL    HW1 2201   4.035   6.361   3.674
  434SOL    HW2 2202   4.001   6.217   3.605
  435SOL     OW 2203   3.268   1.753   6.325
  435SOL    HW1 2204   3.245   1.706   6.410
  435SOL    HW2 2205   3.326   1.694   6.269
  436SOL     OW 2206   5.112   0.166   2.828
  436SOL    HW1 2207   5.080   0.235   2.894
  436SOL    HW2 2208   5.114   0.076   2.872
  437SOL     OW 2209   6.905   0.423   4.966
  437SOL    HW1 2210   6.895   0.441   5.063
  437SOL    HW2 2211   6.985   0.364   4.952
  438SOL     OW 2212   0.238   4.672   2.894
  438SOL    HW1 2213   0.208   4.695   2.986
  438SOL    HW2 2214   0.209   4.578   2.873
  439SOL     OW 2215   6.440   0.280   4.157
  439SOL    HW1 2216   6.453   0.269   4.255
  439SOL    HW2 2217   6.382   0.205   4.123
  440SOL     OW 2218   3.948   0.958   0.759
  440SOL    HW1 2219   3.955   0.921   0.666
  440SOL    HW2 2220   3.863   0.925   0.801
  441SOL     OW 2221   0.128   4.162   2.370
  441SOL    HW1 2222   0.162   4.244   2.325
  441SOL    HW2 2223   0.113   4.091   2.301
  442SOL     OW 2224   5.497   3.053   5.828
  442SOL    HW1 2225   5.442   2.970   5.821
  442SOL    HW2 2226   5.520   3.086   5.737
  443SOL     OW 2227   4.890   3.298   2.348
  443SOL    HW1 2228   4.842   3.220   2.308
  443SOL    HW2 2229   4.901   3.283   2.446
  444SOL     OW 2230   4.032   0.917   1.504
  444SOL    HW1 2231   3.963   0.887   1.571
  444SOL    HW2 2232   4.021   1.014   1.486
  445SOL     OW 2233   1.453   5.916   2.145
  445SOL    HW1 2234   1.467   5.906   2.046
  445SOL    HW2 2235   1.478   5.831   2.191
  446SOL     OW 2236   5.422   0.260   1.503
  446SOL    HW1 2237   5.358   0.336   1.519
  446SOL    HW2 2238   5.429   0.243   1.405
  447SOL     OW 2239   6.396   4.624   0.573
  447SOL    HW1 2240   6.305   4.609   0.535
  447SOL    HW2 2241   6.464   4.581   0.513
  448SOL     OW 2242   2.817   6.849   3.247
  448SOL    HW1 2243   2.786   6.926   3.190
  448SOL    HW2 2244   2.765   6.849   3.333
  449SOL     OW 2245   1.963   3.595   5.130
  449SOL    HW1 2246   1.896   3.556   5.194
  449SOL    HW2 2247   1.920   3.668   5.078
  450SOL     OW 2248   0.654   5.080   3.500
  450SOL    HW1 2249   0.611   5.098   3.589
  450SOL    HW2 2250   0.695   4.989   3.502
  451SOL     OW 2251   0.601   2.094   2.576
  451SOL    HW1 2252   0.693   2.063   2.554
  451SOL    HW2 2253   0.603   2.153   2.657
  452SOL     OW 2254   4.987   5.579   2.050
  452SOL    HW1 2255   5.024   5.606   1.962
  452SOL    HW2 2256   4.893   5.546   2.038
  453SOL     OW 2257   3.462   0.301   6.344
  453SOL    HW1 2258   3.382   0.327   6.289
  453SOL    HW2 2259   3.542   0.291   6.285
  454SOL     OW 2260   6.649   3.479   6.634
  454SOL    HW1 2261   6.706   3.405   6.671
  454SOL    HW2 2262   6.668   3.490   6.537
  455SOL     OW 2263   6.073   4.551   6.580
  455SOL    HW1 2264   6.143   4.598   6.632
  455SOL    HW2 2265   6.083   4.574   6.483
  456SOL     OW 2266   3.056   1.006   2.372
  456SOL    HW1 2267   3.102   1.001   2.283
  456SOL    HW2 2268   2.974   1.064   2.364
  457SOL     OW 2269   2.736   0.377   6.929
  457SOL    HW1 2270   2.636   0.379   6.923
  457SOL    HW2 2271   2.765   0.302   6.988
  458SOL     OW 2272   3.055   1.269   3.322
  458SOL    HW1 2273   2.969   1.273   3.270
  458SOL    HW2 2274   3.117   1.341   3.290
  459SOL     OW 2275   3.403   0.143   4.103
  459SOL    HW1 2276   3.414   0.210   4.176
  459SOL    HW2 2277   3.492   0.108   4.075
  460SOL     OW 2278   1.295   1.299   5.961
  460SOL    HW1 2279   1.206   1.300   5.916
  460SOL    HW2 2280   1.298   1.224   6.028
  461SOL     OW 2281   0.736   5.018   5.746
  461SOL    HW1 2282   0.685   4.943   5.788
  461SOL    HW2 2283   0.783   4.984   5.664
  462SOL     OW 2284   3.062   3.883   5.240
  462SOL    HW1 2285   3.064   3.934   5.154
  462SOL    HW2 2286   3.155   3.874   5.276
  463SOL     OW 2287   5.502   6.723   2.618
  463SOL    HW1 2288   5.472   6.760   2.530
  463SOL    HW2 2289   5.433   6.660   2.653
  464SOL     OW 2290   3.856   5.335   6.121
  464SOL    HW1 2291   3.767   5.308   6.084
  464SOL    HW2 2292   3.873   5.431   6.099
  465SOL     OW 2293   0.869   3.646   1.160
  465SOL    HW1 2294   0.825   3.728   1.123
  465SOL    HW2 2295   0.886   3.657   1.257
  466SOL     OW 2296   4.058   5.328   4.654
  466SOL    HW1 2297   4.080   5.425   4.645
  466SOL    HW2 2298   4.135   5.280   4.697
  467SOL     OW 2299   6.469   0.058   1.491
  467SOL    HW1 2300   6.434   6.997   1.526
  467SOL    HW2 2301   6.559   0.042   1.448
  468SOL     OW 2302   3.057   0.061   6.234
  468SOL    HW1 2303   2.970   0.083   6.190
  468SOL    HW2 2304   3.104   7.015   6.182
  469SOL     OW 2305   2.842   4.749   6.007
  469SOL    HW1 2306   2.885   4.659   6.006
  469SOL    HW2 2307   2.903   4.816   5.963
  470SOL     OW 2308   1.940   5.159   2.878
  470SOL    HW1 2309   1.892   5.071   2.881
  470SOL    HW2 2310   2.005   5.163   2.954
  471SOL     OW 2311   1.691   2.292   4.329
  471SOL    HW1 2312   1.751   2.362   4.369
  471SOL    HW2 2313   1.715   2.203   4.368
  472SOL     OW 2314   5.985   3.754   6.424
  472SOL    HW1 2315   6.033   3.766   6.511
  472SOL    HW2 2316   5.936   3.666   6.425
  473SOL     OW 2317   6.709   2.994   1.961
  473SOL    HW1 2318   6.725   2.968   2.056
  473SOL    HW2 2319   6.796   3.019   1.918
  474SOL     OW 2320   5.133   6.172   3.671
  474SOL    HW1 2321   5.053   6.230   3.686
  474SOL    HW2 2322   5.148   6.115   3.752
  475SOL     OW 2323   6.010   1.820   0.652
  475SOL    HW1 2324   5.929   1.819   0.711
  475SOL    HW2 2325   6.049   1.912   0.651
  476SOL     OW 2326   0.969   4.858   1.580
  476SOL    HW1 2327   0.891   4.914   1.555
  476SOL    HW2 2328   1.042   4.871   1.513
  477SOL     OW 2329   1.707   4.524   3.709
  477SOL    HW1 2330   1.731   4.483   3.797
  477SOL    HW2 2331   1.734   4.620   3.709
  478SOL     OW 2332   5.357   5.828   2.150
  478SOL    HW1 2333   5.298   5.748   2.141
  478SOL    HW2 2334   5.453   5.799   2.151
  479SOL     OW 2335   3.153   4.041   3.724
  479SOL    HW1 2336   3.069   4.005   3.682
  479SOL    HW2 2337   3.211   3.964   3.752
  480SOL     OW 2338   2.278   0.723   2.823
  480SOL    HW1 2339   2.202   0.676   2.868
  480SOL    HW2 2340   2.322   0.660   2.758
  481SOL     OW 2341   0.087   6.960   0.674
  481SOL    HW1 2342   0.176   6.984   0.634
  481SOL    HW2 2343   0.065   7.022   0.749
  482SOL     OW 2344   4.174   5.170   1.269
  482SOL    HW1 2345   4.131   5.080   1.276
  482SOL    HW2 2346   4.242   5.168   1.195
  483SOL     OW 2347   5.283   1.864   3.733
  483SOL    HW1 2348   5.353   1.883   3.802
  483SOL    HW2 2349   5.296   1.771   3.698
  484SOL     OW 2350   1.927   4.969   4.771
  484SOL    HW1 2351   1.971   5.005   4.852
  484SOL    HW2 2352   1.925   5.038   4.699
  485SOL     OW 2353   5.320   3.332   1.917
  485SOL    HW1 2354   5.341   3.273   1.839
  485SOL    HW2 2355   5.293   3.423   1.884
  486SOL     OW 2356   6.310   6.310   6.551
  486SOL    HW1 2357   6.388   6.318   6.488
  486SOL    HW2 2358   6.232   6.360   6.513
  487SOL     OW 2359   6.762   6.863   5.915
  487SOL    HW1 2360   6.836   6.802   5.942
  487SOL    HW2 2361   6.674   6.817   5.929
  488SOL     OW 2362   2.132   6.260   2.829
  488SOL    HW1 2363   2.112   6.293   2.922
  488SOL    HW2 2364   2.228   6.234   2.823
  489SOL     OW 2365   1.208   5.843   6.433
  489SOL    HW1 2366   1.114   5.813   6.447
  489SOL    HW2 2367   1.258   5.774   6.381
  490SOL     OW 2368   1.258   4.088   4.917
  490SOL    HW1 2369   1.213   4.172   4.887
  490SOL    HW2 2370   1.237   4.014   4.853
  491SOL     OW 2371   0.554   2.665   0.935
  491SOL    HW1 2372   0.567   2.764   0.928
  491SOL    HW2 2373   0.622   2.619   0.878
  492SOL     OW 2374   1.678   2.282   6.045
  492SOL    HW1 2375   1.599   2.344   6.039
  492SOL    HW2 2376   1.713   2.264   5.953
  493SOL     OW 2377   2.658   5.666   4.854
  493SOL    HW1 2378   2.603   5.749   4.866
  493SOL    HW2 2379   2.748   5.681   4.893
  494SOL     OW 2380   2.542   6.565   5.030
  494SOL    HW1 2381   2.466   6.528   4.977
  494SOL    HW2 2382   2.613   6.495   5.038
  495SOL     OW 2383   3.883   4.060   5.959
  495SOL    HW1 2384   3.821   3.988   5.928
  495SOL    HW2 2385   3.966   4.058   5.904
  496SOL     OW 2386   4.722   1.333   3.323
  496SOL    HW1 2387   4.806   1.332   3.377
  496SOL    HW2 2388   4.745   1.345   3.226
  497SOL     OW 2389   4.081   2.133   0.138
  497SOL    HW1 2390   4.154   2.065   0.131
  497SOL    HW2 2391   4.115   2.216   0.182
  498SOL     OW 2392   0.789   6.843   1.693
  498SOL    HW1 2393   0.850   6.910   1.735
  498SOL    HW2 2394   0.702   6.887   1.669
  499SOL     OW 2395   3.103   6.032   6.699
  499SOL    HW1 2396   3.199   6.004   6.700
  499SOL    HW2 2397   3.066   6.027   6.792
  500SOL     OW 2398   6.138   2.065   0.678
  500SOL    HW1 2399   6.173   2.142   0.624
  500SOL    HW2 2400   6.199   2.048   0.755
  501SOL     OW 2401   0.834   1.153   4.304
  501SOL    HW1 2402   0.933   1.143   4.319
  501SOL    HW2 2403   0.815   1.158   4.206
  502SOL     OW 2404   2.014   5.200   6.657
  502SOL    HW1 2405   2.054   5.197   6.748
  502SOL    HW2 2406   2.065   5.140   6.595
  503SOL     OW 2407   3.722   5.018   6.887
  503SOL    HW1 2408   3.714   4.921   6.906
  503SOL    HW2 2409   3.681   5.039   6.798
  504SOL     OW 2410   6.008   6.587   1.478
  504SOL    HW1 2411   6.057   6.664   1.519
  504SOL    HW2 2412   6.068   6.507   1.476
  505SOL     OW 2413   4.584   6.343   4.824
  505SOL    HW1 2414   4.540   6.400   4.755
  505SOL    HW2 2415   4.563   6.378   4.915
  506SOL     OW 2416   4.205   5.017   2.596
  506SOL    HW1 2417   4.183   4.938   2.538
  506SOL    HW2 2418   4.140   5.021   2.672
  507SOL     OW 2419   2.987   1.059   0.607
  507SOL    HW1 2420   2.988   0.962   0.629
  507SOL    HW2 2421   3.075   1.100   0.630
  508SOL     OW 2422   7.007   4.677   3.424
  508SOL    HW1 2423   7.024   4.609   3.353
  508SOL    HW2 2424   0.017   4.766   3.394
  509SOL     OW 2425   4.581   6.937   6.376
  509SOL    HW1 2426   4.639   6.855   6.373
  509SOL    HW2 2427   4.618   7.007   6.315
  510SOL     OW 2428   6.432   3.942   0.463
  510SOL    HW1 2429   6.353   3.927   0.523
  510SOL    HW2 2430   6.438   3.867   0.397
  511SOL     OW 2431   0.776   1.985   0.795
  511SOL    HW1 2432   0.775   2.045   0.715
  511SOL    HW2 2433   0.868   1.949   0.809
  512SOL     OW 2434   0.182   2.186   5.150
  512SOL    HW1 2435   0.132   2.226   5.226
  512SOL    HW2 2436   0.200   2.089   5.169
  513SOL     OW 2437   5.423   1.142   3.119
  513SOL    HW1 2438   5.374   1.055   3.129
  513SOL    HW2 2439   5.511   1.137   3.167
  514SOL     OW 2440   6.367   6.894   4.647
  514SOL    HW1 2441   6.360   6.858   4.740
  514SOL    HW2 2442   6.348   6.822   4.581
  515SOL     OW 2443   3.802   0.780   5.587
  515SOL    HW1 2444   3.887   0.806   5.542
  515SOL    HW2 2445   3.747   0.862   5.603
  516SOL     OW 2446   2.281   6.007   1.442
  516SOL    HW1 2447   2.275   6.107   1.448
  516SOL    HW2 2448   2.375   5.978   1.458
  517SOL     OW 2449   3.642   5.705   0.936
  517SOL    HW1 2450   3.567   5.752   0.982
  517SOL    HW2 2451   3.698   5.772   0.887
  518SOL     OW 2452   2.121   3.444   3.757
  518SOL    HW1 2453   2.028   3.432   3.793
  518SOL    HW2 2454   2.126   3.529   3.705
  519SOL     OW 2455   0.275   0.250   2.755
  519SOL    HW1 2456   0.325   0.247   2.668
  519SOL    HW2 2457   0.323   0.193   2.822
  520SOL     OW 2458   0.920   3.494   0.587
  520SOL    HW1 2459   0.974   3.422   0.545
  520SOL    HW2 2460   0.946   3.505   0.683
  521SOL     OW 2461   6.503   6.290   5.253
  521SOL    HW1 2462   6.439   6.347   5.305
  521SOL    HW2 2463   6.451   6.227   5.195
  522SOL     OW 2464   3.639   4.000   1.638
  522SOL    HW1 2465   3.720   4.007   1.580
  522SOL    HW2 2466   3.664   3.961   1.726
  523SOL     OW 2467   0.967   0.205   1.108
  523SOL    HW1 2468   1.012   0.157   1.032
  523SOL    HW2 2469   0.963   0.146   1.188
  524SOL     OW 2470   6.908   2.274   1.942
  524SOL    HW1 2471   6.918   2.185   1.898
  524SOL    HW2 2472   6.813   2.305   1.935
  525SOL     OW 2473   1.283   3.186   5.543
  525SOL    HW1 2474   1.210   3.151   5.600
  525SOL    HW2 2475   1.368   3.189   5.596
  526SOL     OW 2476   2.995   6.698   4.440
  526SOL    HW1 2477   2.920   6.645   4.400
  526SOL    HW2 2478   3.050   6.737   4.367
  527SOL     OW 2479   0.400   0.890   0.597
  527SOL    HW1 2480   0.458   0.955   0.645
  527SOL    HW2 2481   0.414   0.899   0.498
  528SOL     OW 2482   6.689   3.263   4.061
  528SOL    HW1 2483   6.702   3.305   3.971
  528SOL    HW2 2484   6.607   3.206   4.059
  529SOL     OW 2485   1.591   1.094   0.205
  529SOL    HW1 2486   1.634   1.074   0.293
  529SOL    HW2 2487   1.661   1.100   0.134
  530SOL     OW 2488   4.297   3.877   0.826
  530SOL    HW1 2489   4.357   3.801   0.848
  530SOL    HW2 2490   4.350   3.950   0.782
  531SOL     OW 2491   1.150   0.982   1.006
  531SOL    HW1 2492   1.250   0.973   1.002
  531SOL    HW2 2493   1.117   0.943   1.092
  532SOL     OW 2494   2.052   2.556   0.441
  532SOL    HW1 2495   1.961   2.576   0.477
  532SOL    HW2 2496   2.121   2.605   0.494
  533SOL     OW 2497   3.957   0.538   4.229
  533SOL    HW1 2498   3.921   0.579   4.312
  533SOL    HW2 2499   3.991   0.446   4.248
  534SOL     OW 2500   1.704   5.021   1.002
  534SOL    HW1 2501   1.772   5.051   1.068
  534SOL    HW2 2502   1.613   5.053   1.030
  535SOL     OW 2503   5.257   3.522   3.712
  535SOL    HW1 2504   5.170   3.524   3.761
  535SOL    HW2 2505   5.271   3.610   3.666
  536SOL     OW 2506   7.019   6.853   2.338
  536SOL    HW1 2507   6.921   6.873   2.347
  536SOL    HW2 2508   0.014   6.830   2.242
  537SOL     OW 2509   4.067   1.596   4.375
  537SOL    HW1 2510   4.013   1.605   4.459
  537SOL    HW2 2511   4.043   1.510   4.330
  538SOL     OW 2512   2.771   4.811   5.517
  538SOL    HW1 2513   2.784   4.804   5.418
  538SOL    HW2 2514   2.686   4.859   5.536
  539SOL     OW 2515   1.155   0.216   0.473
  539SOL    HW1 2516   1.138   0.313   0.491
  539SOL    HW2 2517   1.081   0.179   0.416
  540SOL     OW 2518   0.972   0.258   4.200
  540SOL    HW1 2519   1.041   0.189   4.224
  540SOL    HW2 2520   0.881   0.222   4.218
  541SOL     OW 2521   4.457   5.593   4.717
  541SOL    HW1 2522   4.475   5.675   4.772
  541SOL    HW2 2523   4.543   5.542   4.704
  542SOL     OW 2524   3.320   0.493   5.775
  542SOL    HW1 2525   3.406   0.512   5.824
  542SOL    HW2 2526   3.315   0.550   5.693
  543SOL     OW 2527   6.190   2.092   4.132
  543SOL    HW1 2528   6.169   2.185   4.100
  543SOL    HW2 2529   6.278   2.092   4.178
  544SOL     OW 2530   1.423   3.996   1.384
  544SOL    HW1 2531   1.437   4.064   1.456
  544SOL    HW2 2532   1.479   4.020   1.304
  545SOL     OW 2533   5.562   1.312   1.185
  545SOL    HW1 2534   5.574   1.220   1.148
  545SOL    HW2 2535   5.542   1.306   1.283
  546SOL     OW 2536   0.145   4.265   2.617
  546SOL    HW1 2537   0.132   4.232   2.524
  546SOL    HW2 2538   0.132   4.190   2.682
  547SOL     OW 2539   4.675   1.171   6.116
  547SOL    HW1 2540   4.668   1.253   6.059
  547SOL    HW2 2541   4.736   1.188   6.193
  548SOL     OW 2542   3.523   2.441   6.711
  548SOL    HW1 2543   3.521   2.370   6.641
  548SOL    HW2 2544   3.615   2.446   6.749
  549SOL     OW 2545   6.052   1.472   1.362
  549SOL    HW1 2546   6.146   1.500   1.343
  549SOL    HW2 2547   5.992   1.506   1.290
  550SOL     OW 2548   0.009   5.303   3.327
  550SOL    HW1 2549   0.105   5.316   3.352
  550SOL    HW2 2550   6.996   5.390   3.295
  551SOL     OW 2551   6.424   0.763   0.607
  551SOL    HW1 2552   6.423   0.665   0.628
  551SOL    HW2 2553   6.330   0.799   0.611
  552SOL     OW 2554   6.223   5.111   5.451
  552SOL    HW1 2555   6.187   5.023   5.421
  552SOL    HW2 2556   6.224   5.114   5.551
  553SOL     OW 2557   3.108   0.934   6.333
  553SOL    HW1 2558   3.030   0.997   6.335
  553SOL    HW2 2559   3.081   0.851   6.285
  554SOL     OW 2560   5.931   6.333   0.948
  554SOL    HW1 2561   5.951   6.429   0.933
  554SOL    HW2 2562   6.016   6.280   0.941
  555SOL     OW 2563   1.382   3.938   5.759
  555SOL    HW1 2564   1.354   3.843   5.744
  555SOL    HW2 2565   1.302   3.998   5.754
  556SOL     OW 2566   5.298   0.251   4.187
  556SOL    HW1 2567   5.202   0.257   4.216
  556SOL    HW2 2568   5.346   0.335   4.213
  557SOL     OW 2569   6.546   4.559   6.728
  557SOL    HW1 2570   6.635   4.514   6.724
  557SOL    HW2 2571   6.501   4.537   6.814
  558SOL     OW 2572   3.127   3.923   2.331
  558SOL    HW1 2573   3.073   3.842   2.310
  558SOL    HW2 2574   3.178   3.909   2.416
  559SOL     OW 2575   6.214   6.552   5.753
  559SOL    HW1 2576   6.221   6.650   5.736
  559SOL    HW2 2577   6.128   6.517   5.714
  560SOL     OW 2578   6.542   3.263   3.014
  560SOL    HW1 2579   6.490   3.230   3.093
  560SOL    HW2 2580   6.523   3.206   2.935
  561SOL     OW 2581   0.843   3.040   0.043
  561SOL    HW1 2582   0.846   3.055   0.141
  561SOL    HW2 2583   0.892   3.113   7.021
  562SOL     OW 2584   4.088   0.480   5.433
  562SOL    HW1 2585   4.018   0.415   5.463
  562SOL    HW2 2586   4.066   0.512   5.341
  563SOL     OW 2587   2.166   1.705   4.286
  563SOL    HW1 2588   2.227   1.668   4.356
  563SOL    HW2 2589   2.083   1.650   4.281
  564SOL     OW 2590   6.842   2.212   5.325
  564SOL    HW1 2591   6.786   2.268   5.386
  564SOL    HW2 2592   6.931   2.255   5.311
  565SOL     OW 2593   4.100   3.321   3.482
  565SOL    HW1 2594   4.146   3.406   3.506
  565SOL    HW2 2595   4.057   3.330   3.392
  566SOL     OW 2596   3.417   6.736   3.080
  566SOL    HW1 2597   3.459   6.738   2.989
  566SOL    HW2 2598   3.479   6.777   3.147
  567SOL     OW 2599   2.114   3.133   6.550
  567SOL    HW1 2600   2.202   3.113   6.505
  567SOL    HW2 2601   2.039   3.107   6.489
  568SOL     OW 2602   6.742   6.349   0.660
  568SOL    HW1 2603   6.681   6.427   0.642
  568SOL    HW2 2604   6.692   6.264   0.647
  569SOL     OW 2605   6.371   2.442   0.746
  569SOL    HW1 2606   6.434   2.516   0.771
  569SOL    HW2 2607   6.394   2.361   0.799
  570SOL     OW 2608   2.444   0.801   5.777
  570SOL    HW1 2609   2.425   0.879   5.718
  570SOL    HW2 2610   2.367   0.785   5.838
  571SOL     OW 2611   2.284   5.110   2.269
  571SOL    HW1 2612   2.223   5.035   2.296
  571SOL    HW2 2613   2.367   5.106   2.324
  572SOL     OW 2614   2.716   6.872   3.922
  572SOL    HW1 2615   2.640   6.936   3.917
  572SOL    HW2 2616   2.688   6.784   3.883
  573SOL     OW 2617   0.176   1.007   5.547
  573SOL    HW1 2618   0.101   1.004   5.613
  573SOL    HW2 2619   0.254   0.955   5.582
  574SOL     OW 2620   2.572   2.021   5.928
  574SOL    HW1 2621   2.507   2.049   5.857
  574SOL    HW2 2622   2.659   1.994   5.886
  575SOL     OW 2623   3.183   3.436   0.444
  575SOL    HW1 2624   3.193   3.535   0.440
  575SOL    HW2 2625   3.270   3.392   0.422
  576SOL     OW 2626   2.101   2.999   2.689
  576SOL    HW1 2627   2.088   3.080   2.632
  576SOL    HW2 2628   2.096   3.025   2.785
  577SOL     OW 2629   1.054   1.290   2.076
  577SOL    HW1 2630   1.027   1.377   2.118
  577SOL    HW2 2631   0.982   1.259   2.014
  578SOL     OW 2632   2.286   6.358   6.832
  578SOL    HW1 2633   2.306   6.455   6.825
  578SOL    HW2 2634   2.300   6.328   6.926
  579SOL     OW 2635   2.481   4.888   1.990
  579SOL    HW1 2636   2.404   4.826   2.001
  579SOL    HW2 2637   2.548   4.849   1.926
  580SOL     OW 2638   4.276   5.213   4.825
  580SOL    HW1 2639   4.220   5.183   4.902
  580SOL    HW2 2640   4.364   5.245   4.859
  581SOL     OW 2641   1.802   2.675   4.475
  581SOL    HW1 2642   1.821   2.658   4.378
  581SOL    HW2 2643   1.874   2.732   4.514
  582SOL     OW 2644   5.973   5.642   3.727
  582SOL    HW1 2645   5.925   5.603   3.806
  582SOL    HW2 2646   6.005   5.734   3.750
  583SOL     OW 2647   3.527   5.320   5.770
  583SOL    HW1 2648   3.532   5.414   5.805
  583SOL    HW2 2649   3.620   5.287   5.752
  584SOL     OW 2650   4.376   0.925   5.998
  584SOL    HW1 2651   4.423   0.985   6.063
  584SOL    HW2 2652   4.277   0.936   6.008
  585SOL     OW 2653   3.047   6.876   1.832
  585SOL    HW1 2654   3.056   6.975   1.821
  585SOL    HW2 2655   3.122   6.842   1.889
  586SOL     OW 2656   4.509   0.203   0.849
  586SOL    HW1 2657   4.526   0.293   0.809
  586SOL    HW2 2658   4.414   0.198   0.880
  587SOL     OW 2659   5.103   2.040   2.230
  587SOL    HW1 2660   5.052   2.126   2.237
  587SOL    HW2 2661   5.040   1.965   2.209
  588SOL     OW 2662   1.062   5.572   2.249
  588SOL    HW1 2663   0.967   5.549   2.272
  588SOL    HW2 2664   1.123   5.503   2.287
  589SOL     OW 2665   3.614   6.123   1.174
  589SOL    HW1 2666   3.618   6.217   1.140
  589SOL    HW2 2667   3.564   6.120   1.261
  590SOL     OW 2668   4.613   1.589   0.250
  590SOL    HW1 2669   4.591   1.562   0.344
  590SOL    HW2 2670   4.577   1.681   0.233
  591SOL     OW 2671   4.206   5.981   4.660
  591SOL    HW1 2672   4.234   5.912   4.727
  591SOL    HW2 2673   4.109   5.969   4.639
  592SOL     OW 2674   4.295   2.315   3.639
  592SOL    HW1 2675   4.242   2.331   3.723
  592SOL    HW2 2676   4.235   2.281   3.567
  593SOL     OW 2677   3.496   1.076   5.998
  593SOL    HW1 2678   3.482   1.159   5.944
  593SOL    HW2 2679   3.472   1.094   6.094
  594SOL     OW 2680   5.855   1.251   2.241
  594SOL    HW1 2681   5.766   1.283   2.209
  594SOL    HW2 2682   5.914   1.329   2.259
  595SOL     OW 2683   5.119   6.115   2.620
  595SOL    HW1 2684   5.211   6.124   2.660
  595SOL    HW2 2685   5.060   6.067   2.685
  596SOL     OW 2686   6.471   4.651   4.304
  596SOL    HW1 2687   6.482   4.634   4.206
  596SOL    HW2 2688   6.378   4.626   4.332
  597SOL     OW 2689   2.888   0.501   6.260
  597SOL    HW1 2690   2.912   0.557   6.339
  597SOL    HW2 2691   2.846   0.558   6.189
  598SOL     OW 2692   3.106   3.275   4.168
  598SOL    HW1 2693   3.194   3.318   4.146
  598SOL    HW2 2694   3.053   3.337   4.225
  599SOL     OW 2695   1.192   6.071   1.728
  599SOL    HW1 2696   1.245   6.141   1.681
  599SOL    HW2 2697   1.253   6.002   1.767
  600SOL     OW 2698   0.031   3.959   4.819
  600SOL    HW1 2699   0.121   3.979   4.859
  600SOL    HW2 2700   0.023   4.004   4.730
  601SOL     OW 2701   1.652   0.160   4.947
  601SOL    HW1 2702   1.744   0.132   4.920
  601SOL    HW2 2703   1.589   0.141   4.871
  602SOL     OW 2704   2.977   6.285   3.846
  602SOL    HW1 2705   2.997   6.312   3.940
  602SOL    HW2 2706   2.984   6.185   3.838
  603SOL     OW 2707   1.452   1.097   5.399
  603SOL    HW1 2708   1.383   1.164   5.425
  603SOL    HW2 2709   1.505   1.131   5.322
  604SOL     OW 2710   6.482   2.753   1.361
  604SOL    HW1 2711   6.478   2.815   1.439
  604SOL    HW2 2712   6.405   2.689   1.366
  605SOL     OW 2713   0.148   5.470   2.465
  605SOL    HW1 2714   0.079   5.541   2.456
  605SOL    HW2 2715   0.148   5.434   2.558
  606SOL     OW 2716   3.861   6.811   4.887
  606SOL    HW1 2717   3.932   6.845   4.948
  606SOL    HW2 2718   3.882   6.837   4.793
  607SOL     OW 2719   0.812   4.716   6.236
  607SOL    HW1 2720   0.833   4.752   6.145
  607SOL    HW2 2721   0.834   4.618   6.238
  608SOL     OW 2722   2.998   1.094   5.249
  608SOL    HW1 2723   2.932   1.160   5.286
  608SOL    HW2 2724   2.967   1.064   5.159
  609SOL     OW 2725   3.885   2.670   1.666
  609SOL    HW1 2726   3.893   2.765   1.697
  609SOL    HW2 2727   3.976   2.633   1.649
  610SOL     OW 2728   4.932   3.476   0.519
  610SOL    HW1 2729   5.010   3.435   0.470
  610SOL    HW2 2730   4.930   3.574   0.501
  611SOL     OW 2731   3.957   0.348   2.547
  611SOL    HW1 2732   3.905   0.434   2.556
  611SOL    HW2 2733   4.043   0.356   2.598
  612SOL     OW 2734   3.954   4.525   6.048
  612SOL    HW1 2735   3.934   4.427   6.046
  612SOL    HW2 2736   4.039   4.543   5.999
  613SOL     OW 2737   4.555   5.131   5.515
  613SOL    HW1 2738   4.484   5.065   5.539
  613SOL    HW2 2739   4.543   5.215   5.568
  614SOL     OW 2740   4.488   5.375   6.039
  614SOL    HW1 2741   4.413   5.309   6.043
  614SOL    HW2 2742   4.458   5.457   5.991
  615SOL     OW 2743   0.563   5.206   1.571
  615SOL    HW1 2744   0.643   5.169   1.619
  615SOL    HW2 2745   0.576   5.304   1.557
  616SOL     OW 2746   5.713   3.426   3.028
  616SOL    HW1 2747   5.686   3.373   3.109
  616SOL    HW2 2748   5.803   3.397   2.998
  617SOL     OW 2749   2.466   5.433   6.333
  617SOL    HW1 2750   2.539   5.418   6.400
  617SOL    HW2 2751   2.504   5.430   6.241
  618SOL     OW 2752   1.549   0.975   2.425
  618SOL    HW1 2753   1.570   0.923   2.507
  618SOL    HW2 2754   1.455   0.955   2.396
  619SOL     OW 2755   1.347   1.193   6.564
  619SOL    HW1 2756   1.295   1.153   6.639
  619SOL    HW2 2757   1.406   1.123   6.523
  620SOL     OW 2758   4.588   3.665   0.389
  620SOL    HW1 2759   4.647   3.744   0.369
  620SOL    HW2 2760   4.612   3.627   0.478
  621SOL     OW 2761   0.492   4.711   1.735
  621SOL    HW1 2762   0.523   4.800   1.768
  621SOL    HW2 2763   0.459   4.720   1.641
  622SOL     OW 2764   1.943   1.556   0.042
  622SOL    HW1 2765   1.916   1.461   0.059
  622SOL    HW2 2766   1.861   1.612   0.030
  623SOL     OW 2767   0.483   4.710   6.606
  623SOL    HW1 2768   0.502   4.625   6.556
  623SOL    HW2 2769   0.568   4.761   6.617
  624SOL     OW 2770   1.278   2.878   3.057
  624SOL    HW1 2771   1.236   2.818   2.988
  624SOL    HW2 2772   1.208   2.938   3.096
  625SOL     OW 2773   2.583   1.735   2.180
  625SOL    HW1 2774   2.575   1.643   2.218
  625SOL    HW2 2775   2.571   1.803   2.253
  626SOL     OW 2776   2.831   6.324   4.530
  626SOL    HW1 2777   2.786   6.277   4.455
  626SOL    HW2 2778   2.920   6.281   4.547
  627SOL     OW 2779   5.613   0.699   0.358
  627SOL    HW1 2780   5.608   0.674   0.455
  627SOL    HW2 2781   5.532   0.751   0.333
  628SOL     OW 2782   4.974   4.099   3.531
  628SOL    HW1 2783   4.926   4.011   3.535
  628SOL    HW2 2784   4.985   4.126   3.435
  629SOL     OW 2785   0.833   0.436   1.162
  629SOL    HW1 2786   0.736   0.422   1.141
  629SOL    HW2 2787   0.884   0.353   1.140
  630SOL     OW 2788   4.157   1.774   0.966
  630SOL    HW1 2789   4.092   1.784   1.041
  630SOL    HW2 2790   4.192   1.864   0.940
  631SOL     OW 2791   2.219   0.162   5.506
  631SOL    HW1 2792   2.295   0.161   5.570
  631SOL    HW2 2793   2.226   0.242   5.446
  632SOL     OW 2794   1.959   1.233   1.037
  632SOL    HW1 2795   1.937   1.329   1.019
  632SOL    HW2 2796   1.875   1.180   1.044
  633SOL     OW 2797   2.715   6.993   6.323
  633SOL    HW1 2798   2.702   0.036   6.395
  633SOL    HW2 2799   2.786   6.928   6.350
  634SOL     OW 2800   3.453   5.852   0.569
  634SOL    HW1 2801   3.451   5.787   0.493
  634SOL    HW2 2802   3.391   5.821   0.641
  635SOL     OW 2803   3.261   0.295   2.464
  635SOL    HW1 2804   3.349   0.257   2.492
  635SOL    HW2 2805   3.209   0.225   2.414
  636SOL     OW 2806   5.301   5.250   0.181
  636SOL    HW1 2807   5.292   5.153   0.158
  636SOL    HW2 2808   5.390   5.266   0.223
  637SOL     OW 2809   4.535   4.383   0.978
  637SOL    HW1 2810   4.572   4.474   0.961
  637SOL    HW2 2811   4.445   4.390   1.020
  638SOL     OW 2812   4.976   1.510   2.253
  638SOL    HW1 2813   4.993   1.490   2.157
  638SOL    HW2 2814   4.893   1.461   2.283
  639SOL     OW 2815   4.240   4.695   1.953
  639SOL    HW1 2816   4.317   4.632   1.943
  639SOL    HW2 2817   4.238   4.758   1.876
  640SOL     OW 2818   2.966   4.308   5.339
  640SOL    HW1 2819   2.962   4.314   5.438
  640SOL    HW2 2820   2.987   4.399   5.301
  641SOL     OW 2821   0.071   6.030   5.018
  641SOL    HW1 2822   0.057   5.941   5.062
  641SOL    HW2 2823   0.034   6.027   4.925
  642SOL     OW 2824   0.699   5.130   4.812
  642SOL    HW1 2825   0.786   5.175   4.833
  642SOL    HW2 2826   0.629   5.200   4.798
  643SOL     OW 2827   6.074   5.545   5.724
  643SOL    HW1 2828   5.989   5.494   5.732
  643SOL    HW2 2829   6.116   5.555   5.814
  644SOL     OW 2830   0.997   6.689   2.385
  644SOL    HW1 2831   0.936   6.612   2.403
  644SOL    HW2 2832   1.058   6.667   2.309
  645SOL     OW 2833   5.844   2.821   3.471
  645SOL    HW1 2834   5.939   2.829   3.501
  645SOL    HW2 2835   5.805   2.736   3.505
  646SOL     OW 2836   2.033   1.713   4.606
  646SOL    HW1 2837   2.089   1.777   4.554
  646SOL    HW2 2838   1.942   1.753   4.621
  647SOL     OW 2839   6.035   3.457   0.353
  647SOL    HW1 2840   5.964   3.408   0.402
  647SOL    HW2 2841   6.081   3.395   0.290
  648SOL     OW 2842   6.078   3.853   1.756
  648SOL    HW1 2843   6.165   3.854   1.805
  648SOL    HW2 2844   6.019   3.926   1.790
  649SOL     OW 2845   4.191   4.538   0.780
  649SOL    HW1 2846   4.210   4.514   0.685
  649SOL    HW2 2847   4.273   4.576   0.822
  650SOL     OW 2848   4.589   4.558   0.720
  650SOL    HW1 2849   4.663   4.518   0.666
  650SOL    HW2 2850   4.628   4.616   0.792
  651SOL     OW 2851   1.026   6.083   6.918
  651SOL    HW1 2852   1.039   6.057   7.014
  651SOL    HW2 2853   1.115   6.106   6.878
  652SOL     OW 2854   4.081   1.377   2.110
  652SOL    HW1 2855   4.162   1.434   2.095
  652SOL    HW2 2856   4.008   1.434   2.147
  653SOL     OW 2857   3.773   4.957   3.804
  653SOL    HW1 2858   3.713   4.940   3.883
  653SOL    HW2 2859   3.862   4.916   3.821
  654SOL     OW 2860   6.864   4.612   0.261
  654SOL    HW1 2861   6.787   4.578   0.207
  654SOL    HW2 2862   6.935   4.541   0.265
  655SOL     OW 2863   0.767   0.699   1.534
  655SOL    HW1 2864   0.819   0.775   1.573
  655SOL    HW2 2865   0.710   0.732   1.459
  656SOL     OW 2866   3.032   6.376   2.162
  656SOL    HW1 2867   2.963   6.447   2.174
  656SOL    HW2 2868   3.026   6.312   2.238
  657SOL     OW 2869   3.539   1.550   0.160
  657SOL    HW1 2870   3.595   1.485   0.109
  657SOL    HW2 2871   3.547   1.640   0.118
  658SOL     OW 2872   2.995   4.164   6.294
  658SOL    HW1 2873   2.917   4.105   6.313
  658SOL    HW2 2874   3.049   4.125   6.220
  659SOL     OW 2875   2.476   6.969   0.017
  659SOL    HW1 2876   2.483   6.947   6.944
  659SOL    HW2 2877   2.455   6.886   0.068
  660SOL     OW 2878   3.613   5.207   2.633
  660SOL    HW1 2879   3.550   5.137   2.599
  660SOL    HW2 2880   3.672   5.238   2.559
  661SOL     OW 2881   4.931   5.421   2.991
  661SOL    HW1 2882   4.856   5.372   2.948
  661SOL    HW2 2883   5.013   5.412   2.935
  662SOL     OW 2884   3.343   1.185   6.647
  662SOL    HW1 2885   3.272   1.234   6.698
  662SOL    HW2 2886   3.418   1.247   6.626
  663SOL     OW 2887   2.367   4.433   5.247
  663SOL    HW1 2888   2.460   4.409   5.219
  663SOL    HW2 2889   2.314   4.460   5.167
  664SOL     OW 2890   6.359   0.833   6.690
  664SOL    HW1 2891   6.281   0.857   6.748
  664SOL    HW2 2892   6.399   0.747   6.722
  665SOL     OW 2893   2.308   5.832   2.938
  665SOL    HW1 2894   2.376   5.760   2.933
  665SOL    HW2 2895   2.216   5.791   2.943
  666SOL     OW 2896   4.298   0.769   1.825
  666SOL    HW1 2897   4.226   0.768   1.894
  666SOL    HW2 2898   4.376   0.820   1.859
  667SOL     OW 2899   0.699   6.702   2.530
  667SOL    HW1 2900   0.601   6.684   2.537
  667SOL    HW2 2901   0.743   6.675   2.616
  668SOL     OW 2902   5.492   3.664   6.669
  668SOL    HW1 2903   5.490   3.567   6.644
  668SOL    HW2 2904   5.430   3.715   6.609
  669SOL     OW 2905   5.154   1.419   3.174
  669SOL    HW1 2906   5.135   1.343   3.112
  669SOL    HW2 2907   5.069   1.466   3.195
  670SOL     OW 2908   1.645   2.398   3.335
  670SOL    HW1 2909   1.656   2.299   3.319
  670SOL    HW2 2910   1.588   2.412   3.415
  671SOL     OW 2911   2.752   6.688   1.253
  671SOL    HW1 2912   2.760   6.726   1.161
  671SOL    HW2 2913   2.801   6.601   1.258
  672SOL     OW 2914   0.951   6.952   2.390
  672SOL    HW1 2915   1.042   6.993   2.401
  672SOL    HW2 2916   0.960   6.852   2.386
  673SOL     OW 2917   5.229   6.864   0.708
  673SOL    HW1 2918   5.201   6.807   0.785
  673SOL    HW2 2919   5.279   6.808   0.642
  674SOL     OW 2920   0.348   0.483   4.886
  674SOL    HW1 2921   0.362   0.521   4.795
  674SOL    HW2 2922   0.308   0.553   4.945
  675SOL     OW 2923   6.262   3.128   2.515
  675SOL    HW1 2924   6.361   3.127   2.502
  675SOL    HW2 2925   6.240   3.126   2.612
  676SOL     OW 2926   2.110   5.870   5.674
  676SOL    HW1 2927   2.203   5.907   5.681
  676SOL    HW2 2928   2.086   5.825   5.760
  677SOL     OW 2929   4.610   1.014   0.788
  677SOL    HW1 2930   4.590   1.103   0.747
  677SOL    HW2 2931   4.669   0.962   0.726
  678SOL     OW 2932   1.674   4.435   5.282
  678SOL    HW1 2933   1.606   4.478   5.221
  678SOL    HW2 2934   1.763   4.436   5.238
  679SOL     OW 2935   5.186   1.951   5.243
  679SOL    HW1 2936   5.112   1.906   5.195
  679SOL    HW2 2937   5.215   1.895   5.321
  680SOL     OW 2938   4.582   6.572   4.028
  680SOL    HW1 2939   4.522   6.631   4.083
  680SOL    HW2 2940   4.666   6.622   4.006
  681SOL     OW 2941   5.042   5.295   2.113
  681SOL    HW1 2942   5.038   5.395   2.110
  681SOL    HW2 2943   5.048   5.259   2.020
  682SOL     OW 2944   0.725   0.799   3.431
  682SOL    HW1 2945   0.816   0.834   3.410
  682SOL    HW2 2946   0.730   0.737   3.510
  683SOL     OW 2947   4.114   3.620   1.212
  683SOL    HW1 2948   4.211   3.628   1.235
  683SOL    HW2 2949   4.060   3.629   1.296
  684SOL     OW 2950   6.401   0.174   5.802
  684SOL    HW1 2951   6.363   0.262   5.832
  684SOL    HW2 2952   6.471   0.144   5.867
  685SOL     OW 2953   3.712   0.408   3.027
  685SOL    HW1 2954   3.658   0.414   3.111
  685SOL    HW2 2955   3.650   0.412   2.948
  686SOL     OW 2956   4.163   0.980   4.826
  686SOL    HW1 2957   4.227   0.999   4.752
  686SOL    HW2 2958   4.213   0.950   4.907
  687SOL     OW 2959   1.529   1.720   4.286
  687SOL    HW1 2960   1.476   1.800   4.257
  687SOL    HW2 2961   1.578   1.682   4.207
  688SOL     OW 2962   6.050   1.201   6.912
  688SOL    HW1 2963   6.096   1.112   6.914
  688SOL    HW2 2964   6.107   1.269   6.958
  689SOL     OW 2965   1.534   5.270   5.788
  689SOL    HW1 2966   1.526   5.176   5.754
  689SOL    HW2 2967   1.623   5.282   5.832
  690SOL     OW 2968   5.471   3.706   2.676
  690SOL    HW1 2969   5.445   3.733   2.583
  690SOL    HW2 2970   5.546   3.641   2.672
  691SOL     OW 2971   4.387   1.805   6.837
  691SOL    HW1 2972   4.291   1.824   6.818
  691SOL    HW2 2973   4.424   1.744   6.766
  692SOL     OW 2974   2.754   1.319   4.574
  692SOL    HW1 2975   2.792   1.377   4.646
  692SOL    HW2 2976   2.775   1.223   4.593
  693SOL     OW 2977   5.366   6.293   3.738
  693SOL    HW1 2978   5.435   6.233   3.776
  693SOL    HW2 2979   5.280   6.243   3.727
  694SOL     OW 2980   4.313   5.528   4.978
  694SOL    HW1 2981   4.216   5.553   4.974
  694SOL    HW2 2982   4.347   5.513   4.886
  695SOL     OW 2983   3.380   6.715   4.506
  695SOL    HW1 2984   3.356   6.812   4.495
  695SOL    HW2 2985   3.332   6.679   4.586
  696SOL     OW 2986   4.668   4.588   3.221
  696SOL    HW1 2987   4.696   4.664   3.162
  696SOL    HW2 2988   4.715   4.594   3.309
  697SOL     OW 2989   0.277   5.076   2.418
  697SOL    HW1 2990   0.342   5.148   2.392
  697SOL    HW2 2991   0.188   5.095   2.379
  698SOL     OW 2992   5.443   0.252   1.197
  698SOL    HW1 2993   5.494   0.329   1.159
  698SOL    HW2 2994   5.353   0.246   1.153
  699SOL     OW 2995   2.166   2.252   0.971
  699SOL    HW1 2996   2.258   2.266   0.934
  699SOL    HW2 2997   2.157   2.158   1.003
  700SOL     OW 2998   3.663   6.796   2.594
  700SOL    HW1 2999   3.628   6.820   2.503
  700SOL    HW2 3000   3.748   6.845   2.610
  701SOL     OW 3001   6.038   5.098   0.966
  701SOL    HW1 3002   6.028   5.197   0.961
  701SOL    HW2 3003   6.129   5.072   0.933
  702SOL     OW 3004   2.850   0.783   4.113
  702SOL    HW1 3005   2.933   0.727   4.115
  702SOL    HW2 3006   2.848   0.841   4.195
  703SOL     OW 3007   2.976   2.853   6.145
  703SOL    HW1 3008   3.031   2.839   6.062
  703SOL    HW2 3009   3.035   2.881   6.220
  704SOL     OW 3010   1.051   2.553   5.978
  704SOL    HW1 3011   1.068   2.552   6.076
  704SOL    HW2 3012   1.137   2.541   5.928
  705SOL     OW 3013   0.205   6.210   4.552
  705SOL    HW1 3014   0.206   6.122   4.598
  705SOL    HW2 3015   0.146   6.274   4.603
  706SOL     OW 3016   4.447   1.177   5.190
  706SOL    HW1 3017   4.436   1.148   5.095
  706SOL    HW2 3018   4.487   1.103   5.243
  707SOL     OW 3019   3.451   4.889   3.499
  707SOL    HW1 3020   3.422   4.841   3.417
  707SOL    HW2 3021   3.551   4.901   3.497
  708SOL     OW 3022   3.358   0.712   3.517
  708SOL    HW1 3023   3.443   0.682   3.560
  708SOL    HW2 3024   3.373   0.800   3.471
  709SOL     OW 3025   2.270   0.293   1.667
  709SOL    HW1 3026   2.287   0.267   1.762
  709SOL    HW2 3027   2.223   0.381   1.664
  710SOL     OW 3028   4.863   2.930   1.668
  710SOL    HW1 3029   4.809   3.000   1.713
  710SOL    HW2 3030   4.918   2.880   1.735
  711SOL     OW 3031   7.001   2.447   5.754
  711SOL    HW1 3032   6.991   2.460   5.655
  711SOL    HW2 3033   0.070   2.417   5.774
  712SOL     OW 3034   5.164   3.033   0.310
  712SOL    HW1 3035   5.248   3.081   0.332
  712SOL    HW2 3036   5.146   2.963   0.379
  713SOL     OW 3037   3.889   2.718   5.383
  713SOL    HW1 3038   3.933   2.682   5.300
  713SOL    HW2 3039   3.877   2.817   5.373
  714SOL     OW 3040   5.381   5.072   3.402
  714SOL    HW1 3041   5.324   5.144   3.363
  714SOL    HW2 3042   5.467   5.066   3.351
  715SOL     OW 3043   6.203   5.282   5.870
  715SOL    HW1 3044   6.251   5.356   5.822
  715SOL    HW2 3045   6.186   5.309   5.965
  716SOL     OW 3046   1.912   1.340   2.523
  716SOL    HW1 3047   1.934   1.243   2.510
  716SOL    HW2 3048   1.982   1.383   2.580
  717SOL     OW 3049   5.429   4.926   3.745
  717SOL    HW1 3050   5.344   4.975   3.726
  717SOL    HW2 3051   5.506   4.976   3.706
  718SOL     OW 3052   5.566   1.769   4.379
  718SOL    HW1 3053   5.558   1.764   4.479
  718SOL    HW2 3054   5.641   1.711   4.349
  719SOL     OW 3055   5.532   0.114   3.321
  719SOL    HW1 3056   5.524   0.171   3.404
  719SOL    HW2 3057   5.619   0.064   3.324
  720SOL     OW 3058   1.879   1.017   0.015
  720SOL    HW1 3059   1.899   0.944   6.975
  720SOL    HW2 3060   1.943   1.012   0.092
  721SOL     OW 3061   6.995   2.364   2.768
  721SOL    HW1 3062   7.010   2.438   2.834
  721SOL    HW2 3063   6.903   2.370   2.731
  722SOL     OW 3064   4.418   6.607   0.144
  722SOL    HW1 3065   4.374   6.583   0.231
  722SOL    HW2 3066   4.360   6.577   0.068
  723SOL     OW 3067   2.362   5.687   3.910
  723SOL    HW1 3068   2.446   5.691   3.964
  723SOL    HW2 3069   2.292   5.639   3.962
  724SOL     OW 3070   0.987   0.761   3.571
  724SOL    HW1 3071   0.962   0.808   3.656
  724SOL    HW2 3072   1.048   0.819   3.517
  725SOL     OW 3073   1.522   4.117   2.311
  725SOL    HW1 3074   1.437   4.071   2.288
  725SOL    HW2 3075   1.580   4.056   2.365
  726SOL     OW 3076   1.932   4.368   0.741
  726SOL    HW1 3077   2.021   4.381   0.698
  726SOL    HW2 3078   1.865   4.426   0.695
  727SOL     OW 3079   4.416   5.205   5.185
  727SOL    HW1 3080   4.327   5.190   5.142
  727SOL    HW2 3081   4.419   5.297   5.224
  728SOL     OW 3082   6.797   2.866   4.189
  728SOL    HW1 3083   6.823   2.775   4.158
  728SOL    HW2 3084   6.760   2.861   4.282
  729SOL     OW 3085   0.580   3.892   1.474
  729SOL    HW1 3086   0.647   3.909   1.401
  729SOL    HW2 3087   0.563   3.794   1.481
  730SOL     OW 3088   5.016   0.492   3.295
  730SOL    HW1 3089   5.073   0.422   3.338
  730SOL    HW2 3090   5.001   0.567   3.360
  731SOL     OW 3091   4.215   4.169   6.231
  731SOL    HW1 3092   4.119   4.159   6.203
  731SOL    HW2 3093   4.222   4.241   6.300
  732SOL     OW 3094   4.771   1.677   3.423
  732SOL    HW1 3095   4.845   1.685   3.489
  732SOL    HW2 3096   4.684   1.668   3.471
  733SOL     OW 3097   6.285   6.565   3.388
  733SOL    HW1 3098   6.368   6.559   3.444
  733SOL    HW2 3099   6.286   6.495   3.318
  734SOL     OW 3100   5.374   6.117   2.693
  734SOL    HW1 3101   5.414   6.195   2.646
  734SOL    HW2 3102   5.401   6.033   2.647
  735SOL     OW 3103   4.872   0.507   1.995
  735SOL    HW1 3104   4.841   0.601   1.983
  735SOL    HW2 3105   4.929   0.481   1.917
  736SOL     OW 3106   1.346   1.519   4.374
  736SOL    HW1 3107   1.400   1.600   4.350
  736SOL    HW2 3108   1.405   1.450   4.415
  737SOL     OW 3109   5.235   1.456   6.622
  737SOL    HW1 3110   5.284   1.515   6.686
  737SOL    HW2 3111   5.288   1.373   6.605
  738SOL     OW 3112   2.752   4.595   1.183
  738SOL    HW1 3113   2.691   4.660   1.137
  738SOL    HW2 3114   2.844   4.632   1.187
  739SOL     OW 3115   2.967   6.826   4.879
  739SOL    HW1 3116   2.916   6.833   4.793
  739SOL    HW2 3117   2.992   6.730   4.895
  740SOL     OW 3118   5.487   2.692   3.278
  740SOL    HW1 3119   5.412   2.631   3.250
  740SOL    HW2 3120   5.474   2.720   3.372
  741SOL     OW 3121   3.036   0.511   3.400
  741SOL    HW1 3122   3.057   0.562   3.484
  741SOL    HW2 3123   3.121   0.489   3.352
  742SOL     OW 3124   1.814   0.079   1.529
  742SOL    HW1 3125   1.903   0.108   1.564
  742SOL    HW2 3126   1.771   0.155   1.480
  743SOL     OW 3127   0.898   6.170   3.471
  743SOL    HW1 3128   0.892   6.224   3.555
  743SOL    HW2 3129   0.970   6.206   3.412
  744SOL     OW 3130   4.744   1.206   0.212
  744SOL    HW1 3131   4.674   1.265   0.174
  744SOL    HW2 3132   4.709   1.160   0.294
  745SOL     OW 3133   2.728   5.962   5.228
  745SOL    HW1 3134   2.734   5.894   5.301
  745SOL    HW2 3135   2.725   6.054   5.267
  746SOL     OW 3136   5.927   4.511   5.561
  746SOL    HW1 3137   5.871   4.553   5.489
  746SOL    HW2 3138   5.990   4.579   5.599
  747SOL     OW 3139   5.620   5.684   3.238
  747SOL    HW1 3140   5.546   5.618   3.250
  747SOL    HW2 3141   5.595   5.771   3.280
  748SOL     OW 3142   5.432   5.569   2.373
  748SOL    HW1 3143   5.416   5.568   2.472
  748SOL    HW2 3144   5.345   5.579   2.325
  749SOL     OW 3145   5.403   4.154   3.381
  749SOL    HW1 3146   5.345   4.225   3.422
  749SOL    HW2 3147   5.485   4.197   3.342
  750SOL     OW 3148   2.416   1.763   1.944
  750SOL    HW1 3149   2.476   1.709   1.885
  750SOL    HW2 3150   2.432   1.738   2.039
  751SOL     OW 3151   4.759   0.281   0.029
  751SOL    HW1 3152   4.734   0.194   0.072
  751SOL    HW2 3153   4.715   0.288   6.965
  752SOL     OW 3154   3.416   2.735   5.522
  752SOL    HW1 3155   3.459   2.826   5.523
  752SOL    HW2 3156   3.343   2.734   5.453
  753SOL     OW 3157   3.740   4.066   5.043
  753SOL    HW1 3158   3.748   4.039   4.947
  753SOL    HW2 3159   3.644   4.083   5.064
  754SOL     OW 3160   5.519   0.713   6.480
  754SOL    HW1 3161   5.592   0.778   6.457
  754SOL    HW2 3162   5.433   0.743   6.438
  755SOL     OW 3163   3.931   4.565   5.329
  755SOL    HW1 3164   3.966   4.473   5.309
  755SOL    HW2 3165   3.915   4.573   5.427
  756SOL     OW 3166   2.044   4.893   6.160
  756SOL    HW1 3167   2.133   4.906   6.203
  756SOL    HW2 3168   1.973   4.939   6.214
  757SOL     OW 3169   2.397   6.964   2.533
  757SOL    HW1 3170   2.421   0.006   2.602
  757SOL    HW2 3171   2.389   7.009   2.444
  758SOL     OW 3172   3.056   1.897   4.178
  758SOL    HW1 3173   3.143   1.864   4.215
  758SOL    HW2 3174   3.053   1.997   4.184
  759SOL     OW 3175   0.284   2.785   4.567
  759SOL    HW1 3176   0.205   2.763   4.510
  759SOL    HW2 3177   0.341   2.852   4.519
  760SOL     OW 3178   6.824   6.174   3.794
  760SOL    HW1 3179   6.809   6.154   3.891
  760SOL    HW2 3180   6.797   6.096   3.739
  761SOL     OW 3181   4.502   3.985   5.525
  761SOL    HW1 3182   4.442   4.044   5.471
  761SOL    HW2 3183   4.497   3.892   5.490
  762SOL     OW 3184   3.167   5.689   4.619
  762SOL    HW1 3185   3.095   5.756   4.631
  762SOL    HW2 3186   3.132   5.611   4.567
  763SOL     OW 3187   5.646   0.439   6.888
  763SOL    HW1 3188   5.664   0.429   6.790
  763SOL    HW2 3189   5.694   0.366   6.937
  764SOL     OW 3190   5.436   6.661   5.051
  764SOL    HW1 3191   5.409   6.757   5.039
  764SOL    HW2 3192   5.442   6.617   4.961
  765SOL     OW 3193   0.196   6.673   0.738
  765SOL    HW1 3194   0.173   6.762   0.775
  765SOL    HW2 3195   0.117   6.634   0.691
  766SOL     OW 3196   1.716   2.289   5.367
  766SOL    HW1 3197   1.785   2.349   5.406
  766SOL    HW2 3198   1.709   2.206   5.422
  767SOL     OW 3199   0.651   6.915   4.119
  767SOL    HW1 3200   0.699   6.911   4.032
  767SOL    HW2 3201   0.562   6.870   4.111
  768SOL     OW 3202   2.735   5.516   2.334
  768SOL    HW1 3203   2.802   5.570   2.384
  768SOL    HW2 3204   2.712   5.562   2.248
  769SOL     OW 3205   2.964   2.011   5.085
  769SOL    HW1 3206   2.887   2.044   5.030
  769SOL    HW2 3207   2.972   2.066   5.168
  770SOL     OW 3208   1.667   4.907   4.742
  770SOL    HW1 3209   1.613   4.963   4.806
  770SOL    HW2 3210   1.763   4.933   4.747
  771SOL     OW 3211   1.184   5.814   3.226
  771SOL    HW1 3212   1.175   5.819   3.127
  771SOL    HW2 3213   1.276   5.846   3.253
  772SOL     OW 3214   5.552   4.450   0.316
  772SOL    HW1 3215   5.594   4.469   0.227
  772SOL    HW2 3216   5.485   4.522   0.338
  773SOL     OW 3217   0.310   3.617   3.838
  773SOL    HW1 3218   0.289   3.653   3.747
  773SOL    HW2 3219   0.402   3.644   3.864
  774SOL     OW 3220   2.623   0.349   3.028
  774SOL    HW1 3221   2.592   0.409   2.955
  774SOL    HW2 3222   2.587   0.382   3.116
  775SOL     OW 3223   2.083   4.325   3.716
  775SOL    HW1 3224   2.027   4.243   3.708
  775SOL    HW2 3225   2.172   4.301   3.756
  776SOL     OW 3226   2.156   5.662   6.850
  776SOL    HW1 3227   2.102   5.601   6.908
  776SOL    HW2 3228   2.175   5.616   6.763
  777SOL     OW 3229   1.591   3.653   7.006
  777SOL    HW1 3230   1.624   3.721   6.940
  777SOL    HW2 3231   1.668   3.597   0.012
  778SOL     OW 3232   3.146   0.068   1.532
  778SOL    HW1 3233   3.121   6.997   1.520
  778SOL    HW2 3234   3.108   0.122   1.457
  779SOL     OW 3235   0.474   1.656   3.172
  779SOL    HW1 3236   0.388   1.704   3.190
  779SOL    HW2 3237   0.530   1.656   3.255
  780SOL     OW 3238   1.163   1.643   5.135
  780SOL    HW1 3239   1.236   1.706   5.160
  780SOL    HW2 3240   1.086   1.654   5.198
  781SOL     OW 3241   0.811   4.144   0.998
  781SOL    HW1 3242   0.728   4.176   1.044
  781SOL    HW2 3243   0.786   4.087   0.920
  782SOL     OW 3244   1.704   3.393   5.721
  782SOL    HW1 3245   1.800   3.382   5.694
  782SOL    HW2 3246   1.655   3.307   5.706
  783SOL     OW 3247   5.960   4.933   6.691
  783SOL    HW1 3248   5.865   4.964   6.687
  783SOL    HW2 3249   5.992   4.933   6.786
  784SOL     OW 3250   3.331   6.532   0.368
  784SOL    HW1 3251   3.424   6.567   0.381
  784SOL    HW2 3252   3.315   6.457   0.433
  785SOL     OW 3253   1.146   6.730   4.571
  785SOL    HW1 3254   1.129   6.661   4.500
  785SOL    HW2 3255   1.089   6.711   4.651
  786SOL     OW 3256   0.094   1.237   3.385
  786SOL    HW1 3257   0.125   1.143   3.373
  786SOL    HW2 3258   0.163   1.288   3.437
  787SOL     OW 3259   2.662   0.182   0.686
  787SOL    HW1 3260   2.678   0.127   0.767
  787SOL    HW2 3261   2.700   0.274   0.700
  788SOL     OW 3262   3.876   3.088   1.324
  788SOL    HW1 3263   3.802   3.068   1.260
  788SOL    HW2 3264   3.850   3.165   1.383
  789SOL     OW 3265   4.329   5.415   1.407
  789SOL    HW1 3266   4.394   5.432   1.481
  789SOL    HW2 3267   4.378   5.379   1.327
  790SOL     OW 3268   0.886   2.948   2.874
  790SOL    HW1 3269   0.899   2.855   2.840
  790SOL    HW2 3270   0.888   3.012   2.797
  791SOL     OW 3271   3.291   4.897   4.809
  791SOL    HW1 3272   3.210   4.922   4.860
  791SOL    HW2 3273   3.317   4.803   4.830
  792SOL     OW 3274   0.920   0.925   1.402
  792SOL    HW1 3275   1.012   0.923   1.362
  792SOL    HW2 3276   0.927   0.927   1.502
  793SOL     OW 3277   3.268   6.150   4.077
  793SOL    HW1 3278   3.345   6.116   4.131
  793SOL    HW2 3279   3.298   6.231   4.025
  794SOL     OW 3280   3.261   3.698   3.458
  794SOL    HW1 3281   3.166   3.695   3.490
  794SOL    HW2 3282   3.279   3.620   3.398
  795SOL     OW 3283   4.200   7.002   5.981
  795SOL    HW1 3284   4.187   0.017   6.072
  795SOL    HW2 3285   4.285   6.949   5.980
  796SOL     OW 3286   0.863   3.224   6.601
  796SOL    HW1 3287   0.916   3.155   6.553
  796SOL    HW2 3288   0.892   3.315   6.571
  797SOL     OW 3289   5.157   6.483   0.926
  797SOL    HW1 3290   5.213   6.438   0.857
  797SOL    HW2 3291   5.146   6.423   1.005
  798SOL     OW 3292   3.801   6.739   0.595
  798SOL    HW1 3293   3.786   6.785   0.508
  798SOL    HW2 3294   3.821   6.807   0.666
  799SOL     OW 3295   1.375   2.174   6.307
  799SOL    HW1 3296   1.346   2.270   6.303
  799SOL    HW2 3297   1.295   2.115   6.319
  800SOL     OW 3298   6.255   2.570   1.421
  800SOL    HW1 3299   6.242   2.601   1.515
  800SOL    HW2 3300   6.170   2.581   1.370
  801SOL     OW 3301   2.153   5.497   5.762
  801SOL    HW1 3302   2.195   5.515   5.674
  801SOL    HW2 3303   2.058   5.467   5.749
  802SOL     OW 3304   5.873   2.685   6.866
  802SOL    HW1 3305   5.841   2.688   6.961
  802SOL    HW2 3306   5.797   2.708   6.805
  803SOL     OW 3307   2.640   1.514   5.446
  803SOL    HW1 3308   2.648   1.612   5.432
  803SOL    HW2 3309   2.607   1.470   5.363
  804SOL     OW 3310   6.006   0.679   1.976
  804SOL    HW1 3311   5.943   0.610   2.010
  804SOL    HW2 3312   6.020   0.749   2.047
  805SOL     OW 3313   3.576   0.640   3.665
  805SOL    HW1 3314   3.590   0.739   3.676
  805SOL    HW2 3315   3.648   0.604   3.605
  806SOL     OW 3316   2.020   5.894   5.399
  806SOL    HW1 3317   1.957   5.972   5.402
  806SOL    HW2 3318   2.046   5.869   5.492
  807SOL     OW 3319   0.744   5.869   5.779
  807SOL    HW1 3320   0.768   5.898   5.871
  807SOL    HW2 3321   0.650   5.835   5.777
  808SOL     OW 3322   5.604   2.881   0.393
  808SOL    HW1 3323   5.574   2.907   0.301
  808SOL    HW2 3324   5.695   2.841   0.389
  809SOL     OW 3325   1.753   4.764   0.194
  809SOL    HW1 3326   1.745   4.671   0.158
  809SOL    HW2 3327   1.785   4.825   0.122
  810SOL     OW 3328   3.544   3.539   0.201
  810SOL    HW1 3329   3.641   3.515   0.203
  810SOL    HW2 3330   3.492   3.470   0.251
  811SOL     OW 3331   5.035   4.705   3.912
  811SOL    HW1 3332   4.944   4.665   3.906
  811SOL    HW2 3333   5.048   4.744   4.004
  812SOL     OW 3334   0.534   2.845   1.814
  812SOL    HW1 3335   0.548   2.754   1.774
  812SOL    HW2 3336   0.437   2.869   1.808
  813SOL     OW 3337   0.953   1.882   4.871
  813SOL    HW1 3338   1.042   1.849   4.840
  813SOL    HW2 3339   0.921   1.955   4.810
  814SOL     OW 3340   1.008   5.274   3.183
  814SOL    HW1 3341   0.924   5.244   3.229
  814SOL    HW2 3342   1.077   5.202   3.189
  815SOL     OW 3343   4.690   1.640   3.897
  815SOL    HW1 3344   4.773   1.674   3.853
  815SOL    HW2 3345   4.613   1.649   3.834
  816SOL     OW 3346   5.430   4.064   7.022
  816SOL    HW1 3347   5.452   4.156   6.992
  816SOL    HW2 3348   5.388   4.013   6.947
  817SOL     OW 3349   0.882   4.761   6.771
  817SOL    HW1 3350   0.886   4.749   6.672
  817SOL    HW2 3351   0.859   4.674   6.814
  818SOL     OW 3352   6.415   2.233   4.252
  818SOL    HW1 3353   6.493   2.174   4.230
  818SOL    HW2 3354   6.429   2.323   4.210
  819SOL     OW 3355   5.188   2.832   2.294
  819SOL    HW1 3356   5.114   2.780   2.251
  819SOL    HW2 3357   5.186   2.926   2.260
  820SOL     OW 3358   2.251   1.923   5.209
  820SOL    HW1 3359   2.153   1.916   5.229
  820SOL    HW2 3360   2.265   1.987   5.133
  821SOL     OW 3361   5.865   3.583   5.199
  821SOL    HW1 3362   5.782   3.568   5.145
  821SOL    HW2 3363   5.945   3.562   5.143
  822SOL     OW 3364   0.617   4.208   3.280
  822SOL    HW1 3365   0.585   4.182   3.372
  822SOL    HW2 3366   0.653   4.127   3.234
  823SOL     OW 3367   0.875   3.736   5.743
  823SOL    HW1 3368   0.862   3.689   5.831
  823SOL    HW2 3369   0.874   3.835   5.759
  824SOL     OW 3370   6.010   1.454   5.803
  824SOL    HW1 3371   5.966   1.543   5.792
  824SOL    HW2 3372   6.107   1.462   5.781
  825SOL     OW 3373   0.017   5.594   1.014
  825SOL    HW1 3374   7.007   5.660   1.081
  825SOL    HW2 3375   0.022   5.638   0.924
  826SOL     OW 3376   3.657   1.320   5.557
  826SOL    HW1 3377   3.660   1.236   5.611
  826SOL    HW2 3378   3.669   1.398   5.618
  827SOL     OW 3379   3.490   4.162   4.410
  827SOL    HW1 3380   3.435   4.128   4.334
  827SOL    HW2 3381   3.433   4.172   4.491
  828SOL     OW 3382   6.491   5.839   5.256
  828SOL    HW1 3383   6.397   5.871   5.266
  828SOL    HW2 3384   6.547   5.874   5.331
  829SOL     OW 3385   3.467   3.000   2.631
  829SOL    HW1 3386   3.413   3.070   2.678
  829SOL    HW2 3387   3.518   3.041   2.555
  830SOL     OW 3388   6.623   4.746   0.353
  830SOL    HW1 3389   6.584   4.655   0.342
  830SOL    HW2 3390   6.720   4.743   0.330
  831SOL     OW 3391   5.344   6.413   1.473
  831SOL    HW1 3392   5.260   6.366   1.499
  831SOL    HW2 3393   5.352   6.415   1.374
  832SOL     OW 3394   3.082   2.138   4.747
  832SOL    HW1 3395   3.009   2.195   4.710
  832SOL    HW2 3396   3.112   2.176   4.835
  833SOL     OW 3397   2.076   3.133   6.246
  833SOL    HW1 3398   2.103   3.042   6.218
  833SOL    HW2 3399   2.009   3.170   6.181
  834SOL     OW 3400   5.024   3.608   6.831
  834SOL    HW1 3401   5.035   3.617   6.930
  834SOL    HW2 3402   5.096   3.548   6.796
  835SOL     OW 3403   0.687   6.716   4.703
  835SOL    HW1 3404   0.680   6.691   4.606
  835SOL    HW2 3405   0.669   6.813   4.713
  836SOL     OW 3406   3.412   1.319   4.541
  836SOL    HW1 3407   3.421   1.415   4.514
  836SOL    HW2 3408   3.402   1.313   4.641
  837SOL     OW 3409   1.337   0.760   0.820
  837SOL    HW1 3410   1.353   0.842   0.765
  837SOL    HW2 3411   1.337   0.785   0.917
  838SOL     OW 3412   2.262   5.906   3.209
  838SOL    HW1 3413   2.277   5.849   3.290
  838SOL    HW2 3414   2.323   5.876   3.136
  839SOL     OW 3415   1.267   2.068   0.249
  839SOL    HW1 3416   1.359   2.070   0.211
  839SOL    HW2 3417   1.264   2.005   0.327
  840SOL     OW 3418   5.264   5.775   0.002
  840SOL    HW1 3419   5.274   5.828   6.943
  840SOL    HW2 3420   5.169   5.746   0.012
  841SOL     OW 3421   3.859   5.006   5.883
  841SOL    HW1 3422   3.850   4.917   5.839
  841SOL    HW2 3423   3.783   5.019   5.948
  842SOL     OW 3424   3.400   0.239   6.997
  842SOL    HW1 3425   3.335   0.195   6.935
  842SOL    HW2 3426   3.372   0.334   7.013
  843SOL     OW 3427   1.367   1.593   2.574
  843SOL    HW1 3428   1.401   1.506   2.611
  843SOL    HW2 3429   1.323   1.645   2.647
  844SOL     OW 3430   6.090   0.106   1.380
  844SOL    HW1 3431   6.113   0.146   1.291
  844SOL    HW2 3432   6.112   0.009   1.380
  845SOL     OW 3433   3.529   1.696   2.558
  845SOL    HW1 3434   3.449   1.755   2.562
  845SOL    HW2 3435   3.593   1.731   2.489
  846SOL     OW 3436   2.647   2.369   0.245
  846SOL    HW1 3437   2.689   2.304   0.182
  846SOL    HW2 3438   2.588   2.319   0.309
  847SOL     OW 3439   2.506   4.810   1.323
  847SOL    HW1 3440   2.480   4.714   1.318
  847SOL    HW2 3441   2.518   4.836   1.419
  848SOL     OW 3442   6.604   5.800   7.005
  848SOL    HW1 3443   6.581   5.759   6.916
  848SOL    HW2 3444   6.618   5.727   0.047
  849SOL     OW 3445   5.988   3.836   6.906
  849SOL    HW1 3446   6.049   3.897   6.957
  849SOL    HW2 3447   5.948   3.769   6.969
  850SOL     OW 3448   0.552   0.776   5.651
  850SOL    HW1 3449   0.604   0.703   5.695
  850SOL    HW2 3450   0.550   0.761   5.553
  851SOL     OW 3451   6.749   3.120   6.196
  851SOL    HW1 3452   6.825   3.080   6.144
  851SOL    HW2 3453   6.662   3.085   6.161
  852SOL     OW 3454   0.439   3.864   2.353
  852SOL    HW1 3455   0.373   3.898   2.286
  852SOL    HW2 3456   0.487   3.785   2.314
  853SOL     OW 3457   2.456   4.331   7.002
  853SOL    HW1 3458   2.390   4.272   6.956
  853SOL    HW2 3459   2.539   4.278   7.023
  854SOL     OW 3460   5.380   6.340   6.717
  854SOL    HW1 3461   5.403   6.276   6.791
  854SOL    HW2 3462   5.351   6.288   6.636
  855SOL     OW 3463   6.313   0.909   0.167
  855SOL    HW1 3464   6.404   0.888   0.130
  855SOL    HW2 3465   6.311   1.005   0.197
  856SOL     OW 3466   2.034   6.265   0.199
  856SOL    HW1 3467   2.036   6.261   0.099
  856SOL    HW2 3468   2.096   6.196   0.236
  857SOL     OW 3469   6.268   5.109   4.985
  857SOL    HW1 3470   6.271   5.137   5.081
  857SOL    HW2 3471   6.233   5.184   4.930
  858SOL     OW 3472   3.824   3.842   0.136
  858SOL    HW1 3473   3.800   3.843   0.233
  858SOL    HW2 3474   3.906   3.897   0.121
  859SOL     OW 3475   4.075   6.575   5.470
  859SOL    HW1 3476   4.148   6.517   5.504
  859SOL    HW2 3477   4.018   6.605   5.547
  860SOL     OW 3478   5.866   3.288   6.005
  860SOL    HW1 3479   5.812   3.348   5.945
  860SOL    HW2 3480   5.905   3.213   5.951
  861SOL     OW 3481   2.578   6.272   2.505
  861SOL    HW1 3482   2.537   6.362   2.522
  861SOL    HW2 3483   2.564   6.247   2.409
  862SOL     OW 3484   1.233   4.516   3.669
  862SOL    HW1 3485   1.320   4.546   3.629
  862SOL    HW2 3486   1.171   4.488   3.596
  863SOL     OW 3487   6.844   0.927   6.719
  863SOL    HW1 3488   6.788   0.861   6.668
  863SOL    HW2 3489   6.933   0.935   6.676
  864SOL     OW 3490   5.668   0.101   4.968
  864SOL    HW1 3491   5.685   0.194   5.000
  864SOL    HW2 3492   5.630   0.104   4.875
  865SOL     OW 3493   2.421   6.119   4.641
  865SOL    HW1 3494   2.404   6.191   4.574
  865SOL    HW2 3495   2.337   6.068   4.657
  866SOL     OW 3496   2.727   6.048   2.124
  866SOL    HW1 3497   2.796   6.096   2.178
  866SOL    HW2 3498   2.660   6.006   2.185
  867SOL     OW 3499   6.105   1.737   0.186
  867SOL    HW1 3500   6.028   1.713   0.127
  867SOL    HW2 3501   6.082   1.716   0.281
  868SOL     OW 3502   0.080   2.459   2.107
  868SOL    HW1 3503   0.122   2.376   2.144
  868SOL    HW2 3504   0.092   2.534   2.173
  869SOL     OW 3505   6.800   3.882   3.421
  869SOL    HW1 3506   6.811   3.783   3.431
  869SOL    HW2 3507   6.795   3.925   3.511
  870SOL     OW 3508   3.548   5.328   1.525
  870SOL    HW1 3509   3.530   5.235   1.494
  870SOL    HW2 3510   3.571   5.327   1.622
  871SOL     OW 3511   4.461   1.936   3.433
  871SOL    HW1 3512   4.371   1.927   3.477
  871SOL    HW2 3513   4.461   1.886   3.347
  872SOL     OW 3514   0.087   2.965   4.186
  872SOL    HW1 3515   0.003   2.970   4.132
  872SOL    HW2 3516   0.142   3.047   4.168
  873SOL     OW 3517   4.641   6.391   6.120
  873SOL    HW1 3518   4.733   6.426   6.100
  873SOL    HW2 3519   4.643   6.291   6.123
  874SOL     OW 3520   4.924   4.077   0.548
  874SOL    HW1 3521   4.905   4.092   0.451
  874SOL    HW2 3522   4.852   4.022   0.589
  875SOL     OW 3523   4.952   5.470   0.407
  875SOL    HW1 3524   4.903   5.415   0.339
  875SOL    HW2 3525   4.931   5.436   0.499
  876SOL     OW 3526   0.463   5.810   1.920
  876SOL    HW1 3527   0.378   5.777   1.878
  876SOL    HW2 3528   0.539   5.797   1.856
  877SOL     OW 3529   2.799   4.510   6.899
  877SOL    HW1 3530   2.835   4.602   6.881
  877SOL    HW2 3531   2.699   4.512   6.893
  878SOL     OW 3532   3.906   6.863   4.574
  878SOL    HW1 3533   3.862   6.875   4.485
  878SOL    HW2 3534   3.938   6.768   4.583
  879SOL     OW 3535   5.509   0.579   0.589
  879SOL    HW1 3536   5.427   0.549   0.541
  879SOL    HW2 3537   5.503   0.552   0.686
  880SOL     OW 3538   2.871   3.471   3.084
  880SOL    HW1 3539   2.900   3.540   3.018
  880SOL    HW2 3540   2.915   3.384   3.063
  881SOL     OW 3541   4.627   2.354   6.028
  881SOL    HW1 3542   4.574   2.404   5.960
  881SOL    HW2 3543   4.574   2.277   6.062
  882SOL     OW 3544   0.651   3.434   4.666
  882SOL    HW1 3545   0.736   3.471   4.627
  882SOL    HW2 3546   0.673   3.372   4.741
  883SOL     OW 3547   3.113   0.370   2.682
  883SOL    HW1 3548   3.169   0.349   2.602
  883SOL    HW2 3549   3.075   0.285   2.718
  884SOL     OW 3550   4.740   2.453   5.090
  884SOL    HW1 3551   4.796   2.370   5.082
  884SOL    HW2 3552   4.760   2.498   5.176
  885SOL     OW 3553   3.343   1.337   6.184
  885SOL    HW1 3554   3.249   1.313   6.163
  885SOL    HW2 3555   3.357   1.435   6.170
  886SOL     OW 3556   3.256   0.918   0.112
  886SOL    HW1 3557   3.306   0.844   0.156
  886SOL    HW2 3558   3.174   0.940   0.165
  887SOL     OW 3559   4.237   0.883   3.819
  887SOL    HW1 3560   4.272   0.812   3.758
  887SOL    HW2 3561   4.193   0.842   3.898
  888SOL     OW 3562   0.357   0.570   3.296
  888SOL    HW1 3563   0.288   0.543   3.363
  888SOL    HW2 3564   0.377   0.493   3.236
  889SOL     OW 3565   0.743   4.174   6.709
  889SOL    HW1 3566   0.755   4.253   6.648
  889SOL    HW2 3567   0.745   4.090   6.654
  890SOL     OW 3568   2.206   5.942   3.605
  890SOL    HW1 3569   2.111   5.918   3.586
  890SOL    HW2 3570   2.264   5.905   3.532
  891SOL     OW 3571   5.534   5.649   0.868
  891SOL    HW1 3572   5.484   5.730   0.836
  891SOL    HW2 3573   5.614   5.635   0.809
  892SOL     OW 3574   2.491   4.008   5.699
  892SOL    HW1 3575   2.506   4.101   5.733
  892SOL    HW2 3576   2.578   3.964   5.682
  893SOL     OW 3577   2.765   6.403   2.944
  893SOL    HW1 3578   2.812   6.433   3.027
  893SOL    HW2 3579   2.667   6.395   2.962
  894SOL     OW 3580   1.510   4.165   1.775
  894SOL    HW1 3581   1.472   4.196   1.688
  894SOL    HW2 3582   1.593   4.113   1.759
  895SOL     OW 3583   0.285   6.016   3.157
  895SOL    HW1 3584   0.188   6.028   3.136
  895SOL    HW2 3585   0.332   5.977   3.078
  896SOL     OW 3586   6.500   5.978   6.298
  896SOL    HW1 3587   6.440   5.917   6.247
  896SOL    HW2 3588   6.478   5.974   6.396
  897SOL     OW 3589   5.459   0.940   0.199
  897SOL    HW1 3590   5.468   1.022   0.255
  897SOL    HW2 3591   5.367   0.901   0.210
  898SOL     OW 3592   3.587   5.406   3.333
  898SOL    HW1 3593   3.580   5.310   3.307
  898SOL    HW2 3594   3.606   5.414   3.431
  899SOL     OW 3595   0.852   5.188   6.137
  899SOL    HW1 3596   0.755   5.213   6.144
  899SOL    HW2 3597   0.880   5.192   6.041
  900SOL     OW 3598   6.056   6.878   0.271
  900SOL    HW1 3599   6.044   6.779   0.267
  900SOL    HW2 3600   6.043   6.917   0.180
  901SOL     OW 3601   1.983   1.053   2.408
  901SOL    HW1 3602   2.074   1.012   2.405
  901SOL    HW2 3603   1.958   1.087   2.318
  902SOL     OW 3604   5.909   3.729   1.129
  902SOL    HW1 3605   6.007   3.716   1.145
  902SOL    HW2 3606   5.895   3.812   1.076
  903SOL     OW 3607   6.870   1.904   0.509
  903SOL    HW1 3608   6.784   1.953   0.503
  903SOL    HW2 3609   6.879   1.863   0.600
  904SOL     OW 3610   3.219   1.941   3.833
  904SOL    HW1 3611   3.162   1.884   3.774
  904SOL    HW2 3612   3.170   2.025   3.857
  905SOL     OW 3613   5.742   2.719   0.108
  905SOL    HW1 3614   5.820   2.774   0.139
  905SOL    HW2 3615   5.741   2.633   0.159
  906SOL     OW 3616   0.198   2.577   5.278
  906SOL    HW1 3617   0.174   2.568   5.181
  906SOL    HW2 3618   0.238   2.492   5.311
  907SOL     OW 3619   4.953   3.603   0.088
  907SOL    HW1 3620   4.985   3.508   0.080
  907SOL    HW2 3621   4.861   3.603   0.127
  908SOL     OW 3622   2.641   4.671   2.200
  908SOL    HW1 3623   2.674   4.639   2.112
  908SOL    HW2 3624   2.677   4.763   2.217
  909SOL     OW 3625   4.412   4.948   6.071
  909SOL    HW1 3626   4.408   4.848   6.065
  909SOL    HW2 3627   4.479   4.982   6.005
  910SOL     OW 3628   2.626   2.818   1.660
  910SOL    HW1 3629   2.531   2.787   1.670
  910SOL    HW2 3630   2.688   2.751   1.701
  911SOL     OW 3631   1.776   5.998   6.167
  911SOL    HW1 3632   1.790   6.056   6.087
  911SOL    HW2 3633   1.746   6.054   6.244
  912SOL     OW 3634   5.112   2.965   3.660
  912SOL    HW1 3635   5.030   2.983   3.606
  912SOL    HW2 3636   5.162   3.050   3.675
  913SOL     OW 3637   5.275   6.602   3.193
  913SOL    HW1 3638   5.252   6.506   3.207
  913SOL    HW2 3639   5.200   6.648   3.145
  914SOL     OW 3640   2.493   0.246   6.619
  914SOL    HW1 3641   2.412   0.268   6.564
  914SOL    HW2 3642   2.475   0.267   6.715
  915SOL     OW 3643   5.760   5.560   0.766
  915SOL    HW1 3644   5.829   5.617   0.720
  915SOL    HW2 3645   5.719   5.498   0.699
  916SOL     OW 3646   0.987   2.222   2.479
  916SOL    HW1 3647   1.074   2.241   2.434
  916SOL    HW2 3648   0.953   2.133   2.450
  917SOL     OW 3649   0.393   0.379   0.658
  917SOL    HW1 3650   0.322   0.321   0.698
  917SOL    HW2 3651   0.474   0.377   0.717
  918SOL     OW 3652   1.569   6.497   1.016
  918SOL    HW1 3653   1.585   6.400   1.003
  918SOL    HW2 3654   1.605   6.526   1.105
  919SOL     OW 3655   5.607   1.742   3.403
  919SOL    HW1 3656   5.655   1.724   3.489
  919SOL    HW2 3657   5.511   1.716   3.412
  920SOL     OW 3658   2.703   4.947   2.135
  920SOL    HW1 3659   2.784   4.962   2.078
  920SOL    HW2 3660   2.630   4.910   2.078
  921SOL     OW 3661   5.214   5.773   4.556
  921SOL    HW1 3662   5.310   5.754   4.540
  921SOL    HW2 3663   5.158   5.715   4.497
  922SOL     OW 3664   3.781   3.795   3.959
  922SOL    HW1 3665   3.715   3.737   4.006
  922SOL    HW2 3666   3.742   3.886   3.945
  923SOL     OW 3667   2.219   2.812   5.736
  923SOL    HW1 3668   2.249   2.725   5.697
  923SOL    HW2 3669   2.257   2.887   5.682
  924SOL     OW 3670   6.692   3.678   2.481
  924SOL    HW1 3671   6.651   3.591   2.507
  924SOL    HW2 3672   6.644   3.715   2.401
  925SOL     OW 3673   5.997   1.617   0.414
  925SOL    HW1 3674   5.931   1.558   0.368
  925SOL    HW2 3675   5.950   1.671   0.483
  926SOL     OW 3676   0.597   1.310   2.094
  926SOL    HW1 3677   0.502   1.298   2.065
  926SOL    HW2 3678   0.615   1.408   2.108
  927SOL     OW 3679   5.662   3.698   3.644
  927SOL    HW1 3680   5.588   3.740   3.592
  927SOL    HW2 3681   5.629   3.614   3.687
  928SOL     OW 3682   3.500   6.120   6.456
  928SOL    HW1 3683   3.420   6.130   6.515
  928SOL    HW2 3684   3.575   6.081   6.509
  929SOL     OW 3685   6.531   1.199   5.686
  929SOL    HW1 3686   6.549   1.288   5.644
  929SOL    HW2 3687   6.560   1.126   5.624
  930SOL     OW 3688   4.961   4.993   6.556
  930SOL    HW1 3689   4.943   5.019   6.461
  930SOL    HW2 3690   4.900   4.918   6.582
  931SOL     OW 3691   6.552   2.709   3.165
  931SOL    HW1 3692   6.515   2.641   3.227
  931SOL    HW2 3693   6.519   2.691   3.072
  932SOL     OW 3694   4.126   0.489   3.652
  932SOL    HW1 3695   4.081   0.440   3.727
  932SOL    HW2 3696   4.189   0.557   3.689
  933SOL     OW 3697   1.388   5.131   2.745
  933SOL    HW1 3698   1.484   5.107   2.728
  933SOL    HW2 3699   1.329   5.072   2.689
  934SOL     OW 3700   1.694   5.351   6.493
  934SOL    HW1 3701   1.786   5.351   6.452
  934SOL    HW2 3702   1.692   5.412   6.572
  935SOL     OW 3703   5.266   3.618   3.281
  935SOL    HW1 3704   5.245   3.666   3.196
  935SOL    HW2 3705   5.335   3.548   3.264
  936SOL     OW 3706   1.574   0.258   6.919
  936SOL    HW1 3707   1.486   0.287   6.956
  936SOL    HW2 3708   1.648   0.292   6.978
  937SOL     OW 3709   4.995   1.054   5.477
  937SOL    HW1 3710   5.079   1.002   5.489
  937SOL    HW2 3711   5.015   1.139   5.428
  938SOL     OW 3712   6.051   5.488   4.639
  938SOL    HW1 3713   6.109   5.567   4.620
  938SOL    HW2 3714   5.955   5.512   4.624
  939SOL     OW 3715   0.349   6.802   4.786
  939SOL    HW1 3716   0.425   6.792   4.722
  939SOL    HW2 3717   0.377   6.863   4.860
  940SOL     OW 3718   2.312   5.157   0.542
  940SOL    HW1 3719   2.269   5.240   0.576
  940SOL    HW2 3720   2.394   5.137   0.595
  941SOL     OW 3721   3.822   0.145   6.477
  941SOL    HW1 3722   3.865   0.137   6.568
  941SOL    HW2 3723   3.730   0.107   6.480
  942SOL     OW 3724   0.161   5.466   0.413
  942SOL    HW1 3725   0.250   5.421   0.415
  942SOL    HW2 3726   0.124   5.472   0.506
  943SOL     OW 3727   3.111   4.942   3.094
  943SOL    HW1 3728   3.104   5.031   3.139
  943SOL    HW2 3729   3.163   4.952   3.009
  944SOL     OW 3730   0.755   6.333   4.512
  944SOL    HW1 3731   0.702   6.258   4.472
  944SOL    HW2 3732   0.716   6.420   4.484
  945SOL     OW 3733   0.790   5.505   6.323
  945SOL    HW1 3734   0.838   5.541   6.403
  945SOL    HW2 3735   0.850   5.512   6.243
  946SOL     OW 3736   4.862   3.835   3.636
  946SOL    HW1 3737   4.850   3.767   3.708
  946SOL    HW2 3738   4.839   3.794   3.547
  947SOL     OW 3739   3.740   4.161   4.525
  947SOL    HW1 3740   3.805   4.134   4.455
  947SOL    HW2 3741   3.660   4.204   4.483
  948SOL     OW 3742   4.744   1.260   2.609
  948SOL    HW1 3743   4.821   1.323   2.605
  948SOL    HW2 3744   4.718   1.245   2.705
  949SOL     OW 3745   3.104   6.290   6.628
  949SOL    HW1 3746   3.106   6.301   6.528
  949SOL    HW2 3747   3.091   6.193   6.651
  950SOL     OW 3748   0.161   6.398   2.245
  950SOL    HW1 3749   0.247   6.362   2.208
  950SOL    HW2 3750   0.172   6.416   2.343
  951SOL     OW 3751   1.938   0.182   3.278
  951SOL    HW1 3752   1.944   0.087   3.246
  951SOL    HW2 3753   2.018   0.203   3.335
  952SOL     OW 3754   3.276   1.573   1.786
  952SOL    HW1 3755   3.345   1.639   1.757
  952SOL    HW2 3756   3.205   1.620   1.838
  953SOL     OW 3757   6.708   4.931   4.997
  953SOL    HW1 3758   6.758   4.931   5.084
  953SOL    HW2 3759   6.748   4.862   4.936
  954SOL     OW 3760   5.066   5.680   2.600
  954SOL    HW1 3761   5.083   5.698   2.697
  954SOL    HW2 3762   4.979   5.721   2.574
  955SOL     OW 3763   1.435   4.330   0.115
  955SOL    HW1 3764   1.409   4.281   0.032
  955SOL    HW2 3765   1.378   4.298   0.191
  956SOL     OW 3766   6.332   0.632   1.551
  956SOL    HW1 3767   6.301   0.708   1.494
  956SOL    HW2 3768   6.291   0.639   1.642
  957SOL     OW 3769   6.335   2.657   3.779
  957SOL    HW1 3770   6.359   2.578   3.836
  957SOL    HW2 3771   6.241   2.646   3.745
  958SOL     OW 3772   5.167   0.232   2.093
  958SOL    HW1 3773   5.171   0.233   1.993
  958SOL    HW2 3774   5.243   0.286   2.130
  959SOL     OW 3775   3.789   6.839   4.317
  959SOL    HW1 3776   3.701   6.847   4.271
  959SOL    HW2 3777   3.863   6.836   4.249
  960SOL     OW 3778   0.881   0.492   0.151
  960SOL    HW1 3779   0.793   0.445   0.152
  960SOL    HW2 3780   0.896   0.535   0.240
  961SOL     OW 3781   3.253   6.386   2.681
  961SOL    HW1 3782   3.197   6.388   2.764
  961SOL    HW2 3783   3.264   6.480   2.647
  962SOL     OW 3784   6.581   0.428   4.732
  962SOL    HW1 3785   6.483   0.418   4.711
  962SOL    HW2 3786   6.635   0.396   4.654
  963SOL     OW 3787   4.716   2.914   1.050
  963SOL    HW1 3788   4.770   2.879   1.127
  963SOL    HW2 3789   4.687   2.837   0.993
  964SOL     OW 3790   4.661   4.330   5.229
  964SOL    HW1 3791   4.683   4.285   5.315
  964SOL    HW2 3792   4.686   4.270   5.152
  965SOL     OW 3793   5.774   2.593   3.661
  965SOL    HW1 3794   5.860   2.557   3.698
  965SOL    HW2 3795   5.742   2.533   3.588
  966SOL     OW 3796   5.055   2.130   3.960
  966SOL    HW1 3797   5.061   2.228   3.940
  966SOL    HW2 3798   5.007   2.083   3.886
  967SOL     OW 3799   5.498   4.122   6.507
  967SOL    HW1 3800   5.537   4.048   6.562
  967SOL    HW2 3801   5.468   4.196   6.567
  968SOL     OW 3802   3.519   0.547   1.281
  968SOL    HW1 3803   3.582   0.605   1.230
  968SOL    HW2 3804   3.428   0.553   1.240
  969SOL     OW 3805   3.524   4.069   5.854
  969SOL    HW1 3806   3.584   4.099   5.779
  969SOL    HW2 3807   3.429   4.087   5.829
  970SOL     OW 3808   5.786   0.298   5.999
  970SOL    HW1 3809   5.802   0.209   6.043
  970SOL    HW2 3810   5.732   0.285   5.916
  971SOL     OW 3811   5.951   4.022   2.669
  971SOL    HW1 3812   5.946   4.082   2.748
  971SOL    HW2 3813   5.945   3.927   2.699
  972SOL     OW 3814   0.278   2.711   0.953
  972SOL    HW1 3815   0.372   2.709   0.986
  972SOL    HW2 3816   0.251   2.805   0.934
  973SOL     OW 3817   6.884   3.397   5.943
  973SOL    HW1 3818   6.975   3.412   5.904
  973SOL    HW2 3819   6.837   3.325   5.892
  974SOL     OW 3820   6.821   5.313   4.344
  974SOL    HW1 3821   6.835   5.411   4.333
  974SOL    HW2 3822   6.886   5.263   4.287
  975SOL     OW 3823   2.322   6.715   1.971
  975SOL    HW1 3824   2.223   6.700   1.974
  975SOL    HW2 3825   2.364   6.643   1.916
  976SOL     OW 3826   6.575   3.776   2.256
  976SOL    HW1 3827   6.595   3.865   2.295
  976SOL    HW2 3828   6.536   3.787   2.165
  977SOL     OW 3829   6.967   1.414   2.533
  977SOL    HW1 3830   0.002   1.473   2.587
  977SOL    HW2 3831   6.976   1.320   2.563
  978SOL     OW 3832   5.570   2.514   1.893
  978SOL    HW1 3833   5.616   2.584   1.947
  978SOL    HW2 3834   5.593   2.424   1.929
  979SOL     OW 3835   6.474   3.840   0.014
  979SOL    HW1 3836   6.530   3.846   0.096
  979SOL    HW2 3837   6.514   3.898   6.967
  980SOL     OW 3838   3.582   1.976   5.108
  980SOL    HW1 3839   3.647   1.971   5.032
  980SOL    HW2 3840   3.502   2.028   5.080
  981SOL     OW 3841   6.601   6.610   5.384
  981SOL    HW1 3842   6.681   6.551   5.396
  981SOL    HW2 3843   6.526   6.575   5.440
  982SOL     OW 3844   0.025   1.372   4.969
  982SOL    HW1 3845   0.082   1.435   5.022
  982SOL    HW2 3846   6.975   1.422   4.927
  983SOL     OW 3847   0.263   4.155   4.150
  983SOL    HW1 3848   0.295   4.206   4.230
  983SOL    HW2 3849   0.296   4.061   4.156
  984SOL     OW 3850   1.610   1.968   2.934
  984SOL    HW1 3851   1.632   2.008   2.845
  984SOL    HW2 3852   1.692   1.930   2.975
  985SOL     OW 3853   6.427   3.806   4.426
  985SOL    HW1 3854   6.341   3.802   4.477
  985SOL    HW2 3855   6.502   3.825   4.490
  986SOL     OW 3856   5.389   4.524   1.277
  986SOL    HW1 3857   5.472   4.577   1.293
  986SOL    HW2 3858   5.413   4.429   1.257
  987SOL     OW 3859   5.668   5.069   3.663
  987SOL    HW1 3860   5.761   5.049   3.631
  987SOL    HW2 3861   5.615   5.109   3.589
  988SOL     OW 3862   2.976   4.181   1.497
  988SOL    HW1 3863   3.008   4.196   1.591
  988SOL    HW2 3864   2.913   4.254   1.471
  989SOL     OW 3865   0.420   1.162   1.214
  989SOL    HW1 3866   0.347   1.173   1.281
  989SOL    HW2 3867   0.500   1.215   1.243
  990SOL     OW 3868   4.221   0.189   3.527
  990SOL    HW1 3869   4.179   0.262   3.472
  990SOL    HW2 3870   4.299   0.225   3.578
  991SOL     OW 3871   6.756   4.479   3.972
  991SOL    HW1 3872   6.757   4.416   3.894
  991SOL    HW2 3873   6.811   4.441   4.046
  992SOL     OW 3874   0.379   2.500   1.267
  992SOL    HW1 3875   0.409   2.405   1.258
  992SOL    HW2 3876   0.459   2.561   1.267
  993SOL     OW 3877   1.904   5.516   0.755
  993SOL    HW1 3878   1.969   5.593   0.755
  993SOL    HW2 3879   1.881   5.492   0.849
  994SOL     OW 3880   2.876   6.766   0.505
  994SOL    HW1 3881   2.863   6.764   0.406
  994SOL    HW2 3882   2.788   6.781   0.550
  995SOL     OW 3883   5.743   3.181   5.579
  995SOL    HW1 3884   5.765   3.245   5.505
  995SOL    HW2 3885   5.648   3.149   5.568
  996SOL     OW 3886   3.802   6.155   5.869
  996SOL    HW1 3887   3.865   6.221   5.909
  996SOL    HW2 3888   3.776   6.186   5.777
  997SOL     OW 3889   1.796   5.548   3.947
  997SOL    HW1 3890   1.756   5.638   3.962
  997SOL    HW2 3891   1.777   5.489   4.026
  998SOL     OW 3892   5.852   0.092   6.236
  998SOL    HW1 3893   5.903   0.018   6.281
  998SOL    HW2 3894   5.757   0.065   6.225
  999SOL     OW 3895   4.890   3.826   1.829
  999SOL    HW1 3896   4.895   3.813   1.928
  999SOL    HW2 3897   4.912   3.740   1.783
 1000SOL     OW 3898   3.954   1.789   1.508
 1000SOL    HW1 3899   3.968   1.858   1.579
 1000SOL    HW2 3900   3.858   1.792   1.478
 1001SOL     OW 3901   2.780   6.482   2.184
 1001SOL    HW1 3902   2.744   6.575   2.185
 1001SOL    HW2 3903   2.728   6.427   2.119
 1002SOL     OW 3904   5.431   2.739   1.237
 1002SOL    HW1 3905   5.432   2.838   1.253
 1002SOL    HW2 3906   5.414   2.721   1.140
 1003SOL     OW 3907   0.483   6.648   2.800
 1003SOL    HW1 3908   0.449   6.639   2.706
 1003SOL    HW2 3909   0.510   6.558   2.835
 1004SOL     OW 3910   5.296   1.289   3.640
 1004SOL    HW1 3911   5.390   1.269   3.667
 1004SOL    HW2 3912   5.240   1.303   3.722
 1005SOL     OW 3913   1.517   4.603   4.079
 1005SOL    HW1 3914   1.518   4.653   4.165
 1005SOL    HW2 3915   1.513   4.668   4.003
 1006SOL     OW 3916   2.245   3.717   0.856
 1006SOL    HW1 3917   2.326   3.752   0.809
 1006SOL    HW2 3918   2.218   3.779   0.930
 1007SOL     OW 3919   4.616   1.624   6.284
 1007SOL    HW1 3920   4.657   1.710   6.255
 1007SOL    HW2 3921   4.652   1.598   6.374
 1008SOL     OW 3922   0.519   4.611   4.833
 1008SOL    HW1 3923   0.497   4.562   4.749
 1008SOL    HW2 3924   0.618   4.614   4.845
 1009SOL     OW 3925   6.451   4.952   5.792
 1009SOL    HW1 3926   6.376   4.978   5.852
 1009SOL    HW2 3927   6.493   5.034   5.753
 1010SOL     OW 3928   2.393   3.537   1.252
 1010SOL    HW1 3929   2.296   3.565   1.252
 1010SOL    HW2 3930   2.402   3.450   1.205
 1011SOL     OW 3931   0.116   5.067   2.964
 1011SOL    HW1 3932   0.171   4.987   2.987
 1011SOL    HW2 3933   0.143   5.102   2.875
 1012SOL     OW 3934   5.597   0.284   2.505
 1012SOL    HW1 3935   5.605   0.377   2.469
 1012SOL    HW2 3936   5.680   0.262   2.558
 1013SOL     OW 3937   6.405   1.115   6.609
 1013SOL    HW1 3938   6.419   1.204   6.653
 1013SOL    HW2 3939   6.433   1.042   6.672
 1014SOL     OW 3940   1.261   4.914   4.622
 1014SOL    HW1 3941   1.303   4.833   4.664
 1014SOL    HW2 3942   1.308   4.996   4.655
 1015SOL     OW 3943   3.508   6.585   6.647
 1015SOL    HW1 3944   3.557   6.667   6.619
 1015SOL    HW2 3945   3.479   6.593   6.742
 1016SOL     OW 3946   5.356   4.000   1.525
 1016SOL    HW1 3947   5.366   4.081   1.467
 1016SOL    HW2 3948   5.440   3.945   1.520
 1017SOL     OW 3949   2.400   1.548   2.943
 1017SOL    HW1 3950   2.456   1.480   2.898
 1017SOL    HW2 3951   2.331   1.503   3.000
 1018SOL     OW 3952   0.210   4.855   3.411
 1018SOL    HW1 3953   0.143   4.908   3.463
 1018SOL    HW2 3954   0.288   4.914   3.389
 1019SOL     OW 3955   0.410   5.089   0.721
 1019SOL    HW1 3956   0.323   5.054   0.685
 1019SOL    HW2 3957   0.403   5.188   0.733
 1020SOL     OW 3958   6.982   6.817   0.885
 1020SOL    HW1 3959   0.010   6.879   0.826
 1020SOL    HW2 3960   6.906   6.779   0.833
 1021SOL     OW 3961   6.311   6.028   1.618
 1021SOL    HW1 3962   6.335   5.938   1.654
 1021SOL    HW2 3963   6.212   6.032   1.604
 1022SOL     OW 3964   2.683   6.550   6.417
 1022SOL    HW1 3965   2.589   6.522   6.397
 1022SOL    HW2 3966   2.741   6.469   6.426
 1023SOL     OW 3967   0.788   1.943   3.493
 1023SOL    HW1 3968   0.772   1.965   3.397
 1023SOL    HW2 3969   0.721   1.876   3.523
 1024SOL     OW 3970   1.530   2.039   5.084
 1024SOL    HW1 3971   1.507   1.966   5.019
 1024SOL    HW2 3972   1.513   2.127   5.041
 1025SOL     OW 3973   4.593   3.684   6.984
 1025SOL    HW1 3974   4.611   3.636   0.046
 1025SOL    HW2 3975   4.656   3.650   6.914
 1026SOL     OW 3976   2.738   2.746   1.263
 1026SOL    HW1 3977   2.763   2.815   1.330
 1026SOL    HW2 3978   2.671   2.683   1.304
 1027SOL     OW 3979   0.558   6.389   0.991
 1027SOL    HW1 3980   0.629   6.450   1.026
 1027SOL    HW2 3981   0.513   6.342   1.067
 1028SOL     OW 3982   0.628   6.039   2.846
 1028SOL    HW1 3983   0.706   6.102   2.849
 1028SOL    HW2 3984   0.658   5.950   2.812
 1029SOL     OW 3985   1.383   1.520   6.191
 1029SOL    HW1 3986   1.383   1.432   6.143
 1029SOL    HW2 3987   1.456   1.577   6.154
 1030SOL     OW 3988   3.109   3.595   1.458
 1030SOL    HW1 3989   3.065   3.507   1.470
 1030SOL    HW2 3990   3.042   3.668   1.468
 1031SOL     OW 3991   3.046   3.314   1.432
 1031SOL    HW1 3992   2.954   3.302   1.396
 1031SOL    HW2 3993   3.059   3.253   1.510
 1032SOL     OW 3994   1.721   1.513   6.048
 1032SOL    HW1 3995   1.740   1.428   6.000
 1032SOL    HW2 3996   1.776   1.587   6.009
 1033SOL     OW 3997   0.784   6.032   1.931
 1033SOL    HW1 3998   0.866   6.077   1.896
 1033SOL    HW2 3999   0.705   6.093   1.921
 1034SOL     OW 4000   3.433   6.981   4.901
 1034SOL    HW1 4001   3.355   6.960   4.961
 1034SOL    HW2 4002   3.514   6.997   4.957
 1035SOL     OW 4003   0.651   1.663   5.746
 1035SOL    HW1 4004   0.747   1.676   5.721
 1035SOL    HW2 4005   0.598   1.743   5.716
 1036SOL     OW 4006   4.886   1.578   0.865
 1036SOL    HW1 4007   4.956   1.588   0.936
 1036SOL    HW2 4008   4.796   1.570   0.908
 1037SOL     OW 4009   1.242   2.413   2.961
 1037SOL    HW1 4010   1.208   2.499   2.998
 1037SOL    HW2 4011   1.341   2.420   2.945
 1038SOL     OW 4012   2.822   0.146   0.045
 1038SOL    HW1 4013   2.827   0.136   0.144
 1038SOL    HW2 4014   2.891   0.089   0.002
 1039SOL     OW 4015   3.493   3.175   3.717
 1039SOL    HW1 4016   3.514   3.084   3.681
 1039SOL    HW2 4017   3.409   3.209   3.674
 1040SOL     OW 4018   4.160   0.973   2.651
 1040SOL    HW1 4019   4.204   1.009   2.733
 1040SOL    HW2 4020   4.182   0.875   2.642
 1041SOL     OW 4021   6.908   6.297   5.947
 1041SOL    HW1 4022   6.838   6.329   6.012
 1041SOL    HW2 4023   6.990   6.354   5.956
 1042SOL     OW 4024   5.152   4.665   2.380
 1042SOL    HW1 4025   5.156   4.703   2.287
 1042SOL    HW2 4026   5.163   4.566   2.375
 1043SOL     OW 4027   3.595   1.498   3.805
 1043SOL    HW1 4028   3.499   1.503   3.834
 1043SOL    HW2 4029   3.655   1.516   3.883
 1044SOL     OW 4030   5.825   5.420   1.536
 1044SOL    HW1 4031   5.773   5.392   1.455
 1044SOL    HW2 4032   5.836   5.342   1.598
 1045SOL     OW 4033   2.474   0.394   3.971
 1045SOL    HW1 4034   2.529   0.319   3.933
 1045SOL    HW2 4035   2.494   0.478   3.921
 1046SOL     OW 4036   3.081   1.226   0.882
 1046SOL    HW1 4037   2.990   1.236   0.841
 1046SOL    HW2 4038   3.092   1.295   0.954
 1047SOL     OW 4039   3.457   6.790   2.801
 1047SOL    HW1 4040   3.533   6.795   2.736
 1047SOL    HW2 4041   3.374   6.825   2.758
 1048SOL     OW 4042   1.509   6.192   2.216
 1048SOL    HW1 4043   1.503   6.252   2.137
 1048SOL    HW2 4044   1.467   6.104   2.194
 1049SOL     OW 4045   4.228   6.564   5.205
 1049SOL    HW1 4046   4.307   6.536   5.261
 1049SOL    HW2 4047   4.147   6.571   5.263
 1050SOL     OW 4048   3.238   5.332   3.871
 1050SOL    HW1 4049   3.162   5.289   3.823
 1050SOL    HW2 4050   3.324   5.309   3.825
 1051SOL     OW 4051   0.053   0.208   0.359
 1051SOL    HW1 4052   0.056   0.212   0.259
 1051SOL    HW2 4053   0.079   0.296   0.397
 1052SOL     OW 4054   3.624   0.490   6.450
 1052SOL    HW1 4055   3.550   0.427   6.426
 1052SOL    HW2 4056   3.634   0.494   6.549
 1053SOL     OW 4057   6.040   3.295   2.619
 1053SOL    HW1 4058   6.087   3.221   2.668
 1053SOL    HW2 4059   6.097   3.326   2.543
 1054SOL     OW 4060   3.217   4.296   6.904
 1054SOL    HW1 4061   3.278   4.287   6.826
 1054SOL    HW2 4062   3.268   4.284   6.989
 1055SOL     OW 4063   4.640   5.810   6.543
 1055SOL    HW1 4064   4.616   5.855   6.629
 1055SOL    HW2 4065   4.650   5.879   6.471
 1056SOL     OW 4066   2.341   4.126   6.855
 1056SOL    HW1 4067   2.385   4.151   6.768
 1056SOL    HW2 4068   2.360   4.029   6.874
 1057SOL     OW 4069   3.328   1.842   1.402
 1057SOL    HW1 4070   3.309   1.877   1.310
 1057SOL    HW2 4071   3.269   1.764   1.421
 1058SOL     OW 4072   2.772   2.002   2.800
 1058SOL    HW1 4073   2.868   2.023   2.821
 1058SOL    HW2 4074   2.737   2.069   2.734
 1059SOL     OW 4075   2.513   5.906   1.545
 1059SOL    HW1 4076   2.508   5.961   1.629
 1059SOL    HW2 4077   2.602   5.859   1.542
 1060SOL     OW 4078   6.593   6.237   5.716
 1060SOL    HW1 4079   6.693   6.240   5.707
 1060SOL    HW2 4080   6.553   6.316   5.670
 1061SOL     OW 4081   6.686   3.858   0.175
 1061SOL    HW1 4082   6.760   3.925   0.176
 1061SOL    HW2 4083   6.666   3.829   0.268
 1062SOL     OW 4084   3.626   6.402   5.442
 1062SOL    HW1 4085   3.715   6.407   5.397
 1062SOL    HW2 4086   3.557   6.373   5.375
 1063SOL     OW 4087   1.493   6.159   5.871
 1063SOL    HW1 4088   1.457   6.192   5.958
 1063SOL    HW2 4089   1.574   6.213   5.846
 1064SOL     OW 4090   0.871   4.624   1.104
 1064SOL    HW1 4091   0.967   4.654   1.099
 1064SOL    HW2 4092   0.826   4.672   1.179
 1065SOL     OW 4093   4.441   0.467   4.427
 1065SOL    HW1 4094   4.361   0.480   4.487
 1065SOL    HW2 4095   4.429   0.522   4.344
 1066SOL     OW 4096   4.655   0.132   2.082
 1066SOL    HW1 4097   4.621   0.103   2.171
 1066SOL    HW2 4098   4.581   0.174   2.030
 1067SOL     OW 4099   2.760   1.020   0.426
 1067SOL    HW1 4100   2.818   1.024   0.507
 1067SOL    HW2 4101   2.666   1.000   0.453
 1068SOL     OW 4102   6.212   3.175   1.423
 1068SOL    HW1 4103   6.309   3.183   1.403
 1068SOL    HW2 4104   6.195   3.095   1.480
 1069SOL     OW 4105   6.534   4.012   1.906
 1069SOL    HW1 4106   6.599   3.943   1.873
 1069SOL    HW2 4107   6.583   4.078   1.964
 1070SOL     OW 4108   0.990   0.809   2.297
 1070SOL    HW1 4109   0.959   0.870   2.224
 1070SOL    HW2 4110   0.961   0.716   2.278
 1071SOL     OW 4111   6.941   2.690   5.221
 1071SOL    HW1 4112   6.875   2.764   5.225
 1071SOL    HW2 4113   6.981   2.685   5.129
 1072SOL     OW 4114   3.152   1.285   2.564
 1072SOL    HW1 4115   3.179   1.257   2.472
 1072SOL    HW2 4116   3.161   1.385   2.572
 1073SOL     OW 4117   5.208   1.482   3.462
 1073SOL    HW1 4118   5.170   1.435   3.383
 1073SOL    HW2 4119   5.268   1.420   3.513
 1074SOL     OW 4120   3.169   4.839   2.396
 1074SOL    HW1 4121   3.207   4.785   2.320
 1074SOL    HW2 4122   3.071   4.854   2.380
 1075SOL     OW 4123   6.031   2.757   5.071
 1075SOL    HW1 4124   6.076   2.684   5.019
 1075SOL    HW2 4125   5.957   2.717   5.125
 1076SOL     OW 4126   2.110   3.837   4.978
 1076SOL    HW1 4127   2.175   3.911   4.991
 1076SOL    HW2 4128   2.135   3.784   4.897
 1077SOL     OW 4129   6.679   0.046   0.343
 1077SOL    HW1 4130   6.741   0.044   0.422
 1077SOL    HW2 4131   6.731   0.070   0.261
 1078SOL     OW 4132   6.536   5.847   3.810
 1078SOL    HW1 4133   6.599   5.869   3.885
 1078SOL    HW2 4134   6.581   5.864   3.723
 1079SOL     OW 4135   0.953   5.958   2.580
 1079SOL    HW1 4136   0.968   6.051   2.614
 1079SOL    HW2 4137   0.961   5.957   2.481
 1080SOL     OW 4138   1.908   4.946   5.793
 1080SOL    HW1 4139   1.997   4.952   5.747
 1080SOL    HW2 4140   1.876   4.851   5.791
 1081SOL     OW 4141   6.206   5.733   4.591
 1081SOL    HW1 4142   6.298   5.712   4.623
 1081SOL    HW2 4143   6.182   5.827   4.617
 1082SOL     OW 4144   5.583   0.050   6.214
 1082SOL    HW1 4145   5.575   6.977   6.195
 1082SOL    HW2 4146   5.528   0.101   6.148
 1083SOL     OW 4147   5.269   4.449   0.802
 1083SOL    HW1 4148   5.363   4.478   0.783
 1083SOL    HW2 4149   5.233   4.399   0.724
 1084SOL     OW 4150   0.239   0.108   6.576
 1084SOL    HW1 4151   0.307   0.093   6.649
 1084SOL    HW2 4152   0.252   0.199   6.538
 1085SOL     OW 4153   1.970   4.145   4.118
 1085SOL    HW1 4154   1.892   4.083   4.125
 1085SOL    HW2 4155   2.042   4.101   4.065
 1086SOL     OW 4156   6.258   4.717   0.023
 1086SOL    HW1 4157   6.214   4.660   0.092
 1086SOL    HW2 4158   6.243   4.814   0.046
 1087SOL     OW 4159   2.121   0.568   5.418
 1087SOL    HW1 4160   2.046   0.621   5.380
 1087SOL    HW2 4161   2.139   0.597   5.512
 1088SOL     OW 4162   6.724   4.890   3.424
 1088SOL    HW1 4163   6.693   4.803   3.463
 1088SOL    HW2 4164   6.743   4.878   3.327
 1089SOL     OW 4165   6.456   4.094   4.962
 1089SOL    HW1 4166   6.434   4.027   4.891
 1089SOL    HW2 4167   6.497   4.047   5.040
 1090SOL     OW 4168   5.026   1.441   4.385
 1090SOL    HW1 4169   5.105   1.493   4.417
 1090SOL    HW2 4170   4.970   1.499   4.326
 1091SOL     OW 4171   2.213   2.746   3.342
 1091SOL    HW1 4172   2.273   2.726   3.264
 1091SOL    HW2 4173   2.118   2.731   3.316
 1092SOL     OW 4174   0.808   5.069   0.448
 1092SOL    HW1 4175   0.807   5.023   0.537
 1092SOL    HW2 4176   0.719   5.111   0.431
 1093SOL     OW 4177   2.328   0.275   1.401
 1093SOL    HW1 4178   2.385   0.196   1.379
 1093SOL    HW2 4179   2.315   0.280   1.500
 1094SOL     OW 4180   1.340   0.292   2.976
 1094SOL    HW1 4181   1.436   0.307   3.001
 1094SOL    HW2 4182   1.333   0.214   2.915
 1095SOL     OW 4183   6.995   3.359   0.399
 1095SOL    HW1 4184   0.068   3.365   0.419
 1095SOL    HW2 4185   6.959   3.450   0.382
 1096SOL     OW 4186   3.062   5.657   1.488
 1096SOL    HW1 4187   3.151   5.702   1.490
 1096SOL    HW2 4188   3.058   5.587   1.560
 1097SOL     OW 4189   2.553   5.035   3.581
 1097SOL    HW1 4190   2.579   5.090   3.660
 1097SOL    HW2 4191   2.530   4.942   3.610
 1098SOL     OW 4192   6.196   4.931   0.422
 1098SOL    HW1 4193   6.246   4.910   0.506
 1098SOL    HW2 4194   6.099   4.945   0.443
 1099SOL     OW 4195   4.713   0.922   6.226
 1099SOL    HW1 4196   4.705   1.014   6.188
 1099SOL    HW2 4197   4.626   0.895   6.267
 1100SOL     OW 4198   3.341   1.248   3.628
 1100SOL    HW1 4199   3.322   1.346   3.625
 1100SOL    HW2 4200   3.256   1.197   3.623
 1101SOL     OW 4201   6.184   2.890   5.931
 1101SOL    HW1 4202   6.094   2.888   5.975
 1101SOL    HW2 4203   6.256   2.888   6.000
 1102SOL     OW 4204   2.268   0.635   4.446
 1102SOL    HW1 4205   2.282   0.714   4.387
 1102SOL    HW2 4206   2.171   0.626   4.468
 1103SOL     OW 4207   3.282   0.599   6.464
 1103SOL    HW1 4208   3.322   0.646   6.386
 1103SOL    HW2 4209   3.182   0.607   6.460
 1104SOL     OW 4210   0.277   3.611   3.578
 1104SOL    HW1 4211   0.357   3.551   3.566
 1104SOL    HW2 4212   0.276   3.681   3.506
 1105SOL     OW 4213   5.310   1.218   4.937
 1105SOL    HW1 4214   5.325   1.173   4.849
 1105SOL    HW2 4215   5.390   1.272   4.961
 1106SOL     OW 4216   0.520   1.587   0.549
 1106SOL    HW1 4217   0.521   1.611   0.646
 1106SOL    HW2 4218   0.515   1.671   0.494
 1107SOL     OW 4219   0.458   0.582   0.200
 1107SOL    HW1 4220   0.508   0.652   0.149
 1107SOL    HW2 4221   0.501   0.493   0.185
 1108SOL     OW 4222   2.694   6.503   4.084
 1108SOL    HW1 4223   2.763   6.546   4.026
 1108SOL    HW2 4224   2.604   6.540   4.062
 1109SOL     OW 4225   5.262   1.528   4.532
 1109SOL    HW1 4226   5.249   1.612   4.585
 1109SOL    HW2 4227   5.317   1.463   4.585
 1110SOL     OW 4228   3.497   0.695   2.226
 1110SOL    HW1 4229   3.560   0.678   2.302
 1110SOL    HW2 4230   3.408   0.654   2.246
 1111SOL     OW 4231   4.805   3.458   6.252
 1111SOL    HW1 4232   4.772   3.483   6.161
 1111SOL    HW2 4233   4.772   3.525   6.319
 1112SOL     OW 4234   5.392   0.553   2.187
 1112SOL    HW1 4235   5.386   0.462   2.144
 1112SOL    HW2 4236   5.412   0.542   2.284
 1113SOL     OW 4237   6.234   4.623   2.256
 1113SOL    HW1 4238   6.185   4.705   2.225
 1113SOL    HW2 4239   6.233   4.619   2.355
 1114SOL     OW 4240   4.555   3.247   5.840
 1114SOL    HW1 4241   4.507   3.329   5.810
 1114SOL    HW2 4242   4.491   3.169   5.838
 1115SOL     OW 4243   3.292   4.143   5.808
 1115SOL    HW1 4244   3.286   4.243   5.803
 1115SOL    HW2 4245   3.242   4.103   5.731
 1116SOL     OW 4246   5.055   0.315   6.110
 1116SOL    HW1 4247   5.069   0.409   6.080
 1116SOL    HW2 4248   5.122   0.293   6.181
 1117SOL     OW 4249   1.016   2.724   1.766
 1117SOL    HW1 4250   1.026   2.822   1.753
 1117SOL    HW2 4251   0.926   2.704   1.806
 1118SOL     OW 4252   3.092   4.954   6.934
 1118SOL    HW1 4253   3.047   4.871   6.899
 1118SOL    HW2 4254   3.190   4.937   6.942
 1119SOL     OW 4255   4.210   5.268   3.949
 1119SOL    HW1 4256   4.293   5.212   3.955
 1119SOL    HW2 4257   4.181   5.273   3.853
 1120SOL     OW 4258   6.942   5.214   0.931
 1120SOL    HW1 4259   6.962   5.163   0.847
 1120SOL    HW2 4260   6.966   5.158   1.011
 1121SOL     OW 4261   0.239   4.930   4.499
 1121SOL    HW1 4262   0.169   4.982   4.450
 1121SOL    HW2 4263   0.263   4.977   4.584
 1122SOL     OW 4264   5.455   2.521   1.644
 1122SOL    HW1 4265   5.467   2.510   1.742
 1122SOL    HW2 4266   5.461   2.618   1.620
 1123SOL     OW 4267   4.042   2.209   3.229
 1123SOL    HW1 4268   4.061   2.206   3.131
 1123SOL    HW2 4269   3.944   2.197   3.244
 1124SOL     OW 4270   2.175   3.078   4.937
 1124SOL    HW1 4271   2.256   3.032   4.975
 1124SOL    HW2 4272   2.156   3.161   4.989
 1125SOL     OW 4273   0.912   4.182   3.914
 1125SOL    HW1 4274   0.937   4.122   3.990
 1125SOL    HW2 4275   0.985   4.249   3.899
 1126SOL     OW 4276   3.773   5.178   5.255
 1126SOL    HW1 4277   3.726   5.264   5.236
 1126SOL    HW2 4278   3.844   5.193   5.323
 1127SOL     OW 4279   5.913   6.464   3.012
 1127SOL    HW1 4280   5.958   6.488   3.098
 1127SOL    HW2 4281   5.849   6.536   2.987
 1128SOL     OW 4282   6.207   1.962   3.515
 1128SOL    HW1 4283   6.255   1.982   3.430
 1128SOL    HW2 4284   6.120   1.917   3.494
 1129SOL     OW 4285   1.881   0.821   1.220
 1129SOL    HW1 4286   1.907   0.732   1.183
 1129SOL    HW2 4287   1.953   0.888   1.202
 1130SOL     OW 4288   2.104   5.632   2.929
 1130SOL    HW1 4289   2.095   5.592   2.838
 1130SOL    HW2 4290   2.102   5.559   2.998
 1131SOL     OW 4291   1.560   6.649   4.462
 1131SOL    HW1 4292   1.615   6.569   4.483
 1131SOL    HW2 4293   1.496   6.666   4.537
 1132SOL     OW 4294   3.637   1.474   3.010
 1132SOL    HW1 4295   3.539   1.455   3.019
 1132SOL    HW2 4296   3.650   1.555   2.953
 1133SOL     OW 4297   0.991   6.609   4.743
 1133SOL    HW1 4298   0.923   6.621   4.815
 1133SOL    HW2 4299   0.987   6.515   4.709
 1134SOL     OW 4300   4.387   0.324   1.490
 1134SOL    HW1 4301   4.463   0.388   1.503
 1134SOL    HW2 4302   4.327   0.358   1.418
 1135SOL     OW 4303   2.095   6.119   3.775
 1135SOL    HW1 4304   2.126   6.101   3.868
 1135SOL    HW2 4305   2.145   6.061   3.711
 1136SOL     OW 4306   3.006   5.715   2.173
 1136SOL    HW1 4307   3.020   5.633   2.229
 1136SOL    HW2 4308   2.913   5.713   2.135
 1137SOL     OW 4309   0.294   5.470   6.289
 1137SOL    HW1 4310   0.349   5.523   6.224
 1137SOL    HW2 4311   0.202   5.458   6.254
 1138SOL     OW 4312   1.935   2.973   4.975
 1138SOL    HW1 4313   1.911   2.908   4.903
 1138SOL    HW2 4314   2.033   2.989   4.973
 1139SOL     OW 4315   2.974   5.198   4.200
 1139SOL    HW1 4316   3.005   5.112   4.240
 1139SOL    HW2 4317   3.052   5.258   4.184
 1140SOL     OW 4318   1.534   1.437   1.899
 1140SOL    HW1 4319   1.538   1.533   1.872
 1140SOL    HW2 4320   1.541   1.431   1.999
 1141SOL     OW 4321   6.007   4.676   5.942
 1141SOL    HW1 4322   6.087   4.711   5.990
 1141SOL    HW2 4323   6.031   4.655   5.847
 1142SOL     OW 4324   2.690   6.931   2.758
 1142SOL    HW1 4325   2.779   6.910   2.717
 1142SOL    HW2 4326   2.647   6.847   2.789
 1143SOL     OW 4327   0.730   3.585   1.896
 1143SOL    HW1 4328   0.636   3.619   1.903
 1143SOL    HW2 4329   0.782   3.643   1.835
 1144SOL     OW 4330   5.765   4.317   2.350
 1144SOL    HW1 4331   5.751   4.268   2.436
 1144SOL    HW2 4332   5.704   4.280   2.281
 1145SOL     OW 4333   0.792   1.970   0.014
 1145SOL    HW1 4334   0.710   2.011   0.054
 1145SOL    HW2 4335   0.790   1.871   0.027
 1146SOL     OW 4336   0.515   1.128   1.798
 1146SOL    HW1 4337   0.514   1.196   1.724
 1146SOL    HW2 4338   0.440   1.147   1.862
 1147SOL     OW 4339   3.462   6.651   0.898
 1147SOL    HW1 4340   3.465   6.650   0.998
 1147SOL    HW2 4341   3.526   6.720   0.864
 1148SOL     OW 4342   3.643   5.697   2.600
 1148SOL    HW1 4343   3.600   5.778   2.562
 1148SOL    HW2 4344   3.574   5.627   2.616
 1149SOL     OW 4345   5.148   2.041   1.242
 1149SOL    HW1 4346   5.155   2.117   1.307
 1149SOL    HW2 4347   5.080   2.062   1.172
 1150SOL     OW 4348   1.357   4.200   6.943
 1150SOL    HW1 4349   1.267   4.244   6.934
 1150SOL    HW2 4350   1.407   4.209   6.857
 1151SOL     OW 4351   6.264   5.600   3.718
 1151SOL    HW1 4352   6.164   5.597   3.718
 1151SOL    HW2 4353   6.299   5.548   3.797
 1152SOL     OW 4354   4.851   6.873   6.600
 1152SOL    HW1 4355   4.933   6.824   6.627
 1152SOL    HW2 4356   4.856   6.967   6.634
 1153SOL     OW 4357   6.355   0.563   1.145
 1153SOL    HW1 4358   6.392   0.527   1.060
 1153SOL    HW2 4359   6.404   0.522   1.223
 1154SOL     OW 4360   1.434   3.337   1.920
 1154SOL    HW1 4361   1.485   3.256   1.891
 1154SOL    HW2 4362   1.452   3.355   2.017
 1155SOL     OW 4363   2.772   6.569   4.723
 1155SOL    HW1 4364   2.821   6.513   4.657
 1155SOL    HW2 4365   2.784   6.533   4.815
 1156SOL     OW 4366   4.127   1.926   4.420
 1156SOL    HW1 4367   4.092   2.013   4.454
 1156SOL    HW2 4368   4.198   1.893   4.481
 1157SOL     OW 4369   3.726   0.517   5.716
 1157SOL    HW1 4370   3.764   0.530   5.625
 1157SOL    HW2 4371   3.720   0.419   5.736
 1158SOL     OW 4372   6.039   6.253   2.971
 1158SOL    HW1 4373   6.005   6.187   3.037
 1158SOL    HW2 4374   5.998   6.342   2.989
 1159SOL     OW 4375   6.660   6.159   2.531
 1159SOL    HW1 4376   6.587   6.226   2.516
 1159SOL    HW2 4377   6.624   6.067   2.517
 1160SOL     OW 4378   4.383   0.742   0.448
 1160SOL    HW1 4379   4.449   0.667   0.450
 1160SOL    HW2 4380   4.294   0.709   0.417
 1161SOL     OW 4381   0.579   5.398   6.827
 1161SOL    HW1 4382   0.566   5.409   6.728
 1161SOL    HW2 4383   0.674   5.372   6.845
 1162SOL     OW 4384   2.014   3.018   5.246
 1162SOL    HW1 4385   1.986   3.023   5.150
 1162SOL    HW2 4386   1.999   3.107   5.289
 1163SOL     OW 4387   6.107   4.373   1.521
 1163SOL    HW1 4388   6.134   4.422   1.604
 1163SOL    HW2 4389   6.024   4.413   1.484
 1164SOL     OW 4390   4.916   1.683   4.279
 1164SOL    HW1 4391   4.826   1.687   4.235
 1164SOL    HW2 4392   4.916   1.742   4.360
 1165SOL     OW 4393   3.702   6.235   3.598
 1165SOL    HW1 4394   3.795   6.256   3.626
 1165SOL    HW2 4395   3.661   6.315   3.554
 1166SOL     OW 4396   2.786   6.243   6.647
 1166SOL    HW1 4397   2.687   6.245   6.633
 1166SOL    HW2 4398   2.832   6.279   6.566
 1167SOL     OW 4399   5.397   4.729   2.471
 1167SOL    HW1 4400   5.386   4.817   2.516
 1167SOL    HW2 4401   5.308   4.693   2.445
 1168SOL     OW 4402   6.024   2.266   2.960
 1168SOL    HW1 4403   6.050   2.193   2.897
 1168SOL    HW2 4404   5.927   2.288   2.947
 1169SOL     OW 4405   5.639   0.982   4.805
 1169SOL    HW1 4406   5.540   0.968   4.803
 1169SOL    HW2 4407   5.678   0.937   4.885
 1170SOL     OW 4408   4.847   6.906   3.481
 1170SOL    HW1 4409   4.773   6.973   3.474
 1170SOL    HW2 4410   4.886   6.910   3.573
 1171SOL     OW 4411   1.460   0.576   1.184
 1171SOL    HW1 4412   1.484   0.489   1.141
 1171SOL    HW2 4413   1.506   0.584   1.272
 1172SOL     OW 4414   6.740   3.766   6.743
 1172SOL    HW1 4415   6.771   3.814   6.661
 1172SOL    HW2 4416   6.675   3.694   6.718
 1173SOL     OW 4417   3.161   1.619   1.387
 1173SOL    HW1 4418   3.178   1.606   1.289
 1173SOL    HW2 4419   3.164   1.531   1.433
 1174SOL     OW 4420   3.668   3.934   1.008
 1174SOL    HW1 4421   3.610   3.865   1.050
 1174SOL    HW2 4422   3.754   3.942   1.059
 1175SOL     OW 4423   3.562   3.277   4.972
 1175SOL    HW1 4424   3.627   3.322   4.912
 1175SOL    HW2 4425   3.551   3.181   4.944
 1176SOL     OW 4426   5.532   3.892   6.333
 1176SOL    HW1 4427   5.498   3.965   6.392
 1176SOL    HW2 4428   5.456   3.835   6.302
 1177SOL     OW 4429   6.572   2.065   4.749
 1177SOL    HW1 4430   6.596   2.027   4.838
 1177SOL    HW2 4431   6.479   2.100   4.752
 1178SOL     OW 4432   3.155   4.781   0.209
 1178SOL    HW1 4433   3.240   4.783   0.262
 1178SOL    HW2 4434   3.177   4.756   0.114
 1179SOL     OW 4435   2.560   5.333   0.592
 1179SOL    HW1 4436   2.558   5.398   0.668
 1179SOL    HW2 4437   2.581   5.242   0.626
 1180SOL     OW 4438   2.889   5.745   1.052
 1180SOL    HW1 4439   2.963   5.773   1.113
 1180SOL    HW2 4440   2.848   5.826   1.011
 1181SOL     OW 4441   0.067   5.585   6.446
 1181SOL    HW1 4442   0.156   5.541   6.429
 1181SOL    HW2 4443   0.080   5.683   6.456
 1182SOL     OW 4444   3.631   5.224   2.916
 1182SOL    HW1 4445   3.650   5.322   2.904
 1182SOL    HW2 4446   3.597   5.186   2.830
 1183SOL     OW 4447   1.987   3.937   6.358
 1183SOL    HW1 4448   1.949   3.988   6.281
 1183SOL    HW2 4449   2.087   3.934   6.350
 1184SOL     OW 4450   1.499   0.264   5.211
 1184SOL    HW1 4451   1.400   0.254   5.207
 1184SOL    HW2 4452   1.541   0.205   5.142
 1185SOL     OW 4453   6.817   1.217   6.695
 1185SOL    HW1 4454   6.863   1.246   6.611
 1185SOL    HW2 4455   6.834   1.119   6.710
 1186SOL     OW 4456   4.810   5.860   4.417
 1186SOL    HW1 4457   4.830   5.956   4.434
 1186SOL    HW2 4458   4.786   5.814   4.502
 1187SOL     OW 4459   6.589   0.061   5.952
 1187SOL    HW1 4460   6.607   0.092   6.045
 1187SOL    HW2 4461   6.647   7.006   5.932
 1188SOL     OW 4462   3.021   6.206   4.884
 1188SOL    HW1 4463   3.045   6.110   4.870
 1188SOL    HW2 4464   3.072   6.263   4.820
 1189SOL     OW 4465   6.474   3.524   2.971
 1189SOL    HW1 4466   6.490   3.427   2.990
 1189SOL    HW2 4467   6.498   3.578   3.051
 1190SOL     OW 4468   2.178   6.440   3.100
 1190SOL    HW1 4469   2.116   6.435   3.178
 1190SOL    HW2 4470   2.230   6.355   3.093
 1191SOL     OW 4471   4.329   5.471   3.116
 1191SOL    HW1 4472   4.267   5.546   3.138
 1191SOL    HW2 4473   4.278   5.385   3.116
 1192SOL     OW 4474   4.127   5.667   2.808
 1192SOL    HW1 4475   4.143   5.760   2.776
 1192SOL    HW2 4476   4.214   5.623   2.828
 1193SOL     OW 4477   5.936   4.685   4.364
 1193SOL    HW1 4478   5.990   4.672   4.448
 1193SOL    HW2 4479   5.853   4.736   4.386
 1194SOL     OW 4480   5.236   0.765   1.282
 1194SOL    HW1 4481   5.140   0.742   1.292
 1194SOL    HW2 4482   5.275   0.784   1.372
 1195SOL     OW 4483   6.005   4.101   1.864
 1195SOL    HW1 4484   6.089   4.141   1.900
 1195SOL    HW2 4485   5.927   4.130   1.920
 1196SOL     OW 4486   6.672   6.439   3.760
 1196SOL    HW1 4487   6.696   6.346   3.732
 1196SOL    HW2 4488   6.734   6.470   3.831
 1197SOL     OW 4489   3.606   0.462   6.705
 1197SOL    HW1 4490   3.516   0.421   6.690
 1197SOL    HW2 4491   3.647   0.422   6.787
 1198SOL     OW 4492   1.435   1.948   0.862
 1198SOL    HW1 4493   1.369   1.914   0.795
 1198SOL    HW2 4494   1.522   1.902   0.850
 1199SOL     OW 4495   5.042   5.160   1.402
 1199SOL    HW1 4496   5.108   5.234   1.417
 1199SOL    HW2 4497   5.090   5.079   1.369
 1200SOL     OW 4498   3.437   3.226   2.790
 1200SOL    HW1 4499   3.525   3.241   2.836
 1200SOL    HW2 4500   3.418   3.303   2.729
 1201SOL     OW 4501   1.432   1.378   5.026
 1201SOL    HW1 4502   1.461   1.419   5.113
 1201SOL    HW2 4503   1.380   1.295   5.045
 1202SOL     OW 4504   0.929   5.309   6.774
 1202SOL    HW1 4505   0.885   5.288   6.861
 1202SOL    HW2 4506   0.899   5.243   6.705
 1203SOL     OW 4507   4.977   5.860   6.002
 1203SOL    HW1 4508   5.063   5.812   6.023
 1203SOL    HW2 4509   4.926   5.808   5.934
 1204SOL     OW 4510   2.307   0.784   1.628
 1204SOL    HW1 4511   2.252   0.732   1.562
 1204SOL    HW2 4512   2.351   0.721   1.692
 1205SOL     OW 4513   5.188   4.216   1.626
 1205SOL    HW1 4514   5.097   4.199   1.662
 1205SOL    HW2 4515   5.181   4.256   1.535
 1206SOL     OW 4516   2.913   3.390   4.604
 1206SOL    HW1 4517   2.896   3.488   4.598
 1206SOL    HW2 4518   2.920   3.363   4.700
 1207SOL     OW 4519   2.458   6.896   1.672
 1207SOL    HW1 4520   2.386   6.898   1.602
 1207SOL    HW2 4521   2.538   6.849   1.636
 1208SOL     OW 4522   3.731   3.843   0.387
 1208SOL    HW1 4523   3.760   3.906   0.460
 1208SOL    HW2 4524   3.635   3.820   0.400
 1209SOL     OW 4525   3.359   0.305   5.529
 1209SOL    HW1 4526   3.343   0.402   5.509
 1209SOL    HW2 4527   3.341   0.289   5.626
 1210SOL     OW 4528   2.973   6.701   3.701
 1210SOL    HW1 4529   3.023   6.779   3.664
 1210SOL    HW2 4530   2.880   6.701   3.665
 1211SOL     OW 4531   1.106   4.047   1.150
 1211SOL    HW1 4532   1.122   4.024   1.054
 1211SOL    HW2 4533   1.063   4.137   1.156
 1212SOL     OW 4534   0.124   0.425   6.793
 1212SOL    HW1 4535   0.163   0.444   6.703
 1212SOL    HW2 4536   0.076   0.506   6.826
 1213SOL     OW 4537   5.865   2.863   0.686
 1213SOL    HW1 4538   5.906   2.824   0.769
 1213SOL    HW2 4539   5.868   2.963   0.692
 1214SOL     OW 4540   6.939   1.761   1.110
 1214SOL    HW1 4541   6.956   1.827   1.037
 1214SOL    HW2 4542   6.980   1.673   1.085
 1215SOL     OW 4543   1.288   4.666   4.461
 1215SOL    HW1 4544   1.324   4.668   4.554
 1215SOL    HW2 4545   1.353   4.711   4.399
 1216SOL     OW 4546   4.302   0.543   6.674
 1216SOL    HW1 4547   4.280   0.500   6.586
 1216SOL    HW2 4548   4.220   0.586   6.711
 1217SOL     OW 4549   2.168   4.634   0.553
 1217SOL    HW1 4550   2.149   4.557   0.613
 1217SOL    HW2 4551   2.087   4.693   0.547
 1218SOL     OW 4552   1.152   4.740   4.127
 1218SOL    HW1 4553   1.145   4.805   4.051
 1218SOL    HW2 4554   1.143   4.789   4.213
 1219SOL     OW 4555   4.598   6.434   1.744
 1219SOL    HW1 4556   4.608   6.339   1.713
 1219SOL    HW2 4557   4.530   6.480   1.686
 1220SOL     OW 4558   1.114   5.178   2.903
 1220SOL    HW1 4559   1.065   5.202   2.819
 1220SOL    HW2 4560   1.059   5.203   2.982
 1221SOL     OW 4561   5.980   2.982   5.394
 1221SOL    HW1 4562   5.905   2.929   5.353
 1221SOL    HW2 4563   5.993   2.954   5.489
 1222SOL     OW 4564   6.414   6.579   6.758
 1222SOL    HW1 4565   6.477   6.638   6.709
 1222SOL    HW2 4566   6.437   6.483   6.740
 1223SOL     OW 4567   3.584   0.336   0.622
 1223SOL    HW1 4568   3.548   0.299   0.708
 1223SOL    HW2 4569   3.681   0.359   0.634
 1224SOL     OW 4570   2.486   0.786   0.979
 1224SOL    HW1 4571   2.402   0.731   0.972
 1224SOL    HW2 4572   2.471   0.875   0.938
 1225SOL     OW 4573   3.297   3.899   6.132
 1225SOL    HW1 4574   3.230   3.964   6.096
 1225SOL    HW2 4575   3.251   3.833   6.191
 1226SOL     OW 4576   2.304   4.767   1.145
 1226SOL    HW1 4577   2.378   4.799   1.205
 1226SOL    HW2 4578   2.283   4.672   1.167
 1227SOL     OW 4579   6.959   3.705   6.977
 1227SOL    HW1 4580   6.870   3.670   7.005
 1227SOL    HW2 4581   6.947   3.767   6.900
 1228SOL     OW 4582   3.330   2.459   6.202
 1228SOL    HW1 4583   3.397   2.534   6.202
 1228SOL    HW2 4584   3.264   2.473   6.129
 1229SOL     OW 4585   4.038   4.775   6.479
 1229SOL    HW1 4586   3.983   4.743   6.402
 1229SOL    HW2 4587   4.090   4.856   6.452
 1230SOL     OW 4588   4.222   6.722   3.435
 1230SOL    HW1 4589   4.152   6.757   3.497
 1230SOL    HW2 4590   4.226   6.780   3.354
 1231SOL     OW 4591   2.122   3.531   4.900
 1231SOL    HW1 4592   2.052   3.548   4.969
 1231SOL    HW2 4593   2.212   3.530   4.944
 1232SOL     OW 4594   1.530   2.470   5.293
 1232SOL    HW1 4595   1.577   2.384   5.313
 1232SOL    HW2 4596   1.481   2.462   5.207
 1233SOL     OW 4597   0.799   2.476   5.698
 1233SOL    HW1 4598   0.830   2.570   5.710
 1233SOL    HW2 4599   0.846   2.417   5.763
 1234SOL     OW 4600   6.295   4.327   4.941
 1234SOL    HW1 4601   6.341   4.244   4.973
 1234SOL    HW2 4602   6.282   4.322   4.842
 1235SOL     OW 4603   6.467   5.916   3.359
 1235SOL    HW1 4604   6.540   5.861   3.318
 1235SOL    HW2 4605   6.412   5.858   3.419
 1236SOL     OW 4606   5.165   0.689   6.398
 1236SOL    HW1 4607   5.074   0.693   6.356
 1236SOL    HW2 4608   5.208   0.779   6.394
 1237SOL     OW 4609   2.593   4.705   6.661
 1237SOL    HW1 4610   2.574   4.640   6.735
 1237SOL    HW2 4611   2.679   4.679   6.616
 1238SOL     OW 4612   1.843   1.527   0.976
 1238SOL    HW1 4613   1.877   1.530   0.883
 1238SOL    HW2 4614   1.908   1.572   1.037
 1239SOL     OW 4615   6.968   6.295   6.777
 1239SOL    HW1 4616   6.879   6.324   6.742
 1239SOL    HW2 4617   6.957   6.208   6.826
 1240SOL     OW 4618   5.411   6.031   1.960
 1240SOL    HW1 4619   5.327   6.084   1.949
 1240SOL    HW2 4620   5.399   5.965   2.034
 1241SOL     OW 4621   6.465   3.536   4.649
 1241SOL    HW1 4622   6.513   3.541   4.561
 1241SOL    HW2 4623   6.506   3.602   4.712
 1242SOL     OW 4624   1.632   3.666   0.561
 1242SOL    HW1 4625   1.719   3.693   0.601
 1242SOL    HW2 4626   1.624   3.704   0.469
 1243SOL     OW 4627   2.210   5.379   5.314
 1243SOL    HW1 4628   2.122   5.337   5.337
 1243SOL    HW2 4629   2.223   5.460   5.371
 1244SOL     OW 4630   0.525   1.068   3.583
 1244SOL    HW1 4631   0.445   1.047   3.527
 1244SOL    HW2 4632   0.563   0.983   3.619
 1245SOL     OW 4633   2.827   3.946   6.997
 1245SOL    HW1 4634   2.794   3.853   6.984
 1245SOL    HW2 4635   2.856   3.984   6.909
 1246SOL     OW 4636   2.462   6.537   1.779
 1246SOL    HW1 4637   2.554   6.509   1.806
 1246SOL    HW2 4638   2.461   6.561   1.682
 1247SOL     OW 4639   2.218   6.793   6.154
 1247SOL    HW1 4640   2.284   6.764   6.085
 1247SOL    HW2 4641   2.266   6.825   6.236
 1248SOL     OW 4642   1.882   5.641   3.085
 1248SOL    HW1 4643   1.833   5.726   3.104
 1248SOL    HW2 4644   1.961   5.660   3.027
 1249SOL     OW 4645   5.696   3.353   3.302
 1249SOL    HW1 4646   5.678   3.274   3.362
 1249SOL    HW2 4647   5.754   3.419   3.350
 1250SOL     OW 4648   1.060   4.868   3.886
 1250SOL    HW1 4649   0.972   4.909   3.864
 1250SOL    HW2 4650   1.107   4.842   3.802
 1251SOL     OW 4651   3.919   0.834   4.306
 1251SOL    HW1 4652   3.924   0.933   4.292
 1251SOL    HW2 4653   3.855   0.815   4.381
 1252SOL     OW 4654   3.199   3.998   5.602
 1252SOL    HW1 4655   3.244   4.056   5.534
 1252SOL    HW2 4656   3.174   3.911   5.560
 1253SOL     OW 4657   3.638   5.162   1.982
 1253SOL    HW1 4658   3.636   5.076   2.033
 1253SOL    HW2 4659   3.698   5.226   2.029
 1254SOL     OW 4660   6.203   1.918   2.739
 1254SOL    HW1 4661   6.181   1.882   2.829
 1254SOL    HW2 4662   6.268   1.994   2.748
 1255SOL     OW 4663   0.246   0.008   5.601
 1255SOL    HW1 4664   0.183   0.060   5.542
 1255SOL    HW2 4665   0.297   6.968   5.546
 1256SOL     OW 4666   6.262   6.813   3.287
 1256SOL    HW1 4667   6.264   6.717   3.316
 1256SOL    HW2 4668   6.168   6.839   3.266
 1257SOL     OW 4669   6.852   0.778   3.460
 1257SOL    HW1 4670   6.901   0.715   3.399
 1257SOL    HW2 4671   6.917   0.822   3.521
 1258SOL     OW 4672   0.733   6.860   3.285
 1258SOL    HW1 4673   0.712   6.850   3.188
 1258SOL    HW2 4674   0.799   6.934   3.297
 1259SOL     OW 4675   4.170   1.887   4.892
 1259SOL    HW1 4676   4.263   1.920   4.880
 1259SOL    HW2 4677   4.111   1.962   4.923
 1260SOL     OW 4678   0.823   1.186   0.065
 1260SOL    HW1 4679   0.902   1.191   0.003
 1260SOL    HW2 4680   0.854   1.153   0.155
 1261SOL     OW 4681   0.429   5.382   0.386
 1261SOL    HW1 4682   0.426   5.282   0.379
 1261SOL    HW2 4683   0.456   5.420   0.298
 1262SOL     OW 4684   5.517   5.762   1.852
 1262SOL    HW1 4685   5.559   5.751   1.943
 1262SOL    HW2 4686   5.482   5.855   1.843
 1263SOL     OW 4687   1.347   2.209   3.660
 1263SOL    HW1 4688   1.296   2.266   3.724
 1263SOL    HW2 4689   1.417   2.264   3.615
 1264SOL     OW 4690   0.891   2.638   5.221
 1264SOL    HW1 4691   0.909   2.567   5.289
 1264SOL    HW2 4692   0.808   2.616   5.171
 1265SOL     OW 4693   6.078   6.202   5.479
 1265SOL    HW1 4694   6.018   6.216   5.558
 1265SOL    HW2 4695   6.058   6.113   5.437
 1266SOL     OW 4696   1.718   0.656   4.791
 1266SOL    HW1 4697   1.702   0.744   4.836
 1266SOL    HW2 4698   1.722   0.583   4.860
 1267SOL     OW 4699   4.555   0.027   2.304
 1267SOL    HW1 4700   4.486   0.084   2.348
 1267SOL    HW2 4701   4.641   0.035   2.354
 1268SOL     OW 4702   4.273   2.499   5.428
 1268SOL    HW1 4703   4.362   2.493   5.384
 1268SOL    HW2 4704   4.203   2.520   5.360
 1269SOL     OW 4705   6.079   2.219   3.867
 1269SOL    HW1 4706   5.979   2.216   3.860
 1269SOL    HW2 4707   6.116   2.131   3.839
 1270SOL     OW 4708   0.646   4.783   2.944
 1270SOL    HW1 4709   0.576   4.794   2.874
 1270SOL    HW2 4710   0.604   4.759   3.031
 1271SOL     OW 4711   1.200   1.239   1.735
 1271SOL    HW1 4712   1.122   1.238   1.672
 1271SOL    HW2 4713   1.169   1.262   1.827
 1272SOL     OW 4714   6.868   4.090   0.180
 1272SOL    HW1 4715   6.967   4.072   0.181
 1272SOL    HW2 4716   6.839   4.124   0.269
 1273SOL     OW 4717   1.571   4.199   5.378
 1273SOL    HW1 4718   1.593   4.124   5.316
 1273SOL    HW2 4719   1.610   4.284   5.344
 1274SOL     OW 4720   0.609   4.910   2.436
 1274SOL    HW1 4721   0.624   5.009   2.437
 1274SOL    HW2 4722   0.529   4.888   2.493
 1275SOL     OW 4723   3.066   0.494   3.037
 1275SOL    HW1 4724   3.079   0.541   2.949
 1275SOL    HW2 4725   3.123   0.538   3.107
 1276SOL     OW 4726   5.096   4.358   3.869
 1276SOL    HW1 4727   5.131   4.383   3.960
 1276SOL    HW2 4728   5.087   4.259   3.863
 1277SOL     OW 4729   0.256   5.896   0.237
 1277SOL    HW1 4730   0.179   5.948   0.200
 1277SOL    HW2 4731   0.342   5.943   0.216
 1278SOL     OW 4732   1.628   6.234   2.670
 1278SOL    HW1 4733   1.544   6.272   2.710
 1278SOL    HW2 4734   1.643   6.272   2.579
 1279SOL     OW 4735   2.736   2.109   6.720
 1279SOL    HW1 4736   2.736   2.024   6.667
 1279SOL    HW2 4737   2.717   2.186   6.660
 1280SOL     OW 4738   2.858   1.526   3.370
 1280SOL    HW1 4739   2.949   1.541   3.331
 1280SOL    HW2 4740   2.823   1.438   3.341
 1281SOL     OW 4741   4.045   5.847   4.124
 1281SOL    HW1 4742   3.989   5.921   4.162
 1281SOL    HW2 4743   4.128   5.886   4.083
 1282SOL     OW 4744   0.110   2.584   1.133
 1282SOL    HW1 4745   0.154   2.574   1.222
 1282SOL    HW2 4746   0.176   2.621   1.068
 1283SOL     OW 4747   6.828   3.023   4.985
 1283SOL    HW1 4748   6.775   3.015   4.900
 1283SOL    HW2 4749   6.818   3.115   5.022
 1284SOL     OW 4750   4.001   1.823   1.228
 1284SOL    HW1 4751   3.925   1.882   1.199
 1284SOL    HW2 4752   3.995   1.808   1.327
 1285SOL     OW 4753   3.566   1.630   4.621
 1285SOL    HW1 4754   3.505   1.685   4.678
 1285SOL    HW2 4755   3.518   1.600   4.539
 1286SOL     OW 4756   4.563   2.228   1.977
 1286SOL    HW1 4757   4.502   2.164   1.930
 1286SOL    HW2 4758   4.563   2.207   2.075
 1287SOL     OW 4759   6.663   4.114   4.758
 1287SOL    HW1 4760   6.605   4.101   4.838
 1287SOL    HW2 4761   6.730   4.040   4.752
 1288SOL     OW 4762   4.560   4.302   6.479
 1288SOL    HW1 4763   4.495   4.342   6.414
 1288SOL    HW2 4764   4.629   4.251   6.429
 1289SOL     OW 4765   7.012   0.197   1.587
 1289SOL    HW1 4766   7.000   0.190   1.686
 1289SOL    HW2 4767   0.014   0.290   1.563
 1290SOL     OW 4768   1.317   0.004   6.774
 1290SOL    HW1 4769   1.271   7.017   6.862
 1290SOL    HW2 4770   1.256   7.001   6.700
 1291SOL     OW 4771   6.590   5.390   2.979
 1291SOL    HW1 4772   6.664   5.448   3.012
 1291SOL    HW2 4773   6.574   5.316   3.043
 1292SOL     OW 4774   1.271   6.076   2.571
 1292SOL    HW1 4775   1.268   5.995   2.512
 1292SOL    HW2 4776   1.264   6.158   2.514
 1293SOL     OW 4777   3.060   1.262   6.737
 1293SOL    HW1 4778   3.107   1.335   6.786
 1293SOL    HW2 4779   3.004   1.302   6.664
 1294SOL     OW 4780   2.028   3.878   5.457
 1294SOL    HW1 4781   2.067   3.857   5.367
 1294SOL    HW2 4782   2.081   3.951   5.500
 1295SOL     OW 4783   6.600   3.920   0.891
 1295SOL    HW1 4784   6.504   3.901   0.872
 1295SOL    HW2 4785   6.615   3.923   0.990
 1296SOL     OW 4786   5.521   6.643   5.688
 1296SOL    HW1 4787   5.520   6.550   5.722
 1296SOL    HW2 4788   5.616   6.670   5.668
 1297SOL     OW 4789   0.407   0.366   2.257
 1297SOL    HW1 4790   0.429   0.314   2.340
 1297SOL    HW2 4791   0.345   0.440   2.280
 1298SOL     OW 4792   5.667   5.502   2.238
 1298SOL    HW1 4793   5.679   5.410   2.201
 1298SOL    HW2 4794   5.588   5.503   2.300
 1299SOL     OW 4795   1.797   3.482   4.623
 1299SOL    HW1 4796   1.761   3.526   4.705
 1299SOL    HW2 4797   1.807   3.551   4.550
 1300SOL     OW 4798   1.201   4.621   1.588
 1300SOL    HW1 4799   1.172   4.534   1.626
 1300SOL    HW2 4800   1.168   4.696   1.646
 1301SOL     OW 4801   1.158   0.780   1.805
 1301SOL    HW1 4802   1.168   0.852   1.874
 1301SOL    HW2 4803   1.214   0.801   1.726
 1302SOL     OW 4804   5.581   6.351   5.441
 1302SOL    HW1 4805   5.545   6.385   5.354
 1302SOL    HW2 4806   5.677   6.325   5.428
 1303SOL     OW 4807   4.175   6.796   1.629
 1303SOL    HW1 4808   4.208   6.731   1.560
 1303SOL    HW2 4809   4.076   6.800   1.627
 1304SOL     OW 4810   0.483   0.994   1.486
 1304SOL    HW1 4811   0.554   1.008   1.417
 1304SOL    HW2 4812   0.419   1.071   1.483
 1305SOL     OW 4813   5.272   4.152   0.228
 1305SOL    HW1 4814   5.300   4.129   0.321
 1305SOL    HW2 4815   5.337   4.114   0.162
 1306SOL     OW 4816   2.040   5.724   4.597
 1306SOL    HW1 4817   1.981   5.789   4.549
 1306SOL    HW2 4818   2.056   5.643   4.539
 1307SOL     OW 4819   2.124   2.522   4.236
 1307SOL    HW1 4820   2.083   2.443   4.281
 1307SOL    HW2 4821   2.142   2.500   4.140
 1308SOL     OW 4822   6.853   5.384   5.999
 1308SOL    HW1 4823   6.938   5.432   6.020
 1308SOL    HW2 4824   6.814   5.346   6.082
 1309SOL     OW 4825   5.246   4.461   6.469
 1309SOL    HW1 4826   5.335   4.460   6.512
 1309SOL    HW2 4827   5.201   4.549   6.487
 1310SOL     OW 4828   1.045   4.083   4.402
 1310SOL    HW1 4829   1.100   4.004   4.429
 1310SOL    HW2 4830   1.103   4.149   4.353
 1311SOL     OW 4831   6.559   5.585   0.695
 1311SOL    HW1 4832   6.606   5.559   0.779
 1311SOL    HW2 4833   6.561   5.508   0.631
 1312SOL     OW 4834   1.901   0.698   5.790
 1312SOL    HW1 4835   1.978   0.653   5.745
 1312SOL    HW2 4836   1.872   0.642   5.869
 1313SOL     OW 4837   6.422   5.346   3.267
 1313SOL    HW1 4838   6.434   5.388   3.357
 1313SOL    HW2 4839   6.494   5.278   3.251
 1314SOL     OW 4840   2.579   1.759   5.043
 1314SOL    HW1 4841   2.623   1.833   5.095
 1314SOL    HW2 4842   2.538   1.797   4.961
 1315SOL     OW 4843   5.858   0.941   4.635
 1315SOL    HW1 4844   5.936   0.973   4.689
 1315SOL    HW2 4845   5.779   0.929   4.694
 1316SOL     OW 4846   4.371   0.759   4.932
 1316SOL    HW1 4847   4.450   0.799   4.885
 1316SOL    HW2 4848   4.372   0.786   5.028
 1317SOL     OW 4849   2.754   3.107   5.567
 1317SOL    HW1 4850   2.670   3.095   5.514
 1317SOL    HW2 4851   2.796   3.194   5.544
 1318SOL     OW 4852   1.704   2.584   6.717
 1318SOL    HW1 4853   1.694   2.489   6.746
 1318SOL    HW2 4854   1.782   2.625   6.763
 1319SOL     OW 4855   6.893   6.403   0.907
 1319SOL    HW1 4856   6.858   6.398   0.814
 1319SOL    HW2 4857   6.991   6.383   0.907
 1320SOL     OW 4858   3.086   2.867   5.879
 1320SOL    HW1 4859   3.038   2.954   5.867
 1320SOL    HW2 4860   3.176   2.883   5.919
 1321SOL     OW 4861   5.845   2.368   6.685
 1321SOL    HW1 4862   5.846   2.300   6.612
 1321SOL    HW2 4863   5.752   2.403   6.697
 1322SOL     OW 4864   3.394   1.354   0.329
 1322SOL    HW1 4865   3.442   1.424   0.276
 1322SOL    HW2 4866   3.338   1.298   0.268
 1323SOL     OW 4867   3.714   0.386   0.173
 1323SOL    HW1 4868   3.681   0.396   0.079
 1323SOL    HW2 4869   3.636   0.371   0.234
 1324SOL     OW 4870   0.888   3.620   0.173
 1324SOL    HW1 4871   0.819   3.688   0.146
 1324SOL    HW2 4872   0.880   3.539   0.115
 1325SOL     OW 4873   2.492   5.347   6.909
 1325SOL    HW1 4874   2.584   5.316   6.889
 1325SOL    HW2 4875   2.437   5.348   6.825
 1326SOL     OW 4876   4.865   3.799   3.967
 1326SOL    HW1 4877   4.903   3.739   4.037
 1326SOL    HW2 4878   4.841   3.887   4.007
 1327SOL     OW 4879   0.261   6.584   1.218
 1327SOL    HW1 4880   0.289   6.592   1.123
 1327SOL    HW2 4881   0.333   6.619   1.278
 1328SOL     OW 4882   0.860   3.584   5.965
 1328SOL    HW1 4883   0.959   3.581   5.954
 1328SOL    HW2 4884   0.818   3.510   5.911
 1329SOL     OW 4885   0.450   2.792   2.991
 1329SOL    HW1 4886   0.492   2.701   2.989
 1329SOL    HW2 4887   0.516   2.859   3.025
 1330SOL     OW 4888   6.456   2.911   1.114
 1330SOL    HW1 4889   6.424   2.826   1.155
 1330SOL    HW2 4890   6.556   2.916   1.121
 1331SOL     OW 4891   4.310   1.842   2.749
 1331SOL    HW1 4892   4.403   1.849   2.785
 1331SOL    HW2 4893   4.252   1.911   2.792
 1332SOL     OW 4894   1.545   0.130   0.715
 1332SOL    HW1 4895   1.518   0.201   0.780
 1332SOL    HW2 4896   1.541   0.041   0.760
 1333SOL     OW 4897   3.379   4.122   3.045
 1333SOL    HW1 4898   3.433   4.174   2.979
 1333SOL    HW2 4899   3.424   4.034   3.063
 1334SOL     OW 4900   0.123   1.912   2.481
 1334SOL    HW1 4901   0.088   1.882   2.570
 1334SOL    HW2 4902   0.074   1.863   2.409
 1335SOL     OW 4903   1.739   4.244   2.192
 1335SOL    HW1 4904   1.820   4.189   2.215
 1335SOL    HW2 4905   1.665   4.221   2.254
 1336SOL     OW 4906   3.412   0.576   5.455
 1336SOL    HW1 4907   3.371   0.666   5.442
 1336SOL    HW2 4908   3.504   0.575   5.416
 1337SOL     OW 4909   6.286   1.466   3.808
 1337SOL    HW1 4910   6.233   1.547   3.832
 1337SOL    HW2 4911   6.364   1.493   3.751
 1338SOL     OW 4912   5.867   3.750   4.770
 1338SOL    HW1 4913   5.898   3.784   4.681
 1338SOL    HW2 4914   5.888   3.653   4.778
 1339SOL     OW 4915   0.250   0.507   6.558
 1339SOL    HW1 4916   0.215   0.525   6.466
 1339SOL    HW2 4917   0.287   0.591   6.597
 1340SOL     OW 4918   5.219   1.968   1.979
 1340SOL    HW1 4919   5.163   1.979   2.061
 1340SOL    HW2 4920   5.182   1.892   1.925
 1341SOL     OW 4921   5.072   6.445   6.474
 1341SOL    HW1 4922   5.120   6.475   6.556
 1341SOL    HW2 4923   5.105   6.498   6.395
 1342SOL     OW 4924   3.205   6.165   1.264
 1342SOL    HW1 4925   3.294   6.157   1.308
 1342SOL    HW2 4926   3.150   6.234   1.312
 1343SOL     OW 4927   5.657   5.540   2.611
 1343SOL    HW1 4928   5.609   5.618   2.652
 1343SOL    HW2 4929   5.720   5.573   2.541
 1344SOL     OW 4930   0.156   6.790   4.446
 1344SOL    HW1 4931   0.175   6.693   4.462
 1344SOL    HW2 4932   0.114   6.830   4.528
 1345SOL     OW 4933   0.612   5.418   1.999
 1345SOL    HW1 4934   0.699   5.452   2.032
 1345SOL    HW2 4935   0.612   5.417   1.899
 1346SOL     OW 4936   2.532   5.066   6.237
 1346SOL    HW1 4937   2.566   4.997   6.173
 1346SOL    HW2 4938   2.583   5.061   6.323
 1347SOL     OW 4939   1.590   0.120   0.265
 1347SOL    HW1 4940   1.577   0.175   0.348
 1347SOL    HW2 4941   1.506   0.123   0.210
 1348SOL     OW 4942   0.085   5.905   5.430
 1348SOL    HW1 4943   0.041   5.848   5.361
 1348SOL    HW2 4944   0.022   5.920   5.506
 1349SOL     OW 4945   5.431   3.701   3.939
 1349SOL    HW1 4946   5.375   3.630   3.983
 1349SOL    HW2 4947   5.372   3.762   3.886
 1350SOL     OW 4948   3.042   3.884   0.339
 1350SOL    HW1 4949   3.081   3.958   0.285
 1350SOL    HW2 4950   2.943   3.891   0.339
 1351SOL     OW 4951   6.764   2.937   4.724
 1351SOL    HW1 4952   6.689   2.987   4.681
 1351SOL    HW2 4953   6.851   2.976   4.695
 1352SOL     OW 4954   0.098   0.030   2.657
 1352SOL    HW1 4955   0.158   0.108   2.670
 1352SOL    HW2 4956   0.147   6.982   2.608
 1353SOL     OW 4957   0.770   1.199   1.130
 1353SOL    HW1 4958   0.753   1.274   1.194
 1353SOL    HW2 4959   0.742   1.112   1.171
 1354SOL     OW 4960   6.019   4.384   2.131
 1354SOL    HW1 4961   5.958   4.351   2.058
 1354SOL    HW2 4962   6.006   4.327   2.212
 1355SOL     OW 4963   6.302   3.313   4.704
 1355SOL    HW1 4964   6.357   3.396   4.698
 1355SOL    HW2 4965   6.324   3.264   4.788
 1356SOL     OW 4966   3.492   3.411   1.533
 1356SOL    HW1 4967   3.462   3.493   1.581
 1356SOL    HW2 4968   3.496   3.334   1.597
 1357SOL     OW 4969   6.798   2.908   5.241
 1357SOL    HW1 4970   6.817   2.955   5.155
 1357SOL    HW2 4971   6.736   2.964   5.297
 1358SOL     OW 4972   1.527   6.672   0.179
 1358SOL    HW1 4973   1.588   6.750   0.184
 1358SOL    HW2 4974   1.449   6.686   0.240
 1359SOL     OW 4975   6.317   4.214   1.828
 1359SOL    HW1 4976   6.358   4.125   1.851
 1359SOL    HW2 4977   6.357   4.248   1.743
 1360SOL     OW 4978   2.612   2.614   6.578
 1360SOL    HW1 4979   2.523   2.653   6.555
 1360SOL    HW2 4980   2.684   2.674   6.546
 1361SOL     OW 4981   7.003   4.625   4.104
 1361SOL    HW1 4982   6.967   4.628   4.197
 1361SOL    HW2 4983   0.013   4.715   4.079
 1362SOL     OW 4984   3.551   2.842   2.817
 1362SOL    HW1 4985   3.513   2.913   2.758
 1362SOL    HW2 4986   3.488   2.765   2.822
 1363SOL     OW 4987   0.411   5.481   5.553
 1363SOL    HW1 4988   0.423   5.417   5.477
 1363SOL    HW2 4989   0.338   5.545   5.532
 1364SOL     OW 4990   4.640   4.216   0.760
 1364SOL    HW1 4991   4.608   4.293   0.815
 1364SOL    HW2 4992   4.739   4.221   0.750
 1365SOL     OW 4993   0.761   3.666   6.788
 1365SOL    HW1 4994   0.677   3.652   6.736
 1365SOL    HW2 4995   0.774   3.590   6.852
 1366SOL     OW 4996   1.800   6.929   4.871
 1366SOL    HW1 4997   1.729   6.912   4.803
 1366SOL    HW2 4998   1.812   6.847   4.927
 1367SOL     OW 4999   2.408   1.008   2.560
 1367SOL    HW1 5000   2.410   1.107   2.573
 1367SOL    HW2 5001   2.330   0.984   2.502
 1368SOL     OW 5002   6.187   6.512   4.691
 1368SOL    HW1 5003   6.170   6.500   4.593
 1368SOL    HW2 5004   6.284   6.531   4.705
 1369SOL     OW 5005   1.140   0.574   3.365
 1369SOL    HW1 5006   1.079   0.533   3.296
 1369SOL    HW2 5007   1.086   0.635   3.424
 1370SOL     OW 5008   3.008   1.219   1.564
 1370SOL    HW1 5009   2.988   1.315   1.584
 1370SOL    HW2 5010   3.016   1.167   1.649
 1371SOL     OW 5011   3.532   0.600   5.911
 1371SOL    HW1 5012   3.496   0.694   5.914
 1371SOL    HW2 5013   3.585   0.588   5.827
 1372SOL     OW 5014   3.008   1.969   2.179
 1372SOL    HW1 5015   3.046   2.014   2.259
 1372SOL    HW2 5016   2.909   1.986   2.174
 1373SOL     OW 5017   0.728   6.501   0.761
 1373SOL    HW1 5018   0.794   6.431   0.733
 1373SOL    HW2 5019   0.635   6.468   0.744
 1374SOL     OW 5020   4.399   2.516   0.428
 1374SOL    HW1 5021   4.366   2.508   0.522
 1374SOL    HW2 5022   4.472   2.584   0.425
 1375SOL     OW 5023   0.441   4.223   5.851
 1375SOL    HW1 5024   0.492   4.206   5.935
 1375SOL    HW2 5025   0.477   4.166   5.777
 1376SOL     OW 5026   4.872   2.372   2.747
 1376SOL    HW1 5027   4.885   2.467   2.719
 1376SOL    HW2 5028   4.783   2.339   2.714
 1377SOL     OW 5029   6.928   5.547   4.714
 1377SOL    HW1 5030   6.880   5.606   4.779
 1377SOL    HW2 5031   6.885   5.457   4.714
 1378SOL     OW 5032   1.270   2.180   0.859
 1378SOL    HW1 5033   1.307   2.191   0.767
 1378SOL    HW2 5034   1.299   2.092   0.896
 1379SOL     OW 5035   3.874   6.292   2.075
 1379SOL    HW1 5036   3.814   6.335   2.008
 1379SOL    HW2 5037   3.819   6.251   2.148
 1380SOL     OW 5038   6.381   6.405   2.344
 1380SOL    HW1 5039   6.421   6.480   2.397
 1380SOL    HW2 5040   6.411   6.411   2.249
 1381SOL     OW 5041   5.949   1.616   1.111
 1381SOL    HW1 5042   5.884   1.559   1.061
 1381SOL    HW2 5043   5.911   1.640   1.200
 1382SOL     OW 5044   5.554   4.569   6.525
 1382SOL    HW1 5045   5.628   4.630   6.554
 1382SOL    HW2 5046   5.541   4.498   6.593
 1383SOL     OW 5047   2.817   0.422   0.742
 1383SOL    HW1 5048   2.742   0.479   0.710
 1383SOL    HW2 5049   2.848   0.453   0.832
 1384SOL     OW 5050   3.351   2.037   2.921
 1384SOL    HW1 5051   3.266   2.038   2.869
 1384SOL    HW2 5052   3.375   1.943   2.943
 1385SOL     OW 5053   6.523   3.098   2.548
 1385SOL    HW1 5054   6.559   3.015   2.506
 1385SOL    HW2 5055   6.515   3.086   2.647
 1386SOL     OW 5056   2.104   2.275   4.370
 1386SOL    HW1 5057   2.053   2.334   4.432
 1386SOL    HW2 5058   2.202   2.294   4.379
 1387SOL     OW 5059   2.217   0.267   4.963
 1387SOL    HW1 5060   2.199   0.307   4.873
 1387SOL    HW2 5061   2.310   0.289   4.991
 1388SOL     OW 5062   6.253   0.873   4.614
 1388SOL    HW1 5063   6.272   0.949   4.676
 1388SOL    HW2 5064   6.321   0.800   4.629
 1389SOL     OW 5065   6.308   0.391   4.718
 1389SOL    HW1 5066   6.218   0.434   4.720
 1389SOL    HW2 5067   6.299   0.292   4.732
 1390SOL     OW 5068   4.620   2.717   2.706
 1390SOL    HW1 5069   4.681   2.783   2.750
 1390SOL    HW2 5070   4.594   2.646   2.771
 1391SOL     OW 5071   5.115   0.944   4.924
 1391SOL    HW1 5072   5.065   1.009   4.982
 1391SOL    HW2 5073   5.090   0.851   4.949
 1392SOL     OW 5074   4.727   5.430   6.432
 1392SOL    HW1 5075   4.742   5.428   6.333
 1392SOL    HW2 5076   4.784   5.502   6.473
 1393SOL     OW 5077   6.044   0.490   6.894
 1393SOL    HW1 5078   6.019   0.398   6.865
 1393SOL    HW2 5079   6.144   0.497   6.902
 1394SOL     OW 5080   4.314   6.575   3.943
 1394SOL    HW1 5081   4.262   6.539   4.020
 1394SOL    HW2 5082   4.412   6.574   3.964
 1395SOL     OW 5083   1.341   5.293   1.944
 1395SOL    HW1 5084   1.396   5.322   2.022
 1395SOL    HW2 5085   1.387   5.317   1.859
 1396SOL     OW 5086   1.947   1.608   4.034
 1396SOL    HW1 5087   2.000   1.523   4.031
 1396SOL    HW2 5088   1.976   1.669   3.960
 1397SOL     OW 5089   0.178   5.357   4.838
 1397SOL    HW1 5090   0.118   5.427   4.877
 1397SOL    HW2 5091   0.159   5.348   4.741
 1398SOL     OW 5092   0.258   0.098   0.503
 1398SOL    HW1 5093   0.266   0.144   0.591
 1398SOL    HW2 5094   0.180   0.134   0.452
 1399SOL     OW 5095   4.338   0.409   0.421
 1399SOL    HW1 5096   4.424   0.460   0.421
 1399SOL    HW2 5097   4.346   0.329   0.363
 1400SOL     OW 5098   6.660   0.197   4.888
 1400SOL    HW1 5099   6.747   0.238   4.915
 1400SOL    HW2 5100   6.602   0.266   4.844
 1401SOL     OW 5101   5.546   0.297   3.520
 1401SOL    HW1 5102   5.487   0.377   3.511
 1401SOL    HW2 5103   5.627   0.323   3.574
 1402SOL     OW 5104   0.016   4.745   2.148
 1402SOL    HW1 5105   6.980   4.822   2.136
 1402SOL    HW2 5106   0.094   4.754   2.086
 1403SOL     OW 5107   3.140   3.010   6.643
 1403SOL    HW1 5108   3.236   3.012   6.671
 1403SOL    HW2 5109   3.088   2.948   6.701
 1404SOL     OW 5110   4.168   6.781   0.375
 1404SOL    HW1 5111   4.249   6.840   0.388
 1404SOL    HW2 5112   4.179   6.698   0.430
 1405SOL     OW 5113   1.307   3.827   1.110
 1405SOL    HW1 5114   1.244   3.903   1.122
 1405SOL    HW2 5115   1.260   3.750   1.069
 1406SOL     OW 5116   2.334   3.251   0.712
 1406SOL    HW1 5117   2.271   3.195   0.657
 1406SOL    HW2 5118   2.373   3.194   0.785
 1407SOL     OW 5119   0.755   3.214   1.437
 1407SOL    HW1 5120   0.751   3.293   1.376
 1407SOL    HW2 5121   0.734   3.131   1.385
 1408SOL     OW 5122   5.953   6.670   1.232
 1408SOL    HW1 5123   5.977   6.634   1.322
 1408SOL    HW2 5124   5.857   6.698   1.232
 1409SOL     OW 5125   6.702   1.783   5.965
 1409SOL    HW1 5126   6.642   1.854   5.928
 1409SOL    HW2 5127   6.725   1.718   5.893
 1410SOL     OW 5128   4.085   0.936   6.071
 1410SOL    HW1 5129   4.024   0.857   6.064
 1410SOL    HW2 5130   4.030   1.020   6.075
 1411SOL     OW 5131   3.267   5.505   0.114
 1411SOL    HW1 5132   3.225   5.593   0.137
 1411SOL    HW2 5133   3.313   5.513   0.026
 1412SOL     OW 5134   2.111   3.215   0.024
 1412SOL    HW1 5135   2.077   3.121   0.023
 1412SOL    HW2 5136   2.144   3.239   6.958
 1413SOL     OW 5137   1.060   1.396   5.134
 1413SOL    HW1 5138   1.131   1.327   5.125
 1413SOL    HW2 5139   1.100   1.487   5.123
 1414SOL     OW 5140   0.957   4.170   2.519
 1414SOL    HW1 5141   1.023   4.099   2.544
 1414SOL    HW2 5142   0.976   4.201   2.426
 1415SOL     OW 5143   2.109   1.960   4.403
 1415SOL    HW1 5144   2.113   2.039   4.342
 1415SOL    HW2 5145   2.134   1.877   4.353
 1416SOL     OW 5146   4.548   0.905   4.740
 1416SOL    HW1 5147   4.648   0.910   4.736
 1416SOL    HW2 5148   4.513   0.861   4.657
 1417SOL     OW 5149   3.442   3.403   5.869
 1417SOL    HW1 5150   3.352   3.413   5.825
 1417SOL    HW2 5151   3.483   3.493   5.882
 1418SOL     OW 5152   3.737   4.314   5.857
 1418SOL    HW1 5153   3.719   4.366   5.774
 1418SOL    HW2 5154   3.698   4.223   5.849
 1419SOL     OW 5155   1.771   5.482   2.326
 1419SOL    HW1 5156   1.845   5.479   2.259
 1419SOL    HW2 5157   1.711   5.559   2.306
 1420SOL     OW 5158   2.871   6.577   3.124
 1420SOL    HW1 5159   2.872   6.676   3.140
 1420SOL    HW2 5160   2.900   6.529   3.206
 1421SOL     OW 5161   1.198   4.762   5.770
 1421SOL    HW1 5162   1.220   4.787   5.675
 1421SOL    HW2 5163   1.275   4.710   5.809
 1422SOL     OW 5164   2.173   3.443   5.926
 1422SOL    HW1 5165   2.259   3.398   5.901
 1422SOL    HW2 5166   2.186   3.543   5.923
 1423SOL     OW 5167   4.541   0.485   4.905
 1423SOL    HW1 5168   4.580   0.512   4.993
 1423SOL    HW2 5169   4.462   0.542   4.884
 1424SOL     OW 5170   6.184   3.058   0.408
 1424SOL    HW1 5171   6.159   3.141   0.358
 1424SOL    HW2 5172   6.218   2.990   0.343
 1425SOL     OW 5173   5.061   6.790   3.663
 1425SOL    HW1 5174   5.103   6.848   3.593
 1425SOL    HW2 5175   5.007   6.719   3.620
 1426SOL     OW 5176   3.146   1.995   0.320
 1426SOL    HW1 5177   3.089   2.051   0.381
 1426SOL    HW2 5178   3.108   1.996   0.228
 1427SOL     OW 5179   1.776   0.311   4.125
 1427SOL    HW1 5180   1.848   0.250   4.158
 1427SOL    HW2 5181   1.695   0.258   4.101
 1428SOL     OW 5182   1.222   3.029   4.129
 1428SOL    HW1 5183   1.184   3.011   4.219
 1428SOL    HW2 5184   1.195   3.121   4.099
 1429SOL     OW 5185   6.555   0.924   1.458
 1429SOL    HW1 5186   6.573   0.862   1.382
 1429SOL    HW2 5187   6.525   1.012   1.423
 1430SOL     OW 5188   2.085   3.636   4.269
 1430SOL    HW1 5189   2.098   3.540   4.293
 1430SOL    HW2 5190   2.132   3.694   4.336
 1431SOL     OW 5191   2.645   1.488   6.410
 1431SOL    HW1 5192   2.585   1.431   6.355
 1431SOL    HW2 5193   2.595   1.523   6.489
 1432SOL     OW 5194   3.293   0.950   2.207
 1432SOL    HW1 5195   3.298   0.891   2.288
 1432SOL    HW2 5196   3.383   0.954   2.164
 1433SOL     OW 5197   2.466   0.028   3.887
 1433SOL    HW1 5198   2.441   0.024   3.983
 1433SOL    HW2 5199   2.530   0.103   3.872
 1434SOL     OW 5200   0.092   3.240   0.690
 1434SOL    HW1 5201   0.117   3.288   0.606
 1434SOL    HW2 5202   0.175   3.215   0.740
 1435SOL     OW 5203   1.858   6.813   4.196
 1435SOL    HW1 5204   1.890   6.827   4.290
 1435SOL    HW2 5205   1.936   6.797   4.136
 1436SOL     OW 5206   5.286   1.371   0.134
 1436SOL    HW1 5207   5.320   1.462   0.109
 1436SOL    HW2 5208   5.253   1.324   0.052
 1437SOL     OW 5209   3.927   0.373   6.037
 1437SOL    HW1 5210   3.893   0.456   6.082
 1437SOL    HW2 5211   3.854   0.334   5.981
 1438SOL     OW 5212   2.697   0.650   1.912
 1438SOL    HW1 5213   2.754   0.570   1.932
 1438SOL    HW2 5214   2.682   0.701   1.997
 1439SOL     OW 5215   0.330   4.595   0.127
 1439SOL    HW1 5216   0.367   4.548   0.046
 1439SOL    HW2 5217   0.287   4.681   0.099
 1440SOL     OW 5218   3.606   3.292   3.171
 1440SOL    HW1 5219   3.671   3.291   3.247
 1440SOL    HW2 5220   3.642   3.349   3.097
 1441SOL     OW 5221   6.513   2.862   3.848
 1441SOL    HW1 5222   6.444   2.792   3.835
 1441SOL    HW2 5223   6.473   2.940   3.896
 1442SOL     OW 5224   5.846   6.293   6.764
 1442SOL    HW1 5225   5.768   6.321   6.820
 1442SOL    HW2 5226   5.914   6.247   6.823
 1443SOL     OW 5227   0.970   2.943   3.432
 1443SOL    HW1 5228   1.046   2.969   3.372
 1443SOL    HW2 5229   0.975   2.846   3.452
 1444SOL     OW 5230   5.202   0.998   4.256
 1444SOL    HW1 5231   5.171   1.092   4.239
 1444SOL    HW2 5232   5.123   0.937   4.257
 1445SOL     OW 5233   6.114   2.469   1.063
 1445SOL    HW1 5234   6.029   2.420   1.043
 1445SOL    HW2 5235   6.187   2.402   1.080
 1446SOL     OW 5236   4.472   0.654   1.464
 1446SOL    HW1 5237   4.506   0.705   1.385
 1446SOL    HW2 5238   4.379   0.685   1.485
 1447SOL     OW 5239   5.479   1.191   5.696
 1447SOL    HW1 5240   5.577   1.195   5.681
 1447SOL    HW2 5241   5.437   1.130   5.629
 1448SOL     OW 5242   5.351   0.220   6.652
 1448SOL    HW1 5243   5.405   0.281   6.594
 1448SOL    HW2 5244   5.259   0.259   6.664
 1449SOL     OW 5245   4.935   5.591   1.372
 1449SOL    HW1 5246   4.868   5.554   1.437
 1449SOL    HW2 5247   4.992   5.658   1.418
 1450SOL     OW 5248   5.653   2.775   3.841
 1450SOL    HW1 5249   5.682   2.850   3.782
 1450SOL    HW2 5250   5.679   2.687   3.800
 1451SOL     OW 5251   1.651   6.885   2.843
 1451SOL    HW1 5252   1.574   6.864   2.782
 1451SOL    HW2 5253   1.680   6.801   2.889
 1452SOL     OW 5254   4.464   0.749   5.199
 1452SOL    HW1 5255   4.486   0.687   5.274
 1452SOL    HW2 5256   4.497   0.841   5.220
 1453SOL     OW 5257   4.795   4.483   4.263
 1453SOL    HW1 5258   4.846   4.557   4.305
 1453SOL    HW2 5259   4.834   4.395   4.292
 1454SOL     OW 5260   4.380   3.954   1.328
 1454SOL    HW1 5261   4.370   3.858   1.302
 1454SOL    HW2 5262   4.473   3.984   1.311
 1455SOL     OW 5263   2.012   2.819   1.581
 1455SOL    HW1 5264   1.940   2.859   1.637
 1455SOL    HW2 5265   2.101   2.853   1.611
 1456SOL     OW 5266   6.592   5.580   3.972
 1456SOL    HW1 5267   6.511   5.601   4.027
 1456SOL    HW2 5268   6.602   5.648   3.900
 1457SOL     OW 5269   1.969   6.934   3.156
 1457SOL    HW1 5270   1.905   6.869   3.197
 1457SOL    HW2 5271   1.959   6.932   3.056
 1458SOL     OW 5272   6.511   5.740   6.743
 1458SOL    HW1 5273   6.536   5.676   6.671
 1458SOL    HW2 5274   6.428   5.708   6.789
 1459SOL     OW 5275   2.397   0.156   0.910
 1459SOL    HW1 5276   2.425   0.063   0.934
 1459SOL    HW2 5277   2.464   0.221   0.948
 1460SOL     OW 5278   0.753   6.401   0.002
 1460SOL    HW1 5279   0.741   6.310   6.987
 1460SOL    HW2 5280   0.823   6.451   6.975
 1461SOL     OW 5281   5.378   5.200   1.417
 1461SOL    HW1 5282   5.388   5.158   1.327
 1461SOL    HW2 5283   5.400   5.132   1.488
 1462SOL     OW 5284   5.045   0.580   6.004
 1462SOL    HW1 5285   4.992   0.621   5.930
 1462SOL    HW2 5286   5.133   0.627   6.013
 1463SOL     OW 5287   0.622   0.976   5.296
 1463SOL    HW1 5288   0.539   0.924   5.317
 1463SOL    HW2 5289   0.610   1.026   5.211
 1464SOL     OW 5290   0.103   6.384   1.286
 1464SOL    HW1 5291   0.161   6.460   1.256
 1464SOL    HW2 5292   0.089   6.390   1.385
 1465SOL     OW 5293   0.634   6.988   4.635
 1465SOL    HW1 5294   0.567   6.966   4.564
 1465SOL    HW2 5295   0.684   0.046   4.609
 1466SOL     OW 5296   5.857   5.264   4.046
 1466SOL    HW1 5297   5.779   5.222   3.999
 1466SOL    HW2 5298   5.922   5.192   4.073
 1467SOL     OW 5299   0.056   3.457   3.164
 1467SOL    HW1 5300   6.986   3.441   3.137
 1467SOL    HW2 5301   0.115   3.390   3.121
 1468SOL     OW 5302   5.284   6.080   2.999
 1468SOL    HW1 5303   5.314   6.085   2.904
 1468SOL    HW2 5304   5.264   6.172   3.033
 1469SOL     OW 5305   0.243   0.905   2.986
 1469SOL    HW1 5306   0.292   0.960   3.053
 1469SOL    HW2 5307   0.270   0.809   2.996
 1470SOL     OW 5308   0.026   0.978   3.269
 1470SOL    HW1 5309   0.076   0.998   3.184
 1470SOL    HW2 5310   0.014   0.880   3.278
 1471SOL     OW 5311   6.690   0.141   6.890
 1471SOL    HW1 5312   6.732   0.090   6.815
 1471SOL    HW2 5313   6.689   0.238   6.867
 1472SOL     OW 5314   4.447   6.943   5.293
 1472SOL    HW1 5315   4.412   6.887   5.369
 1472SOL    HW2 5316   4.397   0.005   5.291
 1473SOL     OW 5317   6.015   4.323   4.046
 1473SOL    HW1 5318   6.101   4.362   4.079
 1473SOL    HW2 5319   5.959   4.297   4.125
 1474SOL     OW 5320   5.022   5.199   3.222
 1474SOL    HW1 5321   4.927   5.226   3.215
 1474SOL    HW2 5322   5.066   5.249   3.297
 1475SOL     OW 5323   6.805   0.809   2.725
 1475SOL    HW1 5324   6.904   0.814   2.718
 1475SOL    HW2 5325   6.769   0.892   2.768
 1476SOL     OW 5326   6.227   2.047   1.848
 1476SOL    HW1 5327   6.255   1.954   1.871
 1476SOL    HW2 5328   6.274   2.076   1.765
 1477SOL     OW 5329   2.936   6.452   3.362
 1477SOL    HW1 5330   2.900   6.381   3.422
 1477SOL    HW2 5331   2.993   6.515   3.414
 1478SOL     OW 5332   6.705   4.426   1.783
 1478SOL    HW1 5333   6.780   4.462   1.839
 1478SOL    HW2 5334   6.661   4.500   1.734
 1479SOL     OW 5335   1.743   5.411   0.552
 1479SOL    HW1 5336   1.735   5.461   0.466
 1479SOL    HW2 5337   1.811   5.455   0.610
 1480SOL     OW 5338   2.867   0.929   7.011
 1480SOL    HW1 5339   2.796   0.979   6.961
 1480SOL    HW2 5340   2.949   0.922   6.955
 1481SOL     OW 5341   6.473   2.293   6.172
 1481SOL    HW1 5342   6.513   2.232   6.103
 1481SOL    HW2 5343   6.545   2.346   6.216
 1482SOL     OW 5344   5.847   0.576   6.358
 1482SOL    HW1 5345   5.792   0.603   6.279
 1482SOL    HW2 5346   5.805   0.496   6.402
 1483SOL     OW 5347   6.306   2.264   6.368
 1483SOL    HW1 5348   6.224   2.315   6.341
 1483SOL    HW2 5349   6.381   2.286   6.305
 1484SOL     OW 5350   6.332   6.033   2.674
 1484SOL    HW1 5351   6.236   6.058   2.688
 1484SOL    HW2 5352   6.391   6.096   2.725
 1485SOL     OW 5353   5.338   2.984   4.139
 1485SOL    HW1 5354   5.375   2.898   4.104
 1485SOL    HW2 5355   5.238   2.981   4.137
 1486SOL     OW 5356   4.641   2.300   2.599
 1486SOL    HW1 5357   4.711   2.283   2.530
 1486SOL    HW2 5358   4.594   2.386   2.578
 1487SOL     OW 5359   6.421   1.476   5.465
 1487SOL    HW1 5360   6.356   1.430   5.404
 1487SOL    HW2 5361   6.465   1.551   5.417
 1488SOL     OW 5362   3.667   1.667   2.825
 1488SOL    HW1 5363   3.626   1.677   2.735
 1488SOL    HW2 5364   3.654   1.751   2.878
 1489SOL     OW 5365   3.867   5.110   4.599
 1489SOL    HW1 5366   3.862   5.018   4.638
 1489SOL    HW2 5367   3.950   5.155   4.630
 1490SOL     OW 5368   2.094   2.691   0.676
 1490SOL    HW1 5369   2.152   2.768   0.651
 1490SOL    HW2 5370   2.136   2.641   0.752
 1491SOL     OW 5371   0.097   2.556   4.998
 1491SOL    HW1 5372   0.154   2.524   4.922
 1491SOL    HW2 5373   0.063   2.647   4.978
 1492SOL     OW 5374   5.230   2.884   2.582
 1492SOL    HW1 5375   5.237   2.904   2.484
 1492SOL    HW2 5376   5.219   2.785   2.595
 1493SOL     OW 5377   5.073   0.675   4.982
 1493SOL    HW1 5378   5.053   0.634   5.070
 1493SOL    HW2 5379   4.997   0.660   4.920
 1494SOL     OW 5380   4.755   2.719   4.983
 1494SOL    HW1 5381   4.682   2.728   5.051
 1494SOL    HW2 5382   4.796   2.628   4.990
 1495SOL     OW 5383   2.039   3.095   2.941
 1495SOL    HW1 5384   1.945   3.086   2.975
 1495SOL    HW2 5385   2.101   3.049   3.004
 1496SOL     OW 5386   0.754   1.019   2.878
 1496SOL    HW1 5387   0.811   0.942   2.906
 1496SOL    HW2 5388   0.811   1.092   2.843
 1497SOL     OW 5389   5.271   4.354   5.451
 1497SOL    HW1 5390   5.290   4.311   5.539
 1497SOL    HW2 5391   5.194   4.307   5.407
 1498SOL     OW 5392   2.499   6.367   0.690
 1498SOL    HW1 5393   2.537   6.388   0.599
 1498SOL    HW2 5394   2.493   6.451   0.743
 1499SOL     OW 5395   0.489   4.472   5.276
 1499SOL    HW1 5396   0.520   4.378   5.258
 1499SOL    HW2 5397   0.475   4.483   5.374
 1500SOL     OW 5398   4.784   6.610   5.677
 1500SOL    HW1 5399   4.733   6.580   5.758
 1500SOL    HW2 5400   4.869   6.653   5.705
 1501SOL     OW 5401   4.039   6.972   6.422
 1501SOL    HW1 5402   3.988   0.028   6.393
 1501SOL    HW2 5403   4.133   6.977   6.387
 1502SOL     OW 5404   6.527   6.031   0.344
 1502SOL    HW1 5405   6.590   5.960   0.376
 1502SOL    HW2 5406   6.435   6.011   0.377
 1503SOL     OW 5407   3.068   3.563   5.835
 1503SOL    HW1 5408   3.007   3.510   5.894
 1503SOL    HW2 5409   3.147   3.508   5.810
 1504SOL     OW 5410   2.785   5.910   4.431
 1504SOL    HW1 5411   2.871   5.886   4.385
 1504SOL    HW2 5412   2.745   5.990   4.386
 1505SOL     OW 5413   4.588   5.247   1.001
 1505SOL    HW1 5414   4.588   5.169   0.939
 1505SOL    HW2 5415   4.681   5.268   1.030
 1506SOL     OW 5416   0.361   6.261   3.254
 1506SOL    HW1 5417   0.329   6.180   3.204
 1506SOL    HW2 5418   0.445   6.239   3.302
 1507SOL     OW 5419   1.721   1.253   5.986
 1507SOL    HW1 5420   1.750   1.167   5.946
 1507SOL    HW2 5421   1.708   1.241   6.085
 1508SOL     OW 5422   4.966   6.881   0.255
 1508SOL    HW1 5423   4.869   6.885   0.233
 1508SOL    HW2 5424   5.015   6.831   0.184
 1509SOL     OW 5425   5.383   1.823   0.357
 1509SOL    HW1 5426   5.293   1.830   0.399
 1509SOL    HW2 5427   5.430   1.741   0.391
 1510SOL     OW 5428   0.043   1.429   4.108
 1510SOL    HW1 5429   7.006   1.497   4.068
 1510SOL    HW2 5430   0.098   1.387   4.036
 1511SOL     OW 5431   2.246   2.572   0.839
 1511SOL    HW1 5432   2.215   2.556   0.933
 1511SOL    HW2 5433   2.336   2.530   0.826
 1512SOL     OW 5434   6.296   0.483   2.335
 1512SOL    HW1 5435   6.273   0.387   2.325
 1512SOL    HW2 5436   6.212   0.537   2.347
 1513SOL     OW 5437   3.743   1.465   1.897
 1513SOL    HW1 5438   3.682   1.456   1.976
 1513SOL    HW2 5439   3.787   1.554   1.899
 1514SOL     OW 5440   5.307   1.508   5.310
 1514SOL    HW1 5441   5.305   1.427   5.368
 1514SOL    HW2 5442   5.388   1.506   5.252
 1515SOL     OW 5443   6.727   4.511   4.696
 1515SOL    HW1 5444   6.739   4.430   4.754
 1515SOL    HW2 5445   6.630   4.526   4.681
 1516SOL     OW 5446   0.751   1.647   0.984
 1516SOL    HW1 5447   0.727   1.719   1.050
 1516SOL    HW2 5448   0.831   1.597   1.017
 1517SOL     OW 5449   3.761   5.536   3.171
 1517SOL    HW1 5450   3.687   5.487   3.218
 1517SOL    HW2 5451   3.819   5.471   3.123
 1518SOL     OW 5452   1.010   4.965   1.207
 1518SOL    HW1 5453   1.061   4.929   1.285
 1518SOL    HW2 5454   0.924   5.005   1.238
 1519SOL     OW 5455   6.898   4.669   0.595
 1519SOL    HW1 5456   6.811   4.709   0.622
 1519SOL    HW2 5457   6.924   4.704   0.505
 1520SOL     OW 5458   1.422   3.548   3.355
 1520SOL    HW1 5459   1.398   3.645   3.358
 1520SOL    HW2 5460   1.412   3.508   3.446
 1521SOL     OW 5461   2.404   4.278   5.912
 1521SOL    HW1 5462   2.376   4.189   5.948
 1521SOL    HW2 5463   2.443   4.266   5.821
 1522SOL     OW 5464   6.466   2.346   6.817
 1522SOL    HW1 5465   6.533   2.284   6.777
 1522SOL    HW2 5466   6.455   2.325   6.914
 1523SOL     OW 5467   6.768   1.781   0.805
 1523SOL    HW1 5468   6.797   1.686   0.816
 1523SOL    HW2 5469   6.693   1.787   0.740
 1524SOL     OW 5470   6.672   0.988   2.860
 1524SOL    HW1 5471   6.603   0.951   2.922
 1524SOL    HW2 5472   6.682   1.087   2.876
 1525SOL     OW 5473   4.167   1.844   5.995
 1525SOL    HW1 5474   4.207   1.825   6.085
 1525SOL    HW2 5475   4.127   1.936   5.995
 1526SOL     OW 5476   7.012   2.048   1.775
 1526SOL    HW1 5477   0.051   1.980   1.812
 1526SOL    HW2 5478   0.038   2.118   1.725
 1527SOL     OW 5479   2.921   1.463   5.546
 1527SOL    HW1 5480   2.863   1.403   5.600
 1527SOL    HW2 5481   2.880   1.555   5.542
 1528SOL     OW 5482   5.142   6.459   3.393
 1528SOL    HW1 5483   5.142   6.367   3.356
 1528SOL    HW2 5484   5.058   6.475   3.444
 1529SOL     OW 5485   2.918   0.246   5.754
 1529SOL    HW1 5486   2.924   0.280   5.660
 1529SOL    HW2 5487   2.827   0.264   5.790
 1530SOL     OW 5488   3.629   6.754   1.316
 1530SOL    HW1 5489   3.666   6.829   1.262
 1530SOL    HW2 5490   3.704   6.702   1.357
 1531SOL     OW 5491   6.710   0.001   4.678
 1531SOL    HW1 5492   6.692   0.051   4.763
 1531SOL    HW2 5493   6.788   0.043   4.631
 1532SOL     OW 5494   3.217   1.508   4.884
 1532SOL    HW1 5495   3.174   1.583   4.936
 1532SOL    HW2 5496   3.308   1.491   4.921
 1533SOL     OW 5497   5.957   3.071   6.770
 1533SOL    HW1 5498   5.910   3.082   6.683
 1533SOL    HW2 5499   5.969   2.973   6.789
 1534SOL     OW 5500   0.701   6.219   1.596
 1534SOL    HW1 5501   0.680   6.176   1.508
 1534SOL    HW2 5502   0.779   6.173   1.638
 1535SOL     OW 5503   5.257   5.207   4.592
 1535SOL    HW1 5504   5.270   5.110   4.572
 1535SOL    HW2 5505   5.306   5.262   4.524
 1536SOL     OW 5506   2.619   5.732   3.991
 1536SOL    HW1 5507   2.675   5.672   4.049
 1536SOL    HW2 5508   2.677   5.803   3.952
 1537SOL     OW 5509   2.189   5.551   4.838
 1537SOL    HW1 5510   2.255   5.602   4.894
 1537SOL    HW2 5511   2.135   5.614   4.783
 1538SOL     OW 5512   2.254   5.327   6.472
 1538SOL    HW1 5513   2.279   5.249   6.529
 1538SOL    HW2 5514   2.335   5.362   6.426
 1539SOL     OW 5515   3.073   4.764   1.788
 1539SOL    HW1 5516   3.052   4.824   1.711
 1539SOL    HW2 5517   3.083   4.670   1.755
 1540SOL     OW 5518   0.277   6.554   4.799
 1540SOL    HW1 5519   0.288   6.654   4.800
 1540SOL    HW2 5520   0.366   6.511   4.785
 1541SOL     OW 5521   5.109   2.560   1.203
 1541SOL    HW1 5522   5.178   2.520   1.263
 1541SOL    HW2 5523   5.018   2.534   1.235
 1542SOL     OW 5524   0.757   6.584   1.035
 1542SOL    HW1 5525   0.829   6.646   1.068
 1542SOL    HW2 5526   0.779   6.553   0.942
 1543SOL     OW 5527   3.056   3.951   4.298
 1543SOL    HW1 5528   3.104   3.967   4.212
 1543SOL    HW2 5529   3.016   4.037   4.331
 1544SOL     OW 5530   3.641   3.990   2.812
 1544SOL    HW1 5531   3.724   4.045   2.807
 1544SOL    HW2 5532   3.574   4.026   2.747
 1545SOL     OW 5533   6.079   0.754   4.862
 1545SOL    HW1 5534   6.076   0.841   4.814
 1545SOL    HW2 5535   6.172   0.736   4.893
 1546SOL     OW 5536   0.729   6.615   6.077
 1546SOL    HW1 5537   0.632   6.594   6.085
 1546SOL    HW2 5538   0.778   6.535   6.041
 1547SOL     OW 5539   3.681   6.040   6.885
 1547SOL    HW1 5540   3.694   6.001   6.793
 1547SOL    HW2 5541   3.735   5.988   6.951
 1548SOL     OW 5542   5.901   4.125   4.559
 1548SOL    HW1 5543   5.802   4.128   4.567
 1548SOL    HW2 5544   5.939   4.215   4.581
 1549SOL     OW 5545   6.734   1.635   1.673
 1549SOL    HW1 5546   6.748   1.671   1.581
 1549SOL    HW2 5547   6.681   1.550   1.668
 1550SOL     OW 5548   2.629   5.730   4.579
 1550SOL    HW1 5549   2.654   5.724   4.676
 1550SOL    HW2 5550   2.687   5.798   4.535
 1551SOL     OW 5551   1.320   3.092   0.430
 1551SOL    HW1 5552   1.302   3.048   0.518
 1551SOL    HW2 5553   1.410   3.135   0.432
 1552SOL     OW 5554   0.637   0.433   0.784
 1552SOL    HW1 5555   0.640   0.508   0.718
 1552SOL    HW2 5556   0.727   0.388   0.786
 1553SOL     OW 5557   5.779   1.123   6.375
 1553SOL    HW1 5558   5.813   1.216   6.388
 1553SOL    HW2 5559   5.704   1.105   6.439
 1554SOL     OW 5560   3.330   1.694   0.883
 1554SOL    HW1 5561   3.417   1.706   0.835
 1554SOL    HW2 5562   3.255   1.696   0.817
 1555SOL     OW 5563   4.257   1.339   5.619
 1555SOL    HW1 5564   4.255   1.435   5.645
 1555SOL    HW2 5565   4.327   1.291   5.673
 1556SOL     OW 5566   3.769   1.926   0.563
 1556SOL    HW1 5567   3.864   1.952   0.544
 1556SOL    HW2 5568   3.719   2.006   0.598
 1557SOL     OW 5569   1.855   2.879   0.354
 1557SOL    HW1 5570   1.840   2.792   0.402
 1557SOL    HW2 5571   1.952   2.899   0.352
 1558SOL     OW 5572   5.477   2.823   6.271
 1558SOL    HW1 5573   5.379   2.814   6.253
 1558SOL    HW2 5574   5.514   2.899   6.217
 1559SOL     OW 5575   2.286   4.999   3.462
 1559SOL    HW1 5576   2.219   4.965   3.528
 1559SOL    HW2 5577   2.372   4.949   3.473
 1560SOL     OW 5578   3.836   1.717   1.027
 1560SOL    HW1 5579   3.882   1.703   1.114
 1560SOL    HW2 5580   3.847   1.637   0.969
 1561SOL     OW 5581   6.067   6.089   0.920
 1561SOL    HW1 5582   6.129   6.024   0.964
 1561SOL    HW2 5583   5.981   6.043   0.900
 1562SOL     OW 5584   3.916   6.728   2.278
 1562SOL    HW1 5585   3.916   6.646   2.221
 1562SOL    HW2 5586   3.826   6.738   2.321
 1563SOL     OW 5587   3.591   2.079   4.410
 1563SOL    HW1 5588   3.609   2.035   4.497
 1563SOL    HW2 5589   3.655   2.154   4.396
 1564SOL     OW 5590   1.097   2.298   3.260
 1564SOL    HW1 5591   1.107   2.388   3.217
 1564SOL    HW2 5592   1.116   2.305   3.358
 1565SOL     OW 5593   3.760   1.476   4.094
 1565SOL    HW1 5594   3.799   1.558   4.052
 1565SOL    HW2 5595   3.714   1.501   4.179
 1566SOL     OW 5596   4.893   4.817   3.184
 1566SOL    HW1 5597   4.948   4.863   3.114
 1566SOL    HW2 5598   4.833   4.883   3.228
 1567SOL     OW 5599   5.402   0.543   4.848
 1567SOL    HW1 5600   5.384   0.586   4.936
 1567SOL    HW2 5601   5.408   0.444   4.860
 1568SOL     OW 5602   2.677   5.199   1.901
 1568SOL    HW1 5603   2.717   5.238   1.819
 1568SOL    HW2 5604   2.707   5.104   1.912
 1569SOL     OW 5605   3.271   0.309   3.024
 1569SOL    HW1 5606   3.200   0.377   3.005
 1569SOL    HW2 5607   3.295   0.313   3.121
 1570SOL     OW 5608   3.176   6.014   6.178
 1570SOL    HW1 5609   3.257   5.963   6.207
 1570SOL    HW2 5610   3.190   6.047   6.085
 1571SOL     OW 5611   0.610   2.737   4.456
 1571SOL    HW1 5612   0.537   2.805   4.458
 1571SOL    HW2 5613   0.599   2.679   4.375
 1572SOL     OW 5614   2.119   5.110   1.789
 1572SOL    HW1 5615   2.180   5.143   1.862
 1572SOL    HW2 5616   2.168   5.045   1.731
 1573SOL     OW 5617   5.781   5.710   0.346
 1573SOL    HW1 5618   5.861   5.662   0.383
 1573SOL    HW2 5619   5.786   5.806   0.371
 1574SOL     OW 5620   6.805   3.619   3.520
 1574SOL    HW1 5621   6.713   3.643   3.548
 1574SOL    HW2 5622   6.853   3.576   3.596
 1575SOL     OW 5623   6.669   1.797   0.329
 1575SOL    HW1 5624   6.626   1.753   0.251
 1575SOL    HW2 5625   6.725   1.874   0.297
 1576SOL     OW 5626   1.001   0.466   1.988
 1576SOL    HW1 5627   0.993   0.500   2.082
 1576SOL    HW2 5628   1.052   0.533   1.933
 1577SOL     OW 5629   3.948   5.273   5.458
 1577SOL    HW1 5630   3.913   5.353   5.508
 1577SOL    HW2 5631   3.995   5.212   5.522
 1578SOL     OW 5632   4.949   1.424   1.304
 1578SOL    HW1 5633   4.951   1.446   1.401
 1578SOL    HW2 5634   4.857   1.439   1.268
 1579SOL     OW 5635   1.896   3.012   1.262
 1579SOL    HW1 5636   1.976   2.952   1.264
 1579SOL    HW2 5637   1.919   3.100   1.304
 1580SOL     OW 5638   3.231   3.577   2.527
 1580SOL    HW1 5639   3.160   3.513   2.498
 1580SOL    HW2 5640   3.225   3.591   2.626
 1581SOL     OW 5641   5.919   4.364   5.822
 1581SOL    HW1 5642   6.018   4.355   5.819
 1581SOL    HW2 5643   5.890   4.430   5.752
 1582SOL     OW 5644   4.380   6.391   5.408
 1582SOL    HW1 5645   4.383   6.322   5.335
 1582SOL    HW2 5646   4.440   6.362   5.483
 1583SOL     OW 5647   1.394   5.621   5.065
 1583SOL    HW1 5648   1.449   5.537   5.058
 1583SOL    HW2 5649   1.351   5.639   4.977
 1584SOL     OW 5650   0.148   4.879   0.524
 1584SOL    HW1 5651   0.079   4.855   0.456
 1584SOL    HW2 5652   0.230   4.822   0.510
 1585SOL     OW 5653   4.089   6.417   3.355
 1585SOL    HW1 5654   4.087   6.471   3.439
 1585SOL    HW2 5655   4.003   6.368   3.345
 1586SOL     OW 5656   3.458   5.270   3.739
 1586SOL    HW1 5657   3.499   5.178   3.742
 1586SOL    HW2 5658   3.517   5.331   3.687
 1587SOL     OW 5659   2.623   6.102   6.352
 1587SOL    HW1 5660   2.664   6.011   6.361
 1587SOL    HW2 5661   2.524   6.095   6.360
 1588SOL     OW 5662   5.915   1.535   3.464
 1588SOL    HW1 5663   5.913   1.446   3.509
 1588SOL    HW2 5664   5.885   1.525   3.369
 1589SOL     OW 5665   6.271   4.521   4.034
 1589SOL    HW1 5666   6.211   4.544   3.958
 1589SOL    HW2 5667   6.365   4.545   4.012
 1590SOL     OW 5668   6.086   2.565   3.458
 1590SOL    HW1 5669   6.088   2.645   3.518
 1590SOL    HW2 5670   6.007   2.571   3.397
 1591SOL     OW 5671   1.468   6.972   2.064
 1591SOL    HW1 5672   1.453   6.874   2.074
 1591SOL    HW2 5673   1.408   7.009   1.993
 1592SOL     OW 5674   0.134   4.140   6.274
 1592SOL    HW1 5675   0.092   4.142   6.184
 1592SOL    HW2 5676   0.099   4.062   6.326
 1593SOL     OW 5677   3.294   0.683   0.254
 1593SOL    HW1 5678   3.226   0.646   0.318
 1593SOL    HW2 5679   3.283   0.640   0.165
 1594SOL     OW 5680   6.545   6.993   2.250
 1594SOL    HW1 5681   6.467   6.998   2.188
 1594SOL    HW2 5682   6.521   0.012   2.337
 1595SOL     OW 5683   0.353   4.136   0.058
 1595SOL    HW1 5684   0.380   4.178   6.996
 1595SOL    HW2 5685   0.415   4.061   0.079
 1596SOL     OW 5686   4.463   4.903   2.794
 1596SOL    HW1 5687   4.552   4.940   2.767
 1596SOL    HW2 5688   4.425   4.850   2.718
 1597SOL     OW 5689   3.688   6.340   6.700
 1597SOL    HW1 5690   3.779   6.379   6.689
 1597SOL    HW2 5691   3.620   6.403   6.661
 1598SOL     OW 5692   1.949   5.012   0.309
 1598SOL    HW1 5693   1.864   4.979   0.268
 1598SOL    HW2 5694   1.930   5.093   0.364
 1599SOL     OW 5695   4.692   5.543   3.505
 1599SOL    HW1 5696   4.647   5.549   3.594
 1599SOL    HW2 5697   4.623   5.548   3.433
 1600SOL     OW 5698   4.878   6.877   2.417
 1600SOL    HW1 5699   4.811   6.815   2.377
 1600SOL    HW2 5700   4.837   6.967   2.429
 1601SOL     OW 5701   6.973   6.513   4.182
 1601SOL    HW1 5702   0.001   6.597   4.180
 1601SOL    HW2 5703   6.932   6.501   4.273
 1602SOL     OW 5704   3.628   5.199   4.103
 1602SOL    HW1 5705   3.679   5.264   4.048
 1602SOL    HW2 5706   3.621   5.233   4.197
 1603SOL     OW 5707   3.348   5.316   2.940
 1603SOL    HW1 5708   3.444   5.309   2.912
 1603SOL    HW2 5709   3.310   5.402   2.908
 1604SOL     OW 5710   4.258   5.205   1.924
 1604SOL    HW1 5711   4.295   5.297   1.939
 1604SOL    HW2 5712   4.184   5.188   1.989
 1605SOL     OW 5713   4.673   5.705   1.004
 1605SOL    HW1 5714   4.645   5.791   0.962
 1605SOL    HW2 5715   4.610   5.682   1.078
 1606SOL     OW 5716   3.395   6.166   4.684
 1606SOL    HW1 5717   3.463   6.143   4.754
 1606SOL    HW2 5718   3.440   6.177   4.596
 1607SOL     OW 5719   4.551   6.095   3.015
 1607SOL    HW1 5720   4.619   6.058   3.078
 1607SOL    HW2 5721   4.596   6.154   2.948
 1608SOL     OW 5722   5.872   0.978   3.269
 1608SOL    HW1 5723   5.891   0.890   3.226
 1608SOL    HW2 5724   5.844   0.963   3.364
 1609SOL     OW 5725   2.802   6.731   0.174
 1609SOL    HW1 5726   2.740   6.808   0.189
 1609SOL    HW2 5727   2.892   6.765   0.151
 1610SOL     OW 5728   5.277   0.331   0.764
 1610SOL    HW1 5729   5.233   0.244   0.787
 1610SOL    HW2 5730   5.221   0.406   0.798
 1611SOL     OW 5731   1.295   4.355   1.654
 1611SOL    HW1 5732   1.370   4.368   1.588
 1611SOL    HW2 5733   1.257   4.263   1.643
 1612SOL     OW 5734   3.901   0.083   1.844
 1612SOL    HW1 5735   3.988   0.102   1.800
 1612SOL    HW2 5736   3.880   0.157   1.909
 1613SOL     OW 5737   6.610   5.185   2.372
 1613SOL    HW1 5738   6.678   5.250   2.407
 1613SOL    HW2 5739   6.608   5.104   2.431
 1614SOL     OW 5740   6.899   1.831   6.141
 1614SOL    HW1 5741   6.867   1.903   6.202
 1614SOL    HW2 5742   6.827   1.809   6.075
 1615SOL     OW 5743   1.158   4.755   6.167
 1615SOL    HW1 5744   1.134   4.820   6.095
 1615SOL    HW2 5745   1.079   4.740   6.225
 1616SOL     OW 5746   2.187   1.541   4.766
 1616SOL    HW1 5747   2.117   1.607   4.739
 1616SOL    HW2 5748   2.186   1.463   4.702
 1617SOL     OW 5749   5.570   5.941   3.307
 1617SOL    HW1 5750   5.548   6.011   3.374
 1617SOL    HW2 5751   5.622   5.982   3.232
 1618SOL     OW 5752   2.916   5.313   2.950
 1618SOL    HW1 5753   2.828   5.339   2.911
 1618SOL    HW2 5754   2.927   5.214   2.944
 1619SOL     OW 5755   1.346   4.805   6.660
 1619SOL    HW1 5756   1.374   4.884   6.606
 1619SOL    HW2 5757   1.274   4.832   6.723
 1620SOL     OW 5758   3.559   5.322   6.067
 1620SOL    HW1 5759   3.559   5.408   6.017
 1620SOL    HW2 5760   3.484   5.322   6.134
 1621SOL     OW 5761   5.407   5.981   1.097
 1621SOL    HW1 5762   5.356   5.977   1.184
 1621SOL    HW2 5763   5.344   6.006   1.023
 1622SOL     OW 5764   0.825   4.610   4.492
 1622SOL    HW1 5765   0.905   4.551   4.496
 1622SOL    HW2 5766   0.852   4.705   4.507
 1623SOL     OW 5767   0.413   2.185   4.287
 1623SOL    HW1 5768   0.386   2.117   4.219
 1623SOL    HW2 5769   0.509   2.170   4.313
 1624SOL     OW 5770   4.228   1.534   0.839
 1624SOL    HW1 5771   4.206   1.614   0.894
 1624SOL    HW2 5772   4.312   1.551   0.787
 1625SOL     OW 5773   0.889   5.928   0.734
 1625SOL    HW1 5774   0.820   5.878   0.787
 1625SOL    HW2 5775   0.850   5.955   0.646
 1626SOL     OW 5776   2.856   2.047   1.259
 1626SOL    HW1 5777   2.910   2.032   1.177
 1626SOL    HW2 5778   2.906   2.108   1.321
 1627SOL     OW 5779   4.318   1.582   4.576
 1627SOL    HW1 5780   4.289   1.506   4.634
 1627SOL    HW2 5781   4.313   1.554   4.480
 1628SOL     OW 5782   5.400   6.702   0.557
 1628SOL    HW1 5783   5.484   6.749   0.586
 1628SOL    HW2 5784   5.424   6.615   0.513
 1629SOL     OW 5785   1.873   0.680   3.526
 1629SOL    HW1 5786   1.933   0.612   3.568
 1629SOL    HW2 5787   1.856   0.754   3.591
 1630SOL     OW 5788   0.120   3.787   0.190
 1630SOL    HW1 5789   0.063   3.741   0.258
 1630SOL    HW2 5790   0.082   3.772   0.099
 1631SOL     OW 5791   6.693   3.404   0.243
 1631SOL    HW1 5792   6.646   3.400   0.331
 1631SOL    HW2 5793   6.753   3.324   0.234
 1632SOL     OW 5794   6.495   5.006   2.597
 1632SOL    HW1 5795   6.515   5.098   2.630
 1632SOL    HW2 5796   6.397   4.997   2.580
 1633SOL     OW 5797   5.319   3.242   3.980
 1633SOL    HW1 5798   5.254   3.313   4.006
 1633SOL    HW2 5799   5.303   3.161   4.037
 1634SOL     OW 5800   6.043   0.954   4.442
 1634SOL    HW1 5801   6.007   0.946   4.535
 1634SOL    HW2 5802   6.110   0.881   4.427
 1635SOL     OW 5803   3.639   5.878   4.100
 1635SOL    HW1 5804   3.571   5.902   4.031
 1635SOL    HW2 5805   3.627   5.782   4.127
 1636SOL     OW 5806   5.799   6.900   1.817
 1636SOL    HW1 5807   5.882   6.847   1.836
 1636SOL    HW2 5808   5.718   6.843   1.835
 1637SOL     OW 5809   0.354   0.202   2.015
 1637SOL    HW1 5810   0.376   0.244   2.103
 1637SOL    HW2 5811   0.382   0.264   1.941
 1638SOL     OW 5812   6.298   3.344   1.832
 1638SOL    HW1 5813   6.224   3.314   1.893
 1638SOL    HW2 5814   6.359   3.267   1.814
 1639SOL     OW 5815   5.278   2.552   2.313
 1639SOL    HW1 5816   5.304   2.530   2.219
 1639SOL    HW2 5817   5.270   2.651   2.323
 1640SOL     OW 5818   6.343   0.179   6.462
 1640SOL    HW1 5819   6.402   0.105   6.491
 1640SOL    HW2 5820   6.248   0.149   6.464
 1641SOL     OW 5821   6.362   2.490   3.225
 1641SOL    HW1 5822   6.385   2.462   3.318
 1641SOL    HW2 5823   6.264   2.476   3.209
 1642SOL     OW 5824   6.142   2.250   5.682
 1642SOL    HW1 5825   6.231   2.208   5.700
 1642SOL    HW2 5826   6.154   2.347   5.661
 1643SOL     OW 5827   2.589   5.881   3.434
 1643SOL    HW1 5828   2.577   5.871   3.533
 1643SOL    HW2 5829   2.612   5.976   3.413
 1644SOL     OW 5830   6.210   2.921   1.579
 1644SOL    HW1 5831   6.154   2.888   1.502
 1644SOL    HW2 5832   6.192   2.863   1.659
 1645SOL     OW 5833   2.239   0.975   5.934
 1645SOL    HW1 5834   2.169   0.950   6.002
 1645SOL    HW2 5835   2.293   1.052   5.969
 1646SOL     OW 5836   1.150   5.715   1.109
 1646SOL    HW1 5837   1.101   5.698   1.195
 1646SOL    HW2 5838   1.151   5.813   1.090
 1647SOL     OW 5839   6.014   2.822   4.023
 1647SOL    HW1 5840   5.925   2.797   4.062
 1647SOL    HW2 5841   6.046   2.907   4.067
 1648SOL     OW 5842   5.667   6.044   1.329
 1648SOL    HW1 5843   5.616   6.101   1.263
 1648SOL    HW2 5844   5.626   6.054   1.420
 1649SOL     OW 5845   3.727   0.472   3.506
 1649SOL    HW1 5846   3.815   0.490   3.461
 1649SOL    HW2 5847   3.655   0.474   3.437
 1650SOL     OW 5848   3.085   4.295   6.567
 1650SOL    HW1 5849   3.066   4.272   6.472
 1650SOL    HW2 5850   2.999   4.303   6.618
 1651SOL     OW 5851   1.098   2.913   3.699
 1651SOL    HW1 5852   1.033   2.918   3.623
 1651SOL    HW2 5853   1.173   2.853   3.673
 1652SOL     OW 5854   0.852   2.224   1.479
 1652SOL    HW1 5855   0.864   2.221   1.380
 1652SOL    HW2 5856   0.927   2.175   1.524
 1653SOL     OW 5857   0.159   4.462   3.328
 1653SOL    HW1 5858   0.081   4.430   3.381
 1653SOL    HW2 5859   0.242   4.452   3.383
 1654SOL     OW 5860   0.448   3.137   2.058
 1654SOL    HW1 5861   0.402   3.065   2.109
 1654SOL    HW2 5862   0.401   3.152   1.971
 1655SOL     OW 5863   0.201   6.527   4.532
 1655SOL    HW1 5864   0.143   6.458   4.488
 1655SOL    HW2 5865   0.209   6.507   4.629
 1656SOL     OW 5866   1.795   4.504   3.447
 1656SOL    HW1 5867   1.771   4.489   3.543
 1656SOL    HW2 5868   1.860   4.579   3.440
 1657SOL     OW 5869   1.403   6.642   5.341
 1657SOL    HW1 5870   1.444   6.723   5.298
 1657SOL    HW2 5871   1.333   6.671   5.406
 1658SOL     OW 5872   6.503   0.011   6.590
 1658SOL    HW1 5873   6.558   6.954   6.574
 1658SOL    HW2 5874   6.456   0.003   6.678
 1659SOL     OW 5875   4.813   6.517   6.503
 1659SOL    HW1 5876   4.900   6.473   6.482
 1659SOL    HW2 5877   4.797   6.592   6.438
 1660SOL     OW 5878   2.698   0.097   2.320
 1660SOL    HW1 5879   2.687   0.197   2.315
 1660SOL    HW2 5880   2.780   0.076   2.373
 1661SOL     OW 5881   4.060   4.791   2.477
 1661SOL    HW1 5882   4.100   4.754   2.393
 1661SOL    HW2 5883   3.963   4.812   2.461
 1662SOL     OW 5884   0.240   1.306   4.768
 1662SOL    HW1 5885   0.173   1.365   4.813
 1662SOL    HW2 5886   0.210   1.211   4.773
 1663SOL     OW 5887   4.434   4.782   0.659
 1663SOL    HW1 5888   4.476   4.850   0.719
 1663SOL    HW2 5889   4.488   4.698   0.659
 1664SOL     OW 5890   1.189   0.305   5.592
 1664SOL    HW1 5891   1.238   0.237   5.539
 1664SOL    HW2 5892   1.254   0.371   5.631
 1665SOL     OW 5893   2.238   3.990   0.418
 1665SOL    HW1 5894   2.236   3.890   0.414
 1665SOL    HW2 5895   2.243   4.019   0.514
 1666SOL     OW 5896   5.576   6.488   6.261
 1666SOL    HW1 5897   5.563   6.524   6.353
 1666SOL    HW2 5898   5.649   6.420   6.261
 1667SOL     OW 5899   0.976   6.194   1.117
 1667SOL    HW1 5900   0.927   6.259   1.175
 1667SOL    HW2 5901   0.976   6.227   1.023
 1668SOL     OW 5902   5.443   4.559   3.257
 1668SOL    HW1 5903   5.374   4.630   3.251
 1668SOL    HW2 5904   5.509   4.570   3.182
 1669SOL     OW 5905   6.441   3.189   5.440
 1669SOL    HW1 5906   6.487   3.272   5.408
 1669SOL    HW2 5907   6.354   3.179   5.392
 1670SOL     OW 5908   2.087   5.133   6.042
 1670SOL    HW1 5909   2.152   5.167   6.109
 1670SOL    HW2 5910   2.071   5.036   6.058
 1671SOL     OW 5911   6.174   2.000   1.093
 1671SOL    HW1 5912   6.167   1.901   1.109
 1671SOL    HW2 5913   6.088   2.044   1.116
 1672SOL     OW 5914   0.784   3.863   7.004
 1672SOL    HW1 5915   0.755   3.796   6.936
 1672SOL    HW2 5916   0.850   3.926   6.963
 1673SOL     OW 5917   2.303   1.469   4.995
 1673SOL    HW1 5918   2.301   1.544   5.061
 1673SOL    HW2 5919   2.242   1.490   4.918
 1674SOL     OW 5920   4.777   1.924   3.075
 1674SOL    HW1 5921   4.833   1.950   2.997
 1674SOL    HW2 5922   4.791   1.989   3.150
 1675SOL     OW 5923   5.395   0.929   1.135
 1675SOL    HW1 5924   5.488   0.929   1.172
 1675SOL    HW2 5925   5.341   0.859   1.182
 1676SOL     OW 5926   1.620   1.764   2.709
 1676SOL    HW1 5927   1.705   1.743   2.661
 1676SOL    HW2 5928   1.628   1.735   2.805
 1677SOL     OW 5929   4.010   3.910   3.162
 1677SOL    HW1 5930   4.048   3.826   3.123
 1677SOL    HW2 5931   4.084   3.967   3.197
 1678SOL     OW 5932   1.177   0.031   0.952
 1678SOL    HW1 5933   1.091   7.009   0.934
 1678SOL    HW2 5934   1.184   0.111   0.894
 1679SOL     OW 5935   0.944   2.289   5.830
 1679SOL    HW1 5936   0.990   2.240   5.756
 1679SOL    HW2 5937   1.011   2.343   5.881
 1680SOL     OW 5938   4.998   2.393   3.898
 1680SOL    HW1 5939   5.029   2.486   3.881
 1680SOL    HW2 5940   4.913   2.395   3.952
 1681SOL     OW 5941   2.095   6.298   4.103
 1681SOL    HW1 5942   2.062   6.295   4.198
 1681SOL    HW2 5943   2.129   6.208   4.077
 1682SOL     OW 5944   3.135   0.617   4.983
 1682SOL    HW1 5945   3.106   0.611   5.078
 1682SOL    HW2 5946   3.160   0.526   4.950
 1683SOL     OW 5947   5.785   4.885   2.619
 1683SOL    HW1 5948   5.837   4.849   2.542
 1683SOL    HW2 5949   5.845   4.944   2.675
 1684SOL     OW 5950   2.603   4.697   1.829
 1684SOL    HW1 5951   2.552   4.613   1.812
 1684SOL    HW2 5952   2.685   4.677   1.883
 1685SOL     OW 5953   0.171   1.083   5.145
 1685SOL    HW1 5954   0.148   0.997   5.192
 1685SOL    HW2 5955   0.087   1.125   5.110
 1686SOL     OW 5956   5.015   5.781   2.848
 1686SOL    HW1 5957   4.935   5.721   2.848
 1686SOL    HW2 5958   4.987   5.873   2.820
 1687SOL     OW 5959   5.869   3.760   2.754
 1687SOL    HW1 5960   5.811   3.678   2.758
 1687SOL    HW2 5961   5.943   3.751   2.821
 1688SOL     OW 5962   1.927   1.386   3.740
 1688SOL    HW1 5963   1.963   1.461   3.684
 1688SOL    HW2 5964   1.912   1.306   3.682
 1689SOL     OW 5965   4.738   0.874   1.716
 1689SOL    HW1 5966   4.804   0.933   1.761
 1689SOL    HW2 5967   4.676   0.929   1.659
 1690SOL     OW 5968   1.078   4.519   4.403
 1690SOL    HW1 5969   1.114   4.436   4.360
 1690SOL    HW2 5970   1.153   4.582   4.422
 1691SOL     OW 5971   4.602   2.792   5.214
 1691SOL    HW1 5972   4.621   2.749   5.302
 1691SOL    HW2 5973   4.525   2.856   5.224
 1692SOL     OW 5974   5.625   5.291   1.312
 1692SOL    HW1 5975   5.644   5.197   1.283
 1692SOL    HW2 5976   5.533   5.296   1.350
 1693SOL     OW 5977   5.329   0.018   5.469
 1693SOL    HW1 5978   5.403   0.030   5.403
 1693SOL    HW2 5979   5.327   6.948   5.501
 1694SOL     OW 5980   4.758   1.261   5.180
 1694SOL    HW1 5981   4.832   1.280   5.244
 1694SOL    HW2 5982   4.719   1.172   5.200
 1695SOL     OW 5983   3.806   0.740   6.308
 1695SOL    HW1 5984   3.775   0.680   6.382
 1695SOL    HW2 5985   3.807   0.689   6.223
 1696SOL     OW 5986   4.923   5.932   0.497
 1696SOL    HW1 5987   4.861   5.876   0.552
 1696SOL    HW2 5988   4.870   5.983   0.429
 1697SOL     OW 5989   5.808   2.415   2.309
 1697SOL    HW1 5990   5.713   2.430   2.336
 1697SOL    HW2 5991   5.820   2.320   2.281
 1698SOL     OW 5992   3.981   1.182   1.516
 1698SOL    HW1 5993   3.907   1.238   1.554
 1698SOL    HW2 5994   4.069   1.222   1.541
 1699SOL     OW 5995   2.471   0.313   6.883
 1699SOL    HW1 5996   2.446   0.409   6.870
 1699SOL    HW2 5997   2.428   0.278   6.966
 1700SOL     OW 5998   6.446   2.660   2.630
 1700SOL    HW1 5999   6.375   2.658   2.560
 1700SOL    HW2 6000   6.463   2.566   2.662
 1701SOL     OW 6001   0.355   5.846   4.294
 1701SOL    HW1 6002   0.361   5.764   4.350
 1701SOL    HW2 6003   0.273   5.842   4.237
 1702SOL     OW 6004   2.237   2.410   6.053
 1702SOL    HW1 6005   2.280   2.402   6.143
 1702SOL    HW2 6006   2.137   2.403   6.063
 1703SOL     OW 6007   3.396   2.096   0.712
 1703SOL    HW1 6008   3.337   2.173   0.735
 1703SOL    HW2 6009   3.352   2.039   0.642
 1704SOL     OW 6010   2.491   2.338   1.291
 1704SOL    HW1 6011   2.545   2.258   1.318
 1704SOL    HW2 6012   2.396   2.310   1.275
 1705SOL     OW 6013   4.123   2.179   0.542
 1705SOL    HW1 6014   4.132   2.082   0.517
 1705SOL    HW2 6015   4.055   2.189   0.614
 1706SOL     OW 6016   4.349   2.201   6.502
 1706SOL    HW1 6017   4.260   2.220   6.542
 1706SOL    HW2 6018   4.415   2.181   6.575
 1707SOL     OW 6019   4.590   2.134   2.233
 1707SOL    HW1 6020   4.561   2.086   2.316
 1707SOL    HW2 6021   4.617   2.228   2.257
 1708SOL     OW 6022   3.464   5.049   1.490
 1708SOL    HW1 6023   3.512   4.985   1.551
 1708SOL    HW2 6024   3.406   4.998   1.427
 1709SOL     OW 6025   4.614   5.316   0.449
 1709SOL    HW1 6026   4.673   5.274   0.380
 1709SOL    HW2 6027   4.669   5.353   0.523
 1710SOL     OW 6028   4.248   5.209   3.092
 1710SOL    HW1 6029   4.245   5.109   3.097
 1710SOL    HW2 6030   4.155   5.245   3.095
 1711SOL     OW 6031   3.968   4.416   6.396
 1711SOL    HW1 6032   3.921   4.367   6.323
 1711SOL    HW2 6033   3.929   4.508   6.406
 1712SOL     OW 6034   6.987   1.594   3.305
 1712SOL    HW1 6035   6.963   1.497   3.294
 1712SOL    HW2 6036   0.056   1.608   3.274
 1713SOL     OW 6037   4.145   0.626   3.136
 1713SOL    HW1 6038   4.219   0.677   3.091
 1713SOL    HW2 6039   4.107   0.681   3.210
 1714SOL     OW 6040   3.973   3.421   0.445
 1714SOL    HW1 6041   4.045   3.466   0.498
 1714SOL    HW2 6042   3.922   3.490   0.393
 1715SOL     OW 6043   1.954   6.905   2.893
 1715SOL    HW1 6044   1.862   6.896   2.854
 1715SOL    HW2 6045   2.009   6.826   2.864
 1716SOL     OW 6046   4.937   0.584   3.762
 1716SOL    HW1 6047   4.874   0.519   3.805
 1716SOL    HW2 6048   5.025   0.540   3.747
 1717SOL     OW 6049   3.478   6.127   5.567
 1717SOL    HW1 6050   3.556   6.179   5.601
 1717SOL    HW2 6051   3.399   6.187   5.558
 1718SOL     OW 6052   1.361   2.992   1.644
 1718SOL    HW1 6053   1.335   3.077   1.598
 1718SOL    HW2 6054   1.280   2.949   1.683
 1719SOL     OW 6055   1.432   5.423   2.223
 1719SOL    HW1 6056   1.478   5.334   2.234
 1719SOL    HW2 6057   1.357   5.430   2.288
 1720SOL     OW 6058   6.939   3.041   5.990
 1720SOL    HW1 6059   0.008   3.070   6.009
 1720SOL    HW2 6060   6.896   3.105   5.926
 1721SOL     OW 6061   1.560   1.925   0.548
 1721SOL    HW1 6062   1.566   2.020   0.518
 1721SOL    HW2 6063   1.471   1.908   0.589
 1722SOL     OW 6064   2.660   2.323   3.433
 1722SOL    HW1 6065   2.633   2.365   3.519
 1722SOL    HW2 6066   2.758   2.303   3.435
 1723SOL     OW 6067   5.041   2.945   0.029
 1723SOL    HW1 6068   5.094   3.020   0.068
 1723SOL    HW2 6069   5.101   2.885   7.001
 1724SOL     OW 6070   6.744   2.083   1.252
 1724SOL    HW1 6071   6.675   2.155   1.247
 1724SOL    HW2 6072   6.774   2.073   1.347
 1725SOL     OW 6073   1.531   6.092   6.994
 1725SOL    HW1 6074   1.489   6.142   0.045
 1725SOL    HW2 6075   1.614   6.046   0.001
 1726SOL     OW 6076   5.600   4.296   3.250
 1726SOL    HW1 6077   5.597   4.259   3.157
 1726SOL    HW2 6078   5.569   4.391   3.249
 1727SOL     OW 6079   3.034   3.579   3.588
 1727SOL    HW1 6080   3.014   3.522   3.667
 1727SOL    HW2 6081   2.990   3.541   3.507
 1728SOL     OW 6082   4.614   2.119   3.970
 1728SOL    HW1 6083   4.635   2.155   3.879
 1728SOL    HW2 6084   4.520   2.142   3.995
 1729SOL     OW 6085   1.661   3.927   2.445
 1729SOL    HW1 6086   1.656   3.972   2.534
 1729SOL    HW2 6087   1.677   3.829   2.459
 1730SOL     OW 6088   2.473   4.797   5.097
 1730SOL    HW1 6089   2.483   4.868   5.167
 1730SOL    HW2 6090   2.384   4.753   5.106
 1731SOL     OW 6091   6.095   4.569   3.820
 1731SOL    HW1 6092   6.006   4.529   3.841
 1731SOL    HW2 6093   6.092   4.612   3.730
 1732SOL     OW 6094   1.915   4.069   5.756
 1732SOL    HW1 6095   1.837   4.019   5.791
 1732SOL    HW2 6096   1.993   4.057   5.817
 1733SOL     OW 6097   2.728   4.072   6.712
 1733SOL    HW1 6098   2.662   4.120   6.653
 1733SOL    HW2 6099   2.735   3.977   6.683
 1734SOL     OW 6100   0.200   2.717   1.600
 1734SOL    HW1 6101   0.189   2.769   1.516
 1734SOL    HW2 6102   0.127   2.649   1.607
 1735SOL     OW 6103   3.749   5.205   5.671
 1735SOL    HW1 6104   3.688   5.148   5.615
 1735SOL    HW2 6105   3.820   5.148   5.711
 1736SOL     OW 6106   4.803   3.162   0.951
 1736SOL    HW1 6107   4.768   3.074   0.981
 1736SOL    HW2 6108   4.782   3.175   0.854
 1737SOL     OW 6109   4.635   1.528   5.677
 1737SOL    HW1 6110   4.686   1.540   5.592
 1737SOL    HW2 6111   4.542   1.562   5.664
 1738SOL     OW 6112   1.623   3.424   4.422
 1738SOL    HW1 6113   1.643   3.330   4.395
 1738SOL    HW2 6114   1.687   3.452   4.494
 1739SOL     OW 6115   6.023   0.484   4.054
 1739SOL    HW1 6116   5.937   0.530   4.074
 1739SOL    HW2 6117   6.096   0.552   4.043
 1740SOL     OW 6118   6.257   2.780   4.478
 1740SOL    HW1 6119   6.275   2.728   4.561
 1740SOL    HW2 6120   6.189   2.851   4.498
 1741SOL     OW 6121   0.947   1.994   4.558
 1741SOL    HW1 6122   1.026   1.947   4.519
 1741SOL    HW2 6123   0.872   1.928   4.569
 1742SOL     OW 6124   5.761   6.730   6.139
 1742SOL    HW1 6125   5.662   6.744   6.137
 1742SOL    HW2 6126   5.780   6.632   6.127
 1743SOL     OW 6127   1.639   0.979   2.814
 1743SOL    HW1 6128   1.671   1.039   2.741
 1743SOL    HW2 6129   1.539   0.976   2.814
 1744SOL     OW 6130   3.838   1.824   4.357
 1744SOL    HW1 6131   3.873   1.888   4.425
 1744SOL    HW2 6132   3.909   1.757   4.335
 1745SOL     OW 6133   6.551   6.997   1.815
 1745SOL    HW1 6134   6.483   6.982   1.743
 1745SOL    HW2 6135   6.631   6.939   1.798
 1746SOL     OW 6136   2.331   4.588   3.755
 1746SOL    HW1 6137   2.282   4.541   3.681
 1746SOL    HW2 6138   2.272   4.596   3.835
 1747SOL     OW 6139   4.185   6.960   2.376
 1747SOL    HW1 6140   4.196   6.924   2.284
 1747SOL    HW2 6141   4.225   6.896   2.442
 1748SOL     OW 6142   6.548   2.589   4.529
 1748SOL    HW1 6143   6.610   2.621   4.601
 1748SOL    HW2 6144   6.528   2.665   4.467
 1749SOL     OW 6145   1.710   4.578   0.839
 1749SOL    HW1 6146   1.739   4.671   0.861
 1749SOL    HW2 6147   1.708   4.523   0.922
 1750SOL     OW 6148   3.959   6.960   5.842
 1750SOL    HW1 6149   3.942   6.863   5.825
 1750SOL    HW2 6150   4.049   6.971   5.884
 1751SOL     OW 6151   4.982   2.753   5.578
 1751SOL    HW1 6152   4.954   2.770   5.483
 1751SOL    HW2 6153   4.977   2.839   5.629
 1752SOL     OW 6154   0.048   0.733   1.863
 1752SOL    HW1 6155   0.121   0.730   1.931
 1752SOL    HW2 6156   7.019   0.649   1.867
 1753SOL     OW 6157   6.006   1.511   1.638
 1753SOL    HW1 6158   6.028   1.471   1.550
 1753SOL    HW2 6159   5.937   1.582   1.626
 1754SOL     OW 6160   2.967   5.699   4.353
 1754SOL    HW1 6161   3.056   5.729   4.320
 1754SOL    HW2 6162   2.975   5.610   4.397
 1755SOL     OW 6163   6.779   6.670   5.038
 1755SOL    HW1 6164   6.727   6.717   5.110
 1755SOL    HW2 6165   6.724   6.666   4.955
 1756SOL     OW 6166   4.856   6.578   6.087
 1756SOL    HW1 6167   4.781   6.635   6.120
 1756SOL    HW2 6168   4.910   6.628   6.019
 1757SOL     OW 6169   2.192   4.812   5.178
 1757SOL    HW1 6170   2.160   4.892   5.228
 1757SOL    HW2 6171   2.113   4.756   5.151
 1758SOL     OW 6172   1.823   6.430   4.819
 1758SOL    HW1 6173   1.818   6.500   4.748
 1758SOL    HW2 6174   1.740   6.434   4.875
 1759SOL     OW 6175   2.063   6.947   0.536
 1759SOL    HW1 6176   2.056   6.860   0.486
 1759SOL    HW2 6177   1.978   6.998   0.524
 1760SOL     OW 6178   6.645   1.077   4.506
 1760SOL    HW1 6179   6.707   1.130   4.448
 1760SOL    HW2 6180   6.642   1.118   4.598
 1761SOL     OW 6181   6.083   1.440   2.277
 1761SOL    HW1 6182   6.059   1.454   2.373
 1761SOL    HW2 6183   6.176   1.472   2.261
 1762SOL     OW 6184   0.708   1.823   6.021
 1762SOL    HW1 6185   0.716   1.756   5.947
 1762SOL    HW2 6186   0.779   1.892   6.011
 1763SOL     OW 6187   0.634   3.832   4.066
 1763SOL    HW1 6188   0.728   3.848   4.096
 1763SOL    HW2 6189   0.617   3.733   4.062
 1764SOL     OW 6190   0.926   5.616   2.856
 1764SOL    HW1 6191   0.913   5.589   2.952
 1764SOL    HW2 6192   1.019   5.593   2.827
 1765SOL     OW 6193   5.747   3.139   2.470
 1765SOL    HW1 6194   5.797   3.135   2.383
 1765SOL    HW2 6195   5.805   3.181   2.539
 1766SOL     OW 6196   4.599   4.631   3.882
 1766SOL    HW1 6197   4.681   4.611   3.828
 1766SOL    HW2 6198   4.601   4.726   3.912
 1767SOL     OW 6199   0.786   4.466   2.355
 1767SOL    HW1 6200   0.875   4.505   2.379
 1767SOL    HW2 6201   0.734   4.447   2.439
 1768SOL     OW 6202   5.172   6.374   2.172
 1768SOL    HW1 6203   5.202   6.326   2.090
 1768SOL    HW2 6204   5.112   6.450   2.146
 1769SOL     OW 6205   5.329   0.313   0.185
 1769SOL    HW1 6206   5.343   0.236   0.247
 1769SOL    HW2 6207   5.282   0.282   0.102
 1770SOL     OW 6208   1.897   5.758   6.965
 1770SOL    HW1 6209   1.916   5.722   6.874
 1770SOL    HW2 6210   1.983   5.780   7.011
 1771SOL     OW 6211   1.479   2.935   5.830
 1771SOL    HW1 6212   1.398   2.992   5.844
 1771SOL    HW2 6213   1.471   2.885   5.744
 1772SOL     OW 6214   2.178   4.755   3.164
 1772SOL    HW1 6215   2.188   4.664   3.122
 1772SOL    HW2 6216   2.267   4.787   3.195
 1773SOL     OW 6217   1.226   6.844   6.165
 1773SOL    HW1 6218   1.130   6.819   6.177
 1773SOL    HW2 6219   1.280   6.805   6.240
 1774SOL     OW 6220   4.817   5.358   0.628
 1774SOL    HW1 6221   4.845   5.262   0.629
 1774SOL    HW2 6222   4.783   5.383   0.719
 1775SOL     OW 6223   2.070   5.484   6.656
 1775SOL    HW1 6224   2.002   5.420   6.691
 1775SOL    HW2 6225   2.121   5.441   6.581
 1776SOL     OW 6226   4.981   1.919   5.702
 1776SOL    HW1 6227   5.051   1.985   5.674
 1776SOL    HW2 6228   4.983   1.909   5.802
 1777SOL     OW 6229   5.033   6.364   6.095
 1777SOL    HW1 6230   5.131   6.381   6.095
 1777SOL    HW2 6231   4.984   6.447   6.123
 1778SOL     OW 6232   5.508   6.927   4.234
 1778SOL    HW1 6233   5.528   6.975   4.319
 1778SOL    HW2 6234   5.507   6.829   4.251
 1779SOL     OW 6235   5.825   5.935   4.452
 1779SOL    HW1 6236   5.748   5.962   4.394
 1779SOL    HW2 6237   5.911   5.950   4.404
 1780SOL     OW 6238   2.481   5.869   4.826
 1780SOL    HW1 6239   2.428   5.831   4.750
 1780SOL    HW2 6240   2.527   5.952   4.795
 1781SOL     OW 6241   4.088   0.788   4.026
 1781SOL    HW1 6242   4.077   0.871   4.082
 1781SOL    HW2 6243   3.999   0.748   4.008
 1782SOL     OW 6244   0.439   1.525   2.937
 1782SOL    HW1 6245   0.466   1.562   3.025
 1782SOL    HW2 6246   0.472   1.431   2.929
 1783SOL     OW 6247   2.178   4.025   6.629
 1783SOL    HW1 6248   2.081   4.048   6.620
 1783SOL    HW2 6249   2.229   4.108   6.653
 1784SOL     OW 6250   2.703   0.332   1.511
 1784SOL    HW1 6251   2.642   0.411   1.505
 1784SOL    HW2 6252   2.652   0.253   1.545
 1785SOL     OW 6253   1.369   6.658   4.657
 1785SOL    HW1 6254   1.273   6.673   4.633
 1785SOL    HW2 6255   1.380   6.565   4.692
 1786SOL     OW 6256   0.983   6.763   0.735
 1786SOL    HW1 6257   1.040   6.753   0.654
 1786SOL    HW2 6258   0.886   6.763   0.708
 1787SOL     OW 6259   2.794   3.731   6.169
 1787SOL    HW1 6260   2.883   3.749   6.128
 1787SOL    HW2 6261   2.725   3.721   6.097
 1788SOL     OW 6262   4.666   3.738   1.295
 1788SOL    HW1 6263   4.705   3.646   1.290
 1788SOL    HW2 6264   4.731   3.804   1.259
 1789SOL     OW 6265   5.579   3.835   1.568
 1789SOL    HW1 6266   5.643   3.822   1.644
 1789SOL    HW2 6267   5.623   3.807   1.483
 1790SOL     OW 6268   2.356   2.345   4.478
 1790SOL    HW1 6269   2.338   2.394   4.564
 1790SOL    HW2 6270   2.378   2.411   4.406
 1791SOL     OW 6271   5.058   0.078   3.151
 1791SOL    HW1 6272   5.140   0.082   3.209
 1791SOL    HW2 6273   5.049   0.164   3.101
 1792SOL     OW 6274   7.004   1.209   5.451
 1792SOL    HW1 6275   6.924   1.177   5.401
 1792SOL    HW2 6276   0.048   1.242   5.387
 1793SOL     OW 6277   7.014   1.036   5.765
 1793SOL    HW1 6278   6.992   1.134   5.765
 1793SOL    HW2 6279   0.069   1.020   5.822
 1794SOL     OW 6280   1.409   0.248   6.670
 1794SOL    HW1 6281   1.441   0.221   6.579
 1794SOL    HW2 6282   1.394   0.166   6.725
 1795SOL     OW 6283   5.846   4.345   1.156
 1795SOL    HW1 6284   5.913   4.404   1.112
 1795SOL    HW2 6285   5.892   4.280   1.216
 1796SOL     OW 6286   0.703   0.418   6.856
 1796SOL    HW1 6287   0.658   0.506   6.842
 1796SOL    HW2 6288   0.700   0.365   6.771
 1797SOL     OW 6289   1.706   5.587   5.969
 1797SOL    HW1 6290   1.669   5.669   5.926
 1797SOL    HW2 6291   1.759   5.612   6.050
 1798SOL     OW 6292   2.863   3.378   5.062
 1798SOL    HW1 6293   2.894   3.473   5.073
 1798SOL    HW2 6294   2.798   3.356   5.135
 1799SOL     OW 6295   3.416   1.691   0.529
 1799SOL    HW1 6296   3.509   1.708   0.494
 1799SOL    HW2 6297   3.408   1.596   0.556
 1800SOL     OW 6298   6.419   3.489   5.067
 1800SOL    HW1 6299   6.353   3.421   5.099
 1800SOL    HW2 6300   6.384   3.581   5.086
 1801SOL     OW 6301   1.143   0.780   3.013
 1801SOL    HW1 6302   1.129   0.861   3.069
 1801SOL    HW2 6303   1.235   0.744   3.028
 1802SOL     OW 6304   6.922   4.588   3.666
 1802SOL    HW1 6305   6.940   4.490   3.680
 1802SOL    HW2 6306   6.946   4.612   3.572
 1803SOL     OW 6307   0.213   6.817   3.242
 1803SOL    HW1 6308   0.178   6.792   3.152
 1803SOL    HW2 6309   0.141   6.861   3.295
 1804SOL     OW 6310   2.006   3.253   5.851
 1804SOL    HW1 6311   1.969   3.273   5.761
 1804SOL    HW2 6312   2.065   3.328   5.881
 1805SOL     OW 6313   0.127   5.647   6.775
 1805SOL    HW1 6314   0.205   5.705   6.796
 1805SOL    HW2 6315   0.046   5.704   6.760
 1806SOL     OW 6316   0.091   1.806   2.004
 1806SOL    HW1 6317   0.104   1.712   1.973
 1806SOL    HW2 6318   7.022   1.818   2.037
 1807SOL     OW 6319   0.212   2.358   2.653
 1807SOL    HW1 6320   0.131   2.354   2.713
 1807SOL    HW2 6321   0.187   2.400   2.566
 1808SOL     OW 6322   4.692   2.466   6.263
 1808SOL    HW1 6323   4.725   2.391   6.321
 1808SOL    HW2 6324   4.671   2.431   6.172
 1809SOL     OW 6325   4.519   0.536   5.398
 1809SOL    HW1 6326   4.592   0.523   5.464
 1809SOL    HW2 6327   4.435   0.563   5.445
 1810SOL     OW 6328   0.348   0.329   4.115
 1810SOL    HW1 6329   0.338   0.229   4.121
 1810SOL    HW2 6330   0.316   0.371   4.200
 1811SOL     OW 6331   4.091   5.526   1.587
 1811SOL    HW1 6332   4.030   5.593   1.545
 1811SOL    HW2 6333   4.114   5.555   1.680
 1812SOL     OW 6334   4.810   6.121   6.074
 1812SOL    HW1 6335   4.838   6.025   6.069
 1812SOL    HW2 6336   4.885   6.180   6.044
 1813SOL     OW 6337   4.828   4.344   2.502
 1813SOL    HW1 6338   4.886   4.421   2.529
 1813SOL    HW2 6339   4.874   4.290   2.431
 1814SOL     OW 6340   6.660   6.045   0.700
 1814SOL    HW1 6341   6.575   6.039   0.751
 1814SOL    HW2 6342   6.650   5.996   0.613
 1815SOL     OW 6343   5.747   6.447   1.520
 1815SOL    HW1 6344   5.825   6.510   1.517
 1815SOL    HW2 6345   5.713   6.431   1.428
 1816SOL     OW 6346   3.910   4.926   5.440
 1816SOL    HW1 6347   3.815   4.955   5.453
 1816SOL    HW2 6348   3.921   4.832   5.471
 1817SOL     OW 6349   0.248   1.679   3.512
 1817SOL    HW1 6350   0.300   1.727   3.441
 1817SOL    HW2 6351   0.203   1.745   3.571
 1818SOL     OW 6352   2.279   1.127   0.258
 1818SOL    HW1 6353   2.370   1.087   0.250
 1818SOL    HW2 6354   2.248   1.156   0.167
 1819SOL     OW 6355   1.837   4.856   3.214
 1819SOL    HW1 6356   1.866   4.946   3.248
 1819SOL    HW2 6357   1.879   4.839   3.125
 1820SOL     OW 6358   3.422   6.923   5.360
 1820SOL    HW1 6359   3.403   6.919   5.458
 1820SOL    HW2 6360   3.431   7.018   5.331
 1821SOL     OW 6361   3.191   2.137   2.622
 1821SOL    HW1 6362   3.134   2.220   2.625
 1821SOL    HW2 6363   3.141   2.062   2.665
 1822SOL     OW 6364   0.021   2.964   2.588
 1822SOL    HW1 6365   7.022   3.057   2.561
 1822SOL    HW2 6366   7.006   2.944   2.678
 1823SOL     OW 6367   4.220   5.885   2.255
 1823SOL    HW1 6368   4.243   5.901   2.159
 1823SOL    HW2 6369   4.176   5.795   2.264
 1824SOL     OW 6370   4.420   3.048   1.682
 1824SOL    HW1 6371   4.392   3.144   1.677
 1824SOL    HW2 6372   4.484   3.036   1.757
 1825SOL     OW 6373   1.490   1.795   4.954
 1825SOL    HW1 6374   1.397   1.769   4.928
 1825SOL    HW2 6375   1.552   1.717   4.940
 1826SOL     OW 6376   3.846   2.318   1.585
 1826SOL    HW1 6377   3.788   2.248   1.626
 1826SOL    HW2 6378   3.890   2.371   1.658
 1827SOL     OW 6379   5.599   5.141   0.953
 1827SOL    HW1 6380   5.594   5.223   1.010
 1827SOL    HW2 6381   5.530   5.075   0.982
 1828SOL     OW 6382   1.389   3.264   4.911
 1828SOL    HW1 6383   1.380   3.359   4.939
 1828SOL    HW2 6384   1.397   3.205   4.991
 1829SOL     OW 6385   4.266   0.579   2.662
 1829SOL    HW1 6386   4.175   0.615   2.682
 1829SOL    HW2 6387   4.259   0.484   2.634
 1830SOL     OW 6388   5.166   0.213   5.437
 1830SOL    HW1 6389   5.223   0.131   5.438
 1830SOL    HW2 6390   5.131   0.228   5.344
 1831SOL     OW 6391   4.038   4.947   0.808
 1831SOL    HW1 6392   4.099   5.026   0.803
 1831SOL    HW2 6393   3.950   4.970   0.766
 1832SOL     OW 6394   2.511   3.040   0.176
 1832SOL    HW1 6395   2.451   3.120   0.171
 1832SOL    HW2 6396   2.564   3.032   0.092
 1833SOL     OW 6397   6.031   0.923   0.090
 1833SOL    HW1 6398   5.964   0.879   0.149
 1833SOL    HW2 6399   6.123   0.901   0.122
 1834SOL     OW 6400   0.620   2.879   5.554
 1834SOL    HW1 6401   0.682   2.957   5.558
 1834SOL    HW2 6402   0.582   2.872   5.461
 1835SOL     OW 6403   0.288   6.567   1.576
 1835SOL    HW1 6404   0.384   6.592   1.588
 1835SOL    HW2 6405   0.254   6.602   1.489
 1836SOL     OW 6406   4.908   2.497   2.407
 1836SOL    HW1 6407   4.944   2.409   2.438
 1836SOL    HW2 6408   4.829   2.482   2.348
 1837SOL     OW 6409   3.133   2.433   5.999
 1837SOL    HW1 6410   3.146   2.488   5.917
 1837SOL    HW2 6411   3.049   2.463   6.046
 1838SOL     OW 6412   5.276   0.825   0.594
 1838SOL    HW1 6413   5.244   0.737   0.557
 1838SOL    HW2 6414   5.242   0.836   0.687
 1839SOL     OW 6415   6.849   0.641   0.015
 1839SOL    HW1 6416   6.894   0.704   0.079
 1839SOL    HW2 6417   6.769   0.686   7.000
 1840SOL     OW 6418   4.569   6.308   3.469
 1840SOL    HW1 6419   4.533   6.395   3.503
 1840SOL    HW2 6420   4.550   6.236   3.536
 1841SOL     OW 6421   2.380   0.568   2.583
 1841SOL    HW1 6422   2.436   0.569   2.500
 1841SOL    HW2 6423   2.425   0.513   2.653
 1842SOL     OW 6424   1.364   5.556   0.684
 1842SOL    HW1 6425   1.367   5.568   0.784
 1842SOL    HW2 6426   1.452   5.521   0.652
 1843SOL     OW 6427   2.600   1.186   5.283
 1843SOL    HW1 6428   2.694   1.207   5.310
 1843SOL    HW2 6429   2.550   1.271   5.266
 1844SOL     OW 6430   6.021   2.425   6.031
 1844SOL    HW1 6431   6.115   2.404   6.003
 1844SOL    HW2 6432   6.020   2.449   6.128
 1845SOL     OW 6433   1.489   1.890   3.524
 1845SOL    HW1 6434   1.521   1.869   3.432
 1845SOL    HW2 6435   1.390   1.905   3.523
 1846SOL     OW 6436   4.016   1.726   1.847
 1846SOL    HW1 6437   4.069   1.809   1.863
 1846SOL    HW2 6438   3.919   1.749   1.839
 1847SOL     OW 6439   1.672   5.854   5.256
 1847SOL    HW1 6440   1.658   5.779   5.321
 1847SOL    HW2 6441   1.605   5.926   5.274
 1848SOL     OW 6442   3.259   6.108   3.122
 1848SOL    HW1 6443   3.338   6.141   3.174
 1848SOL    HW2 6444   3.178   6.160   3.149
 1849SOL     OW 6445   4.984   2.670   2.215
 1849SOL    HW1 6446   4.895   2.714   2.204
 1849SOL    HW2 6447   4.983   2.614   2.298
 1850SOL     OW 6448   4.701   1.423   1.189
 1850SOL    HW1 6449   4.638   1.457   1.119
 1850SOL    HW2 6450   4.665   1.339   1.229
 1851SOL     OW 6451   0.830   4.464   5.177
 1851SOL    HW1 6452   0.786   4.416   5.101
 1851SOL    HW2 6453   0.762   4.479   5.250
 1852SOL     OW 6454   0.086   0.328   3.071
 1852SOL    HW1 6455   0.065   0.262   2.999
 1852SOL    HW2 6456   0.003   0.378   3.095
 1853SOL     OW 6457   0.230   2.649   5.574
 1853SOL    HW1 6458   0.237   2.737   5.621
 1853SOL    HW2 6459   0.139   2.640   5.534
 1854SOL     OW 6460   0.940   0.015   3.378
 1854SOL    HW1 6461   0.957   0.011   3.280
 1854SOL    HW2 6462   1.011   0.069   3.422
 1855SOL     OW 6463   4.757   2.926   4.163
 1855SOL    HW1 6464   4.749   2.860   4.087
 1855SOL    HW2 6465   4.681   2.911   4.227
 1856SOL     OW 6466   3.342   2.510   0.953
 1856SOL    HW1 6467   3.327   2.595   1.002
 1856SOL    HW2 6468   3.411   2.456   1.001
 1857SOL     OW 6469   4.303   1.892   0.079
 1857SOL    HW1 6470   4.312   1.841   7.019
 1857SOL    HW2 6471   4.391   1.892   0.127
 1858SOL     OW 6472   4.640   2.509   3.832
 1858SOL    HW1 6473   4.684   2.429   3.792
 1858SOL    HW2 6474   4.576   2.481   3.904
 1859SOL     OW 6475   6.903   1.625   4.010
 1859SOL    HW1 6476   6.912   1.610   3.912
 1859SOL    HW2 6477   6.968   1.695   4.039
 1860SOL     OW 6478   1.712   1.397   5.602
 1860SOL    HW1 6479   1.637   1.377   5.666
 1860SOL    HW2 6480   1.774   1.318   5.598
 1861SOL     OW 6481   6.880   6.794   3.754
 1861SOL    HW1 6482   6.931   6.826   3.674
 1861SOL    HW2 6483   6.841   6.704   3.734
 1862SOL     OW 6484   2.775   5.850   5.695
 1862SOL    HW1 6485   2.834   5.826   5.773
 1862SOL    HW2 6486   2.685   5.809   5.709
 1863SOL     OW 6487   0.292   2.721   0.634
 1863SOL    HW1 6488   0.209   2.728   0.689
 1863SOL    HW2 6489   0.283   2.778   0.552
 1864SOL     OW 6490   4.165   5.588   2.236
 1864SOL    HW1 6491   4.235   5.519   2.254
 1864SOL    HW2 6492   4.103   5.595   2.314
 1865SOL     OW 6493   6.163   1.759   5.660
 1865SOL    HW1 6494   6.088   1.816   5.693
 1865SOL    HW2 6495   6.228   1.743   5.734
 1866SOL     OW 6496   0.980   5.197   3.502
 1866SOL    HW1 6497   0.949   5.192   3.597
 1866SOL    HW2 6498   0.900   5.198   3.441
 1867SOL     OW 6499   1.800   2.704   1.425
 1867SOL    HW1 6500   1.878   2.742   1.475
 1867SOL    HW2 6501   1.721   2.763   1.438
 1868SOL     OW 6502   5.846   3.497   6.436
 1868SOL    HW1 6503   5.746   3.497   6.441
 1868SOL    HW2 6504   5.880   3.403   6.438
 1869SOL     OW 6505   3.830   1.096   4.224
 1869SOL    HW1 6506   3.757   1.104   4.292
 1869SOL    HW2 6507   3.792   1.108   4.133
 1870SOL     OW 6508   0.006   5.922   4.756
 1870SOL    HW1 6509   7.009   5.890   4.664
 1870SOL    HW2 6510   6.966   5.883   4.821
 1871SOL     OW 6511   0.208   6.728   6.780
 1871SOL    HW1 6512   0.189   6.630   6.791
 1871SOL    HW2 6513   0.301   6.747   6.811
 1872SOL     OW 6514   2.834   2.597   1.727
 1872SOL    HW1 6515   2.866   2.530   1.795
 1872SOL    HW2 6516   2.912   2.632   1.675
 1873SOL     OW 6517   6.393   1.682   0.849
 1873SOL    HW1 6518   6.456   1.698   0.774
 1873SOL    HW2 6519   6.353   1.591   0.841
 1874SOL     OW 6520   0.552   5.099   0.340
 1874SOL    HW1 6521   0.566   5.000   0.348
 1874SOL    HW2 6522   0.529   5.122   0.246
 1875SOL     OW 6523   6.610   5.351   0.158
 1875SOL    HW1 6524   6.566   5.348   0.248
 1875SOL    HW2 6525   6.612   5.259   0.119
 1876SOL     OW 6526   0.287   5.849   0.509
 1876SOL    HW1 6527   0.263   5.829   0.414
 1876SOL    HW2 6528   0.365   5.911   0.512
 1877SOL     OW 6529   0.743   1.412   2.999
 1877SOL    HW1 6530   0.672   1.343   2.993
 1877SOL    HW2 6531   0.750   1.461   2.912
 1878SOL     OW 6532   6.249   3.596   3.806
 1878SOL    HW1 6533   6.170   3.658   3.815
 1878SOL    HW2 6534   6.235   3.535   3.729
 1879SOL     OW 6535   4.755   5.709   4.645
 1879SOL    HW1 6536   4.790   5.782   4.704
 1879SOL    HW2 6537   4.790   5.621   4.678
 1880SOL     OW 6538   0.027   1.871   4.155
 1880SOL    HW1 6539   0.096   1.919   4.209
 1880SOL    HW2 6540   6.983   1.832   4.216
 1881SOL     OW 6541   1.967   1.486   4.320
 1881SOL    HW1 6542   1.917   1.444   4.244
 1881SOL    HW2 6543   1.918   1.467   4.405
 1882SOL     OW 6544   1.759   5.669   0.189
 1882SOL    HW1 6545   1.756   5.569   0.198
 1882SOL    HW2 6546   1.792   5.693   0.097
 1883SOL     OW 6547   1.797   2.902   2.986
 1883SOL    HW1 6548   1.861   2.834   3.021
 1883SOL    HW2 6549   1.716   2.905   3.044
 1884SOL     OW 6550   3.517   1.149   6.997
 1884SOL    HW1 6551   3.540   1.055   7.022
 1884SOL    HW2 6552   3.433   1.177   0.019
 1885SOL     OW 6553   0.358   2.158   1.189
 1885SOL    HW1 6554   0.361   2.149   1.089
 1885SOL    HW2 6555   0.441   2.119   1.229
 1886SOL     OW 6556   2.944   2.551   5.608
 1886SOL    HW1 6557   2.904   2.588   5.691
 1886SOL    HW2 6558   2.914   2.456   5.596
 1887SOL     OW 6559   0.824   6.531   5.766
 1887SOL    HW1 6560   0.729   6.526   5.796
 1887SOL    HW2 6561   0.856   6.439   5.739
 1888SOL     OW 6562   2.229   2.064   5.825
 1888SOL    HW1 6563   2.229   1.987   5.762
 1888SOL    HW2 6564   2.236   2.149   5.774
 1889SOL     OW 6565   3.275   3.090   0.528
 1889SOL    HW1 6566   3.212   3.074   0.604
 1889SOL    HW2 6567   3.228   3.074   0.442
 1890SOL     OW 6568   6.471   5.935   6.577
 1890SOL    HW1 6569   6.377   5.906   6.565
 1890SOL    HW2 6570   6.510   5.889   6.657
 1891SOL     OW 6571   5.694   3.931   5.938
 1891SOL    HW1 6572   5.687   3.870   6.018
 1891SOL    HW2 6573   5.762   4.002   5.956
 1892SOL     OW 6574   3.788   6.539   1.720
 1892SOL    HW1 6575   3.888   6.538   1.723
 1892SOL    HW2 6576   3.752   6.500   1.804
 1893SOL     OW 6577   3.185   1.851   5.062
 1893SOL    HW1 6578   3.262   1.914   5.071
 1893SOL    HW2 6579   3.101   1.903   5.048
 1894SOL     OW 6580   4.289   3.530   0.687
 1894SOL    HW1 6581   4.318   3.442   0.648
 1894SOL    HW2 6582   4.314   3.534   0.783
 1895SOL     OW 6583   5.090   0.986   2.905
 1895SOL    HW1 6584   5.170   1.021   2.953
 1895SOL    HW2 6585   5.013   1.048   2.918
 1896SOL     OW 6586   6.225   1.643   6.105
 1896SOL    HW1 6587   6.178   1.558   6.131
 1896SOL    HW2 6588   6.216   1.710   6.179
 1897SOL     OW 6589   5.946   4.950   3.664
 1897SOL    HW1 6590   5.979   5.012   3.593
 1897SOL    HW2 6591   6.023   4.918   3.719
 1898SOL     OW 6592   6.180   6.334   0.069
 1898SOL    HW1 6593   6.238   6.408   0.036
 1898SOL    HW2 6594   6.236   6.268   0.120
 1899SOL     OW 6595   0.837   2.428   3.462
 1899SOL    HW1 6596   0.875   2.396   3.375
 1899SOL    HW2 6597   0.806   2.350   3.516
 1900SOL     OW 6598   2.261   6.562   1.092
 1900SOL    HW1 6599   2.323   6.600   1.160
 1900SOL    HW2 6600   2.187   6.513   1.138
 1901SOL     OW 6601   1.425   1.604   6.582
 1901SOL    HW1 6602   1.337   1.567   6.609
 1901SOL    HW2 6603   1.413   1.665   6.504
 1902SOL     OW 6604   1.960   2.548   5.429
 1902SOL    HW1 6605   2.060   2.556   5.425
 1902SOL    HW2 6606   1.936   2.473   5.492
 1903SOL     OW 6607   6.530   3.952   3.890
 1903SOL    HW1 6608   6.438   3.920   3.869
 1903SOL    HW2 6609   6.550   3.938   3.987
 1904SOL     OW 6610   0.899   6.945   4.815
 1904SOL    HW1 6611   0.872   6.852   4.789
 1904SOL    HW2 6612   0.908   7.002   4.733
 1905SOL     OW 6613   6.611   2.904   4.426
 1905SOL    HW1 6614   6.665   2.988   4.415
 1905SOL    HW2 6615   6.553   2.912   4.507
 1906SOL     OW 6616   2.380   6.856   0.555
 1906SOL    HW1 6617   2.335   6.823   0.472
 1906SOL    HW2 6618   2.366   6.955   0.563
 1907SOL     OW 6619   3.647   5.998   3.241
 1907SOL    HW1 6620   3.603   5.923   3.191
 1907SOL    HW2 6621   3.740   5.972   3.265
 1908SOL     OW 6622   5.125   1.112   6.473
 1908SOL    HW1 6623   5.085   1.176   6.408
 1908SOL    HW2 6624   5.054   1.077   6.534
 1909SOL     OW 6625   4.029   4.835   4.356
 1909SOL    HW1 6626   3.986   4.748   4.378
 1909SOL    HW2 6627   4.077   4.870   4.436
 1910SOL     OW 6628   4.936   2.231   5.152
 1910SOL    HW1 6629   5.027   2.192   5.166
 1910SOL    HW2 6630   4.873   2.194   5.221
 1911SOL     OW 6631   0.166   3.793   6.024
 1911SOL    HW1 6632   0.201   3.714   6.075
 1911SOL    HW2 6633   0.069   3.779   6.005
 1912SOL     OW 6634   3.585   5.975   3.509
 1912SOL    HW1 6635   3.605   6.002   3.415
 1912SOL    HW2 6636   3.667   5.987   3.565
 1913SOL     OW 6637   1.298   4.190   5.425
 1913SOL    HW1 6638   1.397   4.186   5.434
 1913SOL    HW2 6639   1.260   4.098   5.425
 1914SOL     OW 6640   4.118   1.478   5.424
 1914SOL    HW1 6641   4.026   1.445   5.446
 1914SOL    HW2 6642   4.185   1.426   5.477
 1915SOL     OW 6643   3.838   0.432   4.990
 1915SOL    HW1 6644   3.782   0.440   4.908
 1915SOL    HW2 6645   3.786   0.387   5.063
 1916SOL     OW 6646   4.461   6.564   1.535
 1916SOL    HW1 6647   4.373   6.559   1.488
 1916SOL    HW2 6648   4.519   6.632   1.491
 1917SOL     OW 6649   3.487   3.417   3.866
 1917SOL    HW1 6650   3.413   3.455   3.810
 1917SOL    HW2 6651   3.505   3.323   3.837
 1918SOL     OW 6652   5.861   6.507   3.979
 1918SOL    HW1 6653   5.768   6.539   3.998
 1918SOL    HW2 6654   5.859   6.440   3.904
 1919SOL     OW 6655   6.422   6.648   1.941
 1919SOL    HW1 6656   6.344   6.702   1.973
 1919SOL    HW2 6657   6.391   6.583   1.872
 1920SOL     OW 6658   6.879   5.733   4.161
 1920SOL    HW1 6659   6.889   5.693   4.252
 1920SOL    HW2 6660   6.929   5.677   4.094
 1921SOL     OW 6661   0.677   6.584   6.357
 1921SOL    HW1 6662   0.620   6.593   6.276
 1921SOL    HW2 6663   0.722   6.494   6.357
 1922SOL     OW 6664   3.550   4.452   0.984
 1922SOL    HW1 6665   3.597   4.431   1.070
 1922SOL    HW2 6666   3.451   4.450   0.999
 1923SOL     OW 6667   1.966   2.215   0.794
 1923SOL    HW1 6668   1.997   2.190   0.702
 1923SOL    HW2 6669   2.045   2.225   0.854
 1924SOL     OW 6670   1.068   4.123   1.889
 1924SOL    HW1 6671   1.162   4.131   1.923
 1924SOL    HW2 6672   1.066   4.142   1.791
 1925SOL     OW 6673   3.540   4.327   0.476
 1925SOL    HW1 6674   3.456   4.284   0.509
 1925SOL    HW2 6675   3.530   4.349   0.379
 1926SOL     OW 6676   0.762   0.097   3.567
 1926SOL    HW1 6677   0.811   0.050   3.493
 1926SOL    HW2 6678   0.828   0.142   3.627
 1927SOL     OW 6679   4.069   3.760   6.860
 1927SOL    HW1 6680   4.139   3.826   6.890
 1927SOL    HW2 6681   4.099   3.668   6.884
 1928SOL     OW 6682   6.489   4.225   5.315
 1928SOL    HW1 6683   6.480   4.127   5.333
 1928SOL    HW2 6684   6.553   4.265   5.380
 1929SOL     OW 6685   1.441   6.979   3.070
 1929SOL    HW1 6686   1.517   7.010   3.013
 1929SOL    HW2 6687   1.385   6.913   3.019
 1930SOL     OW 6688   5.661   4.525   0.081
 1930SOL    HW1 6689   5.720   4.445   0.077
 1930SOL    HW2 6690   5.671   4.579   7.022
 1931SOL     OW 6691   0.936   2.429   5.400
 1931SOL    HW1 6692   0.894   2.445   5.490
 1931SOL    HW2 6693   0.883   2.361   5.350
 1932SOL     OW 6694   5.752   3.088   1.938
 1932SOL    HW1 6695   5.679   3.135   1.889
 1932SOL    HW2 6696   5.734   3.090   2.036
 1933SOL     OW 6697   2.786   4.359   1.419
 1933SOL    HW1 6698   2.750   4.412   1.343
 1933SOL    HW2 6699   2.750   4.395   1.505
 1934SOL     OW 6700   0.699   6.000   4.617
 1934SOL    HW1 6701   0.637   6.074   4.587
 1934SOL    HW2 6702   0.717   6.010   4.715
 1935SOL     OW 6703   2.274   0.642   3.688
 1935SOL    HW1 6704   2.356   0.630   3.742
 1935SOL    HW2 6705   2.194   0.646   3.748
 1936SOL     OW 6706   6.401   5.525   5.736
 1936SOL    HW1 6707   6.457   5.448   5.765
 1936SOL    HW2 6708   6.408   5.536   5.637
 1937SOL     OW 6709   4.011   0.268   2.124
 1937SOL    HW1 6710   4.080   0.322   2.172
 1937SOL    HW2 6711   3.949   0.226   2.191
 1938SOL     OW 6712   4.753   0.444   3.895
 1938SOL    HW1 6713   4.771   0.346   3.886
 1938SOL    HW2 6714   4.707   0.462   3.982
 1939SOL     OW 6715   1.969   0.412   3.546
 1939SOL    HW1 6716   1.878   0.372   3.557
 1939SOL    HW2 6717   2.038   0.343   3.567
 1940SOL     OW 6718   0.043   5.418   6.922
 1940SOL    HW1 6719   0.035   5.442   7.019
 1940SOL    HW2 6720   0.103   5.484   6.876
 1941SOL     OW 6721   5.026   4.592   3.092
 1941SOL    HW1 6722   5.033   4.617   3.188
 1941SOL    HW2 6723   4.956   4.648   3.048
 1942SOL     OW 6724   5.892   5.775   3.210
 1942SOL    HW1 6725   5.896   5.858   3.155
 1942SOL    HW2 6726   5.797   5.746   3.221
 1943SOL     OW 6727   2.177   5.379   2.264
 1943SOL    HW1 6728   2.255   5.440   2.276
 1943SOL    HW2 6729   2.209   5.284   2.266
 1944SOL     OW 6730   6.679   1.058   1.771
 1944SOL    HW1 6731   6.750   0.993   1.796
 1944SOL    HW2 6732   6.597   1.009   1.741
 1945SOL     OW 6733   3.622   5.349   4.338
 1945SOL    HW1 6734   3.659   5.266   4.380
 1945SOL    HW2 6735   3.573   5.403   4.407
 1946SOL     OW 6736   1.157   0.524   0.149
 1946SOL    HW1 6737   1.134   0.621   0.152
 1946SOL    HW2 6738   1.074   0.470   0.140
 1947SOL     OW 6739   5.831   5.659   4.565
 1947SOL    HW1 6740   5.747   5.610   4.588
 1947SOL    HW2 6741   5.808   5.742   4.513
 1948SOL     OW 6742   5.807   4.579   5.111
 1948SOL    HW1 6743   5.752   4.526   5.046
 1948SOL    HW2 6744   5.746   4.624   5.178
 1949SOL     OW 6745   5.147   4.039   6.559
 1949SOL    HW1 6746   5.077   4.110   6.546
 1949SOL    HW2 6747   5.105   3.959   6.601
 1950SOL     OW 6748   3.098   4.033   0.049
 1950SOL    HW1 6749   3.127   4.111   7.018
 1950SOL    HW2 6750   3.008   4.002   0.017
 1951SOL     OW 6751   6.765   2.531   0.131
 1951SOL    HW1 6752   6.772   2.620   0.087
 1951SOL    HW2 6753   6.687   2.531   0.194
 1952SOL     OW 6754   3.851   1.813   5.907
 1952SOL    HW1 6755   3.879   1.726   5.949
 1952SOL    HW2 6756   3.876   1.889   5.967
 1953SOL     OW 6757   0.494   3.475   5.644
 1953SOL    HW1 6758   0.494   3.376   5.659
 1953SOL    HW2 6759   0.494   3.522   5.732
 1954SOL     OW 6760   3.457   2.038   4.010
 1954SOL    HW1 6761   3.420   2.087   4.089
 1954SOL    HW2 6762   3.383   2.001   3.955
 1955SOL     OW 6763   6.822   6.374   2.713
 1955SOL    HW1 6764   6.724   6.362   2.700
 1955SOL    HW2 6765   6.850   6.329   2.798
 1956SOL     OW 6766   5.962   5.802   2.568
 1956SOL    HW1 6767   5.974   5.735   2.641
 1956SOL    HW2 6768   5.908   5.760   2.494
 1957SOL     OW 6769   0.958   0.024   5.083
 1957SOL    HW1 6770   0.884   0.066   5.136
 1957SOL    HW2 6771   0.936   0.030   4.986
 1958SOL     OW 6772   5.716   3.594   5.540
 1958SOL    HW1 6773   5.724   3.556   5.632
 1958SOL    HW2 6774   5.703   3.693   5.546
 1959SOL     OW 6775   1.444   1.913   6.837
 1959SOL    HW1 6776   1.492   1.956   6.914
 1959SOL    HW2 6777   1.495   1.832   6.807
 1960SOL     OW 6778   5.727   6.110   0.965
 1960SOL    HW1 6779   5.749   6.077   1.057
 1960SOL    HW2 6780   5.766   6.201   0.952
 1961SOL     OW 6781   5.560   4.669   3.939
 1961SOL    HW1 6782   5.486   4.630   3.885
 1961SOL    HW2 6783   5.638   4.690   3.879
 1962SOL     OW 6784   0.094   6.560   3.107
 1962SOL    HW1 6785   0.013   6.564   3.166
 1962SOL    HW2 6786   0.093   6.637   3.044
 1963SOL     OW 6787   1.623   0.578   2.826
 1963SOL    HW1 6788   1.528   0.606   2.841
 1963SOL    HW2 6789   1.642   0.496   2.880
 1964SOL     OW 6790   5.587   3.438   2.730
 1964SOL    HW1 6791   5.522   3.373   2.690
 1964SOL    HW2 6792   5.610   3.408   2.823
 1965SOL     OW 6793   1.997   4.709   3.363
 1965SOL    HW1 6794   1.914   4.745   3.321
 1965SOL    HW2 6795   2.075   4.727   3.304
 1966SOL     OW 6796   6.580   5.342   5.813
 1966SOL    HW1 6797   6.564   5.273   5.743
 1966SOL    HW2 6798   6.672   5.380   5.803
 1967SOL     OW 6799   5.097   2.056   4.901
 1967SOL    HW1 6800   5.027   2.127   4.901
 1967SOL    HW2 6801   5.071   1.984   4.965
 1968SOL     OW 6802   2.861   5.690   6.273
 1968SOL    HW1 6803   2.889   5.606   6.227
 1968SOL    HW2 6804   2.935   5.757   6.269
 1969SOL     OW 6805   6.712   2.682   1.211
 1969SOL    HW1 6806   6.641   2.716   1.273
 1969SOL    HW2 6807   6.669   2.626   1.140
 1970SOL     OW 6808   1.821   0.463   3.875
 1970SOL    HW1 6809   1.810   0.393   3.804
 1970SOL    HW2 6810   1.790   0.426   3.963
 1971SOL     OW 6811   0.285   6.164   6.742
 1971SOL    HW1 6812   0.329   6.193   6.827
 1971SOL    HW2 6813   0.217   6.232   6.715
 1972SOL     OW 6814   0.607   5.077   4.054
 1972SOL    HW1 6815   0.642   5.111   4.141
 1972SOL    HW2 6816   0.546   5.000   4.071
 1973SOL     OW 6817   3.136   3.068   0.895
 1973SOL    HW1 6818   3.132   2.991   0.831
 1973SOL    HW2 6819   3.125   3.154   0.846
 1974SOL     OW 6820   5.475   0.467   4.210
 1974SOL    HW1 6821   5.480   0.567   4.210
 1974SOL    HW2 6822   5.465   0.434   4.303
 1975SOL     OW 6823   3.581   0.560   3.251
 1975SOL    HW1 6824   3.598   0.657   3.237
 1975SOL    HW2 6825   3.483   0.542   3.248
 1976SOL     OW 6826   0.582   5.510   0.581
 1976SOL    HW1 6827   0.647   5.560   0.524
 1976SOL    HW2 6828   0.538   5.439   0.526
 1977SOL     OW 6829   1.503   2.575   4.991
 1977SOL    HW1 6830   1.564   2.654   4.982
 1977SOL    HW2 6831   1.523   2.509   4.918
 1978SOL     OW 6832   6.444   1.436   4.987
 1978SOL    HW1 6833   6.408   1.522   5.025
 1978SOL    HW2 6834   6.441   1.440   4.887
 1979SOL     OW 6835   6.084   4.681   3.539
 1979SOL    HW1 6836   6.004   4.630   3.507
 1979SOL    HW2 6837   6.152   4.686   3.466
 1980SOL     OW 6838   4.239   0.455   1.703
 1980SOL    HW1 6839   4.305   0.488   1.771
 1980SOL    HW2 6840   4.289   0.414   1.626
 1981SOL     OW 6841   4.651   3.270   1.712
 1981SOL    HW1 6842   4.641   3.185   1.762
 1981SOL    HW2 6843   4.605   3.263   1.624
 1982SOL     OW 6844   5.662   6.164   5.031
 1982SOL    HW1 6845   5.662   6.219   4.947
 1982SOL    HW2 6846   5.734   6.095   5.025
 1983SOL     OW 6847   0.713   3.538   3.246
 1983SOL    HW1 6848   0.614   3.549   3.257
 1983SOL    HW2 6849   0.756   3.628   3.251
 1984SOL     OW 6850   4.088   0.309   5.783
 1984SOL    HW1 6851   4.034   0.236   5.741
 1984SOL    HW2 6852   4.047   0.336   5.870
 1985SOL     OW 6853   1.164   0.902   1.293
 1985SOL    HW1 6854   1.164   0.802   1.303
 1985SOL    HW2 6855   1.224   0.943   1.361
 1986SOL     OW 6856   1.537   1.330   5.811
 1986SOL    HW1 6857   1.618   1.318   5.869
 1986SOL    HW2 6858   1.454   1.316   5.866
 1987SOL     OW 6859   2.424   3.483   6.960
 1987SOL    HW1 6860   2.408   3.492   0.033
 1987SOL    HW2 6861   2.505   3.426   6.944
 1988SOL     OW 6862   4.120   3.887   0.522
 1988SOL    HW1 6863   4.205   3.845   0.489
 1988SOL    HW2 6864   4.128   3.906   0.619
 1989SOL     OW 6865   2.342   0.275   4.467
 1989SOL    HW1 6866   2.251   0.311   4.444
 1989SOL    HW2 6867   2.386   0.243   4.383
 1990SOL     OW 6868   3.120   0.961   1.710
 1990SOL    HW1 6869   3.124   0.862   1.722
 1990SOL    HW2 6870   3.186   0.988   1.640
 1991SOL     OW 6871   3.122   5.468   4.454
 1991SOL    HW1 6872   3.079   5.380   4.477
 1991SOL    HW2 6873   3.220   5.456   4.446
 1992SOL     OW 6874   2.267   6.751   5.090
 1992SOL    HW1 6875   2.258   6.844   5.054
 1992SOL    HW2 6876   2.184   6.699   5.069
 1993SOL     OW 6877   4.218   3.274   5.159
 1993SOL    HW1 6878   4.119   3.276   5.147
 1993SOL    HW2 6879   4.262   3.318   5.080
 1994SOL     OW 6880   6.504   2.250   2.053
 1994SOL    HW1 6881   6.595   2.224   2.020
 1994SOL    HW2 6882   6.443   2.263   1.975
 1995SOL     OW 6883   5.288   2.131   1.668
 1995SOL    HW1 6884   5.234   2.049   1.686
 1995SOL    HW2 6885   5.306   2.179   1.754
 1996SOL     OW 6886   3.606   4.735   0.213
 1996SOL    HW1 6887   3.558   4.771   0.293
 1996SOL    HW2 6888   3.558   4.763   0.130
 1997SOL     OW 6889   5.252   0.714   3.571
 1997SOL    HW1 6890   5.209   0.635   3.614
 1997SOL    HW2 6891   5.329   0.745   3.626
 1998SOL     OW 6892   2.837   4.777   5.260
 1998SOL    HW1 6893   2.843   4.821   5.170
 1998SOL    HW2 6894   2.841   4.678   5.249
 1999SOL     OW 6895   2.401   0.966   1.911
 1999SOL    HW1 6896   2.397   0.909   1.829
 1999SOL    HW2 6897   2.359   1.054   1.893
 2000SOL     OW 6898   3.837   1.594   4.577
 2000SOL    HW1 6899   3.897   1.654   4.631
 2000SOL    HW2 6900   3.742   1.624   4.587
 2001SOL     OW 6901   2.977   1.948   1.053
 2001SOL    HW1 6902   2.980   1.848   1.046
 2001SOL    HW2 6903   3.065   1.986   1.026
 2002SOL     OW 6904   1.945   5.212   5.265
 2002SOL    HW1 6905   1.886   5.181   5.191
 2002SOL    HW2 6906   1.891   5.257   5.336
 2003SOL     OW 6907   6.005   6.014   4.255
 2003SOL    HW1 6908   5.987   5.966   4.169
 2003SOL    HW2 6909   5.952   6.099   4.257
 2004SOL     OW 6910   2.726   0.687   5.354
 2004SOL    HW1 6911   2.644   0.720   5.402
 2004SOL    HW2 6912   2.802   0.750   5.371
 2005SOL     OW 6913   2.670   6.113   5.788
 2005SOL    HW1 6914   2.634   6.126   5.880
 2005SOL    HW2 6915   2.686   6.016   5.772
 2006SOL     OW 6916   4.180   4.949   4.087
 2006SOL    HW1 6917   4.189   5.043   4.121
 2006SOL    HW2 6918   4.100   4.906   4.131
 2007SOL     OW 6919   5.422   5.855   0.741
 2007SOL    HW1 6920   5.388   5.817   0.656
 2007SOL    HW2 6921   5.346   5.869   0.805
 2008SOL     OW 6922   0.115   5.836   4.170
 2008SOL    HW1 6923   0.018   5.824   4.190
 2008SOL    HW2 6924   0.130   5.828   4.071
 2009SOL     OW 6925   0.118   0.136   2.161
 2009SOL    HW1 6926   0.211   0.143   2.123
 2009SOL    HW2 6927   0.100   0.042   2.189
 2010SOL     OW 6928   1.481   0.848   0.418
 2010SOL    HW1 6929   1.464   0.866   0.321
 2010SOL    HW2 6930   1.462   0.751   0.437
 2011SOL     OW 6931   6.990   1.785   5.171
 2011SOL    HW1 6932   6.922   1.853   5.142
 2011SOL    HW2 6933   0.057   1.825   5.165
 2012SOL     OW 6934   1.189   3.982   0.875
 2012SOL    HW1 6935   1.274   4.015   0.917
 2012SOL    HW2 6936   1.192   3.882   0.870
 2013SOL     OW 6937   5.316   1.680   2.176
 2013SOL    HW1 6938   5.277   1.755   2.231
 2013SOL    HW2 6939   5.404   1.709   2.138
 2014SOL     OW 6940   2.050   5.538   2.681
 2014SOL    HW1 6941   2.150   5.542   2.677
 2014SOL    HW2 6942   2.011   5.602   2.614
 2015SOL     OW 6943   3.143   0.702   7.011
 2015SOL    HW1 6944   3.169   0.792   0.022
 2015SOL    HW2 6945   3.056   0.711   6.961
 2016SOL     OW 6946   0.475   4.957   4.325
 2016SOL    HW1 6947   0.435   4.946   4.234
 2016SOL    HW2 6948   0.404   4.948   4.395
 2017SOL     OW 6949   2.873   5.665   2.833
 2017SOL    HW1 6950   2.961   5.675   2.787
 2017SOL    HW2 6951   2.808   5.729   2.793
 2018SOL     OW 6952   0.442   5.443   5.829
 2018SOL    HW1 6953   0.408   5.455   5.736
 2018SOL    HW2 6954   0.511   5.371   5.831
 2019SOL     OW 6955   6.091   1.988   2.317
 2019SOL    HW1 6956   6.136   2.077   2.308
 2019SOL    HW2 6957   6.142   1.920   2.265
 2020SOL     OW 6958   3.123   5.936   2.924
 2020SOL    HW1 6959   3.130   6.020   2.978
 2020SOL    HW2 6960   3.106   5.959   2.828
 2021SOL     OW 6961   1.405   0.754   2.630
 2021SOL    HW1 6962   1.380   0.672   2.682
 2021SOL    HW2 6963   1.359   0.752   2.541
 2022SOL     OW 6964   1.904   3.906   1.482
 2022SOL    HW1 6965   1.836   3.952   1.540
 2022SOL    HW2 6966   1.952   3.974   1.427
 2023SOL     OW 6967   6.720   1.016   5.961
 2023SOL    HW1 6968   6.769   0.931   5.943
 2023SOL    HW2 6969   6.659   1.037   5.884
 2024SOL     OW 6970   5.536   1.268   3.745
 2024SOL    HW1 6971   5.549   1.217   3.830
 2024SOL    HW2 6972   5.579   1.358   3.753
 2025SOL     OW 6973   0.144   1.240   1.747
 2025SOL    HW1 6974   0.046   1.232   1.768
 2025SOL    HW2 6975   0.164   1.334   1.718
 2026SOL     OW 6976   1.557   1.617   5.517
 2026SOL    HW1 6977   1.634   1.558   5.538
 2026SOL    HW2 6978   1.590   1.703   5.479
 2027SOL     OW 6979   0.855   1.580   3.232
 2027SOL    HW1 6980   0.816   1.539   3.149
 2027SOL    HW2 6981   0.866   1.510   3.302
 2028SOL     OW 6982   3.866   3.081   6.829
 2028SOL    HW1 6983   3.844   3.017   6.903
 2028SOL    HW2 6984   3.892   3.169   6.867
 2029SOL     OW 6985   0.606   0.852   0.183
 2029SOL    HW1 6986   0.570   0.933   0.229
 2029SOL    HW2 6987   0.642   0.878   0.093
 2030SOL     OW 6988   1.638   1.324   3.607
 2030SOL    HW1 6989   1.713   1.276   3.561
 2030SOL    HW2 6990   1.675   1.395   3.667
 2031SOL     OW 6991   5.755   0.195   1.838
 2031SOL    HW1 6992   5.787   0.100   1.837
 2031SOL    HW2 6993   5.714   0.214   1.927
 2032SOL     OW 6994   5.113   7.021   1.339
 2032SOL    HW1 6995   5.168   0.041   1.410
 2032SOL    HW2 6996   5.145   6.927   1.326
 2033SOL     OW 6997   5.668   5.077   6.652
 2033SOL    HW1 6998   5.631   5.155   6.601
 2033SOL    HW2 6999   5.593   5.027   6.694
 2034SOL     OW 7000   2.226   6.977   3.215
 2034SOL    HW1 7001   2.221   0.052   3.211
 2034SOL    HW2 7002   2.140   6.938   3.182
 2035SOL     OW 7003   1.351   2.391   2.532
 2035SOL    HW1 7004   1.284   2.346   2.474
 2035SOL    HW2 7005   1.442   2.353   2.514
 2036SOL     OW 7006   1.554   4.570   0.427
 2036SOL    HW1 7007   1.531   4.560   0.330
 2036SOL    HW2 7008   1.633   4.512   0.448
 2037SOL     OW 7009   0.368   1.699   5.809
 2037SOL    HW1 7010   0.453   1.647   5.800
 2037SOL    HW2 7011   0.330   1.716   5.718
 2038SOL     OW 7012   0.506   0.815   4.117
 2038SOL    HW1 7013   0.528   0.899   4.067
 2038SOL    HW2 7014   0.589   0.762   4.132
 2039SOL     OW 7015   0.054   5.200   2.299
 2039SOL    HW1 7016   0.077   5.283   2.350
 2039SOL    HW2 7017   0.074   5.214   2.202
 2040SOL     OW 7018   4.051   3.327   4.374
 2040SOL    HW1 7019   4.126   3.276   4.415
 2040SOL    HW2 7020   4.064   3.332   4.275
 2041SOL     OW 7021   6.173   4.111   5.650
 2041SOL    HW1 7022   6.153   4.145   5.742
 2041SOL    HW2 7023   6.271   4.117   5.632
 2042SOL     OW 7024   4.214   5.569   0.023
 2042SOL    HW1 7025   4.235   5.479   0.060
 2042SOL    HW2 7026   4.297   5.609   7.009
 2043SOL     OW 7027   5.802   4.305   2.000
 2043SOL    HW1 7028   5.730   4.311   2.069
 2043SOL    HW2 7029   5.761   4.307   1.909
 2044SOL     OW 7030   6.350   0.051   2.037
 2044SOL    HW1 7031   6.354   0.151   2.034
 2044SOL    HW2 7032   6.434   0.013   2.000
 2045SOL     OW 7033   2.317   5.229   6.184
 2045SOL    HW1 7034   2.284   5.259   6.273
 2045SOL    HW2 7035   2.405   5.182   6.195
 2046SOL     OW 7036   6.576   6.980   4.949
 2046SOL    HW1 7037   6.609   6.980   5.043
 2046SOL    HW2 7038   6.572   0.048   4.915
 2047SOL     OW 7039   5.110   2.363   0.160
 2047SOL    HW1 7040   5.109   2.271   0.120
 2047SOL    HW2 7041   5.017   2.393   0.177
 2048SOL     OW 7042   4.767   0.166   5.918
 2048SOL    HW1 7043   4.859   0.179   5.880
 2048SOL    HW2 7044   4.736   0.251   5.960
 2049SOL     OW 7045   4.386   0.755   0.091
 2049SOL    HW1 7046   4.449   0.720   0.159
 2049SOL    HW2 7047   4.363   0.683   0.025
 2050SOL     OW 7048   5.749   2.964   3.682
 2050SOL    HW1 7049   5.784   2.927   3.596
 2050SOL    HW2 7050   5.799   3.048   3.705
 2051SOL     OW 7051   1.661   5.750   0.717
 2051SOL    HW1 7052   1.695   5.699   0.638
 2051SOL    HW2 7053   1.607   5.828   0.686
 2052SOL     OW 7054   0.991   2.865   0.312
 2052SOL    HW1 7055   1.047   2.872   0.395
 2052SOL    HW2 7056   0.909   2.922   0.322
 2053SOL     OW 7057   6.585   0.388   0.444
 2053SOL    HW1 7058   6.649   0.408   0.370
 2053SOL    HW2 7059   6.493   0.417   0.418
 2054SOL     OW 7060   5.770   2.298   0.471
 2054SOL    HW1 7061   5.758   2.386   0.516
 2054SOL    HW2 7062   5.794   2.229   0.539
 2055SOL     OW 7063   5.610   2.571   4.465
 2055SOL    HW1 7064   5.666   2.561   4.383
 2055SOL    HW2 7065   5.633   2.499   4.530
 2056SOL     OW 7066   2.564   0.426   3.298
 2056SOL    HW1 7067   2.477   0.428   3.348
 2056SOL    HW2 7068   2.640   0.438   3.362
 2057SOL     OW 7069   0.074   3.189   3.870
 2057SOL    HW1 7070   0.107   3.263   3.928
 2057SOL    HW2 7071   0.008   3.225   3.804
 2058SOL     OW 7072   6.844   1.785   2.116
 2058SOL    HW1 7073   6.781   1.848   2.162
 2058SOL    HW2 7074   6.791   1.716   2.067
 2059SOL     OW 7075   2.161   1.543   6.877
 2059SOL    HW1 7076   2.085   1.581   6.929
 2059SOL    HW2 7077   2.132   1.458   6.833
 2060SOL     OW 7078   6.971   5.045   2.691
 2060SOL    HW1 7079   0.015   5.117   2.689
 2060SOL    HW2 7080   7.017   4.956   2.703
 2061SOL     OW 7081   6.572   1.588   2.239
 2061SOL    HW1 7082   6.525   1.577   2.326
 2061SOL    HW2 7083   6.506   1.614   2.168
 2062SOL     OW 7084   5.000   0.308   3.011
 2062SOL    HW1 7085   4.905   0.291   2.987
 2062SOL    HW2 7086   5.014   0.407   3.023
 2063SOL     OW 7087   1.999   2.799   6.377
 2063SOL    HW1 7088   1.947   2.734   6.434
 2063SOL    HW2 7089   1.979   2.781   6.281
 2064SOL     OW 7090   1.228   2.597   0.118
 2064SOL    HW1 7091   1.134   2.621   0.142
 2064SOL    HW2 7092   1.233   2.499   0.097
 2065SOL     OW 7093   6.331   3.984   1.536
 2065SOL    HW1 7094   6.390   4.056   1.573
 2065SOL    HW2 7095   6.236   4.008   1.551
 2066SOL     OW 7096   0.442   0.197   4.514
 2066SOL    HW1 7097   0.480   0.166   4.427
 2066SOL    HW2 7098   0.470   0.291   4.531
 2067SOL     OW 7099   6.624   6.474   1.364
 2067SOL    HW1 7100   6.624   6.492   1.266
 2067SOL    HW2 7101   6.716   6.447   1.393
 2068SOL     OW 7102   1.722   1.895   5.242
 2068SOL    HW1 7103   1.745   1.824   5.176
 2068SOL    HW2 7104   1.647   1.951   5.207
 2069SOL     OW 7105   1.027   2.390   2.033
 2069SOL    HW1 7106   1.115   2.436   2.047
 2069SOL    HW2 7107   0.953   2.451   2.060
 2070SOL     OW 7108   0.995   1.677   2.610
 2070SOL    HW1 7109   1.063   1.695   2.682
 2070SOL    HW2 7110   1.037   1.691   2.521
 2071SOL     OW 7111   1.117   6.837   4.192
 2071SOL    HW1 7112   1.150   6.744   4.176
 2071SOL    HW2 7113   1.021   6.833   4.220
 2072SOL     OW 7114   5.050   5.632   1.799
 2072SOL    HW1 7115   5.047   5.705   1.731
 2072SOL    HW2 7116   5.125   5.569   1.777
 2073SOL     OW 7117   3.178   6.959   5.883
 2073SOL    HW1 7118   3.092   7.008   5.897
 2073SOL    HW2 7119   3.209   6.921   5.970
 2074SOL     OW 7120   5.778   1.118   1.346
 2074SOL    HW1 7121   5.773   1.176   1.427
 2074SOL    HW2 7122   5.843   1.157   1.280
 2075SOL     OW 7123   4.391   3.412   0.197
 2075SOL    HW1 7124   4.312   3.471   0.214
 2075SOL    HW2 7125   4.475   3.461   0.222
 2076SOL     OW 7126   5.570   6.897   1.320
 2076SOL    HW1 7127   5.537   6.937   1.235
 2076SOL    HW2 7128   5.642   6.831   1.301
 2077SOL     OW 7129   5.097   1.220   2.666
 2077SOL    HW1 7130   5.020   1.283   2.659
 2077SOL    HW2 7131   5.119   1.204   2.762
 2078SOL     OW 7132   3.302   4.683   6.504
 2078SOL    HW1 7133   3.218   4.635   6.476
 2078SOL    HW2 7134   3.281   4.778   6.524
 2079SOL     OW 7135   5.240   1.349   4.159
 2079SOL    HW1 7136   5.278   1.437   4.187
 2079SOL    HW2 7137   5.164   1.324   4.219
 2080SOL     OW 7138   2.878   2.312   4.752
 2080SOL    HW1 7139   2.923   2.370   4.820
 2080SOL    HW2 7140   2.829   2.369   4.686
 2081SOL     OW 7141   0.817   6.414   5.329
 2081SOL    HW1 7142   0.882   6.408   5.405
 2081SOL    HW2 7143   0.775   6.505   5.328
 2082SOL     OW 7144   5.918   0.802   1.215
 2082SOL    HW1 7145   5.966   0.889   1.227
 2082SOL    HW2 7146   5.983   0.727   1.223
 2083SOL     OW 7147   3.311   4.717   6.171
 2083SOL    HW1 7148   3.245   4.791   6.187
 2083SOL    HW2 7149   3.289   4.639   6.230
 2084SOL     OW 7150   6.970   2.688   2.919
 2084SOL    HW1 7151   6.899   2.668   2.986
 2084SOL    HW2 7152   6.929   2.730   2.839
 2085SOL     OW 7153   4.603   0.595   5.753
 2085SOL    HW1 7154   4.672   0.598   5.825
 2085SOL    HW2 7155   4.560   0.685   5.744
 2086SOL     OW 7156   2.929   5.460   0.233
 2086SOL    HW1 7157   2.980   5.375   0.223
 2086SOL    HW2 7158   2.892   5.466   0.326
 2087SOL     OW 7159   5.429   0.249   2.918
 2087SOL    HW1 7160   5.338   0.283   2.938
 2087SOL    HW2 7161   5.425   0.151   2.899
 2088SOL     OW 7162   3.509   0.176   0.853
 2088SOL    HW1 7163   3.553   0.088   0.871
 2088SOL    HW2 7164   3.516   0.234   0.935
 2089SOL     OW 7165   4.941   0.974   6.642
 2089SOL    HW1 7166   5.006   0.935   6.707
 2089SOL    HW2 7167   4.899   1.056   6.681
 2090SOL     OW 7168   3.525   3.900   4.942
 2090SOL    HW1 7169   3.588   3.938   4.875
 2090SOL    HW2 7170   3.485   3.815   4.907
 2091SOL     OW 7171   1.888   5.135   1.174
 2091SOL    HW1 7172   1.936   5.049   1.185
 2091SOL    HW2 7173   1.931   5.205   1.231
 2092SOL     OW 7174   6.358   6.162   1.091
 2092SOL    HW1 7175   6.359   6.111   1.178
 2092SOL    HW2 7176   6.452   6.179   1.062
 2093SOL     OW 7177   0.955   2.904   2.010
 2093SOL    HW1 7178   0.972   3.003   2.003
 2093SOL    HW2 7179   1.041   2.856   2.023
 2094SOL     OW 7180   5.969   0.354   2.087
 2094SOL    HW1 7181   5.953   0.259   2.114
 2094SOL    HW2 7182   5.961   0.362   1.988
 2095SOL     OW 7183   5.483   5.654   4.572
 2095SOL    HW1 7184   5.463   5.658   4.474
 2095SOL    HW2 7185   5.437   5.574   4.611
 2096SOL     OW 7186   4.879   4.056   2.617
 2096SOL    HW1 7187   4.950   4.125   2.631
 2096SOL    HW2 7188   4.797   4.082   2.667
 2097SOL     OW 7189   0.256   2.735   0.195
 2097SOL    HW1 7190   0.232   2.757   0.100
 2097SOL    HW2 7191   0.318   2.657   0.196
 2098SOL     OW 7192   4.308   0.154   4.316
 2098SOL    HW1 7193   4.406   0.153   4.338
 2098SOL    HW2 7194   4.266   0.070   4.352
 2099SOL     OW 7195   2.789   0.567   3.853
 2099SOL    HW1 7196   2.862   0.508   3.820
 2099SOL    HW2 7197   2.824   0.626   3.926
 2100SOL     OW 7198   4.919   4.164   6.100
 2100SOL    HW1 7199   4.944   4.073   6.131
 2100SOL    HW2 7200   4.983   4.231   6.137
 2101SOL     OW 7201   0.240   0.119   3.168
 2101SOL    HW1 7202   0.198   0.088   3.253
 2101SOL    HW2 7203   0.197   0.205   3.140
 2102SOL     OW 7204   6.787   5.333   3.465
 2102SOL    HW1 7205   6.863   5.290   3.415
 2102SOL    HW2 7206   6.785   5.299   3.558
 2103SOL     OW 7207   3.321   3.502   6.787
 2103SOL    HW1 7208   3.411   3.533   6.818
 2103SOL    HW2 7209   3.282   3.570   6.725
 2104SOL     OW 7210   1.582   3.198   5.539
 2104SOL    HW1 7211   1.542   3.227   5.452
 2104SOL    HW2 7212   1.672   3.157   5.522
 2105SOL     OW 7213   6.107   5.935   2.102
 2105SOL    HW1 7214   6.138   6.016   2.152
 2105SOL    HW2 7215   6.117   5.855   2.161
 2106SOL     OW 7216   4.601   5.280   6.973
 2106SOL    HW1 7217   4.586   5.373   7.008
 2106SOL    HW2 7218   4.605   5.282   6.874
 2107SOL     OW 7219   4.156   4.025   5.843
 2107SOL    HW1 7220   4.216   3.950   5.816
 2107SOL    HW2 7221   4.209   4.110   5.847
 2108SOL     OW 7222   6.182   5.069   5.714
 2108SOL    HW1 7223   6.204   5.151   5.768
 2108SOL    HW2 7224   6.083   5.058   5.709
 2109SOL     OW 7225   5.809   6.138   2.583
 2109SOL    HW1 7226   5.733   6.084   2.619
 2109SOL    HW2 7227   5.809   6.135   2.484
 2110SOL     OW 7228   2.618   4.186   6.252
 2110SOL    HW1 7229   2.630   4.261   6.317
 2110SOL    HW2 7230   2.614   4.223   6.159
 2111SOL     OW 7231   1.148   3.002   6.874
 2111SOL    HW1 7232   1.116   3.011   6.780
 2111SOL    HW2 7233   1.230   2.944   6.876
 2112SOL     OW 7234   4.722   2.951   1.404
 2112SOL    HW1 7235   4.726   2.868   1.459
 2112SOL    HW2 7236   4.773   2.937   1.319
 2113SOL     OW 7237   0.909   0.787   2.893
 2113SOL    HW1 7238   0.872   0.696   2.908
 2113SOL    HW2 7239   0.993   0.798   2.945
 2114SOL     OW 7240   1.748   4.063   0.101
 2114SOL    HW1 7241   1.812   4.021   0.036
 2114SOL    HW2 7242   1.655   4.039   0.076
 2115SOL     OW 7243   1.893   4.509   2.521
 2115SOL    HW1 7244   1.877   4.518   2.423
 2115SOL    HW2 7245   1.858   4.589   2.569
 2116SOL     OW 7246   0.591   4.196   3.806
 2116SOL    HW1 7247   0.655   4.202   3.882
 2116SOL    HW2 7248   0.499   4.176   3.841
 2117SOL     OW 7249   1.004   5.215   1.040
 2117SOL    HW1 7250   1.003   5.115   1.049
 2117SOL    HW2 7251   1.087   5.243   0.992
 2118SOL     OW 7252   0.579   3.677   2.201
 2118SOL    HW1 7253   0.576   3.581   2.175
 2118SOL    HW2 7254   0.573   3.734   2.119
 2119SOL     OW 7255   2.366   6.192   0.992
 2119SOL    HW1 7256   2.464   6.171   0.989
 2119SOL    HW2 7257   2.314   6.107   0.991
 2120SOL     OW 7258   6.603   4.846   2.062
 2120SOL    HW1 7259   6.561   4.935   2.045
 2120SOL    HW2 7260   6.537   4.785   2.105
 2121SOL     OW 7261   0.303   5.282   5.333
 2121SOL    HW1 7262   0.282   5.212   5.402
 2121SOL    HW2 7263   0.392   5.262   5.292
 2122SOL     OW 7264   4.622   4.380   4.852
 2122SOL    HW1 7265   4.588   4.367   4.759
 2122SOL    HW2 7266   4.563   4.445   4.901
 2123SOL     OW 7267   6.395   4.872   3.208
 2123SOL    HW1 7268   6.320   4.852   3.145
 2123SOL    HW2 7269   6.370   4.949   3.266
 2124SOL     OW 7270   2.231   2.192   1.325
 2124SOL    HW1 7271   2.217   2.187   1.226
 2124SOL    HW2 7272   2.193   2.110   1.368
 2125SOL     OW 7273   3.006   0.764   0.639
 2125SOL    HW1 7274   3.098   0.750   0.676
 2125SOL    HW2 7275   2.943   0.699   0.681
 2126SOL     OW 7276   2.984   0.674   6.449
 2126SOL    HW1 7277   2.973   0.658   6.547
 2126SOL    HW2 7278   3.030   0.761   6.434
 2127SOL     OW 7279   5.455   2.950   4.698
 2127SOL    HW1 7280   5.487   2.892   4.774
 2127SOL    HW2 7281   5.446   3.044   4.730
 2128SOL     OW 7282   0.623   4.365   4.575
 2128SOL    HW1 7283   0.644   4.446   4.520
 2128SOL    HW2 7284   0.693   4.296   4.560
 2129SOL     OW 7285   4.545   2.030   5.749
 2129SOL    HW1 7286   4.580   1.994   5.835
 2129SOL    HW2 7287   4.617   2.028   5.680
 2130SOL     OW 7288   4.822   6.531   2.437
 2130SOL    HW1 7289   4.729   6.541   2.472
 2130SOL    HW2 7290   4.820   6.491   2.345
 2131SOL     OW 7291   6.726   1.117   0.640
 2131SOL    HW1 7292   6.822   1.113   0.610
 2131SOL    HW2 7293   6.716   1.066   0.726
 2132SOL     OW 7294   2.252   2.872   0.599
 2132SOL    HW1 7295   2.243   2.971   0.584
 2132SOL    HW2 7296   2.348   2.850   0.616
 2133SOL     OW 7297   2.786   2.619   5.852
 2133SOL    HW1 7298   2.759   2.715   5.842
 2133SOL    HW2 7299   2.811   2.602   5.947
 2134SOL     OW 7300   0.625   0.746   1.232
 2134SOL    HW1 7301   0.653   0.675   1.167
 2134SOL    HW2 7302   0.526   0.742   1.245
 2135SOL     OW 7303   0.577   3.747   4.423
 2135SOL    HW1 7304   0.555   3.844   4.409
 2135SOL    HW2 7305   0.673   3.731   4.398
 2136SOL     OW 7306   2.249   5.932   1.732
 2136SOL    HW1 7307   2.265   5.950   1.635
 2136SOL    HW2 7308   2.310   5.989   1.787
 2137SOL     OW 7309   2.787   5.324   4.362
 2137SOL    HW1 7310   2.769   5.266   4.442
 2137SOL    HW2 7311   2.859   5.283   4.307
 2138SOL     OW 7312   5.459   1.384   2.415
 2138SOL    HW1 7313   5.486   1.316   2.347
 2138SOL    HW2 7314   5.359   1.385   2.423
 2139SOL     OW 7315   3.275   1.053   5.181
 2139SOL    HW1 7316   3.331   1.119   5.232
 2139SOL    HW2 7317   3.179   1.063   5.206
 2140SOL     OW 7318   2.436   1.413   5.292
 2140SOL    HW1 7319   2.402   1.501   5.259
 2140SOL    HW2 7320   2.367   1.370   5.349
 2141SOL     OW 7321   6.279   4.516   1.990
 2141SOL    HW1 7322   6.280   4.565   2.077
 2141SOL    HW2 7323   6.255   4.420   2.006
 2142SOL     OW 7324   1.952   2.138   3.546
 2142SOL    HW1 7325   1.872   2.130   3.605
 2142SOL    HW2 7326   1.944   2.075   3.469
 2143SOL     OW 7327   2.386   4.777   0.685
 2143SOL    HW1 7328   2.473   4.771   0.636
 2143SOL    HW2 7329   2.312   4.742   0.627
 2144SOL     OW 7330   6.531   5.805   4.273
 2144SOL    HW1 7331   6.499   5.826   4.366
 2144SOL    HW2 7332   6.464   5.748   4.227
 2145SOL     OW 7333   3.978   6.465   4.064
 2145SOL    HW1 7334   3.966   6.381   4.011
 2145SOL    HW2 7335   3.896   6.521   4.055
 2146SOL     OW 7336   2.320   3.071   0.984
 2146SOL    HW1 7337   2.331   2.972   0.974
 2146SOL    HW2 7338   2.223   3.092   0.993
 2147SOL     OW 7339   5.972   0.970   5.541
 2147SOL    HW1 7340   6.013   0.957   5.451
 2147SOL    HW2 7341   5.888   0.916   5.547
 2148SOL     OW 7342   6.943   3.481   6.771
 2148SOL    HW1 7343   6.886   3.562   6.785
 2148SOL    HW2 7344   6.930   3.417   6.847
 2149SOL     OW 7345   0.645   0.362   0.114
 2149SOL    HW1 7346   0.672   0.348   0.019
 2149SOL    HW2 7347   0.624   0.274   0.156
 2150SOL     OW 7348   2.568   3.645   1.423
 2150SOL    HW1 7349   2.508   3.625   1.345
 2150SOL    HW2 7350   2.515   3.640   1.508
 2151SOL     OW 7351   1.514   5.545   6.989
 2151SOL    HW1 7352   1.498   5.635   6.947
 2151SOL    HW2 7353   1.478   5.545   0.057
 2152SOL     OW 7354   4.343   6.131   3.633
 2152SOL    HW1 7355   4.274   6.113   3.563
 2152SOL    HW2 7356   4.411   6.057   3.632
 2153SOL     OW 7357   4.985   1.161   3.200
 2153SOL    HW1 7358   4.911   1.105   3.237
 2153SOL    HW2 7359   5.054   1.176   3.270
 2154SOL     OW 7360   3.158   6.682   2.965
 2154SOL    HW1 7361   3.249   6.681   3.007
 2154SOL    HW2 7362   3.134   6.590   2.934
 2155SOL     OW 7363   4.583   6.920   0.947
 2155SOL    HW1 7364   4.561   7.016   0.934
 2155SOL    HW2 7365   4.594   6.901   1.045
 2156SOL     OW 7366   5.779   1.544   4.556
 2156SOL    HW1 7367   5.707   1.509   4.496
 2156SOL    HW2 7368   5.867   1.543   4.507
 2157SOL     OW 7369   3.773   5.395   3.955
 2157SOL    HW1 7370   3.691   5.451   3.944
 2157SOL    HW2 7371   3.825   5.396   3.870
 2158SOL     OW 7372   2.985   1.216   0.105
 2158SOL    HW1 7373   2.953   1.121   0.098
 2158SOL    HW2 7374   2.998   1.239   0.201
 2159SOL     OW 7375   1.112   0.339   6.055
 2159SOL    HW1 7376   1.132   0.428   6.097
 2159SOL    HW2 7377   1.129   0.266   6.121
 2160SOL     OW 7378   5.252   6.209   0.503
 2160SOL    HW1 7379   5.335   6.258   0.475
 2160SOL    HW2 7380   5.266   6.111   0.493
 2161SOL     OW 7381   1.171   3.364   2.405
 2161SOL    HW1 7382   1.155   3.275   2.446
 2161SOL    HW2 7383   1.085   3.398   2.366
 2162SOL     OW 7384   2.012   0.338   3.048
 2162SOL    HW1 7385   1.962   0.285   3.117
 2162SOL    HW2 7386   2.033   0.279   2.970
 2163SOL     OW 7387   1.255   3.231   1.534
 2163SOL    HW1 7388   1.156   3.243   1.530
 2163SOL    HW2 7389   1.301   3.315   1.505
 2164SOL     OW 7390   1.946   2.763   2.664
 2164SOL    HW1 7391   1.855   2.759   2.623
 2164SOL    HW2 7392   1.982   2.856   2.656
 2165SOL     OW 7393   0.082   1.773   3.724
 2165SOL    HW1 7394   0.039   1.683   3.725
 2165SOL    HW2 7395   0.025   1.838   3.673
 2166SOL     OW 7396   6.950   4.095   3.334
 2166SOL    HW1 7397   0.017   4.059   3.318
 2166SOL    HW2 7398   6.889   4.021   3.360
 2167SOL     OW 7399   1.891   2.423   4.502
 2167SOL    HW1 7400   1.865   2.520   4.496
 2167SOL    HW2 7401   1.886   2.393   4.598
 2168SOL     OW 7402   1.501   1.768   3.203
 2168SOL    HW1 7403   1.403   1.764   3.221
 2168SOL    HW2 7404   1.520   1.840   3.136
 2169SOL     OW 7405   0.212   0.818   2.296
 2169SOL    HW1 7406   0.122   0.860   2.288
 2169SOL    HW2 7407   0.282   0.881   2.262
 2170SOL     OW 7408   1.034   4.180   5.974
 2170SOL    HW1 7409   0.939   4.167   6.001
 2170SOL    HW2 7410   1.046   4.270   5.933
 2171SOL     OW 7411   0.492   5.594   0.965
 2171SOL    HW1 7412   0.515   5.497   0.954
 2171SOL    HW2 7413   0.449   5.627   0.881
 2172SOL     OW 7414   0.600   1.844   4.970
 2172SOL    HW1 7415   0.597   1.772   4.900
 2172SOL    HW2 7416   0.635   1.928   4.930
 2173SOL     OW 7417   5.676   0.624   5.398
 2173SOL    HW1 7418   5.769   0.621   5.436
 2173SOL    HW2 7419   5.616   0.671   5.462
 2174SOL     OW 7420   0.111   5.789   5.114
 2174SOL    HW1 7421   0.034   5.731   5.142
 2174SOL    HW2 7422   0.191   5.767   5.170
 2175SOL     OW 7423   3.104   3.556   5.441
 2175SOL    HW1 7424   3.133   3.489   5.373
 2175SOL    HW2 7425   3.177   3.622   5.456
 2176SOL     OW 7426   5.397   2.419   1.141
 2176SOL    HW1 7427   5.304   2.396   1.111
 2176SOL    HW2 7428   5.423   2.508   1.102
 2177SOL     OW 7429   0.130   0.434   3.677
 2177SOL    HW1 7430   0.033   0.453   3.691
 2177SOL    HW2 7431   0.181   0.455   3.761
 2178SOL     OW 7432   1.249   1.987   2.908
 2178SOL    HW1 7433   1.205   2.060   2.856
 2178SOL    HW2 7434   1.229   2.000   3.006
 2179SOL     OW 7435   1.808   4.479   6.614
 2179SOL    HW1 7436   1.773   4.479   6.708
 2179SOL    HW2 7437   1.866   4.398   6.601
 2180SOL     OW 7438   0.899   5.135   1.927
 2180SOL    HW1 7439   0.958   5.060   1.899
 2180SOL    HW2 7440   0.955   5.215   1.949
 2181SOL     OW 7441   4.337   4.927   3.826
 2181SOL    HW1 7442   4.435   4.948   3.826
 2181SOL    HW2 7443   4.292   4.973   3.902
 2182SOL     OW 7444   6.915   5.692   2.879
 2182SOL    HW1 7445   6.895   5.765   2.814
 2182SOL    HW2 7446   7.003   5.650   2.857
 2183SOL     OW 7447   3.700   3.152   0.238
 2183SOL    HW1 7448   3.731   3.205   0.317
 2183SOL    HW2 7449   3.615   3.105   0.260
 2184SOL     OW 7450   6.746   0.574   0.273
 2184SOL    HW1 7451   6.779   0.662   0.309
 2184SOL    HW2 7452   6.773   0.566   0.177
 2185SOL     OW 7453   0.263   1.327   6.603
 2185SOL    HW1 7454   0.269   1.274   6.688
 2185SOL    HW2 7455   0.228   1.418   6.623
 2186SOL     OW 7456   6.764   5.326   4.610
 2186SOL    HW1 7457   6.805   5.249   4.660
 2186SOL    HW2 7458   6.778   5.313   4.512
 2187SOL     OW 7459   0.628   5.752   2.972
 2187SOL    HW1 7460   0.607   5.778   3.066
 2187SOL    HW2 7461   0.698   5.814   2.936
 2188SOL     OW 7462   2.003   0.352   0.941
 2188SOL    HW1 7463   1.978   0.397   0.855
 2188SOL    HW2 7464   2.101   0.332   0.940
 2189SOL     OW 7465   3.005   1.640   1.854
 2189SOL    HW1 7466   2.967   1.702   1.786
 2189SOL    HW2 7467   2.959   1.654   1.942
 2190SOL     OW 7468   6.564   4.392   2.690
 2190SOL    HW1 7469   6.660   4.364   2.684
 2190SOL    HW2 7470   6.557   4.490   2.673
 2191SOL     OW 7471   2.253   0.535   6.172
 2191SOL    HW1 7472   2.218   0.488   6.254
 2191SOL    HW2 7473   2.258   0.633   6.191
 2192SOL     OW 7474   4.787   1.288   2.344
 2192SOL    HW1 7475   4.722   1.363   2.329
 2192SOL    HW2 7476   4.762   1.238   2.426
 2193SOL     OW 7477   0.156   6.992   6.001
 2193SOL    HW1 7478   0.133   0.061   5.975
 2193SOL    HW2 7479   0.176   6.938   5.919
 2194SOL     OW 7480   0.948   4.627   5.779
 2194SOL    HW1 7481   0.879   4.675   5.724
 2194SOL    HW2 7482   1.035   4.676   5.773
 2195SOL     OW 7483   0.549   4.465   6.506
 2195SOL    HW1 7484   0.540   4.365   6.500
 2195SOL    HW2 7485   0.644   4.491   6.487
 2196SOL     OW 7486   2.722   5.767   5.422
 2196SOL    HW1 7487   2.708   5.688   5.482
 2196SOL    HW2 7488   2.804   5.816   5.451
 2197SOL     OW 7489   2.614   4.573   5.636
 2197SOL    HW1 7490   2.667   4.653   5.610
 2197SOL    HW2 7491   2.521   4.581   5.601
 2198SOL     OW 7492   0.525   0.336   6.608
 2198SOL    HW1 7493   0.439   0.353   6.655
 2198SOL    HW2 7494   0.528   0.388   6.523
 2199SOL     OW 7495   4.239   6.914   4.239
 2199SOL    HW1 7496   4.324   6.874   4.202
 2199SOL    HW2 7497   4.213   6.865   4.322
 2200SOL     OW 7498   2.853   1.414   4.104
 2200SOL    HW1 7499   2.874   1.390   4.199
 2200SOL    HW2 7500   2.754   1.428   4.094
 2201SOL     OW 7501   6.202   3.055   3.848
 2201SOL    HW1 7502   6.205   3.025   3.944
 2201SOL    HW2 7503   6.120   3.109   3.833
 2202SOL     OW 7504   3.769   5.369   2.115
 2202SOL    HW1 7505   3.839   5.419   2.065
 2202SOL    HW2 7506   3.728   5.429   2.184
 2203SOL     OW 7507   2.021   3.944   1.141
 2203SOL    HW1 7508   1.962   3.868   1.170
 2203SOL    HW2 7509   1.973   4.000   1.074
 2204SOL     OW 7510   4.541   3.139   1.146
 2204SOL    HW1 7511   4.585   3.065   1.096
 2204SOL    HW2 7512   4.512   3.107   1.236
 2205SOL     OW 7513   1.716   5.953   0.133
 2205SOL    HW1 7514   1.738   5.858   0.112
 2205SOL    HW2 7515   1.633   5.957   0.189
 2206SOL     OW 7516   2.563   3.064   6.379
 2206SOL    HW1 7517   2.525   3.100   6.293
 2206SOL    HW2 7518   2.545   3.129   6.453
 2207SOL     OW 7519   4.616   5.971   0.873
 2207SOL    HW1 7520   4.690   6.039   0.873
 2207SOL    HW2 7521   4.546   5.997   0.940
 2208SOL     OW 7522   0.798   5.735   3.578
 2208SOL    HW1 7523   0.821   5.669   3.650
 2208SOL    HW2 7524   0.863   5.811   3.581
 2209SOL     OW 7525   2.716   5.216   4.966
 2209SOL    HW1 7526   2.735   5.249   4.874
 2209SOL    HW2 7527   2.716   5.116   4.967
 2210SOL     OW 7528   5.722   6.457   1.223
 2210SOL    HW1 7529   5.782   6.434   1.146
 2210SOL    HW2 7530   5.639   6.401   1.217
 2211SOL     OW 7531   6.102   0.719   0.610
 2211SOL    HW1 7532   6.129   0.635   0.657
 2211SOL    HW2 7533   6.106   0.705   0.511
 2212SOL     OW 7534   2.811   5.956   6.717
 2212SOL    HW1 7535   2.847   5.893   6.649
 2212SOL    HW2 7536   2.815   6.050   6.682
 2213SOL     OW 7537   3.912   2.117   4.239
 2213SOL    HW1 7538   3.949   2.033   4.199
 2213SOL    HW2 7539   3.874   2.097   4.329
 2214SOL     OW 7540   4.292   3.109   5.603
 2214SOL    HW1 7541   4.293   3.205   5.578
 2214SOL    HW2 7542   4.310   3.099   5.701
 2215SOL     OW 7543   5.094   0.434   6.477
 2215SOL    HW1 7544   5.152   0.501   6.430
 2215SOL    HW2 7545   5.023   0.481   6.529
 2216SOL     OW 7546   0.393   6.455   6.566
 2216SOL    HW1 7547   0.429   6.375   6.517
 2216SOL    HW2 7548   0.355   6.519   6.500
 2217SOL     OW 7549   4.455   0.640   2.857
 2217SOL    HW1 7550   4.521   0.692   2.803
 2217SOL    HW2 7551   4.379   0.612   2.799
 2218SOL     OW 7552   0.248   5.166   5.960
 2218SOL    HW1 7553   0.186   5.210   6.025
 2218SOL    HW2 7554   0.284   5.082   6.000
 2219SOL     OW 7555   5.250   1.522   0.581
 2219SOL    HW1 7556   5.321   1.525   0.651
 2219SOL    HW2 7557   5.284   1.473   0.500
 2220SOL     OW 7558   1.238   6.550   5.591
 2220SOL    HW1 7559   1.291   6.507   5.664
 2220SOL    HW2 7560   1.172   6.484   5.555
 2221SOL     OW 7561   6.930   1.126   4.971
 2221SOL    HW1 7562   6.973   1.056   4.914
 2221SOL    HW2 7563   6.966   1.216   4.947
 2222SOL     OW 7564   5.498   6.261   1.180
 2222SOL    HW1 7565   5.465   6.271   1.086
 2222SOL    HW2 7566   5.427   6.220   1.236
 2223SOL     OW 7567   6.840   0.289   5.712
 2223SOL    HW1 7568   6.860   0.191   5.716
 2223SOL    HW2 7569   6.742   0.303   5.696
 2224SOL     OW 7570   5.591   4.128   1.408
 2224SOL    HW1 7571   5.616   4.031   1.413
 2224SOL    HW2 7572   5.668   4.184   1.438
 2225SOL     OW 7573   0.896   6.664   3.382
 2225SOL    HW1 7574   0.834   6.740   3.361
 2225SOL    HW2 7575   0.866   6.582   3.333
 2226SOL     OW 7576   2.722   5.535   0.995
 2226SOL    HW1 7577   2.641   5.534   1.053
 2226SOL    HW2 7578   2.783   5.609   1.023
 2227SOL     OW 7579   4.119   2.399   1.723
 2227SOL    HW1 7580   4.194   2.347   1.684
 2227SOL    HW2 7581   4.139   2.497   1.719
 2228SOL     OW 7582   4.996   4.789   0.185
 2228SOL    HW1 7583   5.015   4.697   0.220
 2228SOL    HW2 7584   4.946   4.782   0.099
 2229SOL     OW 7585   3.306   3.561   4.594
 2229SOL    HW1 7586   3.298   3.622   4.514
 2229SOL    HW2 7587   3.328   3.469   4.563
 2230SOL     OW 7588   5.472   6.409   0.457
 2230SOL    HW1 7589   5.507   6.343   0.391
 2230SOL    HW2 7590   5.529   6.408   0.540
 2231SOL     OW 7591   0.208   0.652   0.102
 2231SOL    HW1 7592   0.272   0.604   0.163
 2231SOL    HW2 7593   0.258   0.684   0.021
 2232SOL     OW 7594   1.372   0.485   5.718
 2232SOL    HW1 7595   1.392   0.521   5.627
 2232SOL    HW2 7596   1.373   0.559   5.784
 2233SOL     OW 7597   3.412   3.263   0.775
 2233SOL    HW1 7598   3.463   3.281   0.691
 2233SOL    HW2 7599   3.423   3.341   0.838
 2234SOL     OW 7600   3.821   1.709   0.301
 2234SOL    HW1 7601   3.902   1.764   0.319
 2234SOL    HW2 7602   3.755   1.763   0.248
 2235SOL     OW 7603   2.929   0.743   2.270
 2235SOL    HW1 7604   2.919   0.833   2.313
 2235SOL    HW2 7605   2.995   0.749   2.195
 2236SOL     OW 7606   1.794   4.291   5.579
 2236SOL    HW1 7607   1.786   4.287   5.479
 2236SOL    HW2 7608   1.825   4.203   5.614
 2237SOL     OW 7609   5.810   5.219   5.043
 2237SOL    HW1 7610   5.881   5.201   4.975
 2237SOL    HW2 7611   5.822   5.311   5.080
 2238SOL     OW 7612   4.931   4.599   2.556
 2238SOL    HW1 7613   4.963   4.624   2.465
 2238SOL    HW2 7614   5.009   4.594   2.618
 2239SOL     OW 7615   3.889   6.935   3.470
 2239SOL    HW1 7616   3.855   6.851   3.512
 2239SOL    HW2 7617   3.965   6.972   3.524
 2240SOL     OW 7618   5.037   5.976   3.074
 2240SOL    HW1 7619   5.134   5.996   3.059
 2240SOL    HW2 7620   5.027   5.883   3.108
 2241SOL     OW 7621   0.523   6.917   1.626
 2241SOL    HW1 7622   0.482   6.944   1.713
 2241SOL    HW2 7623   0.533   6.998   1.568
 2242SOL     OW 7624   4.952   3.106   3.128
 2242SOL    HW1 7625   5.004   3.106   3.213
 2242SOL    HW2 7626   4.857   3.081   3.147
 2243SOL     OW 7627   2.087   6.505   0.763
 2243SOL    HW1 7628   2.087   6.428   0.827
 2243SOL    HW2 7629   2.132   6.477   0.678
 2244SOL     OW 7630   2.503   0.874   0.591
 2244SOL    HW1 7631   2.575   0.897   0.656
 2244SOL    HW2 7632   2.420   0.927   0.612
 2245SOL     OW 7633   0.623   1.276   0.861
 2245SOL    HW1 7634   0.602   1.372   0.846
 2245SOL    HW2 7635   0.709   1.268   0.912
 2246SOL     OW 7636   2.301   0.669   4.742
 2246SOL    HW1 7637   2.287   0.726   4.660
 2246SOL    HW2 7638   2.336   0.726   4.816
 2247SOL     OW 7639   3.342   4.120   2.444
 2247SOL    HW1 7640   3.413   4.117   2.374
 2247SOL    HW2 7641   3.253   4.129   2.401
 2248SOL     OW 7642   5.434   4.547   5.010
 2248SOL    HW1 7643   5.494   4.470   5.031
 2248SOL    HW2 7644   5.363   4.554   5.079
 2249SOL     OW 7645   2.649   6.625   3.798
 2249SOL    HW1 7646   2.603   6.537   3.809
 2249SOL    HW2 7647   2.686   6.633   3.706
 2250SOL     OW 7648   4.085   3.683   5.843
 2250SOL    HW1 7649   4.048   3.688   5.750
 2250SOL    HW2 7650   4.132   3.596   5.855
 2251SOL     OW 7651   5.426   6.210   6.401
 2251SOL    HW1 7652   5.366   6.135   6.373
 2251SOL    HW2 7653   5.479   6.183   6.481
 2252SOL     OW 7654   5.204   1.489   2.862
 2252SOL    HW1 7655   5.136   1.562   2.866
 2252SOL    HW2 7656   5.293   1.525   2.891
 2253SOL     OW 7657   0.673   3.174   0.540
 2253SOL    HW1 7658   0.701   3.256   0.491
 2253SOL    HW2 7659   0.589   3.192   0.592
 2254SOL     OW 7660   3.506   3.859   2.459
 2254SOL    HW1 7661   3.436   3.921   2.496
 2254SOL    HW2 7662   3.585   3.858   2.519
 2255SOL     OW 7663   2.643   4.218   5.418
 2255SOL    HW1 7664   2.710   4.145   5.402
 2255SOL    HW2 7665   2.652   4.288   5.346
 2256SOL     OW 7666   5.033   6.210   2.345
 2256SOL    HW1 7667   5.084   6.278   2.293
 2256SOL    HW2 7668   5.077   6.194   2.433
 2257SOL     OW 7669   0.386   1.825   4.330
 2257SOL    HW1 7670   0.352   1.734   4.310
 2257SOL    HW2 7671   0.363   1.850   4.424
 2258SOL     OW 7672   2.131   6.683   4.805
 2258SOL    HW1 7673   2.177   6.768   4.831
 2258SOL    HW2 7674   2.084   6.645   4.884
 2259SOL     OW 7675   6.402   2.332   4.519
 2259SOL    HW1 7676   6.395   2.304   4.423
 2259SOL    HW2 7677   6.424   2.430   4.523
 2260SOL     OW 7678   1.150   4.088   1.610
 2260SOL    HW1 7679   1.156   4.018   1.681
 2260SOL    HW2 7680   1.137   4.045   1.521
 2261SOL     OW 7681   5.870   3.676   0.050
 2261SOL    HW1 7682   5.851   3.687   0.148
 2261SOL    HW2 7683   5.784   3.677   7.024
 2262SOL     OW 7684   6.573   0.598   4.066
 2262SOL    HW1 7685   6.574   0.569   4.162
 2262SOL    HW2 7686   6.645   0.666   4.051
 2263SOL     OW 7687   1.077   5.156   0.472
 2263SOL    HW1 7688   0.981   5.132   0.459
 2263SOL    HW2 7689   1.087   5.210   0.555
 2264SOL     OW 7690   2.558   6.783   6.572
 2264SOL    HW1 7691   2.643   6.738   6.546
 2264SOL    HW2 7692   2.499   6.719   6.622
 2265SOL     OW 7693   1.590   0.130   4.075
 2265SOL    HW1 7694   1.600   0.059   4.005
 2265SOL    HW2 7695   1.560   0.088   4.161
 2266SOL     OW 7696   5.111   1.527   6.394
 2266SOL    HW1 7697   5.139   1.519   6.298
 2266SOL    HW2 7698   5.171   1.472   6.451
 2267SOL     OW 7699   4.723   2.447   4.779
 2267SOL    HW1 7700   4.704   2.455   4.877
 2267SOL    HW2 7701   4.709   2.536   4.735
 2268SOL     OW 7702   6.425   4.345   6.391
 2268SOL    HW1 7703   6.336   4.298   6.388
 2268SOL    HW2 7704   6.417   4.427   6.448
 2269SOL     OW 7705   0.742   3.120   5.583
 2269SOL    HW1 7706   0.819   3.176   5.614
 2269SOL    HW2 7707   0.733   3.127   5.484
 2270SOL     OW 7708   4.348   3.070   5.866
 2270SOL    HW1 7709   4.376   2.975   5.879
 2270SOL    HW2 7710   4.264   3.087   5.918
 2271SOL     OW 7711   5.771   4.262   6.722
 2271SOL    HW1 7712   5.678   4.259   6.683
 2271SOL    HW2 7713   5.794   4.171   6.757
 2272SOL     OW 7714   6.315   1.012   6.214
 2272SOL    HW1 7715   6.335   1.096   6.263
 2272SOL    HW2 7716   6.313   0.935   6.279
 2273SOL     OW 7717   2.052   2.228   2.474
 2273SOL    HW1 7718   1.975   2.197   2.529
 2273SOL    HW2 7719   2.081   2.319   2.505
 2274SOL     OW 7720   0.654   1.421   0.238
 2274SOL    HW1 7721   0.675   1.415   0.336
 2274SOL    HW2 7722   0.669   1.332   0.195
 2275SOL     OW 7723   5.641   5.239   2.129
 2275SOL    HW1 7724   5.642   5.229   2.029
 2275SOL    HW2 7725   5.574   5.177   2.168
 2276SOL     OW 7726   1.357   1.110   1.169
 2276SOL    HW1 7727   1.432   1.172   1.147
 2276SOL    HW2 7728   1.364   1.082   1.265
 2277SOL     OW 7729   3.317   4.151   3.506
 2277SOL    HW1 7730   3.283   4.105   3.424
 2277SOL    HW2 7731   3.260   4.128   3.584
 2278SOL     OW 7732   0.635   3.069   3.816
 2278SOL    HW1 7733   0.625   2.973   3.840
 2278SOL    HW2 7734   0.710   3.080   3.751
 2279SOL     OW 7735   6.837   5.826   6.103
 2279SOL    HW1 7736   6.781   5.835   6.021
 2279SOL    HW2 7737   6.787   5.861   6.182
 2280SOL     OW 7738   5.187   0.850   5.539
 2280SOL    HW1 7739   5.138   0.811   5.461
 2280SOL    HW2 7740   5.216   0.778   5.601
 2281SOL     OW 7741   4.534   6.322   2.370
 2281SOL    HW1 7742   4.488   6.233   2.371
 2281SOL    HW2 7743   4.521   6.367   2.458
 2282SOL     OW 7744   4.834   5.129   5.461
 2282SOL    HW1 7745   4.736   5.140   5.477
 2282SOL    HW2 7746   4.855   5.033   5.445
 2283SOL     OW 7747   1.935   0.820   3.128
 2283SOL    HW1 7748   1.894   0.805   3.039
 2283SOL    HW2 7749   1.895   0.757   3.195
 2284SOL     OW 7750   0.546   3.280   6.179
 2284SOL    HW1 7751   0.516   3.212   6.245
 2284SOL    HW2 7752   0.630   3.248   6.134
 2285SOL     OW 7753   1.054   3.952   6.932
 2285SOL    HW1 7754   1.071   3.855   6.947
 2285SOL    HW2 7755   1.108   3.984   6.854
 2286SOL     OW 7756   5.330   6.987   3.453
 2286SOL    HW1 7757   5.333   6.888   3.468
 2286SOL    HW2 7758   5.399   7.013   3.385
 2287SOL     OW 7759   2.729   0.860   3.372
 2287SOL    HW1 7760   2.780   0.813   3.444
 2287SOL    HW2 7761   2.709   0.796   3.298
 2288SOL     OW 7762   0.021   5.099   3.779
 2288SOL    HW1 7763   0.119   5.085   3.792
 2288SOL    HW2 7764   7.021   5.076   3.684
 2289SOL     OW 7765   0.285   5.270   1.469
 2289SOL    HW1 7766   0.212   5.259   1.402
 2289SOL    HW2 7767   0.361   5.209   1.447
 2290SOL     OW 7768   0.994   4.283   1.145
 2290SOL    HW1 7769   0.935   4.244   1.074
 2290SOL    HW2 7770   0.941   4.344   1.203
 2291SOL     OW 7771   3.254   1.551   5.876
 2291SOL    HW1 7772   3.241   1.457   5.908
 2291SOL    HW2 7773   3.260   1.552   5.776
 2292SOL     OW 7774   1.472   0.807   4.955
 2292SOL    HW1 7775   1.502   0.901   4.970
 2292SOL    HW2 7776   1.434   0.798   4.863
 2293SOL     OW 7777   5.255   5.412   1.581
 2293SOL    HW1 7778   5.299   5.352   1.514
 2293SOL    HW2 7779   5.325   5.461   1.633
 2294SOL     OW 7780   4.012   6.913   6.797
 2294SOL    HW1 7781   3.976   6.930   6.889
 2294SOL    HW2 7782   3.945   6.859   6.745
 2295SOL     OW 7783   0.265   1.968   2.113
 2295SOL    HW1 7784   0.304   1.911   2.186
 2295SOL    HW2 7785   0.200   1.913   2.060
 2296SOL     OW 7786   3.240   1.006   0.450
 2296SOL    HW1 7787   3.312   1.029   0.385
 2296SOL    HW2 7788   3.153   0.995   0.401
 2297SOL     OW 7789   4.307   4.249   5.765
 2297SOL    HW1 7790   4.261   4.204   5.689
 2297SOL    HW2 7791   4.406   4.237   5.757
 2298SOL     OW 7792   3.523   2.409   1.190
 2298SOL    HW1 7793   3.535   2.424   1.288
 2298SOL    HW2 7794   3.606   2.369   1.152
 2299SOL     OW 7795   5.403   6.152   6.913
 2299SOL    HW1 7796   5.408   6.052   6.916
 2299SOL    HW2 7797   5.320   6.183   6.960
 2300SOL     OW 7798   1.655   5.362   1.329
 2300SOL    HW1 7799   1.663   5.308   1.245
 2300SOL    HW2 7800   1.742   5.406   1.349
 2301SOL     OW 7801   3.227   3.457   3.266
 2301SOL    HW1 7802   3.215   3.402   3.348
 2301SOL    HW2 7803   3.235   3.397   3.186
 2302SOL     OW 7804   3.841   5.866   2.726
 2302SOL    HW1 7805   3.869   5.844   2.632
 2302SOL    HW2 7806   3.778   5.797   2.759
 2303SOL     OW 7807   1.187   3.376   5.143
 2303SOL    HW1 7808   1.152   3.356   5.235
 2303SOL    HW2 7809   1.209   3.473   5.136
 2304SOL     OW 7810   2.817   0.074   3.479
 2304SOL    HW1 7811   2.852   0.082   3.386
 2304SOL    HW2 7812   2.894   0.061   3.542
 2305SOL     OW 7813   4.079   5.640   2.517
 2305SOL    HW1 7814   4.041   5.730   2.498
 2305SOL    HW2 7815   4.005   5.573   2.520
 2306SOL     OW 7816   1.726   4.708   1.954
 2306SOL    HW1 7817   1.680   4.746   2.035
 2306SOL    HW2 7818   1.661   4.701   1.879
 2307SOL     OW 7819   1.431   3.614   3.005
 2307SOL    HW1 7820   1.368   3.652   2.937
 2307SOL    HW2 7821   1.476   3.689   3.054
 2308SOL     OW 7822   0.746   0.903   6.743
 2308SOL    HW1 7823   0.694   0.900   6.828
 2308SOL    HW2 7824   0.717   0.982   6.688
 2309SOL     OW 7825   3.492   5.809   0.045
 2309SOL    HW1 7826   3.556   5.824   0.120
 2309SOL    HW2 7827   3.440   5.893   0.029
 2310SOL     OW 7828   6.070   0.019   1.926
 2310SOL    HW1 7829   6.158   0.053   1.959
 2310SOL    HW2 7830   6.065   0.031   1.827
 2311SOL     OW 7831   3.102   6.968   2.408
 2311SOL    HW1 7832   3.083   6.870   2.413
 2311SOL    HW2 7833   3.087   6.999   2.314
 2312SOL     OW 7834   3.554   0.141   2.738
 2312SOL    HW1 7835   3.569   0.159   2.641
 2312SOL    HW2 7836   3.641   0.117   2.782
 2313SOL     OW 7837   5.169   4.385   2.330
 2313SOL    HW1 7838   5.208   4.401   2.240
 2313SOL    HW2 7839   5.079   4.343   2.321
 2314SOL     OW 7840   6.073   0.465   3.750
 2314SOL    HW1 7841   6.054   0.509   3.838
 2314SOL    HW2 7842   6.064   0.531   3.676
 2315SOL     OW 7843   4.844   3.808   5.925
 2315SOL    HW1 7844   4.944   3.797   5.932
 2315SOL    HW2 7845   4.808   3.841   6.012
 2316SOL     OW 7846   2.844   0.673   6.018
 2316SOL    HW1 7847   2.931   0.709   6.053
 2316SOL    HW2 7848   2.836   0.693   5.921
 2317SOL     OW 7849   6.416   6.116   3.850
 2317SOL    HW1 7850   6.444   6.022   3.833
 2317SOL    HW2 7851   6.373   6.123   3.940
 2318SOL     OW 7852   2.171   3.763   4.486
 2318SOL    HW1 7853   2.167   3.862   4.503
 2318SOL    HW2 7854   2.139   3.714   4.567
 2319SOL     OW 7855   2.720   5.180   4.648
 2319SOL    HW1 7856   2.818   5.194   4.656
 2319SOL    HW2 7857   2.700   5.082   4.650
 2320SOL     OW 7858   0.907   2.729   5.672
 2320SOL    HW1 7859   0.887   2.824   5.695
 2320SOL    HW2 7860   1.005   2.712   5.683
 2321SOL     OW 7861   2.521   5.082   6.627
 2321SOL    HW1 7862   2.588   5.118   6.692
 2321SOL    HW2 7863   2.569   5.044   6.548
 2322SOL     OW 7864   1.897   3.932   1.945
 2322SOL    HW1 7865   1.946   4.005   1.992
 2322SOL    HW2 7866   1.882   3.856   2.008
 2323SOL     OW 7867   3.189   5.157   2.095
 2323SOL    HW1 7868   3.203   5.059   2.079
 2323SOL    HW2 7869   3.091   5.174   2.111
 2324SOL     OW 7870   6.968   6.015   1.827
 2324SOL    HW1 7871   6.874   5.992   1.799
 2324SOL    HW2 7872   0.008   5.959   1.774
 2325SOL     OW 7873   6.835   4.938   1.602
 2325SOL    HW1 7874   6.817   4.918   1.698
 2325SOL    HW2 7875   6.934   4.938   1.586
 2326SOL     OW 7876   1.661   6.066   6.615
 2326SOL    HW1 7877   1.667   5.967   6.618
 2326SOL    HW2 7878   1.620   6.100   6.700
 2327SOL     OW 7879   7.023   0.616   2.985
 2327SOL    HW1 7880   7.024   0.698   2.927
 2327SOL    HW2 7881   0.070   0.554   2.955
 2328SOL     OW 7882   1.588   1.647   2.391
 2328SOL    HW1 7883   1.592   1.744   2.367
 2328SOL    HW2 7884   1.516   1.633   2.459
 2329SOL     OW 7885   0.885   4.406   4.839
 2329SOL    HW1 7886   0.825   4.331   4.870
 2329SOL    HW2 7887   0.839   4.493   4.856
 2330SOL     OW 7888   0.112   2.981   0.553
 2330SOL    HW1 7889   0.098   2.913   0.625
 2330SOL    HW2 7890   0.101   3.072   0.592
 2331SOL     OW 7891   3.253   5.372   6.814
 2331SOL    HW1 7892   3.298   5.337   6.732
 2331SOL    HW2 7893   3.311   5.443   6.855
 2332SOL     OW 7894   6.029   0.043   5.688
 2332SOL    HW1 7895   5.983   0.035   5.776
 2332SOL    HW2 7896   6.080   0.129   5.684
 2333SOL     OW 7897   6.742   4.821   3.093
 2333SOL    HW1 7898   6.704   4.729   3.108
 2333SOL    HW2 7899   6.713   4.855   3.004
 2334SOL     OW 7900   1.205   1.507   6.704
 2334SOL    HW1 7901   1.269   1.466   6.769
 2334SOL    HW2 7902   1.116   1.464   6.713
 2335SOL     OW 7903   5.804   0.675   4.218
 2335SOL    HW1 7904   5.827   0.652   4.312
 2335SOL    HW2 7905   5.737   0.610   4.182
 2336SOL     OW 7906   2.760   1.922   3.968
 2336SOL    HW1 7907   2.667   1.895   3.995
 2336SOL    HW2 7908   2.802   1.849   3.914
 2337SOL     OW 7909   4.035   1.431   1.749
 2337SOL    HW1 7910   3.958   1.384   1.791
 2337SOL    HW2 7911   4.043   1.524   1.787
 2338SOL     OW 7912   0.836   3.833   4.407
 2338SOL    HW1 7913   0.923   3.798   4.372
 2338SOL    HW2 7914   0.851   3.922   4.451
 2339SOL     OW 7915   2.861   3.680   3.308
 2339SOL    HW1 7916   2.917   3.758   3.336
 2339SOL    HW2 7917   2.876   3.662   3.211
 2340SOL     OW 7918   0.609   4.720   0.059
 2340SOL    HW1 7919   0.522   4.736   0.106
 2340SOL    HW2 7920   0.678   4.782   0.095
 2341SOL     OW 7921   2.594   5.063   2.355
 2341SOL    HW1 7922   2.615   5.011   2.272
 2341SOL    HW2 7923   2.592   5.000   2.433
 2342SOL     OW 7924   1.980   6.843   4.446
 2342SOL    HW1 7925   2.067   6.829   4.493
 2342SOL    HW2 7926   1.946   6.935   4.466
 2343SOL     OW 7927   2.303   6.031   2.742
 2343SOL    HW1 7928   2.310   5.969   2.820
 2343SOL    HW2 7929   2.360   6.112   2.758
 2344SOL     OW 7930   6.948   5.765   0.196
 2344SOL    HW1 7931   6.978   5.823   0.120
 2344SOL    HW2 7932   6.851   5.743   0.186
 2345SOL     OW 7933   2.876   5.521   4.733
 2345SOL    HW1 7934   2.909   5.606   4.693
 2345SOL    HW2 7935   2.802   5.540   4.797
 2346SOL     OW 7936   3.989   3.221   5.405
 2346SOL    HW1 7937   3.956   3.232   5.311
 2346SOL    HW2 7938   4.086   3.243   5.409
 2347SOL     OW 7939   1.723   1.690   1.414
 2347SOL    HW1 7940   1.625   1.679   1.427
 2347SOL    HW2 7941   1.772   1.635   1.482
 2348SOL     OW 7942   2.367   6.502   3.697
 2348SOL    HW1 7943   2.444   6.439   3.711
 2348SOL    HW2 7944   2.288   6.471   3.750
 2349SOL     OW 7945   0.857   4.372   6.544
 2349SOL    HW1 7946   0.946   4.371   6.591
 2349SOL    HW2 7947   0.868   4.410   6.452
 2350SOL     OW 7948   6.131   4.431   6.154
 2350SOL    HW1 7949   6.078   4.423   6.238
 2350SOL    HW2 7950   6.071   4.458   6.079
 2351SOL     OW 7951   3.622   4.916   4.050
 2351SOL    HW1 7952   3.668   4.893   4.136
 2351SOL    HW2 7953   3.610   5.015   4.043
 2352SOL     OW 7954   0.203   3.128   3.219
 2352SOL    HW1 7955   0.273   3.059   3.240
 2352SOL    HW2 7956   0.133   3.126   3.290
 2353SOL     OW 7957   4.252   4.717   4.535
 2353SOL    HW1 7958   4.194   4.636   4.545
 2353SOL    HW2 7959   4.302   4.732   4.620
 2354SOL     OW 7960   2.209   2.304   4.761
 2354SOL    HW1 7961   2.141   2.240   4.724
 2354SOL    HW2 7962   2.161   2.375   4.813
 2355SOL     OW 7963   1.933   6.562   5.711
 2355SOL    HW1 7964   1.892   6.653   5.702
 2355SOL    HW2 7965   1.863   6.496   5.740
 2356SOL     OW 7966   1.046   3.040   6.443
 2356SOL    HW1 7967   1.015   2.973   6.375
 2356SOL    HW2 7968   1.124   3.003   6.494
 2357SOL     OW 7969   4.021   1.072   1.788
 2357SOL    HW1 7970   4.078   1.111   1.716
 2357SOL    HW2 7971   4.075   1.006   1.842
 2358SOL     OW 7972   2.865   5.320   5.561
 2358SOL    HW1 7973   2.900   5.236   5.518
 2358SOL    HW2 7974   2.799   5.364   5.501
 2359SOL     OW 7975   0.503   0.891   6.034
 2359SOL    HW1 7976   0.542   0.982   6.051
 2359SOL    HW2 7977   0.567   0.821   6.066
 2360SOL     OW 7978   5.934   3.852   0.694
 2360SOL    HW1 7979   5.989   3.907   0.631
 2360SOL    HW2 7980   5.904   3.910   0.770
 2361SOL     OW 7981   3.166   1.333   6.399
 2361SOL    HW1 7982   3.145   1.406   6.464
 2361SOL    HW2 7983   3.233   1.366   6.332
 2362SOL     OW 7984   2.894   5.754   3.790
 2362SOL    HW1 7985   2.937   5.664   3.796
 2362SOL    HW2 7986   2.965   5.825   3.795
 2363SOL     OW 7987   3.316   1.745   4.025
 2363SOL    HW1 7988   3.241   1.795   3.983
 2363SOL    HW2 7989   3.349   1.794   4.105
 2364SOL     OW 7990   2.064   2.589   2.325
 2364SOL    HW1 7991   2.076   2.556   2.418
 2364SOL    HW2 7992   2.053   2.689   2.326
 2365SOL     OW 7993   6.601   1.657   6.707
 2365SOL    HW1 7994   6.572   1.643   6.802
 2365SOL    HW2 7995   6.573   1.578   6.652
 2366SOL     OW 7996   2.671   5.617   0.080
 2366SOL    HW1 7997   2.724   5.543   0.038
 2366SOL    HW2 7998   2.712   5.640   0.168
 2367SOL     OW 7999   2.205   3.414   0.885
 2367SOL    HW1 8000   2.228   3.338   0.824
 2367SOL    HW2 8001   2.218   3.501   0.837
 2368SOL     OW 8002   5.722   6.635   4.862
 2368SOL    HW1 8003   5.813   6.649   4.822
 2368SOL    HW2 8004   5.725   6.660   4.959
 2369SOL     OW 8005   1.962   0.052   4.666
 2369SOL    HW1 8006   1.931   7.019   4.742
 2369SOL    HW2 8007   1.883   0.093   4.621
 2370SOL     OW 8008   5.779   3.062   0.046
 2370SOL    HW1 8009   5.836   3.013   0.113
 2370SOL    HW2 8010   5.826   3.063   6.983
 2371SOL     OW 8011   2.211   6.919   2.163
 2371SOL    HW1 8012   2.165   6.858   2.227
 2371SOL    HW2 8013   2.292   6.958   2.207
 2372SOL     OW 8014   6.628   2.499   1.987
 2372SOL    HW1 8015   6.612   2.517   1.890
 2372SOL    HW2 8016   6.575   2.419   2.015
 2373SOL     OW 8017   1.179   3.478   5.755
 2373SOL    HW1 8018   1.147   3.388   5.786
 2373SOL    HW2 8019   1.173   3.483   5.656
 2374SOL     OW 8020   6.890   2.034   4.753
 2374SOL    HW1 8021   6.967   2.035   4.817
 2374SOL    HW2 8022   6.888   2.120   4.702
 2375SOL     OW 8023   3.106   5.300   6.153
 2375SOL    HW1 8024   3.017   5.346   6.161
 2375SOL    HW2 8025   3.114   5.260   6.062
 2376SOL     OW 8026   6.436   3.118   4.028
 2376SOL    HW1 8027   6.451   3.034   4.081
 2376SOL    HW2 8028   6.380   3.181   4.082
 2377SOL     OW 8029   3.656   3.931   3.711
 2377SOL    HW1 8030   3.586   3.869   3.746
 2377SOL    HW2 8031   3.701   3.978   3.788
 2378SOL     OW 8032   4.967   1.644   0.323
 2378SOL    HW1 8033   4.968   1.705   0.244
 2378SOL    HW2 8034   4.910   1.564   0.302
 2379SOL     OW 8035   6.511   0.911   0.398
 2379SOL    HW1 8036   6.482   0.834   0.454
 2379SOL    HW2 8037   6.484   0.997   0.443
 2380SOL     OW 8038   6.572   2.450   0.312
 2380SOL    HW1 8039   6.547   2.536   0.357
 2380SOL    HW2 8040   6.534   2.373   0.363
 2381SOL     OW 8041   2.782   5.634   3.091
 2381SOL    HW1 8042   2.686   5.663   3.090
 2381SOL    HW2 8043   2.816   5.630   2.997
 2382SOL     OW 8044   1.591   4.025   4.319
 2382SOL    HW1 8045   1.664   3.987   4.262
 2382SOL    HW2 8046   1.627   4.103   4.371
 2383SOL     OW 8047   6.329   0.270   0.969
 2383SOL    HW1 8048   6.346   0.342   0.902
 2383SOL    HW2 8049   6.414   0.220   0.985
 2384SOL     OW 8050   5.376   1.163   2.659
 2384SOL    HW1 8051   5.283   1.200   2.664
 2384SOL    HW2 8052   5.442   1.237   2.652
 2385SOL     OW 8053   6.974   0.411   0.128
 2385SOL    HW1 8054   6.914   0.456   0.062
 2385SOL    HW2 8055   7.020   0.480   0.184
 2386SOL     OW 8056   5.187   6.034   4.516
 2386SOL    HW1 8057   5.210   5.937   4.512
 2386SOL    HW2 8058   5.237   6.078   4.591
 2387SOL     OW 8059   2.092   1.362   3.958
 2387SOL    HW1 8060   2.047   1.364   3.869
 2387SOL    HW2 8061   2.028   1.327   4.027
 2388SOL     OW 8062   6.978   2.127   3.443
 2388SOL    HW1 8063   6.912   2.129   3.368
 2388SOL    HW2 8064   6.944   2.183   3.518
 2389SOL     OW 8065   4.197   4.782   3.311
 2389SOL    HW1 8066   4.170   4.776   3.215
 2389SOL    HW2 8067   4.256   4.704   3.333
 2390SOL     OW 8068   3.850   3.021   3.792
 2390SOL    HW1 8069   3.751   3.034   3.792
 2390SOL    HW2 8070   3.875   2.952   3.724
 2391SOL     OW 8071   5.469   4.637   6.249
 2391SOL    HW1 8072   5.496   4.610   6.342
 2391SOL    HW2 8073   5.440   4.556   6.198
 2392SOL     OW 8074   3.247   6.630   5.972
 2392SOL    HW1 8075   3.248   6.530   5.968
 2392SOL    HW2 8076   3.207   6.666   5.888
 2393SOL     OW 8077   5.314   3.775   6.223
 2393SOL    HW1 8078   5.227   3.727   6.227
 2393SOL    HW2 8079   5.356   3.761   6.134
 2394SOL     OW 8080   0.950   3.884   4.977
 2394SOL    HW1 8081   0.990   3.928   4.897
 2394SOL    HW2 8082   0.867   3.835   4.951
 2395SOL     OW 8083   4.961   0.046   6.162
 2395SOL    HW1 8084   4.863   0.027   6.152
 2395SOL    HW2 8085   4.976   0.145   6.157
 2396SOL     OW 8086   3.786   4.881   1.023
 2396SOL    HW1 8087   3.871   4.933   1.019
 2396SOL    HW2 8088   3.731   4.914   1.099
 2397SOL     OW 8089   0.715   4.039   5.085
 2397SOL    HW1 8090   0.701   3.983   5.167
 2397SOL    HW2 8091   0.801   4.012   5.040
 2398SOL     OW 8092   4.769   4.276   6.815
 2398SOL    HW1 8093   4.676   4.253   6.842
 2398SOL    HW2 8094   4.810   4.198   6.767
 2399SOL     OW 8095   4.938   0.887   0.862
 2399SOL    HW1 8096   4.898   0.958   0.920
 2399SOL    HW2 8097   5.036   0.880   0.880
 2400SOL     OW 8098   2.992   3.609   0.774
 2400SOL    HW1 8099   3.074   3.556   0.754
 2400SOL    HW2 8100   3.018   3.699   0.809
 2401SOL     OW 8101   5.540   6.199   0.301
 2401SOL    HW1 8102   5.484   6.154   0.232
 2401SOL    HW2 8103   5.637   6.179   0.284
 2402SOL     OW 8104   0.678   0.306   4.298
 2402SOL    HW1 8105   0.622   0.226   4.278
 2402SOL    HW2 8106   0.625   0.389   4.282
 2403SOL     OW 8107   1.432   2.151   6.636
 2403SOL    HW1 8108   1.465   2.097   6.713
 2403SOL    HW2 8109   1.397   2.090   6.565
 2404SOL     OW 8110   2.615   1.172   1.196
 2404SOL    HW1 8111   2.576   1.213   1.278
 2404SOL    HW2 8112   2.598   1.074   1.196
 2405SOL     OW 8113   3.367   3.681   2.324
 2405SOL    HW1 8114   3.438   3.745   2.353
 2405SOL    HW2 8115   3.313   3.652   2.403
 2406SOL     OW 8116   3.447   0.910   0.883
 2406SOL    HW1 8117   3.545   0.931   0.878
 2406SOL    HW2 8118   3.416   0.873   0.795
 2407SOL     OW 8119   5.647   2.028   3.349
 2407SOL    HW1 8120   5.624   2.042   3.253
 2407SOL    HW2 8121   5.673   1.932   3.364
 2408SOL     OW 8122   4.559   4.447   2.233
 2408SOL    HW1 8123   4.518   4.387   2.164
 2408SOL    HW2 8124   4.652   4.471   2.205
 2409SOL     OW 8125   2.422   4.524   2.097
 2409SOL    HW1 8126   2.497   4.550   2.158
 2409SOL    HW2 8127   2.455   4.521   2.003
 2410SOL     OW 8128   3.425   3.072   4.675
 2410SOL    HW1 8129   3.330   3.100   4.691
 2410SOL    HW2 8130   3.461   3.122   4.597
 2411SOL     OW 8131   5.440   6.148   4.322
 2411SOL    HW1 8132   5.450   6.094   4.406
 2411SOL    HW2 8133   5.430   6.244   4.346
 2412SOL     OW 8134   5.593   4.465   1.545
 2412SOL    HW1 8135   5.655   4.406   1.598
 2412SOL    HW2 8136   5.498   4.444   1.570
 2413SOL     OW 8137   6.322   0.823   1.173
 2413SOL    HW1 8138   6.336   0.724   1.174
 2413SOL    HW2 8139   6.407   0.868   1.145
 2414SOL     OW 8140   4.735   4.142   3.362
 2414SOL    HW1 8141   4.706   4.168   3.454
 2414SOL    HW2 8142   4.691   4.203   3.295
 2415SOL     OW 8143   6.132   1.765   2.968
 2415SOL    HW1 8144   6.212   1.710   2.946
 2415SOL    HW2 8145   6.049   1.718   2.938
 2416SOL     OW 8146   5.256   2.229   5.260
 2416SOL    HW1 8147   5.354   2.220   5.277
 2416SOL    HW2 8148   5.211   2.143   5.283
 2417SOL     OW 8149   3.165   3.591   4.828
 2417SOL    HW1 8150   3.239   3.633   4.881
 2417SOL    HW2 8151   3.199   3.563   4.739
 2418SOL     OW 8152   3.713   2.913   4.181
 2418SOL    HW1 8153   3.647   2.974   4.136
 2418SOL    HW2 8154   3.677   2.884   4.269
 2419SOL     OW 8155   0.107   6.564   3.785
 2419SOL    HW1 8156   0.134   6.627   3.858
 2419SOL    HW2 8157   0.108   6.471   3.820
 2420SOL     OW 8158   3.288   0.505   2.271
 2420SOL    HW1 8159   3.188   0.511   2.270
 2420SOL    HW2 8160   3.319   0.473   2.361
 2421SOL     OW 8161   1.883   2.819   4.740
 2421SOL    HW1 8162   1.889   2.901   4.683
 2421SOL    HW2 8163   1.943   2.748   4.704
 2422SOL     OW 8164   4.769   1.294   0.587
 2422SOL    HW1 8165   4.770   1.200   0.553
 2422SOL    HW2 8166   4.861   1.319   0.615
 2423SOL     OW 8167   1.797   6.677   2.129
 2423SOL    HW1 8168   1.746   6.606   2.178
 2423SOL    HW2 8169   1.884   6.640   2.099
 2424SOL     OW 8170   6.500   0.067   0.040
 2424SOL    HW1 8171   6.573   0.095   7.003
 2424SOL    HW2 8172   6.428   0.136   0.040
 2425SOL     OW 8173   5.656   0.244   3.861
 2425SOL    HW1 8174   5.595   0.306   3.812
 2425SOL    HW2 8175   5.603   0.187   3.924
 2426SOL     OW 8176   1.831   5.264   5.607
 2426SOL    HW1 8177   1.792   5.190   5.552
 2426SOL    HW2 8178   1.831   5.238   5.704
 2427SOL     OW 8179   5.695   5.604   5.384
 2427SOL    HW1 8180   5.687   5.654   5.297
 2427SOL    HW2 8181   5.610   5.614   5.435
 2428SOL     OW 8182   0.657   0.765   2.105
 2428SOL    HW1 8183   0.751   0.790   2.128
 2428SOL    HW2 8184   0.639   0.671   2.135
 2429SOL     OW 8185   5.793   5.868   1.876
 2429SOL    HW1 8186   5.749   5.910   1.956
 2429SOL    HW2 8187   5.778   5.926   1.796
 2430SOL     OW 8188   6.309   1.096   2.203
 2430SOL    HW1 8189   6.372   1.055   2.137
 2430SOL    HW2 8190   6.324   1.054   2.293
 2431SOL     OW 8191   4.590   1.488   2.325
 2431SOL    HW1 8192   4.493   1.500   2.303
 2431SOL    HW2 8193   4.607   1.518   2.419
 2432SOL     OW 8194   4.505   6.445   1.997
 2432SOL    HW1 8195   4.578   6.437   2.066
 2432SOL    HW2 8196   4.546   6.445   1.906
 2433SOL     OW 8197   4.659   0.907   6.696
 2433SOL    HW1 8198   4.758   0.900   6.685
 2433SOL    HW2 8199   4.637   0.923   6.792
 2434SOL     OW 8200   3.797   1.066   5.546
 2434SOL    HW1 8201   3.878   1.123   5.532
 2434SOL    HW2 8202   3.772   1.021   5.460
 2435SOL     OW 8203   6.038   5.638   5.077
 2435SOL    HW1 8204   5.994   5.648   4.988
 2435SOL    HW2 8205   5.987   5.570   5.131
 2436SOL     OW 8206   2.303   5.902   6.821
 2436SOL    HW1 8207   2.265   5.827   6.875
 2436SOL    HW2 8208   2.381   5.868   6.768
 2437SOL     OW 8209   6.251   6.787   6.006
 2437SOL    HW1 8210   6.274   6.690   6.017
 2437SOL    HW2 8211   6.275   6.837   6.088
 2438SOL     OW 8212   2.900   2.209   0.856
 2438SOL    HW1 8213   2.960   2.226   0.935
 2438SOL    HW2 8214   2.812   2.173   0.888
 2439SOL     OW 8215   6.763   4.363   6.047
 2439SOL    HW1 8216   6.736   4.352   6.143
 2439SOL    HW2 8217   6.729   4.450   6.013
 2440SOL     OW 8218   5.192   4.998   5.735
 2440SOL    HW1 8219   5.164   4.903   5.721
 2440SOL    HW2 8220   5.281   5.014   5.692
 2441SOL     OW 8221   6.908   2.185   1.037
 2441SOL    HW1 8222   6.856   2.140   1.110
 2441SOL    HW2 8223   6.986   2.232   1.077
 2442SOL     OW 8224   1.258   3.664   5.157
 2442SOL    HW1 8225   1.278   3.671   5.254
 2442SOL    HW2 8226   1.162   3.641   5.144
 2443SOL     OW 8227   2.777   3.951   6.329
 2443SOL    HW1 8228   2.725   4.013   6.270
 2443SOL    HW2 8229   2.801   3.869   6.277
 2444SOL     OW 8230   2.143   4.041   5.893
 2444SOL    HW1 8231   2.161   4.059   5.990
 2444SOL    HW2 8232   2.162   3.945   5.873
 2445SOL     OW 8233   0.260   0.755   0.981
 2445SOL    HW1 8234   0.357   0.769   1.002
 2445SOL    HW2 8235   0.206   0.827   1.025
 2446SOL     OW 8236   6.131   4.568   4.876
 2446SOL    HW1 8237   6.142   4.656   4.923
 2446SOL    HW2 8238   6.191   4.500   4.919
 2447SOL     OW 8239   1.115   1.561   0.564
 2447SOL    HW1 8240   1.200   1.524   0.602
 2447SOL    HW2 8241   1.077   1.498   0.497
 2448SOL     OW 8242   0.963   0.014   4.547
 2448SOL    HW1 8243   0.966   6.991   4.460
 2448SOL    HW2 8244   0.901   0.092   4.540
 2449SOL     OW 8245   6.921   3.706   6.366
 2449SOL    HW1 8246   6.849   3.646   6.333
 2449SOL    HW2 8247   6.929   3.785   6.304
 2450SOL     OW 8248   2.526   4.511   2.847
 2450SOL    HW1 8249   2.487   4.452   2.918
 2450SOL    HW2 8250   2.512   4.468   2.757
 2451SOL     OW 8251   2.366   5.940   3.831
 2451SOL    HW1 8252   2.311   5.935   3.747
 2451SOL    HW2 8253   2.357   5.854   3.881
 2452SOL     OW 8254   1.404   3.173   3.247
 2452SOL    HW1 8255   1.418   3.265   3.212
 2452SOL    HW2 8256   1.481   3.114   3.220
 2453SOL     OW 8257   6.340   4.885   1.582
 2453SOL    HW1 8258   6.259   4.827   1.590
 2453SOL    HW2 8259   6.365   4.894   1.486
 2454SOL     OW 8260   3.336   0.745   1.581
 2454SOL    HW1 8261   3.433   0.725   1.592
 2454SOL    HW2 8262   3.287   0.662   1.555
 2455SOL     OW 8263   5.157   5.866   0.364
 2455SOL    HW1 8264   5.073   5.919   0.374
 2455SOL    HW2 8265   5.136   5.775   0.330
 2456SOL     OW 8266   5.139   5.918   1.747
 2456SOL    HW1 8267   5.075   5.976   1.797
 2456SOL    HW2 8268   5.229   5.922   1.792
 2457SOL     OW 8269   5.530   6.572   1.601
 2457SOL    HW1 8270   5.455   6.517   1.564
 2457SOL    HW2 8271   5.617   6.527   1.581
 2458SOL     OW 8272   0.917   5.436   2.610
 2458SOL    HW1 8273   0.875   5.412   2.522
 2458SOL    HW2 8274   0.956   5.528   2.604
 2459SOL     OW 8275   2.135   0.553   0.753
 2459SOL    HW1 8276   2.204   0.498   0.706
 2459SOL    HW2 8277   2.179   0.606   0.826
 2460SOL     OW 8278   3.253   6.033   1.524
 2460SOL    HW1 8279   3.259   5.942   1.483
 2460SOL    HW2 8280   3.274   6.028   1.622
 2461SOL     OW 8281   5.131   0.769   2.114
 2461SOL    HW1 8282   5.058   0.796   2.176
 2461SOL    HW2 8283   5.206   0.729   2.166
 2462SOL     OW 8284   2.034   5.483   6.203
 2462SOL    HW1 8285   2.123   5.488   6.249
 2462SOL    HW2 8286   1.997   5.390   6.213
 2463SOL     OW 8287   5.927   1.921   3.715
 2463SOL    HW1 8288   5.943   2.019   3.704
 2463SOL    HW2 8289   5.978   1.871   3.645
 2464SOL     OW 8290   1.143   3.366   1.288
 2464SOL    HW1 8291   1.233   3.321   1.282
 2464SOL    HW2 8292   1.084   3.333   1.214
 2465SOL     OW 8293   6.433   6.024   3.106
 2465SOL    HW1 8294   6.365   5.953   3.089
 2465SOL    HW2 8295   6.472   6.012   3.198
 2466SOL     OW 8296   3.318   1.882   2.577
 2466SOL    HW1 8297   3.225   1.875   2.543
 2466SOL    HW2 8298   3.360   1.966   2.545
 2467SOL     OW 8299   6.836   1.247   6.098
 2467SOL    HW1 8300   6.845   1.242   6.197
 2467SOL    HW2 8301   6.784   1.168   6.065
 2468SOL     OW 8302   6.959   5.099   1.190
 2468SOL    HW1 8303   0.016   5.153   1.210
 2468SOL    HW2 8304   6.896   5.103   1.268
 2469SOL     OW 8305   2.396   2.936   5.543
 2469SOL    HW1 8306   2.457   2.857   5.544
 2469SOL    HW2 8307   2.359   2.948   5.451
 2470SOL     OW 8308   4.745   2.471   0.255
 2470SOL    HW1 8309   4.776   2.452   0.348
 2470SOL    HW2 8310   4.759   2.568   0.234
 2471SOL     OW 8311   0.924   0.084   2.867
 2471SOL    HW1 8312   0.829   0.103   2.894
 2471SOL    HW2 8313   0.929   7.020   2.823
 2472SOL     OW 8314   5.713   1.763   3.644
 2472SOL    HW1 8315   5.764   1.849   3.639
 2472SOL    HW2 8316   5.654   1.764   3.725
 2473SOL     OW 8317   1.087   6.082   4.202
 2473SOL    HW1 8318   1.174   6.128   4.218
 2473SOL    HW2 8319   1.050   6.049   4.290
 2474SOL     OW 8320   7.010   4.786   5.103
 2474SOL    HW1 8321   0.057   4.850   5.076
 2474SOL    HW2 8322   6.960   4.756   5.022
 2475SOL     OW 8323   4.759   2.131   6.927
 2475SOL    HW1 8324   4.758   2.102   7.023
 2475SOL    HW2 8325   4.710   2.064   6.872
 2476SOL     OW 8326   1.199   1.868   4.518
 2476SOL    HW1 8327   1.209   1.847   4.421
 2476SOL    HW2 8328   1.259   1.945   4.542
 2477SOL     OW 8329   4.622   4.672   0.984
 2477SOL    HW1 8330   4.553   4.744   0.971
 2477SOL    HW2 8331   4.640   4.661   1.082
 2478SOL     OW 8332   6.764   6.935   2.910
 2478SOL    HW1 8333   6.684   6.883   2.939
 2478SOL    HW2 8334   6.761   0.001   2.952
 2479SOL     OW 8335   0.240   3.323   0.455
 2479SOL    HW1 8336   0.314   3.365   0.507
 2479SOL    HW2 8337   0.275   3.287   0.369
 2480SOL     OW 8338   0.321   3.404   1.524
 2480SOL    HW1 8339   0.417   3.382   1.540
 2480SOL    HW2 8340   0.274   3.411   1.612
 2481SOL     OW 8341   4.663   4.997   2.168
 2481SOL    HW1 8342   4.743   4.939   2.179
 2481SOL    HW2 8343   4.613   4.971   2.086
 2482SOL     OW 8344   5.017   2.122   4.491
 2482SOL    HW1 8345   5.047   2.090   4.581
 2482SOL    HW2 8346   4.956   2.201   4.502
 2483SOL     OW 8347   0.917   2.206   6.673
 2483SOL    HW1 8348   0.935   2.184   6.769
 2483SOL    HW2 8349   0.845   2.147   6.638
 2484SOL     OW 8350   3.343   2.210   6.306
 2484SOL    HW1 8351   3.383   2.293   6.266
 2484SOL    HW2 8352   3.244   2.212   6.296
 2485SOL     OW 8353   0.276   5.739   2.154
 2485SOL    HW1 8354   0.195   5.687   2.126
 2485SOL    HW2 8355   0.337   5.748   2.075
 2486SOL     OW 8356   1.258   5.543   3.087
 2486SOL    HW1 8357   1.281   5.630   3.131
 2486SOL    HW2 8358   1.162   5.521   3.105
 2487SOL     OW 8359   3.339   1.151   0.846
 2487SOL    HW1 8360   3.244   1.162   0.875
 2487SOL    HW2 8361   3.368   1.057   0.860
 2488SOL     OW 8362   2.905   6.167   6.942
 2488SOL    HW1 8363   2.881   6.217   6.859
 2488SOL    HW2 8364   2.821   6.139   6.989
 2489SOL     OW 8365   0.717   5.738   4.678
 2489SOL    HW1 8366   0.667   5.656   4.651
 2489SOL    HW2 8367   0.684   5.816   4.626
 2490SOL     OW 8368   5.038   3.364   1.512
 2490SOL    HW1 8369   4.976   3.324   1.444
 2490SOL    HW2 8370   5.015   3.329   1.603
 2491SOL     OW 8371   1.477   4.558   2.401
 2491SOL    HW1 8372   1.544   4.618   2.357
 2491SOL    HW2 8373   1.390   4.607   2.411
 2492SOL     OW 8374   4.055   3.139   6.448
 2492SOL    HW1 8375   4.071   3.068   6.515
 2492SOL    HW2 8376   4.073   3.103   6.356
 2493SOL     OW 8377   6.632   2.162   3.543
 2493SOL    HW1 8378   6.591   2.071   3.555
 2493SOL    HW2 8379   6.650   2.177   3.445
 2494SOL     OW 8380   5.040   3.311   2.003
 2494SOL    HW1 8381   5.139   3.300   1.996
 2494SOL    HW2 8382   4.996   3.224   1.985
 2495SOL     OW 8383   6.081   1.046   4.792
 2495SOL    HW1 8384   6.175   1.076   4.811
 2495SOL    HW2 8385   6.018   1.122   4.803
 2496SOL     OW 8386   1.152   6.513   0.223
 2496SOL    HW1 8387   1.202   6.561   0.294
 2496SOL    HW2 8388   1.054   6.526   0.236
 2497SOL     OW 8389   5.331   1.987   6.228
 2497SOL    HW1 8390   5.391   2.063   6.203
 2497SOL    HW2 8391   5.367   1.942   6.309
 2498SOL     OW 8392   1.585   3.581   4.785
 2498SOL    HW1 8393   1.510   3.538   4.734
 2498SOL    HW2 8394   1.547   3.639   4.857
 2499SOL     OW 8395   6.059   0.123   5.307
 2499SOL    HW1 8396   6.145   0.105   5.259
 2499SOL    HW2 8397   6.036   0.046   5.366
 2500SOL     OW 8398   4.751   3.340   6.744
 2500SOL    HW1 8399   4.693   3.275   6.794
 2500SOL    HW2 8400   4.800   3.291   6.672
 2501SOL     OW 8401   6.622   4.481   0.145
 2501SOL    HW1 8402   6.639   4.383   0.132
 2501SOL    HW2 8403   6.601   4.523   0.057
 2502SOL     OW 8404   2.252   6.532   3.381
 2502SOL    HW1 8405   2.290   6.571   3.297
 2502SOL    HW2 8406   2.235   6.605   3.447
 2503SOL     OW 8407   4.779   4.977   4.896
 2503SOL    HW1 8408   4.716   4.970   4.974
 2503SOL    HW2 8409   4.795   5.074   4.875
 2504SOL     OW 8410   1.773   4.314   3.904
 2504SOL    HW1 8411   1.708   4.247   3.939
 2504SOL    HW2 8412   1.818   4.360   3.980
 2505SOL     OW 8413   4.698   5.710   3.903
 2505SOL    HW1 8414   4.614   5.761   3.924
 2505SOL    HW2 8415   4.746   5.687   3.988
 2506SOL     OW 8416   0.343   2.146   6.488
 2506SOL    HW1 8417   0.385   2.217   6.432
 2506SOL    HW2 8418   0.322   2.066   6.431
 2507SOL     OW 8419   6.943   5.960   0.753
 2507SOL    HW1 8420   6.845   5.970   0.737
 2507SOL    HW2 8421   6.993   6.024   0.695
 2508SOL     OW 8422   2.505   2.483   2.886
 2508SOL    HW1 8423   2.465   2.571   2.862
 2508SOL    HW2 8424   2.445   2.436   2.951
 2509SOL     OW 8425   5.285   2.188   3.809
 2509SOL    HW1 8426   5.260   2.107   3.861
 2509SOL    HW2 8427   5.371   2.170   3.760
 2510SOL     OW 8428   3.870   6.047   1.036
 2510SOL    HW1 8429   3.803   6.089   1.097
 2510SOL    HW2 8430   3.878   6.101   0.952
 2511SOL     OW 8431   1.529   7.016   4.292
 2511SOL    HW1 8432   1.469   6.946   4.332
 2511SOL    HW2 8433   1.624   6.986   4.299
 2512SOL     OW 8434   4.890   2.914   4.837
 2512SOL    HW1 8435   4.977   2.876   4.806
 2512SOL    HW2 8436   4.847   2.850   4.901
 2513SOL     OW 8437   0.524   4.083   1.031
 2513SOL    HW1 8438   0.574   4.076   0.945
 2513SOL    HW2 8439   0.434   4.039   1.021
 2514SOL     OW 8440   1.140   1.333   3.805
 2514SOL    HW1 8441   1.180   1.424   3.815
 2514SOL    HW2 8442   1.102   1.303   3.893
 2515SOL     OW 8443   1.309   5.327   0.416
 2515SOL    HW1 8444   1.388   5.326   0.477
 2515SOL    HW2 8445   1.242   5.260   0.447
 2516SOL     OW 8446   4.951   6.448   4.190
 2516SOL    HW1 8447   4.988   6.527   4.239
 2516SOL    HW2 8448   5.013   6.370   4.202
 2517SOL     OW 8449   2.502   4.889   0.310
 2517SOL    HW1 8450   2.445   4.809   0.331
 2517SOL    HW2 8451   2.576   4.895   0.377
 2518SOL     OW 8452   2.644   2.347   6.616
 2518SOL    HW1 8453   2.650   2.447   6.620
 2518SOL    HW2 8454   2.584   2.315   6.690
 2519SOL     OW 8455   5.172   3.878   4.150
 2519SOL    HW1 8456   5.098   3.812   4.140
 2519SOL    HW2 8457   5.250   3.834   4.196
 2520SOL     OW 8458   2.158   4.487   2.495
 2520SOL    HW1 8459   2.191   4.568   2.445
 2520SOL    HW2 8460   2.059   4.481   2.485
 2521SOL     OW 8461   5.471   6.420   5.193
 2521SOL    HW1 8462   5.459   6.346   5.127
 2521SOL    HW2 8463   5.448   6.507   5.150
 2522SOL     OW 8464   1.260   3.030   4.762
 2522SOL    HW1 8465   1.166   3.054   4.739
 2522SOL    HW2 8466   1.307   3.110   4.798
 2523SOL     OW 8467   0.455   3.231   6.794
 2523SOL    HW1 8468   0.367   3.195   6.762
 2523SOL    HW2 8469   0.506   3.159   6.840
 2524SOL     OW 8470   1.132   6.601   5.251
 2524SOL    HW1 8471   1.078   6.670   5.203
 2524SOL    HW2 8472   1.227   6.632   5.258
 2525SOL     OW 8473   1.564   4.142   3.157
 2525SOL    HW1 8474   1.618   4.222   3.183
 2525SOL    HW2 8475   1.492   4.127   3.225
 2526SOL     OW 8476   6.673   1.259   5.417
 2526SOL    HW1 8477   6.618   1.286   5.338
 2526SOL    HW2 8478   6.672   1.159   5.425
 2527SOL     OW 8479   6.583   6.683   4.019
 2527SOL    HW1 8480   6.621   6.774   4.000
 2527SOL    HW2 8481   6.645   6.614   3.982
 2528SOL     OW 8482   6.375   5.644   0.365
 2528SOL    HW1 8483   6.313   5.632   0.287
 2528SOL    HW2 8484   6.412   5.737   0.364
 2529SOL     OW 8485   5.203   3.593   4.749
 2529SOL    HW1 8486   5.208   3.673   4.689
 2529SOL    HW2 8487   5.111   3.555   4.746
 2530SOL     OW 8488   0.046   0.679   4.265
 2530SOL    HW1 8489   7.017   0.711   4.342
 2530SOL    HW2 8490   0.022   0.731   4.183
 2531SOL     OW 8491   4.491   0.890   6.357
 2531SOL    HW1 8492   4.400   0.928   6.341
 2531SOL    HW2 8493   4.485   0.818   6.426
 2532SOL     OW 8494   1.471   4.834   5.946
 2532SOL    HW1 8495   1.474   4.735   5.933
 2532SOL    HW2 8496   1.522   4.859   6.029
 2533SOL     OW 8497   5.936   6.629   5.222
 2533SOL    HW1 8498   5.884   6.713   5.240
 2533SOL    HW2 8499   5.875   6.560   5.182
 2534SOL     OW 8500   0.727   2.134   4.124
 2534SOL    HW1 8501   0.714   2.192   4.044
 2534SOL    HW2 8502   0.804   2.072   4.108
 2535SOL     OW 8503   2.228   1.248   2.681
 2535SOL    HW1 8504   2.202   1.164   2.729
 2535SOL    HW2 8505   2.327   1.249   2.666
 2536SOL     OW 8506   6.657   0.834   3.752
 2536SOL    HW1 8507   6.652   0.839   3.852
 2536SOL    HW2 8508   6.752   0.816   3.725
 2537SOL     OW 8509   4.207   5.194   0.793
 2537SOL    HW1 8510   4.288   5.250   0.772
 2537SOL    HW2 8511   4.125   5.247   0.772
 2538SOL     OW 8512   1.951   4.399   4.938
 2538SOL    HW1 8513   1.922   4.487   4.901
 2538SOL    HW2 8514   1.878   4.360   4.994
 2539SOL     OW 8515   2.523   0.202   5.317
 2539SOL    HW1 8516   2.424   0.216   5.311
 2539SOL    HW2 8517   2.565   0.223   5.229
 2540SOL     OW 8518   5.811   2.143   2.204
 2540SOL    HW1 8519   5.785   2.077   2.274
 2540SOL    HW2 8520   5.910   2.146   2.195
 2541SOL     OW 8521   1.057   6.351   5.503
 2541SOL    HW1 8522   1.108   6.300   5.434
 2541SOL    HW2 8523   0.996   6.289   5.552
 2542SOL     OW 8524   3.700   1.903   4.106
 2542SOL    HW1 8525   3.710   1.877   4.202
 2542SOL    HW2 8526   3.605   1.931   4.089
 2543SOL     OW 8527   0.205   1.698   4.640
 2543SOL    HW1 8528   0.140   1.772   4.622
 2543SOL    HW2 8529   0.229   1.696   4.737
 2544SOL     OW 8530   6.330   5.457   2.092
 2544SOL    HW1 8531   6.358   5.526   2.158
 2544SOL    HW2 8532   6.231   5.466   2.076
 2545SOL     OW 8533   6.681   1.812   1.199
 2545SOL    HW1 8534   6.684   1.907   1.230
 2545SOL    HW2 8535   6.772   1.785   1.166
 2546SOL     OW 8536   6.860   4.076   2.747
 2546SOL    HW1 8537   6.842   4.166   2.707
 2546SOL    HW2 8538   6.855   4.082   2.847
 2547SOL     OW 8539   5.723   3.372   1.271
 2547SOL    HW1 8540   5.674   3.458   1.257
 2547SOL    HW2 8541   5.807   3.372   1.217
 2548SOL     OW 8542   0.628   6.625   5.354
 2548SOL    HW1 8543   0.639   6.715   5.397
 2548SOL    HW2 8544   0.554   6.576   5.398
 2549SOL     OW 8545   2.922   3.004   0.388
 2549SOL    HW1 8546   3.006   2.981   0.338
 2549SOL    HW2 8547   2.890   2.923   0.437
 2550SOL     OW 8548   3.968   6.417   6.446
 2550SOL    HW1 8549   4.043   6.376   6.394
 2550SOL    HW2 8550   4.006   6.476   6.517
 2551SOL     OW 8551   3.048   5.696   0.670
 2551SOL    HW1 8552   2.975   5.751   0.711
 2551SOL    HW2 8553   3.026   5.599   0.680
 2552SOL     OW 8554   2.094   5.972   1.230
 2552SOL    HW1 8555   2.019   6.030   1.259
 2552SOL    HW2 8556   2.169   5.979   1.296
 2553SOL     OW 8557   4.538   1.355   6.640
 2553SOL    HW1 8558   4.526   1.293   6.718
 2553SOL    HW2 8559   4.573   1.303   6.562
 2554SOL     OW 8560   1.682   5.835   1.617
 2554SOL    HW1 8561   1.680   5.802   1.711
 2554SOL    HW2 8562   1.772   5.816   1.577
 2555SOL     OW 8563   5.117   6.537   5.393
 2555SOL    HW1 8564   5.206   6.535   5.437
 2555SOL    HW2 8565   5.127   6.517   5.296
 2556SOL     OW 8566   4.026   0.803   0.540
 2556SOL    HW1 8567   4.062   0.875   0.481
 2556SOL    HW2 8568   4.049   0.714   0.503
 2557SOL     OW 8569   3.340   6.992   6.657
 2557SOL    HW1 8570   3.306   0.015   6.738
 2557SOL    HW2 8571   3.309   6.897   6.659
 2558SOL     OW 8572   5.660   3.671   6.919
 2558SOL    HW1 8573   5.646   3.576   6.948
 2558SOL    HW2 8574   5.651   3.677   6.820
 2559SOL     OW 8575   1.113   4.566   4.814
 2559SOL    HW1 8576   1.038   4.500   4.821
 2559SOL    HW2 8577   1.086   4.639   4.752
 2560SOL     OW 8578   4.950   1.998   3.704
 2560SOL    HW1 8579   4.870   2.002   3.645
 2560SOL    HW2 8580   5.033   2.016   3.651
 2561SOL     OW 8581   3.810   0.507   4.497
 2561SOL    HW1 8582   3.898   0.491   4.543
 2561SOL    HW2 8583   3.778   0.599   4.518
 2562SOL     OW 8584   3.367   6.379   3.673
 2562SOL    HW1 8585   3.279   6.418   3.646
 2562SOL    HW2 8586   3.366   6.280   3.654
 2563SOL     OW 8587   3.472   2.069   6.827
 2563SOL    HW1 8588   3.450   2.100   6.919
 2563SOL    HW2 8589   3.393   2.082   6.767
 2564SOL     OW 8590   2.211   1.956   0.444
 2564SOL    HW1 8591   2.211   1.864   0.485
 2564SOL    HW2 8592   2.230   1.948   0.346
 2565SOL     OW 8593   0.726   1.939   0.415
 2565SOL    HW1 8594   0.813   1.893   0.403
 2565SOL    HW2 8595   0.680   1.905   0.497
 2566SOL     OW 8596   2.216   0.947   0.621
 2566SOL    HW1 8597   2.229   1.043   0.596
 2566SOL    HW2 8598   2.156   0.941   0.700
 2567SOL     OW 8599   1.904   0.392   0.257
 2567SOL    HW1 8600   1.934   0.335   0.334
 2567SOL    HW2 8601   1.878   0.482   0.292
 2568SOL     OW 8602   2.914   6.251   0.968
 2568SOL    HW1 8603   2.926   6.166   0.917
 2568SOL    HW2 8604   2.995   6.268   1.024
 2569SOL     OW 8605   1.688   0.140   0.995
 2569SOL    HW1 8606   1.758   0.094   0.940
 2569SOL    HW2 8607   1.600   0.095   0.982
 2570SOL     OW 8608   6.585   6.616   5.786
 2570SOL    HW1 8609   6.659   6.591   5.722
 2570SOL    HW2 8610   6.537   6.696   5.750
 2571SOL     OW 8611   3.509   2.861   3.624
 2571SOL    HW1 8612   3.512   2.871   3.724
 2571SOL    HW2 8613   3.602   2.847   3.589
 2572SOL     OW 8614   2.044   6.318   1.842
 2572SOL    HW1 8615   2.134   6.295   1.878
 2572SOL    HW2 8616   1.976   6.254   1.880
 2573SOL     OW 8617   0.039   1.896   4.589
 2573SOL    HW1 8618   0.092   1.969   4.546
 2573SOL    HW2 8619   6.989   1.936   4.642
 2574SOL     OW 8620   0.650   3.782   2.601
 2574SOL    HW1 8621   0.581   3.714   2.627
 2574SOL    HW2 8622   0.633   3.812   2.507
 2575SOL     OW 8623   5.835   3.679   0.322
 2575SOL    HW1 8624   5.913   3.624   0.351
 2575SOL    HW2 8625   5.824   3.757   0.384
 2576SOL     OW 8626   2.307   6.842   3.893
 2576SOL    HW1 8627   2.363   6.922   3.871
 2576SOL    HW2 8628   2.285   6.792   3.810
 2577SOL     OW 8629   2.807   6.050   1.884
 2577SOL    HW1 8630   2.782   6.044   1.981
 2577SOL    HW2 8631   2.887   5.992   1.867
 2578SOL     OW 8632   4.831   2.045   4.096
 2578SOL    HW1 8633   4.759   2.092   4.044
 2578SOL    HW2 8634   4.920   2.077   4.066
 2579SOL     OW 8635   0.002   2.204   6.221
 2579SOL    HW1 8636   0.099   2.200   6.197
 2579SOL    HW2 8637   6.993   2.112   6.242
 2580SOL     OW 8638   1.331   2.555   6.313
 2580SOL    HW1 8639   1.344   2.653   6.324
 2580SOL    HW2 8640   1.263   2.523   6.379
 2581SOL     OW 8641   6.834   6.549   3.932
 2581SOL    HW1 8642   6.873   6.635   3.899
 2581SOL    HW2 8643   6.870   6.529   4.023
 2582SOL     OW 8644   0.142   5.518   2.858
 2582SOL    HW1 8645   0.233   5.559   2.864
 2582SOL    HW2 8646   0.125   5.464   2.940
 2583SOL     OW 8647   2.115   0.701   0.529
 2583SOL    HW1 8648   2.103   0.633   0.600
 2583SOL    HW2 8649   2.169   0.778   0.565
 2584SOL     OW 8650   4.889   6.918   1.835
 2584SOL    HW1 8651   4.837   6.892   1.916
 2584SOL    HW2 8652   4.899   7.018   1.832
 2585SOL     OW 8653   3.522   1.119   1.697
 2585SOL    HW1 8654   3.601   1.108   1.758
 2585SOL    HW2 8655   3.489   1.213   1.703
 2586SOL     OW 8656   6.747   2.571   4.243
 2586SOL    HW1 8657   6.819   2.530   4.188
 2586SOL    HW2 8658   6.682   2.619   4.183
 2587SOL     OW 8659   5.611   6.373   3.317
 2587SOL    HW1 8660   5.525   6.364   3.368
 2587SOL    HW2 8661   5.592   6.381   3.219
 2588SOL     OW 8662   5.322   1.268   1.682
 2588SOL    HW1 8663   5.264   1.250   1.761
 2588SOL    HW2 8664   5.415   1.290   1.714
 2589SOL     OW 8665   6.770   6.757   0.748
 2589SOL    HW1 8666   6.735   6.697   0.676
 2589SOL    HW2 8667   6.720   6.844   0.745
 2590SOL     OW 8668   4.328   6.274   2.702
 2590SOL    HW1 8669   4.274   6.322   2.633
 2590SOL    HW2 8670   4.275   6.265   2.786
 2591SOL     OW 8671   6.062   0.487   1.573
 2591SOL    HW1 8672   6.016   0.576   1.585
 2591SOL    HW2 8673   6.142   0.499   1.515
 2592SOL     OW 8674   3.906   5.742   1.474
 2592SOL    HW1 8675   3.824   5.736   1.530
 2592SOL    HW2 8676   3.881   5.771   1.381
 2593SOL     OW 8677   3.114   6.333   2.893
 2593SOL    HW1 8678   3.035   6.293   2.845
 2593SOL    HW2 8679   3.108   6.311   2.990
 2594SOL     OW 8680   1.162   6.404   6.480
 2594SOL    HW1 8681   1.168   6.305   6.494
 2594SOL    HW2 8682   1.252   6.444   6.493
 2595SOL     OW 8683   6.426   3.643   4.203
 2595SOL    HW1 8684   6.444   3.690   4.290
 2595SOL    HW2 8685   6.331   3.660   4.175
 2596SOL     OW 8686   3.936   2.007   2.032
 2596SOL    HW1 8687   4.008   2.073   2.054
 2596SOL    HW2 8688   3.900   2.027   1.941
 2597SOL     OW 8689   2.291   2.989   6.790
 2597SOL    HW1 8690   2.348   3.065   6.759
 2597SOL    HW2 8691   2.230   2.961   6.715
 2598SOL     OW 8692   6.832   3.202   2.881
 2598SOL    HW1 8693   6.925   3.178   2.855
 2598SOL    HW2 8694   6.791   3.127   2.932
 2599SOL     OW 8695   4.331   5.274   0.027
 2599SOL    HW1 8696   4.425   5.272   7.016
 2599SOL    HW2 8697   4.277   5.204   7.007
 2600SOL     OW 8698   6.601   3.448   3.378
 2600SOL    HW1 8699   6.654   3.504   3.441
 2600SOL    HW2 8700   6.592   3.355   3.416
 2601SOL     OW 8701   3.931   2.979   5.832
 2601SOL    HW1 8702   3.835   3.002   5.849
 2601SOL    HW2 8703   3.950   2.888   5.868
 2602SOL     OW 8704   6.481   5.872   4.547
 2602SOL    HW1 8705   6.481   5.783   4.592
 2602SOL    HW2 8706   6.513   5.942   4.611
 2603SOL     OW 8707   3.554   3.089   1.315
 2603SOL    HW1 8708   3.467   3.099   1.266
 2603SOL    HW2 8709   3.589   2.996   1.303
 2604SOL     OW 8710   6.191   0.792   1.406
 2604SOL    HW1 8711   6.152   0.703   1.382
 2604SOL    HW2 8712   6.232   0.834   1.325
 2605SOL     OW 8713   4.449   4.953   4.160
 2605SOL    HW1 8714   4.358   4.937   4.121
 2605SOL    HW2 8715   4.477   4.872   4.211
 2606SOL     OW 8716   6.791   4.415   1.021
 2606SOL    HW1 8717   6.862   4.359   1.063
 2606SOL    HW2 8718   6.737   4.358   0.959
 2607SOL     OW 8719   0.830   1.416   4.391
 2607SOL    HW1 8720   0.829   1.329   4.342
 2607SOL    HW2 8721   0.889   1.409   4.471
 2608SOL     OW 8722   4.831   0.718   1.056
 2608SOL    HW1 8723   4.861   0.786   0.989
 2608SOL    HW2 8724   4.770   0.760   1.123
 2609SOL     OW 8725   0.569   2.213   3.613
 2609SOL    HW1 8726   0.502   2.139   3.624
 2609SOL    HW2 8727   0.521   2.297   3.587
 2610SOL     OW 8728   5.949   5.756   4.805
 2610SOL    HW1 8729   5.892   5.709   4.737
 2610SOL    HW2 8730   6.028   5.797   4.759
 2611SOL     OW 8731   4.068   6.327   1.439
 2611SOL    HW1 8732   4.075   6.341   1.340
 2611SOL    HW2 8733   4.130   6.254   1.467
 2612SOL     OW 8734   6.485   6.497   4.326
 2612SOL    HW1 8735   6.494   6.406   4.367
 2612SOL    HW2 8736   6.408   6.497   4.261
 2613SOL     OW 8737   4.014   0.615   1.699
 2613SOL    HW1 8738   4.018   0.675   1.780
 2613SOL    HW2 8739   4.088   0.549   1.703
 2614SOL     OW 8740   0.380   6.495   6.825
 2614SOL    HW1 8741   0.375   6.500   6.725
 2614SOL    HW2 8742   0.293   6.460   6.861
 2615SOL     OW 8743   5.310   5.168   1.912
 2615SOL    HW1 8744   5.290   5.130   2.002
 2615SOL    HW2 8745   5.242   5.135   1.846
 2616SOL     OW 8746   4.052   3.266   2.942
 2616SOL    HW1 8747   3.973   3.232   2.993
 2616SOL    HW2 8748   4.054   3.224   2.852
 2617SOL     OW 8749   4.088   0.274   1.198
 2617SOL    HW1 8750   4.010   0.261   1.261
 2617SOL    HW2 8751   4.150   0.343   1.236
 2618SOL     OW 8752   0.902   0.701   1.119
 2618SOL    HW1 8753   0.899   0.750   1.206
 2618SOL    HW2 8754   0.909   0.603   1.136
 2619SOL     OW 8755   4.775   1.957   1.662
 2619SOL    HW1 8756   4.776   1.892   1.586
 2619SOL    HW2 8757   4.712   1.925   1.733
 2620SOL     OW 8758   1.517   4.324   4.440
 2620SOL    HW1 8759   1.530   4.348   4.344
 2620SOL    HW2 8760   1.595   4.272   4.472
 2621SOL     OW 8761   0.869   5.190   3.797
 2621SOL    HW1 8762   0.951   5.210   3.852
 2621SOL    HW2 8763   0.865   5.091   3.780
 2622SOL     OW 8764   2.450   3.182   6.648
 2622SOL    HW1 8765   2.388   3.247   6.605
 2622SOL    HW2 8766   2.495   3.225   6.726
 2623SOL     OW 8767   2.936   0.849   5.420
 2623SOL    HW1 8768   2.973   0.893   5.502
 2623SOL    HW2 8769   2.921   0.917   5.349
 2624SOL     OW 8770   6.221   1.988   3.777
 2624SOL    HW1 8771   6.178   1.901   3.802
 2624SOL    HW2 8772   6.246   1.986   3.680
 2625SOL     OW 8773   3.883   1.359   5.424
 2625SOL    HW1 8774   3.894   1.286   5.357
 2625SOL    HW2 8775   3.787   1.365   5.451
 2626SOL     OW 8776   2.416   6.501   2.665
 2626SOL    HW1 8777   2.317   6.487   2.667
 2626SOL    HW2 8778   2.442   6.563   2.738
 2627SOL     OW 8779   0.019   6.779   4.203
 2627SOL    HW1 8780   0.065   6.797   4.290
 2627SOL    HW2 8781   6.990   6.859   4.177
 2628SOL     OW 8782   4.193   5.874   6.303
 2628SOL    HW1 8783   4.247   5.797   6.336
 2628SOL    HW2 8784   4.237   5.914   6.222
 2629SOL     OW 8785   3.600   4.042   1.312
 2629SOL    HW1 8786   3.610   3.962   1.372
 2629SOL    HW2 8787   3.515   4.035   1.260
 2630SOL     OW 8788   2.707   2.379   2.741
 2630SOL    HW1 8789   2.645   2.431   2.801
 2630SOL    HW2 8790   2.681   2.392   2.646
 2631SOL     OW 8791   4.748   6.178   4.350
 2631SOL    HW1 8792   4.715   6.256   4.297
 2631SOL    HW2 8793   4.835   6.202   4.394
 2632SOL     OW 8794   4.347   2.230   0.109
 2632SOL    HW1 8795   4.292   2.292   0.165
 2632SOL    HW2 8796   4.443   2.254   0.115
 2633SOL     OW 8797   5.931   1.915   6.840
 2633SOL    HW1 8798   5.891   1.996   6.883
 2633SOL    HW2 8799   6.031   1.922   6.842
 2634SOL     OW 8800   2.642   4.682   0.924
 2634SOL    HW1 8801   2.613   4.764   0.974
 2634SOL    HW2 8802   2.739   4.690   0.899
 2635SOL     OW 8803   5.136   4.528   4.315
 2635SOL    HW1 8804   5.129   4.606   4.253
 2635SOL    HW2 8805   5.068   4.536   4.387
 2636SOL     OW 8806   5.785   0.347   5.052
 2636SOL    HW1 8807   5.884   0.355   5.060
 2636SOL    HW2 8808   5.744   0.438   5.053
 2637SOL     OW 8809   5.312   6.873   2.748
 2637SOL    HW1 8810   5.338   6.939   2.818
 2637SOL    HW2 8811   5.389   6.810   2.731
 2638SOL     OW 8812   5.498   6.177   0.822
 2638SOL    HW1 8813   5.588   6.161   0.861
 2638SOL    HW2 8814   5.435   6.105   0.853
 2639SOL     OW 8815   6.295   5.967   0.494
 2639SOL    HW1 8816   6.285   5.889   0.556
 2639SOL    HW2 8817   6.281   6.052   0.545
 2640SOL     OW 8818   0.119   6.466   5.208
 2640SOL    HW1 8819   0.171   6.419   5.279
 2640SOL    HW2 8820   0.164   6.552   5.185
 2641SOL     OW 8821   5.578   4.933   0.062
 2641SOL    HW1 8822   5.495   4.880   0.079
 2641SOL    HW2 8823   5.584   5.008   0.127
 2642SOL     OW 8824   5.121   6.724   4.135
 2642SOL    HW1 8825   5.158   6.719   4.042
 2642SOL    HW2 8826   5.069   6.809   4.145
 2643SOL     OW 8827   0.913   0.554   2.233
 2643SOL    HW1 8828   0.962   0.499   2.301
 2643SOL    HW2 8829   0.818   0.523   2.226
 2644SOL     OW 8830   0.194   4.692   6.200
 2644SOL    HW1 8831   0.124   4.715   6.132
 2644SOL    HW2 8832   0.244   4.775   6.225
 2645SOL     OW 8833   5.447   5.890   5.829
 2645SOL    HW1 8834   5.424   5.809   5.882
 2645SOL    HW2 8835   5.387   5.897   5.750
 2646SOL     OW 8836   6.756   6.444   0.302
 2646SOL    HW1 8837   6.668   6.489   0.283
 2646SOL    HW2 8838   6.815   6.506   0.353
 2647SOL     OW 8839   3.609   1.717   1.180
 2647SOL    HW1 8840   3.675   1.749   1.112
 2647SOL    HW2 8841   3.531   1.779   1.184
 2648SOL     OW 8842   4.823   0.653   2.436
 2648SOL    HW1 8843   4.863   0.650   2.528
 2648SOL    HW2 8844   4.839   0.567   2.389
 2649SOL     OW 8845   3.448   1.725   5.979
 2649SOL    HW1 8846   3.439   1.825   5.980
 2649SOL    HW2 8847   3.373   1.686   5.926
 2650SOL     OW 8848   0.470   6.337   2.583
 2650SOL    HW1 8849   0.466   6.238   2.580
 2650SOL    HW2 8850   0.387   6.375   2.544
 2651SOL     OW 8851   6.576   1.472   3.266
 2651SOL    HW1 8852   6.530   1.560   3.281
 2651SOL    HW2 8853   6.545   1.432   3.180
 2652SOL     OW 8854   3.288   3.253   3.058
 2652SOL    HW1 8855   3.302   3.157   3.081
 2652SOL    HW2 8856   3.344   3.277   2.979
 2653SOL     OW 8857   6.376   6.583   6.275
 2653SOL    HW1 8858   6.390   6.568   6.177
 2653SOL    HW2 8859   6.396   6.679   6.296
 2654SOL     OW 8860   5.603   2.734   5.762
 2654SOL    HW1 8861   5.657   2.687   5.692
 2654SOL    HW2 8862   5.509   2.746   5.730
 2655SOL     OW 8863   4.986   6.401   4.571
 2655SOL    HW1 8864   4.981   6.312   4.525
 2655SOL    HW2 8865   5.040   6.393   4.655
 2656SOL     OW 8866   5.605   3.446   4.091
 2656SOL    HW1 8867   5.512   3.481   4.100
 2656SOL    HW2 8868   5.603   3.350   4.065
 2657SOL     OW 8869   1.767   3.563   6.649
 2657SOL    HW1 8870   1.775   3.475   6.603
 2657SOL    HW2 8871   1.725   3.629   6.588
 2658SOL     OW 8872   5.870   4.127   5.967
 2658SOL    HW1 8873   5.899   4.154   6.058
 2658SOL    HW2 8874   5.902   4.193   5.900
 2659SOL     OW 8875   6.848   2.717   3.861
 2659SOL    HW1 8876   6.867   2.815   3.863
 2659SOL    HW2 8877   6.861   2.679   3.953
 2660SOL     OW 8878   6.679   2.230   2.908
 2660SOL    HW1 8879   6.692   2.292   2.831
 2660SOL    HW2 8880   6.701   2.137   2.880
 2661SOL     OW 8881   4.274   6.340   0.862
 2661SOL    HW1 8882   4.231   6.354   0.951
 2661SOL    HW2 8883   4.354   6.400   0.853
 2662SOL     OW 8884   3.708   6.624   4.022
 2662SOL    HW1 8885   3.627   6.571   4.047
 2662SOL    HW2 8886   3.682   6.720   4.007
 2663SOL     OW 8887   1.197   4.341   2.546
 2663SOL    HW1 8888   1.193   4.301   2.455
 2663SOL    HW2 8889   1.133   4.417   2.553
 2664SOL     OW 8890   4.011   3.598   2.262
 2664SOL    HW1 8891   4.027   3.636   2.353
 2664SOL    HW2 8892   3.914   3.573   2.254
 2665SOL     OW 8893   3.957   1.347   4.239
 2665SOL    HW1 8894   3.900   1.412   4.190
 2665SOL    HW2 8895   3.918   1.255   4.231
 2666SOL     OW 8896   5.363   5.228   1.051
 2666SOL    HW1 8897   5.386   5.324   1.063
 2666SOL    HW2 8898   5.311   5.216   0.966
 2667SOL     OW 8899   2.134   5.245   3.948
 2667SOL    HW1 8900   2.212   5.189   3.977
 2667SOL    HW2 8901   2.161   5.302   3.871
 2668SOL     OW 8902   0.226   2.859   5.726
 2668SOL    HW1 8903   0.151   2.807   5.768
 2668SOL    HW2 8904   0.297   2.876   5.794
 2669SOL     OW 8905   4.427   4.765   5.147
 2669SOL    HW1 8906   4.407   4.723   5.058
 2669SOL    HW2 8907   4.487   4.844   5.133
 2670SOL     OW 8908   1.264   1.224   6.834
 2670SOL    HW1 8909   1.291   1.262   6.923
 2670SOL    HW2 8910   1.295   1.129   6.828
 2671SOL     OW 8911   2.328   3.233   6.340
 2671SOL    HW1 8912   2.388   3.255   6.263
 2671SOL    HW2 8913   2.239   3.202   6.306
 2672SOL     OW 8914   1.713   5.294   1.043
 2672SOL    HW1 8915   1.752   5.383   1.021
 2672SOL    HW2 8916   1.786   5.233   1.074
 2673SOL     OW 8917   3.570   2.127   2.785
 2673SOL    HW1 8918   3.657   2.121   2.835
 2673SOL    HW2 8919   3.495   2.114   2.849
 2674SOL     OW 8920   5.505   4.841   5.356
 2674SOL    HW1 8921   5.468   4.812   5.444
 2674SOL    HW2 8922   5.465   4.929   5.330
 2675SOL     OW 8923   0.333   4.619   5.653
 2675SOL    HW1 8924   0.290   4.558   5.587
 2675SOL    HW2 8925   0.375   4.697   5.605
 2676SOL     OW 8926   4.257   1.149   1.600
 2676SOL    HW1 8927   4.325   1.168   1.671
 2676SOL    HW2 8928   4.296   1.170   1.510
 2677SOL     OW 8929   2.297   5.117   1.990
 2677SOL    HW1 8930   2.396   5.102   1.981
 2677SOL    HW2 8931   2.272   5.119   2.087
 2678SOL     OW 8932   0.747   4.685   5.594
 2678SOL    HW1 8933   0.681   4.734   5.651
 2678SOL    HW2 8934   0.718   4.591   5.582
 2679SOL     OW 8935   3.107   4.438   0.811
 2679SOL    HW1 8936   3.030   4.387   0.773
 2679SOL    HW2 8937   3.133   4.398   0.899
 2680SOL     OW 8938   1.411   1.705   1.643
 2680SOL    HW1 8939   1.498   1.676   1.685
 2680SOL    HW2 8940   1.420   1.701   1.544
 2681SOL     OW 8941   1.769   2.524   2.951
 2681SOL    HW1 8942   1.695   2.459   2.969
 2681SOL    HW2 8943   1.759   2.604   3.011
 2682SOL     OW 8944   5.560   2.485   2.411
 2682SOL    HW1 8945   5.587   2.538   2.492
 2682SOL    HW2 8946   5.466   2.509   2.385
 2683SOL     OW 8947   1.166   5.884   1.417
 2683SOL    HW1 8948   1.174   5.945   1.496
 2683SOL    HW2 8949   1.140   5.792   1.449
 2684SOL     OW 8950   2.503   6.391   3.058
 2684SOL    HW1 8951   2.516   6.356   3.151
 2684SOL    HW2 8952   2.439   6.468   3.060
 2685SOL     OW 8953   5.591   5.751   4.798
 2685SOL    HW1 8954   5.654   5.681   4.833
 2685SOL    HW2 8955   5.542   5.715   4.719
 2686SOL     OW 8956   2.275   2.941   4.679
 2686SOL    HW1 8957   2.323   2.973   4.761
 2686SOL    HW2 8958   2.208   3.009   4.651
 2687SOL     OW 8959   4.303   5.443   2.574
 2687SOL    HW1 8960   4.301   5.439   2.674
 2687SOL    HW2 8961   4.226   5.498   2.541
 2688SOL     OW 8962   3.714   4.872   6.117
 2688SOL    HW1 8963   3.661   4.788   6.128
 2688SOL    HW2 8964   3.657   4.941   6.072
 2689SOL     OW 8965   0.049   3.395   4.053
 2689SOL    HW1 8966   0.089   3.482   4.025
 2689SOL    HW2 8967   6.993   3.412   4.109
 2690SOL     OW 8968   3.999   3.897   3.457
 2690SOL    HW1 8969   3.902   3.919   3.449
 2690SOL    HW2 8970   4.030   3.920   3.550
 2691SOL     OW 8971   1.785   6.211   2.437
 2691SOL    HW1 8972   1.811   6.140   2.503
 2691SOL    HW2 8973   1.748   6.167   2.355
 2692SOL     OW 8974   0.435   6.538   3.884
 2692SOL    HW1 8975   0.471   6.574   3.970
 2692SOL    HW2 8976   0.351   6.587   3.860
 2693SOL     OW 8977   1.849   4.174   3.158
 2693SOL    HW1 8978   1.829   4.183   3.255
 2693SOL    HW2 8979   1.942   4.139   3.146
 2694SOL     OW 8980   1.789   0.080   3.525
 2694SOL    HW1 8981   1.887   0.090   3.508
 2694SOL    HW2 8982   1.761   7.011   3.506
 2695SOL     OW 8983   4.476   2.147   3.009
 2695SOL    HW1 8984   4.451   2.227   3.063
 2695SOL    HW2 8985   4.574   2.148   2.991
 2696SOL     OW 8986   4.161   3.807   5.574
 2696SOL    HW1 8987   4.231   3.817   5.645
 2696SOL    HW2 8988   4.151   3.892   5.524
 2697SOL     OW 8989   2.873   1.842   4.409
 2697SOL    HW1 8990   2.781   1.842   4.368
 2697SOL    HW2 8991   2.939   1.879   4.344
 2698SOL     OW 8992   2.013   3.546   0.623
 2698SOL    HW1 8993   1.972   3.523   0.711
 2698SOL    HW2 8994   1.987   3.640   0.598
 2699SOL     OW 8995   3.446   6.040   1.720
 2699SOL    HW1 8996   3.515   5.971   1.744
 2699SOL    HW2 8997   3.425   6.096   1.800
 2700SOL     OW 8998   2.120   3.455   2.589
 2700SOL    HW1 8999   2.106   3.393   2.666
 2700SOL    HW2 9000   2.147   3.546   2.623
 2701SOL     OW 9001   3.921   6.736   6.592
 2701SOL    HW1 9002   3.822   6.719   6.589
 2701SOL    HW2 9003   3.943   6.813   6.532
 2702SOL     OW 9004   6.907   0.547   3.723
 2702SOL    HW1 9005   6.821   0.510   3.686
 2702SOL    HW2 9006   6.898   0.646   3.735
 2703SOL     OW 9007   2.105   1.823   2.750
 2703SOL    HW1 9008   2.020   1.873   2.762
 2703SOL    HW2 9009   2.180   1.888   2.735
 2704SOL     OW 9010   2.311   5.110   1.437
 2704SOL    HW1 9011   2.235   5.084   1.377
 2704SOL    HW2 9012   2.295   5.075   1.529
 2705SOL     OW 9013   6.225   5.135   3.261
 2705SOL    HW1 9014   6.196   5.137   3.357
 2705SOL    HW2 9015   6.305   5.194   3.249
 2706SOL     OW 9016   6.717   1.610   1.943
 2706SOL    HW1 9017   6.748   1.621   1.849
 2706SOL    HW2 9018   6.619   1.593   1.944
 2707SOL     OW 9019   2.005   0.962   6.120
 2707SOL    HW1 9020   1.919   0.957   6.170
 2707SOL    HW2 9021   2.034   1.057   6.113
 2708SOL     OW 9022   1.564   2.861   1.520
 2708SOL    HW1 9023   1.508   2.913   1.585
 2708SOL    HW2 9024   1.590   2.921   1.444
 2709SOL     OW 9025   4.263   6.130   0.376
 2709SOL    HW1 9026   4.276   6.032   0.393
 2709SOL    HW2 9027   4.296   6.182   0.455
 2710SOL     OW 9028   0.235   4.061   3.288
 2710SOL    HW1 9029   0.238   4.134   3.357
 2710SOL    HW2 9030   0.262   4.097   3.199
 2711SOL     OW 9031   1.605   0.626   2.266
 2711SOL    HW1 9032   1.681   0.678   2.226
 2711SOL    HW2 9033   1.609   0.633   2.366
 2712SOL     OW 9034   3.051   4.516   0.369
 2712SOL    HW1 9035   3.091   4.602   0.335
 2712SOL    HW2 9036   3.013   4.464   0.293
 2713SOL     OW 9037   2.284   3.314   5.457
 2713SOL    HW1 9038   2.260   3.386   5.392
 2713SOL    HW2 9039   2.207   3.301   5.521
 2714SOL     OW 9040   5.048   0.223   5.855
 2714SOL    HW1 9041   5.039   0.256   5.949
 2714SOL    HW2 9042   5.125   0.159   5.850
 2715SOL     OW 9043   5.966   1.001   6.613
 2715SOL    HW1 9044   5.893   1.036   6.673
 2715SOL    HW2 9045   5.926   0.967   6.529
 2716SOL     OW 9046   0.470   6.522   2.309
 2716SOL    HW1 9047   0.428   6.432   2.307
 2716SOL    HW2 9048   0.564   6.516   2.277
 2717SOL     OW 9049   1.118   0.270   2.657
 2717SOL    HW1 9050   1.099   0.172   2.652
 2717SOL    HW2 9051   1.049   0.315   2.713
 2718SOL     OW 9052   2.616   4.579   3.529
 2718SOL    HW1 9053   2.648   4.632   3.450
 2718SOL    HW2 9054   2.690   4.521   3.562
 2719SOL     OW 9055   4.205   5.168   1.648
 2719SOL    HW1 9056   4.110   5.148   1.623
 2719SOL    HW2 9057   4.214   5.170   1.747
 2720SOL     OW 9058   1.897   6.463   4.020
 2720SOL    HW1 9059   1.811   6.464   4.072
 2720SOL    HW2 9060   1.953   6.386   4.050
 2721SOL     OW 9061   3.672   0.073   3.957
 2721SOL    HW1 9062   3.747   0.093   4.020
 2721SOL    HW2 9063   3.659   0.150   3.895
 2722SOL     OW 9064   1.468   6.342   2.425
 2722SOL    HW1 9065   1.491   6.283   2.347
 2722SOL    HW2 9066   1.369   6.344   2.437
 2723SOL     OW 9067   1.472   1.678   5.883
 2723SOL    HW1 9068   1.440   1.596   5.835
 2723SOL    HW2 9069   1.558   1.709   5.842
 2724SOL     OW 9070   3.854   5.949   6.134
 2724SOL    HW1 9071   3.945   5.954   6.092
 2724SOL    HW2 9072   3.860   5.902   6.222
 2725SOL     OW 9073   3.972   5.175   4.044
 2725SOL    HW1 9074   3.895   5.206   3.988
 2725SOL    HW2 9075   4.058   5.205   4.004
 2726SOL     OW 9076   4.737   5.466   2.049
 2726SOL    HW1 9077   4.644   5.466   2.086
 2726SOL    HW2 9078   4.748   5.386   1.989
 2727SOL     OW 9079   1.685   5.330   2.524
 2727SOL    HW1 9080   1.748   5.349   2.600
 2727SOL    HW2 9081   1.721   5.369   2.440
 2728SOL     OW 9082   3.079   6.847   5.493
 2728SOL    HW1 9083   3.098   6.945   5.492
 2728SOL    HW2 9084   3.119   6.804   5.411
 2729SOL     OW 9085   5.713   5.313   2.770
 2729SOL    HW1 9086   5.768   5.248   2.718
 2729SOL    HW2 9087   5.687   5.390   2.711
 2730SOL     OW 9088   1.703   6.223   1.053
 2730SOL    HW1 9089   1.736   6.217   1.147
 2730SOL    HW2 9090   1.777   6.200   0.990
 2731SOL     OW 9091   2.947   3.829   1.841
 2731SOL    HW1 9092   2.940   3.876   1.928
 2731SOL    HW2 9093   2.970   3.732   1.856
 2732SOL     OW 9094   5.718   1.683   2.293
 2732SOL    HW1 9095   5.815   1.659   2.302
 2732SOL    HW2 9096   5.662   1.606   2.322
 2733SOL     OW 9097   1.382   6.846   5.924
 2733SOL    HW1 9098   1.473   6.883   5.943
 2733SOL    HW2 9099   1.337   6.824   6.010
 2734SOL     OW 9100   2.056   5.839   4.031
 2734SOL    HW1 9101   2.079   5.779   3.954
 2734SOL    HW2 9102   2.073   5.791   4.117
 2735SOL     OW 9103   1.625   5.054   2.566
 2735SOL    HW1 9104   1.652   5.142   2.527
 2735SOL    HW2 9105   1.688   4.983   2.536
 2736SOL     OW 9106   4.623   0.232   5.085
 2736SOL    HW1 9107   4.626   0.236   5.185
 2736SOL    HW2 9108   4.588   0.319   5.049
 2737SOL     OW 9109   4.799   3.644   6.444
 2737SOL    HW1 9110   4.771   3.740   6.438
 2737SOL    HW2 9111   4.734   3.593   6.501
 2738SOL     OW 9112   5.700   5.076   4.708
 2738SOL    HW1 9113   5.777   5.096   4.768
 2738SOL    HW2 9114   5.686   5.152   4.645
 2739SOL     OW 9115   5.645   3.585   0.876
 2739SOL    HW1 9116   5.737   3.576   0.839
 2739SOL    HW2 9117   5.632   3.520   0.951
 2740SOL     OW 9118   5.745   2.290   3.198
 2740SOL    HW1 9119   5.747   2.320   3.102
 2740SOL    HW2 9120   5.677   2.218   3.208
 2741SOL     OW 9121   0.327   2.650   6.204
 2741SOL    HW1 9122   0.371   2.585   6.142
 2741SOL    HW2 9123   0.286   2.724   6.150
 2742SOL     OW 9124   2.127   6.881   6.517
 2742SOL    HW1 9125   2.074   6.965   6.511
 2742SOL    HW2 9126   2.221   6.898   6.487
 2743SOL     OW 9127   5.401   5.003   1.188
 2743SOL    HW1 9128   5.381   5.094   1.151
 2743SOL    HW2 9129   5.315   4.957   1.210
 2744SOL     OW 9130   4.200   1.470   5.941
 2744SOL    HW1 9131   4.284   1.457   5.994
 2744SOL    HW2 9132   4.168   1.382   5.906
 2745SOL     OW 9133   2.698   6.507   0.936
 2745SOL    HW1 9134   2.603   6.513   0.904
 2745SOL    HW2 9135   2.705   6.435   1.005
 2746SOL     OW 9136   1.632   2.317   6.477
 2746SOL    HW1 9137   1.687   2.317   6.561
 2746SOL    HW2 9138   1.538   2.291   6.498
 2747SOL     OW 9139   4.388   6.496   4.418
 2747SOL    HW1 9140   4.359   6.403   4.396
 2747SOL    HW2 9141   4.475   6.515   4.373
 2748SOL     OW 9142   3.997   1.128   3.178
 2748SOL    HW1 9143   3.924   1.097   3.117
 2748SOL    HW2 9144   4.027   1.219   3.150
 2749SOL     OW 9145   4.564   5.541   3.745
 2749SOL    HW1 9146   4.478   5.528   3.794
 2749SOL    HW2 9147   4.619   5.611   3.792
 2750SOL     OW 9148   0.512   6.054   2.464
 2750SOL    HW1 9149   0.566   5.989   2.519
 2750SOL    HW2 9150   0.416   6.046   2.489
 2751SOL     OW 9151   1.483   0.007   6.331
 2751SOL    HW1 9152   1.459   6.945   6.375
 2751SOL    HW2 9153   1.553   7.015   6.261
 2752SOL     OW 9154   6.228   6.163   5.871
 2752SOL    HW1 9155   6.310   6.183   5.925
 2752SOL    HW2 9156   6.147   6.199   5.918
 2753SOL     OW 9157   2.685   5.565   5.910
 2753SOL    HW1 9158   2.643   5.509   5.982
 2753SOL    HW2 9159   2.725   5.647   5.951
 2754SOL     OW 9160   1.266   0.650   4.458
 2754SOL    HW1 9161   1.320   0.569   4.478
 2754SOL    HW2 9162   1.170   0.625   4.447
 2755SOL     OW 9163   3.377   6.286   1.903
 2755SOL    HW1 9164   3.282   6.316   1.894
 2755SOL    HW2 9165   3.383   6.219   1.978
 2756SOL     OW 9166   0.214   2.818   6.035
 2756SOL    HW1 9167   0.295   2.875   6.017
 2756SOL    HW2 9168   0.144   2.874   6.080
 2757SOL     OW 9169   4.220   3.380   6.525
 2757SOL    HW1 9170   4.289   3.326   6.573
 2757SOL    HW2 9171   4.215   3.350   6.429
 2758SOL     OW 9172   6.674   6.131   2.079
 2758SOL    HW1 9173   6.634   6.223   2.085
 2758SOL    HW2 9174   6.604   6.066   2.050
 2759SOL     OW 9175   3.012   3.807   5.955
 2759SOL    HW1 9176   2.937   3.854   5.908
 2759SOL    HW2 9177   3.060   3.747   5.891
 2760SOL     OW 9178   5.247   6.264   3.170
 2760SOL    HW1 9179   5.150   6.287   3.157
 2760SOL    HW2 9180   5.258   6.205   3.250
 2761SOL     OW 9181   1.521   3.423   3.150
 2761SOL    HW1 9182   1.509   3.455   3.243
 2761SOL    HW2 9183   1.477   3.487   3.087
 2762SOL     OW 9184   2.753   2.429   0.823
 2762SOL    HW1 9185   2.820   2.355   0.826
 2762SOL    HW2 9186   2.781   2.502   0.885
 2763SOL     OW 9187   5.450   2.227   4.618
 2763SOL    HW1 9188   5.416   2.294   4.553
 2763SOL    HW2 9189   5.396   2.143   4.611
 2764SOL     OW 9190   0.888   3.361   2.459
 2764SOL    HW1 9191   0.897   3.295   2.385
 2764SOL    HW2 9192   0.793   3.392   2.465
 2765SOL     OW 9193   6.623   6.712   6.651
 2765SOL    HW1 9194   6.691   6.747   6.585
 2765SOL    HW2 9195   6.662   6.713   6.743
 2766SOL     OW 9196   5.340   1.195   6.615
 2766SOL    HW1 9197   5.322   1.163   6.708
 2766SOL    HW2 9198   5.263   1.172   6.556
 2767SOL     OW 9199   6.537   5.405   6.090
 2767SOL    HW1 9200   6.616   5.427   6.147
 2767SOL    HW2 9201   6.566   5.386   5.997
 2768SOL     OW 9202   4.320   6.977   1.265
 2768SOL    HW1 9203   4.265   7.009   1.343
 2768SOL    HW2 9204   4.374   0.028   1.230
 2769SOL     OW 9205   1.114   4.399   5.837
 2769SOL    HW1 9206   1.172   4.401   5.756
 2769SOL    HW2 9207   1.043   4.470   5.829
 2770SOL     OW 9208   3.035   6.931   0.625
 2770SOL    HW1 9209   2.980   6.878   0.561
 2770SOL    HW2 9210   3.096   6.870   0.676
 2771SOL     OW 9211   4.550   6.896   4.656
 2771SOL    HW1 9212   4.539   6.991   4.684
 2771SOL    HW2 9213   4.596   6.845   4.728
 2772SOL     OW 9214   4.664   0.051   3.423
 2772SOL    HW1 9215   4.589   0.117   3.419
 2772SOL    HW2 9216   4.742   0.087   3.372
 2773SOL     OW 9217   5.791   2.674   4.898
 2773SOL    HW1 9218   5.860   2.611   4.934
 2773SOL    HW2 9219   5.829   2.723   4.819
 2774SOL     OW 9220   5.803   1.716   4.252
 2774SOL    HW1 9221   5.772   1.669   4.169
 2774SOL    HW2 9222   5.835   1.808   4.227
 2775SOL     OW 9223   0.575   3.543   4.074
 2775SOL    HW1 9224   0.510   3.472   4.047
 2775SOL    HW2 9225   0.623   3.515   4.157
 2776SOL     OW 9226   5.090   4.313   6.230
 2776SOL    HW1 9227   5.158   4.240   6.222
 2776SOL    HW2 9228   5.068   4.328   6.327
 2777SOL     OW 9229   3.205   1.946   6.150
 2777SOL    HW1 9230   3.129   2.009   6.165
 2777SOL    HW2 9231   3.214   1.884   6.228
 2778SOL     OW 9232   3.094   6.721   5.740
 2778SOL    HW1 9233   3.144   6.799   5.776
 2778SOL    HW2 9234   3.071   6.737   5.644
 2779SOL     OW 9235   5.597   0.546   1.358
 2779SOL    HW1 9236   5.554   0.457   1.373
 2779SOL    HW2 9237   5.567   0.610   1.428
 2780SOL     OW 9238   6.706   1.807   4.686
 2780SOL    HW1 9239   6.800   1.772   4.681
 2780SOL    HW2 9240   6.708   1.901   4.718
 2781SOL     OW 9241   5.874   1.465   3.186
 2781SOL    HW1 9242   5.781   1.430   3.199
 2781SOL    HW2 9243   5.940   1.395   3.215
 2782SOL     OW 9244   4.904   0.574   6.247
 2782SOL    HW1 9245   4.952   0.614   6.168
 2782SOL    HW2 9246   4.873   0.647   6.308
 2783SOL     OW 9247   5.814   4.234   1.512
 2783SOL    HW1 9248   5.831   4.325   1.476
 2783SOL    HW2 9249   5.884   4.171   1.478
 2784SOL     OW 9250   1.444   1.896   1.146
 2784SOL    HW1 9251   1.437   1.897   1.046
 2784SOL    HW2 9252   1.386   1.967   1.184
 2785SOL     OW 9253   6.173   2.812   1.849
 2785SOL    HW1 9254   6.246   2.775   1.907
 2785SOL    HW2 9255   6.117   2.875   1.903
 2786SOL     OW 9256   0.073   6.047   0.120
 2786SOL    HW1 9257   7.021   6.096   0.162
 2786SOL    HW2 9258   0.128   6.111   0.066
 2787SOL     OW 9259   6.424   5.341   6.619
 2787SOL    HW1 9260   6.471   5.428   6.631
 2787SOL    HW2 9261   6.492   5.267   6.615
 2788SOL     OW 9262   2.950   6.165   5.764
 2788SOL    HW1 9263   2.954   6.220   5.681
 2788SOL    HW2 9264   2.855   6.151   5.790
 2789SOL     OW 9265   1.253   2.193   5.462
 2789SOL    HW1 9266   1.174   2.165   5.517
 2789SOL    HW2 9267   1.264   2.292   5.468
 2790SOL     OW 9268   1.775   5.755   1.900
 2790SOL    HW1 9269   1.799   5.849   1.874
 2790SOL    HW2 9270   1.841   5.722   1.968
 2791SOL     OW 9271   0.284   3.809   3.411
 2791SOL    HW1 9272   0.283   3.909   3.407
 2791SOL    HW2 9273   0.249   3.771   3.325
 2792SOL     OW 9274   3.257   1.488   5.624
 2792SOL    HW1 9275   3.320   1.520   5.553
 2792SOL    HW2 9276   3.172   1.540   5.620
 2793SOL     OW 9277   3.687   4.444   0.676
 2793SOL    HW1 9278   3.630   4.388   0.615
 2793SOL    HW2 9279   3.666   4.541   0.662
 2794SOL     OW 9280   0.965   2.653   0.152
 2794SOL    HW1 9281   0.873   2.616   0.168
 2794SOL    HW2 9282   0.983   2.728   0.215
 2795SOL     OW 9283   1.113   4.952   1.794
 2795SOL    HW1 9284   1.055   4.915   1.721
 2795SOL    HW2 9285   1.167   5.028   1.757
 2796SOL     OW 9286   2.099   6.077   6.276
 2796SOL    HW1 9287   2.028   6.080   6.347
 2796SOL    HW2 9288   2.068   6.021   6.200
 2797SOL     OW 9289   5.413   6.400   3.489
 2797SOL    HW1 9290   5.392   6.333   3.560
 2797SOL    HW2 9291   5.328   6.436   3.450
 2798SOL     OW 9292   4.993   0.774   1.891
 2798SOL    HW1 9293   5.036   0.745   1.806
 2798SOL    HW2 9294   5.056   0.760   1.967
 2799SOL     OW 9295   3.560   6.101   4.874
 2799SOL    HW1 9296   3.624   6.043   4.825
 2799SOL    HW2 9297   3.603   6.189   4.894
 2800SOL     OW 9298   5.796   6.834   6.804
 2800SOL    HW1 9299   5.777   6.768   6.877
 2800SOL    HW2 9300   5.882   6.810   6.759
 2801SOL     OW 9301   0.811   4.688   4.864
 2801SOL    HW1 9302   0.841   4.750   4.936
 2801SOL    HW2 9303   0.833   4.728   4.774
 2802SOL     OW 9304   1.485   5.403   5.527
 2802SOL    HW1 9305   1.568   5.459   5.526
 2802SOL    HW2 9306   1.467   5.372   5.621
 2803SOL     OW 9307   3.609   2.225   6.105
 2803SOL    HW1 9308   3.627   2.305   6.048
 2803SOL    HW2 9309   3.516   2.193   6.090
 2804SOL     OW 9310   0.507   2.482   3.981
 2804SOL    HW1 9311   0.489   2.453   4.075
 2804SOL    HW2 9312   0.437   2.444   3.920
 2805SOL     OW 9313   3.945   3.470   1.074
 2805SOL    HW1 9314   4.014   3.484   1.145
 2805SOL    HW2 9315   3.951   3.544   1.006
 2806SOL     OW 9316   0.595   4.145   6.051
 2806SOL    HW1 9317   0.568   4.123   6.145
 2806SOL    HW2 9318   0.686   4.107   6.033
 2807SOL     OW 9319   4.067   0.024   3.673
 2807SOL    HW1 9320   4.123   0.081   3.614
 2807SOL    HW2 9321   4.029   0.079   3.747
 2808SOL     OW 9322   0.168   5.420   5.806
 2808SOL    HW1 9323   0.266   5.423   5.825
 2808SOL    HW2 9324   0.144   5.334   5.763
 2809SOL     OW 9325   6.825   5.300   1.841
 2809SOL    HW1 9326   6.778   5.386   1.860
 2809SOL    HW2 9327   6.759   5.225   1.847
 2810SOL     OW 9328   2.899   6.284   3.560
 2810SOL    HW1 9329   2.922   6.309   3.654
 2810SOL    HW2 9330   2.856   6.194   3.558
 2811SOL     OW 9331   0.939   0.885   1.666
 2811SOL    HW1 9332   0.864   0.907   1.729
 2811SOL    HW2 9333   1.009   0.834   1.715
 2812SOL     OW 9334   0.505   1.576   0.852
 2812SOL    HW1 9335   0.602   1.584   0.876
 2812SOL    HW2 9336   0.464   1.667   0.845
 2813SOL     OW 9337   0.715   1.764   1.312
 2813SOL    HW1 9338   0.639   1.699   1.305
 2813SOL    HW2 9339   0.758   1.754   1.401
 2814SOL     OW 9340   2.384   4.661   0.372
 2814SOL    HW1 9341   2.311   4.640   0.437
 2814SOL    HW2 9342   2.385   4.592   0.299
 2815SOL     OW 9343   0.402   4.835   5.289
 2815SOL    HW1 9344   0.489   4.835   5.240
 2815SOL    HW2 9345   0.340   4.903   5.249
 2816SOL     OW 9346   0.869   6.309   6.165
 2816SOL    HW1 9347   0.961   6.304   6.126
 2816SOL    HW2 9348   0.843   6.219   6.202
 2817SOL     OW 9349   4.096   0.502   1.974
 2817SOL    HW1 9350   4.193   0.509   1.998
 2817SOL    HW2 9351   4.060   0.415   2.007
 2818SOL     OW 9352   1.678   0.682   0.210
 2818SOL    HW1 9353   1.742   0.678   0.287
 2818SOL    HW2 9354   1.609   0.610   0.220
 2819SOL     OW 9355   0.596   0.691   0.658
 2819SOL    HW1 9356   0.687   0.682   0.616
 2819SOL    HW2 9357   0.526   0.692   0.586
 2820SOL     OW 9358   1.851   2.716   0.567
 2820SOL    HW1 9359   1.776   2.677   0.621
 2820SOL    HW2 9360   1.936   2.712   0.619
 2821SOL     OW 9361   2.670   3.358   6.200
 2821SOL    HW1 9362   2.640   3.432   6.259
 2821SOL    HW2 9363   2.592   3.318   6.153
 2822SOL     OW 9364   4.303   2.801   0.547
 2822SOL    HW1 9365   4.229   2.741   0.516
 2822SOL    HW2 9366   4.300   2.809   0.647
 2823SOL     OW 9367   5.214   2.252   1.416
 2823SOL    HW1 9368   5.221   2.206   1.505
 2823SOL    HW2 9369   5.234   2.349   1.428
 2824SOL     OW 9370   1.416   3.283   4.585
 2824SOL    HW1 9371   1.486   3.293   4.656
 2824SOL    HW2 9372   1.435   3.201   4.531
 2825SOL     OW 9373   5.333   1.882   5.728
 2825SOL    HW1 9374   5.355   1.874   5.825
 2825SOL    HW2 9375   5.318   1.978   5.705
 2826SOL     OW 9376   2.675   3.025   6.985
 2826SOL    HW1 9377   2.703   3.013   6.890
 2826SOL    HW2 9378   2.669   2.936   0.005
 2827SOL     OW 9379   6.007   0.975   6.243
 2827SOL    HW1 9380   5.943   1.051   6.257
 2827SOL    HW2 9381   6.096   1.000   6.282
 2828SOL     OW 9382   1.557   3.263   0.428
 2828SOL    HW1 9383   1.542   3.236   0.333
 2828SOL    HW2 9384   1.643   3.314   0.436
 2829SOL     OW 9385   3.113   4.003   2.635
 2829SOL    HW1 9386   3.162   4.010   2.722
 2829SOL    HW2 9387   3.149   4.070   2.570
 2830SOL     OW 9388   3.152   5.240   5.883
 2830SOL    HW1 9389   3.219   5.221   5.811
 2830SOL    HW2 9390   3.059   5.228   5.846
 2831SOL     OW 9391   5.526   1.709   1.352
 2831SOL    HW1 9392   5.529   1.803   1.384
 2831SOL    HW2 9393   5.456   1.658   1.403
 2832SOL     OW 9394   0.742   3.997   1.892
 2832SOL    HW1 9395   0.673   4.069   1.879
 2832SOL    HW2 9396   0.833   4.037   1.884
 2833SOL     OW 9397   2.192   2.494   2.081
 2833SOL    HW1 9398   2.135   2.441   2.018
 2833SOL    HW2 9399   2.148   2.500   2.170
 2834SOL     OW 9400   3.523   5.878   5.499
 2834SOL    HW1 9401   3.516   5.972   5.532
 2834SOL    HW2 9402   3.557   5.879   5.405
 2835SOL     OW 9403   6.763   0.594   0.592
 2835SOL    HW1 9404   6.698   0.540   0.538
 2835SOL    HW2 9405   6.771   0.686   0.552
 2836SOL     OW 9406   3.693   5.565   2.316
 2836SOL    HW1 9407   3.705   5.638   2.248
 2836SOL    HW2 9408   3.706   5.603   2.408
 2837SOL     OW 9409   5.403   4.297   1.775
 2837SOL    HW1 9410   5.379   4.267   1.867
 2837SOL    HW2 9411   5.335   4.265   1.710
 2838SOL     OW 9412   5.845   4.701   6.624
 2838SOL    HW1 9413   5.902   4.780   6.643
 2838SOL    HW2 9414   5.902   4.619   6.620
 2839SOL     OW 9415   6.042   3.057   5.087
 2839SOL    HW1 9416   5.980   3.106   5.026
 2839SOL    HW2 9417   6.026   2.959   5.079
 2840SOL     OW 9418   0.059   6.306   3.834
 2840SOL    HW1 9419   0.117   6.230   3.866
 2840SOL    HW2 9420   6.992   6.272   3.814
 2841SOL     OW 9421   6.300   4.029   2.411
 2841SOL    HW1 9422   6.311   3.951   2.349
 2841SOL    HW2 9423   6.389   4.073   2.425
 2842SOL     OW 9424   1.218   0.208   3.738
 2842SOL    HW1 9425   1.240   0.224   3.834
 2842SOL    HW2 9426   1.271   0.130   3.704
 2843SOL     OW 9427   1.964   2.732   3.937
 2843SOL    HW1 9428   2.011   2.820   3.944
 2843SOL    HW2 9429   1.869   2.742   3.966
 2844SOL     OW 9430   5.006   4.227   0.116
 2844SOL    HW1 9431   5.087   4.199   0.168
 2844SOL    HW2 9432   5.034   4.259   0.026
 2845SOL     OW 9433   3.117   2.075   3.125
 2845SOL    HW1 9434   3.066   1.996   3.092
 2845SOL    HW2 9435   3.178   2.108   3.053
 2846SOL     OW 9436   6.315   0.257   0.084
 2846SOL    HW1 9437   6.309   0.339   0.028
 2846SOL    HW2 9438   6.257   0.267   0.165
 2847SOL     OW 9439   4.475   4.581   1.548
 2847SOL    HW1 9440   4.557   4.583   1.491
 2847SOL    HW2 9441   4.457   4.487   1.577
 2848SOL     OW 9442   0.321   4.341   5.521
 2848SOL    HW1 9443   0.340   4.243   5.525
 2848SOL    HW2 9444   0.231   4.357   5.483
 2849SOL     OW 9445   4.623   0.406   2.131
 2849SOL    HW1 9446   4.648   0.310   2.118
 2849SOL    HW2 9447   4.704   0.463   2.123
 2850SOL     OW 9448   2.126   0.312   2.277
 2850SOL    HW1 9449   2.076   0.247   2.219
 2850SOL    HW2 9450   2.065   0.387   2.302
 2851SOL     OW 9451   3.602   3.379   1.074
 2851SOL    HW1 9452   3.556   3.437   1.006
 2851SOL    HW2 9453   3.594   3.422   1.165
 2852SOL     OW 9454   6.546   4.829   0.026
 2852SOL    HW1 9455   6.498   4.756   0.074
 2852SOL    HW2 9456   6.614   4.790   6.989
 2853SOL     OW 9457   0.095   4.321   5.862
 2853SOL    HW1 9458   0.158   4.274   5.924
 2853SOL    HW2 9459   0.119   4.418   5.858
 2854SOL     OW 9460   4.055   1.135   5.455
 2854SOL    HW1 9461   4.116   1.192   5.509
 2854SOL    HW2 9462   4.083   1.139   5.359
 2855SOL     OW 9463   2.126   1.893   5.623
 2855SOL    HW1 9464   2.189   1.848   5.560
 2855SOL    HW2 9465   2.035   1.895   5.584
 2856SOL     OW 9466   1.073   5.305   3.974
 2856SOL    HW1 9467   1.111   5.388   4.015
 2856SOL    HW2 9468   1.141   5.232   3.978
 2857SOL     OW 9469   0.195   3.914   0.700
 2857SOL    HW1 9470   0.243   3.829   0.680
 2857SOL    HW2 9471   0.224   3.949   0.789
 2858SOL     OW 9472   4.546   4.817   2.369
 2858SOL    HW1 9473   4.498   4.731   2.352
 2858SOL    HW2 9474   4.589   4.850   2.285
 2859SOL     OW 9475   5.315   5.044   0.781
 2859SOL    HW1 9476   5.348   4.953   0.755
 2859SOL    HW2 9477   5.386   5.111   0.762
 2860SOL     OW 9478   0.725   0.285   2.349
 2860SOL    HW1 9479   0.709   0.362   2.412
 2860SOL    HW2 9480   0.766   0.210   2.400
 2861SOL     OW 9481   4.760   5.507   6.156
 2861SOL    HW1 9482   4.849   5.496   6.112
 2861SOL    HW2 9483   4.695   5.442   6.117
 2862SOL     OW 9484   4.067   2.753   0.086
 2862SOL    HW1 9485   3.992   2.712   0.138
 2862SOL    HW2 9486   4.146   2.766   0.146
 2863SOL     OW 9487   5.781   0.188   5.274
 2863SOL    HW1 9488   5.775   0.266   5.212
 2863SOL    HW2 9489   5.863   0.134   5.253
 2864SOL     OW 9490   3.661   4.753   6.897
 2864SOL    HW1 9491   3.596   4.719   6.829
 2864SOL    HW2 9492   3.734   4.686   6.909
 2865SOL     OW 9493   5.366   5.651   4.318
 2865SOL    HW1 9494   5.430   5.609   4.254
 2865SOL    HW2 9495   5.329   5.735   4.278
 2866SOL     OW 9496   4.374   4.444   0.583
 2866SOL    HW1 9497   4.392   4.367   0.522
 2866SOL    HW2 9498   4.457   4.466   0.634
 2867SOL     OW 9499   5.433   6.287   1.715
 2867SOL    HW1 9500   5.486   6.352   1.770
 2867SOL    HW2 9501   5.398   6.333   1.633
 2868SOL     OW 9502   1.123   0.678   5.643
 2868SOL    HW1 9503   1.162   0.619   5.714
 2868SOL    HW2 9504   1.053   0.628   5.592
 2869SOL     OW 9505   6.121   5.366   4.895
 2869SOL    HW1 9506   6.106   5.423   4.815
 2869SOL    HW2 9507   6.175   5.416   4.963
 2870SOL     OW 9508   6.670   2.293   1.768
 2870SOL    HW1 9509   6.682   2.392   1.756
 2870SOL    HW2 9510   6.708   2.245   1.689
 2871SOL     OW 9511   5.546   1.616   2.540
 2871SOL    HW1 9512   5.485   1.542   2.511
 2871SOL    HW2 9513   5.498   1.704   2.531
 2872SOL     OW 9514   2.906   2.247   2.335
 2872SOL    HW1 9515   2.900   2.248   2.236
 2872SOL    HW2 9516   2.854   2.325   2.372
 2873SOL     OW 9517   1.011   0.007   1.320
 2873SOL    HW1 9518   1.037   7.021   1.416
 2873SOL    HW2 9519   0.930   6.976   1.301
 2874SOL     OW 9520   2.954   0.692   2.619
 2874SOL    HW1 9521   2.902   0.777   2.614
 2874SOL    HW2 9522   2.902   0.618   2.576
 2875SOL     OW 9523   2.532   6.657   2.847
 2875SOL    HW1 9524   2.604   6.588   2.855
 2875SOL    HW2 9525   2.508   6.689   2.939
 2876SOL     OW 9526   1.639   0.327   2.616
 2876SOL    HW1 9527   1.651   0.427   2.621
 2876SOL    HW2 9528   1.550   0.302   2.656
 2877SOL     OW 9529   1.437   2.408   7.021
 2877SOL    HW1 9530   1.475   2.500   0.003
 2877SOL    HW2 9531   1.398   2.394   6.930
 2878SOL     OW 9532   4.119   3.279   3.815
 2878SOL    HW1 9533   4.116   3.181   3.835
 2878SOL    HW2 9534   4.101   3.295   3.718
 2879SOL     OW 9535   4.248   4.360   0.035
 2879SOL    HW1 9536   4.266   4.262   0.042
 2879SOL    HW2 9537   4.204   4.392   0.119
 2880SOL     OW 9538   2.121   1.026   3.952
 2880SOL    HW1 9539   2.088   1.077   3.872
 2880SOL    HW2 9540   2.050   0.962   3.982
 2881SOL     OW 9541   4.866   5.668   6.505
 2881SOL    HW1 9542   4.881   5.724   6.424
 2881SOL    HW2 9543   4.788   5.704   6.557
 2882SOL     OW 9544   4.770   6.083   0.345
 2882SOL    HW1 9545   4.674   6.079   0.316
 2882SOL    HW2 9546   4.788   6.173   0.386
 2883SOL     OW 9547   5.881   5.902   3.998
 2883SOL    HW1 9548   5.808   5.966   3.975
 2883SOL    HW2 9549   5.845   5.809   3.999
 2884SOL     OW 9550   6.745   5.001   3.858
 2884SOL    HW1 9551   6.844   5.013   3.851
 2884SOL    HW2 9552   6.726   4.921   3.915
 2885SOL     OW 9553   1.020   2.664   3.444
 2885SOL    HW1 9554   0.927   2.627   3.444
 2885SOL    HW2 9555   1.079   2.605   3.499
 2886SOL     OW 9556   2.093   4.268   5.671
 2886SOL    HW1 9557   2.036   4.186   5.672
 2886SOL    HW2 9558   2.172   4.252   5.612
 2887SOL     OW 9559   0.232   5.711   3.216
 2887SOL    HW1 9560   0.191   5.738   3.129
 2887SOL    HW2 9561   0.255   5.614   3.213
 2888SOL     OW 9562   6.374   6.762   0.229
 2888SOL    HW1 9563   6.369   6.828   0.304
 2888SOL    HW2 9564   6.434   6.797   0.157
 2889SOL     OW 9565   3.417   6.257   2.196
 2889SOL    HW1 9566   3.433   6.234   2.292
 2889SOL    HW2 9567   3.416   6.356   2.185
 2890SOL     OW 9568   1.804   1.408   1.387
 2890SOL    HW1 9569   1.902   1.426   1.391
 2890SOL    HW2 9570   1.762   1.469   1.320
 2891SOL     OW 9571   0.720   2.075   4.754
 2891SOL    HW1 9572   0.715   1.989   4.704
 2891SOL    HW2 9573   0.730   2.151   4.690
 2892SOL     OW 9574   6.531   4.249   3.087
 2892SOL    HW1 9575   6.507   4.231   3.182
 2892SOL    HW2 9576   6.512   4.167   3.032
 2893SOL     OW 9577   6.545   5.151   4.947
 2893SOL    HW1 9578   6.456   5.117   4.979
 2893SOL    HW2 9579   6.615   5.082   4.963
 2894SOL     OW 9580   1.911   6.021   2.666
 2894SOL    HW1 9581   1.956   6.110   2.678
 2894SOL    HW2 9582   1.839   6.011   2.734
 2895SOL     OW 9583   4.340   6.792   6.404
 2895SOL    HW1 9584   4.354   6.721   6.336
 2895SOL    HW2 9585   4.428   6.834   6.428
 2896SOL     OW 9586   5.697   5.791   5.128
 2896SOL    HW1 9587   5.762   5.863   5.102
 2896SOL    HW2 9588   5.604   5.828   5.123
 2897SOL     OW 9589   3.958   5.181   3.229
 2897SOL    HW1 9590   4.024   5.140   3.292
 2897SOL    HW2 9591   3.868   5.140   3.245
 2898SOL     OW 9592   5.477   2.879   2.743
 2898SOL    HW1 9593   5.422   2.881   2.660
 2898SOL    HW2 9594   5.432   2.822   2.812
 2899SOL     OW 9595   6.946   3.919   1.364
 2899SOL    HW1 9596   7.022   3.855   1.349
 2899SOL    HW2 9597   6.972   4.010   1.332
 2900SOL     OW 9598   2.529   2.736   6.098
 2900SOL    HW1 9599   2.533   2.812   6.033
 2900SOL    HW2 9600   2.536   2.649   6.048
 2901SOL     OW 9601   0.847   4.176   3.631
 2901SOL    HW1 9602   0.787   4.252   3.654
 2901SOL    HW2 9603   0.876   4.129   3.715
 2902SOL     OW 9604   6.759   5.943   3.651
 2902SOL    HW1 9605   6.818   5.877   3.698
 2902SOL    HW2 9606   6.762   5.927   3.553
 2903SOL     OW 9607   4.429   4.998   0.386
 2903SOL    HW1 9608   4.507   5.051   0.418
 2903SOL    HW2 9609   4.454   4.950   0.302
 2904SOL     OW 9610   2.247   4.202   5.322
 2904SOL    HW1 9611   2.288   4.291   5.304
 2904SOL    HW2 9612   2.304   4.130   5.281
 2905SOL     OW 9613   0.887   5.829   1.582
 2905SOL    HW1 9614   0.957   5.758   1.575
 2905SOL    HW2 9615   0.928   5.914   1.615
 2906SOL     OW 9616   6.383   6.379   3.953
 2906SOL    HW1 9617   6.459   6.323   3.920
 2906SOL    HW2 9618   6.296   6.334   3.932
 2907SOL     OW 9619   0.232   0.830   3.991
 2907SOL    HW1 9620   0.311   0.815   4.051
 2907SOL    HW2 9621   0.236   0.764   3.915
 2908SOL     OW 9622   4.255   6.039   3.015
 2908SOL    HW1 9623   4.204   6.124   3.024
 2908SOL    HW2 9624   4.353   6.058   3.024
 2909SOL     OW 9625   0.600   6.345   1.829
 2909SOL    HW1 9626   0.631   6.299   1.746
 2909SOL    HW2 9627   0.535   6.286   1.877
 2910SOL     OW 9628   6.725   0.835   4.050
 2910SOL    HW1 9629   6.821   0.859   4.038
 2910SOL    HW2 9630   6.688   0.882   4.130
 2911SOL     OW 9631   6.886   4.335   5.263
 2911SOL    HW1 9632   6.863   4.351   5.167
 2911SOL    HW2 9633   6.803   4.333   5.318
 2912SOL     OW 9634   0.390   0.806   1.666
 2912SOL    HW1 9635   0.310   0.772   1.616
 2912SOL    HW2 9636   0.441   0.870   1.609
 2913SOL     OW 9637   2.858   0.264   1.793
 2913SOL    HW1 9638   2.820   0.273   1.701
 2913SOL    HW2 9639   2.798   0.206   1.848
 2914SOL     OW 9640   4.334   5.592   0.579
 2914SOL    HW1 9641   4.368   5.600   0.485
 2914SOL    HW2 9642   4.403   5.547   0.636
 2915SOL     OW 9643   2.632   0.354   2.375
 2915SOL    HW1 9644   2.631   0.453   2.393
 2915SOL    HW2 9645   2.545   0.327   2.334
 2916SOL     OW 9646   1.503   6.405   0.721
 2916SOL    HW1 9647   1.452   6.421   0.806
 2916SOL    HW2 9648   1.595   6.443   0.730
 2917SOL     OW 9649   2.694   6.152   4.323
 2917SOL    HW1 9650   2.731   6.181   4.235
 2917SOL    HW2 9651   2.595   6.168   4.324
 2918SOL     OW 9652   5.025   2.761   1.811
 2918SOL    HW1 9653   4.995   2.691   1.877
 2918SOL    HW2 9654   5.106   2.807   1.846
 2919SOL     OW 9655   0.949   5.727   4.812
 2919SOL    HW1 9656   0.941   5.650   4.875
 2919SOL    HW2 9657   0.858   5.752   4.777
 2920SOL     OW 9658   1.250   2.747   2.752
 2920SOL    HW1 9659   1.324   2.680   2.751
 2920SOL    HW2 9660   1.173   2.710   2.805
 2921SOL     OW 9661   1.169   7.016   3.968
 2921SOL    HW1 9662   1.218   0.071   4.004
 2921SOL    HW2 9663   1.206   6.933   4.009
 2922SOL     OW 9664   3.537   6.583   3.552
 2922SOL    HW1 9665   3.473   6.523   3.600
 2922SOL    HW2 9666   3.610   6.611   3.615
 2923SOL     OW 9667   6.674   5.916   5.007
 2923SOL    HW1 9668   6.726   5.974   5.069
 2923SOL    HW2 9669   6.604   5.866   5.058
 2924SOL     OW 9670   5.735   1.801   4.896
 2924SOL    HW1 9671   5.767   1.883   4.849
 2924SOL    HW2 9672   5.651   1.823   4.946
 2925SOL     OW 9673   5.184   6.605   6.297
 2925SOL    HW1 9674   5.268   6.638   6.255
 2925SOL    HW2 9675   5.113   6.675   6.289
 2926SOL     OW 9676   6.684   2.576   3.711
 2926SOL    HW1 9677   6.616   2.625   3.657
 2926SOL    HW2 9678   6.742   2.641   3.760
 2927SOL     OW 9679   1.297   2.096   2.158
 2927SOL    HW1 9680   1.199   2.078   2.150
 2927SOL    HW2 9681   1.333   2.045   2.236
 2928SOL     OW 9682   6.779   2.761   0.007
 2928SOL    HW1 9683   6.817   2.827   6.966
 2928SOL    HW2 9684   6.807   2.788   0.099
 2929SOL     OW 9685   2.726   2.409   4.540
 2929SOL    HW1 9686   2.650   2.435   4.481
 2929SOL    HW2 9687   2.756   2.316   4.517
 2930SOL     OW 9688   0.151   4.358   5.000
 2930SOL    HW1 9689   0.153   4.446   5.047
 2930SOL    HW2 9690   0.060   4.343   4.962
 2931SOL     OW 9691   5.188   3.845   5.665
 2931SOL    HW1 9692   5.128   3.781   5.617
 2931SOL    HW2 9693   5.281   3.837   5.630
 2932SOL     OW 9694   6.705   5.366   0.908
 2932SOL    HW1 9695   6.640   5.297   0.940
 2932SOL    HW2 9696   6.798   5.328   0.910
 2933SOL     OW 9697   1.170   0.490   0.534
 2933SOL    HW1 9698   1.254   0.528   0.496
 2933SOL    HW2 9699   1.117   0.562   0.580
 2934SOL     OW 9700   4.192   4.658   0.135
 2934SOL    HW1 9701   4.125   4.608   0.190
 2934SOL    HW2 9702   4.205   4.749   0.173
 2935SOL     OW 9703   6.832   2.222   6.435
 2935SOL    HW1 9704   6.747   2.262   6.399
 2935SOL    HW2 9705   6.901   2.219   6.363
 2936SOL     OW 9706   4.653   6.410   0.906
 2936SOL    HW1 9707   4.616   6.438   0.817
 2936SOL    HW2 9708   4.639   6.483   0.973
 2937SOL     OW 9709   4.922   4.855   2.288
 2937SOL    HW1 9710   4.990   4.813   2.348
 2937SOL    HW2 9711   4.931   4.955   2.292
 2938SOL     OW 9712   6.830   5.602   6.387
 2938SOL    HW1 9713   6.930   5.592   6.382
 2938SOL    HW2 9714   6.807   5.698   6.399
 2939SOL     OW 9715   0.696   5.725   1.810
 2939SOL    HW1 9716   0.761   5.742   1.884
 2939SOL    HW2 9717   0.701   5.799   1.743
 2940SOL     OW 9718   4.338   6.289   3.319
 2940SOL    HW1 9719   4.396   6.346   3.377
 2940SOL    HW2 9720   4.246   6.328   3.313
 2941SOL     OW 9721   1.860   4.133   3.713
 2941SOL    HW1 9722   1.828   4.206   3.773
 2941SOL    HW2 9723   1.796   4.056   3.717
 2942SOL     OW 9724   3.354   1.846   1.121
 2942SOL    HW1 9725   3.347   1.769   1.057
 2942SOL    HW2 9726   3.297   1.921   1.088
 2943SOL     OW 9727   5.891   3.836   3.122
 2943SOL    HW1 9728   5.913   3.854   3.027
 2943SOL    HW2 9729   5.810   3.777   3.128
 2944SOL     OW 9730   2.144   5.897   2.561
 2944SOL    HW1 9731   2.234   5.922   2.596
 2944SOL    HW2 9732   2.076   5.960   2.597
 2945SOL     OW 9733   5.009   4.478   1.512
 2945SOL    HW1 9734   4.936   4.457   1.447
 2945SOL    HW2 9735   4.983   4.450   1.604
 2946SOL     OW 9736   3.965   3.489   5.537
 2946SOL    HW1 9737   3.991   3.399   5.505
 2946SOL    HW2 9738   3.915   3.481   5.624
 2947SOL     OW 9739   6.383   6.710   0.897
 2947SOL    HW1 9740   6.388   6.621   0.851
 2947SOL    HW2 9741   6.379   6.783   0.828
 2948SOL     OW 9742   6.724   3.812   1.825
 2948SOL    HW1 9743   6.773   3.860   1.752
 2948SOL    HW2 9744   6.790   3.765   1.884
 2949SOL     OW 9745   1.204   0.262   0.777
 2949SOL    HW1 9746   1.114   0.305   0.770
 2949SOL    HW2 9747   1.233   0.232   0.686
 2950SOL     OW 9748   6.182   4.867   3.032
 2950SOL    HW1 9749   6.135   4.828   3.111
 2950SOL    HW2 9750   6.118   4.923   2.980
 2951SOL     OW 9751   6.749   1.345   2.018
 2951SOL    HW1 9752   6.744   1.445   2.021
 2951SOL    HW2 9753   6.780   1.311   2.107
 2952SOL     OW 9754   6.051   1.857   4.123
 2952SOL    HW1 9755   6.089   1.949   4.118
 2952SOL    HW2 9756   5.958   1.858   4.086
 2953SOL     OW 9757   1.025   5.384   4.502
 2953SOL    HW1 9758   0.969   5.410   4.423
 2953SOL    HW2 9759   1.032   5.461   4.565
 2954SOL     OW 9760   6.961   4.484   6.499
 2954SOL    HW1 9761   6.945   4.392   6.463
 2954SOL    HW2 9762   0.032   4.508   6.484
 2955SOL     OW 9763   1.779   4.210   5.967
 2955SOL    HW1 9764   1.839   4.202   5.887
 2955SOL    HW2 9765   1.685   4.192   5.940
 2956SOL     OW 9766   5.633   4.995   3.315
 2956SOL    HW1 9767   5.712   5.051   3.342
 2956SOL    HW2 9768   5.642   4.904   3.355
 2957SOL     OW 9769   2.480   5.432   0.857
 2957SOL    HW1 9770   2.502   5.336   0.870
 2957SOL    HW2 9771   2.535   5.488   0.920
 2958SOL     OW 9772   1.591   5.659   2.258
 2958SOL    HW1 9773   1.545   5.701   2.337
 2958SOL    HW2 9774   1.532   5.588   2.220
 2959SOL     OW 9775   6.824   3.749   2.892
 2959SOL    HW1 9776   6.743   3.740   2.834
 2959SOL    HW2 9777   6.870   3.661   2.898
 2960SOL     OW 9778   5.488   0.167   0.634
 2960SOL    HW1 9779   5.430   0.207   0.705
 2960SOL    HW2 9780   5.444   0.178   0.545
 2961SOL     OW 9781   5.466   3.893   2.073
 2961SOL    HW1 9782   5.383   3.910   2.126
 2961SOL    HW2 9783   5.442   3.873   1.978
 2962SOL     OW 9784   6.756   0.196   2.995
 2962SOL    HW1 9785   6.795   0.286   3.014
 2962SOL    HW2 9786   6.662   0.192   3.029
 2963SOL     OW 9787   1.945   1.084   5.375
 2963SOL    HW1 9788   2.020   1.103   5.312
 2963SOL    HW2 9789   1.976   1.019   5.445
 2964SOL     OW 9790   1.559   2.022   0.125
 2964SOL    HW1 9791   1.652   2.022   0.163
 2964SOL    HW2 9792   1.528   1.927   0.115
 2965SOL     OW 9793   0.659   6.900   5.397
 2965SOL    HW1 9794   0.648   6.984   5.343
 2965SOL    HW2 9795   0.697   6.923   5.486
 2966SOL     OW 9796   3.222   6.072   2.458
 2966SOL    HW1 9797   3.284   6.148   2.441
 2966SOL    HW2 9798   3.233   6.002   2.388
 2967SOL     OW 9799   5.497   0.395   5.456
 2967SOL    HW1 9800   5.443   0.441   5.526
 2967SOL    HW2 9801   5.570   0.457   5.425
 2968SOL     OW 9802   1.821   3.742   1.154
 2968SOL    HW1 9803   1.780   3.662   1.199
 2968SOL    HW2 9804   1.884   3.711   1.083
 2969SOL     OW 9805   5.194   3.345   4.992
 2969SOL    HW1 9806   5.138   3.397   5.056
 2969SOL    HW2 9807   5.260   3.407   4.948
 2970SOL     OW 9808   2.247   1.678   4.006
 2970SOL    HW1 9809   2.231   1.688   4.104
 2970SOL    HW2 9810   2.171   1.719   3.955
 2971SOL     OW 9811   5.185   2.747   6.253
 2971SOL    HW1 9812   5.086   2.741   6.265
 2971SOL    HW2 9813   5.230   2.701   6.329
 2972SOL     OW 9814   6.215   6.025   6.775
 2972SOL    HW1 9815   6.223   5.926   6.785
 2972SOL    HW2 9816   6.155   6.047   6.698
 2973SOL     OW 9817   4.284   1.127   2.948
 2973SOL    HW1 9818   4.277   1.207   2.888
 2973SOL    HW2 9819   4.375   1.122   2.988
 2974SOL     OW 9820   5.086   6.555   2.512
 2974SOL    HW1 9821   4.989   6.534   2.506
 2974SOL    HW2 9822   5.109   6.625   2.445
 2975SOL     OW 9823   4.745   4.247   3.613
 2975SOL    HW1 9824   4.764   4.266   3.710
 2975SOL    HW2 9825   4.803   4.172   3.582
 2976SOL     OW 9826   4.189   1.843   2.161
 2976SOL    HW1 9827   4.183   1.885   2.252
 2976SOL    HW2 9828   4.104   1.793   2.142
 2977SOL     OW 9829   1.307   0.765   1.557
 2977SOL    HW1 9830   1.268   0.700   1.491
 2977SOL    HW2 9831   1.381   0.721   1.607
 2978SOL     OW 9832   4.602   5.097   6.601
 2978SOL    HW1 9833   4.561   5.184   6.624
 2978SOL    HW2 9834   4.696   5.112   6.568
 2979SOL     OW 9835   3.065   0.605   4.041
 2979SOL    HW1 9836   3.067   0.506   4.026
 2979SOL    HW2 9837   3.128   0.649   3.978
 2980SOL     OW 9838   3.587   3.677   5.103
 2980SOL    HW1 9839   3.662   3.739   5.126
 2980SOL    HW2 9840   3.510   3.729   5.066
 2981SOL     OW 9841   2.057   1.502   1.490
 2981SOL    HW1 9842   2.053   1.598   1.520
 2981SOL    HW2 9843   2.077   1.444   1.569
 2982SOL     OW 9844   1.324   0.323   1.888
 2982SOL    HW1 9845   1.390   0.313   1.814
 2982SOL    HW2 9846   1.316   0.420   1.912
 2983SOL     OW 9847   6.340   3.318   5.688
 2983SOL    HW1 9848   6.425   3.366   5.668
 2983SOL    HW2 9849   6.283   3.375   5.747
 2984SOL     OW 9850   0.775   5.045   1.394
 2984SOL    HW1 9851   0.711   5.105   1.346
 2984SOL    HW2 9852   0.803   5.087   1.480
 2985SOL     OW 9853   0.646   0.194   5.836
 2985SOL    HW1 9854   0.564   0.141   5.859
 2985SOL    HW2 9855   0.719   0.173   5.901
 2986SOL     OW 9856   3.540   3.450   2.269
 2986SOL    HW1 9857   3.497   3.360   2.278
 2986SOL    HW2 9858   3.470   3.518   2.246
 2987SOL     OW 9859   1.798   6.730   5.109
 2987SOL    HW1 9860   1.723   6.664   5.112
 2987SOL    HW2 9861   1.772   6.813   5.158
 2988SOL     OW 9862   0.434   1.311   6.392
 2988SOL    HW1 9863   0.526   1.348   6.407
 2988SOL    HW2 9864   0.380   1.321   6.476
 2989SOL     OW 9865   4.965   3.674   4.218
 2989SOL    HW1 9866   4.994   3.660   4.313
 2989SOL    HW2 9867   4.923   3.590   4.184
 2990SOL     OW 9868   5.504   1.737   4.644
 2990SOL    HW1 9869   5.435   1.759   4.713
 2990SOL    HW2 9870   5.545   1.648   4.665
 2991SOL     OW 9871   0.453   4.061   1.641
 2991SOL    HW1 9872   0.458   4.161   1.639
 2991SOL    HW2 9873   0.518   4.023   1.575
 2992SOL     OW 9874   0.126   3.480   5.496
 2992SOL    HW1 9875   0.111   3.387   5.531
 2992SOL    HW2 9876   0.104   3.546   5.567
 2993SOL     OW 9877   1.894   3.773   0.564
 2993SOL    HW1 9878   1.932   3.836   0.631
 2993SOL    HW2 9879   1.871   3.823   0.480
 2994SOL     OW 9880   4.307   6.131   6.099
 2994SOL    HW1 9881   4.404   6.109   6.098
 2994SOL    HW2 9882   4.290   6.210   6.040
 2995SOL     OW 9883   5.204   0.860   0.311
 2995SOL    HW1 9884   5.241   0.861   0.404
 2995SOL    HW2 9885   5.105   0.877   0.315
 2996SOL     OW 9886   6.626   0.585   4.326
 2996SOL    HW1 9887   6.621   0.672   4.376
 2996SOL    HW2 9888   6.694   0.526   4.368
 2997SOL     OW 9889   5.391   6.657   4.219
 2997SOL    HW1 9890   5.367   6.644   4.316
 2997SOL    HW2 9891   5.314   6.700   4.171
 2998SOL     OW 9892   2.738   1.261   3.333
 2998SOL    HW1 9893   2.763   1.212   3.249
 2998SOL    HW2 9894   2.664   1.212   3.379
 2999SOL     OW 9895   2.874   4.044   0.762
 2999SOL    HW1 9896   2.859   3.995   0.847
 2999SOL    HW2 9897   2.943   3.996   0.708
 3000SOL     OW 9898   2.858   4.059   5.299
 3000SOL    HW1 9899   2.934   3.994   5.295
 3000SOL    HW2 9900   2.895   4.152   5.306
 3001SOL     OW 9901   5.929   0.603   5.493
 3001SOL    HW1 9902   5.946   0.622   5.590
 3001SOL    HW2 9903   5.983   0.524   5.465
 3002SOL     OW 9904   1.617   1.984   1.612
 3002SOL    HW1 9905   1.528   1.983   1.659
 3002SOL    HW2 9906   1.613   2.048   1.535
 3003SOL     OW 9907   1.526   6.285   0.360
 3003SOL    HW1 9908   1.607   6.321   0.315
 3003SOL    HW2 9909   1.498   6.346   0.434
 3004SOL     OW 9910   2.613   6.357   3.797
 3004SOL    HW1 9911   2.609   6.261   3.827
 3004SOL    HW2 9912   2.706   6.380   3.770
 3005SOL     OW 9913   0.861   2.534   6.936
 3005SOL    HW1 9914   0.908   2.617   6.965
 3005SOL    HW2 9915   0.819   2.490   7.016
 3006SOL     OW 9916   5.134   1.412   5.717
 3006SOL    HW1 9917   5.131   1.375   5.810
 3006SOL    HW2 9918   5.084   1.499   5.714
 3007SOL     OW 9919   5.047   5.654   0.231
 3007SOL    HW1 9920   5.002   5.594   0.297
 3007SOL    HW2 9921   5.013   5.633   0.139
 3008SOL     OW 9922   5.169   3.533   5.891
 3008SOL    HW1 9923   5.079   3.492   5.876
 3008SOL    HW2 9924   5.159   3.632   5.899
 3009SOL     OW 9925   0.625   3.431   2.461
 3009SOL    HW1 9926   0.552   3.451   2.526
 3009SOL    HW2 9927   0.591   3.368   2.392
 3010SOL     OW 9928   3.642   5.828   0.290
 3010SOL    HW1 9929   3.695   5.775   0.356
 3010SOL    HW2 9930   3.671   5.924   0.292
 3011SOL     OW 9931   6.488   0.181   1.208
 3011SOL    HW1 9932   6.435   0.178   1.293
 3011SOL    HW2 9933   6.512   0.088   1.181
 3012SOL     OW 9934   2.403   2.402   5.424
 3012SOL    HW1 9935   2.501   2.398   5.403
 3012SOL    HW2 9936   2.386   2.472   5.492
 3013SOL     OW 9937   1.353   4.310   5.184
 3013SOL    HW1 9938   1.323   4.231   5.237
 3013SOL    HW2 9939   1.278   4.377   5.180
 3014SOL     OW 9940   5.423   6.507   6.048
 3014SOL    HW1 9941   5.510   6.519   6.097
 3014SOL    HW2 9942   5.418   6.572   5.972
 3015SOL     OW 9943   1.185   0.657   6.802
 3015SOL    HW1 9944   1.256   0.596   6.766
 3015SOL    HW2 9945   1.112   0.603   6.843
 3016SOL     OW 9946   1.863   6.118   4.112
 3016SOL    HW1 9947   1.912   6.074   4.036
 3016SOL    HW2 9948   1.917   6.111   4.195
 3017SOL     OW 9949   1.068   5.018   0.798
 3017SOL    HW1 9950   1.049   5.116   0.791
 3017SOL    HW2 9951   0.998   4.967   0.748
 3018SOL     OW 9952   3.424   0.068   0.580
 3018SOL    HW1 9953   3.466   0.032   0.664
 3018SOL    HW2 9954   3.476   0.148   0.549
 3019SOL     OW 9955   2.127   1.189   6.126
 3019SOL    HW1 9956   2.159   1.273   6.082
 3019SOL    HW2 9957   2.203   1.148   6.177
 3020SOL     OW 9958   6.758   4.206   6.811
 3020SOL    HW1 9959   6.843   4.154   6.819
 3020SOL    HW2 9960   6.779   4.299   6.781
 3021SOL     OW 9961   4.398   0.105   4.813
 3021SOL    HW1 9962   4.450   0.140   4.735
 3021SOL    HW2 9963   4.455   0.103   4.894
 3022SOL     OW 9964   3.830   5.840   3.900
 3022SOL    HW1 9965   3.901   5.824   3.968
 3022SOL    HW2 9966   3.741   5.841   3.946
 3023SOL     OW 9967   5.208   6.012   3.884
 3023SOL    HW1 9968   5.252   5.924   3.903
 3023SOL    HW2 9969   5.115   6.011   3.920
 3024SOL     OW 9970   7.021   6.666   0.164
 3024SOL    HW1 9971   0.019   6.661   0.261
 3024SOL    HW2 9972   6.986   6.757   0.143
 3025SOL     OW 9973   3.413   5.271   0.048
 3025SOL    HW1 9974   3.508   5.301   0.046
 3025SOL    HW2 9975   3.357   5.340   0.093
 3026SOL     OW 9976   6.820   0.825   1.789
 3026SOL    HW1 9977   6.810   0.759   1.714
 3026SOL    HW2 9978   6.899   0.799   1.845
 3027SOL     OW 9979   4.280   1.158   0.841
 3027SOL    HW1 9980   4.202   1.216   0.862
 3027SOL    HW2 9981   4.362   1.214   0.832
 3028SOL     OW 9982   3.069   3.151   5.578
 3028SOL    HW1 9983   3.027   3.214   5.513
 3028SOL    HW2 9984   3.006   3.135   5.654
 3029SOL     OW 9985   0.230   3.209   4.221
 3029SOL    HW1 9986   0.152   3.217   4.284
 3029SOL    HW2 9987   0.207   3.256   4.135
 3030SOL     OW 9988   2.344   3.263   0.190
 3030SOL    HW1 9989   2.353   3.354   0.231
 3030SOL    HW2 9990   2.264   3.261   0.131
 3031SOL     OW 9991   1.238   6.217   0.356
 3031SOL    HW1 9992   1.171   6.290   0.347
 3031SOL    HW2 9993   1.330   6.253   0.344
 3032SOL     OW 9994   2.612   0.426   2.741
 3032SOL    HW1 9995   2.701   0.433   2.695
 3032SOL    HW2 9996   2.591   0.330   2.757
 3033SOL     OW 9997   0.070   2.036   4.940
 3033SOL    HW1 9998   0.148   1.991   4.897
 3033SOL    HW2 9999   0.094   2.130   4.964
 3034SOL     OW10000   6.486   5.067   3.404
 3034SOL    HW110001   6.571   5.020   3.427
 3034SOL    HW210002   6.449   5.111   3.486
 3035SOL     OW10003   0.836   2.976   0.680
 3035SOL    HW110004   0.791   3.054   0.635
 3035SOL    HW210005   0.932   2.973   0.652
 3036SOL     OW10006   3.131   2.110   5.853
 3036SOL    HW110007   3.174   2.068   5.933
 3036SOL    HW210008   3.033   2.089   5.853
 3037SOL     OW10009   0.524   6.071   6.633
 3037SOL    HW110010   0.605   6.058   6.690
 3037SOL    HW210011   0.446   6.096   6.692
 3038SOL     OW10012   6.211   4.725   6.728
 3038SOL    HW110013   6.198   4.823   6.714
 3038SOL    HW210014   6.203   4.703   6.825
 3039SOL     OW10015   6.887   3.376   6.223
 3039SOL    HW110016   6.900   3.411   6.131
 3039SOL    HW210017   6.829   3.295   6.220
 3040SOL     OW10018   5.045   4.567   5.824
 3040SOL    HW110019   5.131   4.536   5.863
 3040SOL    HW210020   4.973   4.565   5.894
 3041SOL     OW10021   1.396   4.578   5.957
 3041SOL    HW110022   1.418   4.569   6.054
 3041SOL    HW210023   1.416   4.492   5.910
 3042SOL     OW10024   6.392   5.432   3.524
 3042SOL    HW110025   6.405   5.346   3.574
 3042SOL    HW210026   6.358   5.502   3.587
 3043SOL     OW10027   2.984   5.419   0.681
 3043SOL    HW110028   3.080   5.390   0.672
 3043SOL    HW210029   2.949   5.390   0.770
 3044SOL     OW10030   3.780   3.692   4.747
 3044SOL    HW110031   3.779   3.664   4.651
 3044SOL    HW210032   3.687   3.713   4.776
 3045SOL     OW10033   4.472   1.822   2.108
 3045SOL    HW110034   4.522   1.892   2.159
 3045SOL    HW210035   4.376   1.847   2.102
 3046SOL     OW10036   5.289   6.394   0.721
 3046SOL    HW110037   5.376   6.365   0.762
 3046SOL    HW210038   5.276   6.348   0.633
 3047SOL     OW10039   5.846   1.290   5.107
 3047SOL    HW110040   5.872   1.194   5.089
 3047SOL    HW210041   5.928   1.342   5.129
 3048SOL     OW10042   3.854   4.498   1.015
 3048SOL    HW110043   3.820   4.536   1.101
 3048SOL    HW210044   3.924   4.558   0.977
 3049SOL     OW10045   1.179   1.302   3.331
 3049SOL    HW110046   1.144   1.369   3.266
 3049SOL    HW210047   1.155   1.210   3.301
 3050SOL     OW10048   3.605   1.653   0.784
 3050SOL    HW110049   3.607   1.579   0.852
 3050SOL    HW210050   3.637   1.618   0.696
 3051SOL     OW10051   2.330   5.342   5.909
 3051SOL    HW110052   2.301   5.318   6.001
 3051SOL    HW210053   2.266   5.408   5.870
 3052SOL     OW10054   6.995   6.681   1.857
 3052SOL    HW110055   0.019   6.594   1.858
 3052SOL    HW210056   7.011   6.730   1.943
 3053SOL     OW10057   1.143   4.455   0.193
 3053SOL    HW110058   1.203   4.426   0.267
 3053SOL    HW210059   1.196   4.508   0.126
 3054SOL     OW10060   5.407   0.532   2.478
 3054SOL    HW110061   5.438   0.599   2.546
 3054SOL    HW210062   5.309   0.517   2.488
 3055SOL     OW10063   6.105   6.159   6.218
 3055SOL    HW110064   6.089   6.061   6.208
 3055SOL    HW210065   6.160   6.175   6.301
 3056SOL     OW10066   4.973   1.342   5.353
 3056SOL    HW110067   5.057   1.371   5.399
 3056SOL    HW210068   4.901   1.409   5.371
 3057SOL     OW10069   5.340   3.992   3.155
 3057SOL    HW110070   5.361   4.028   3.246
 3057SOL    HW210071   5.369   4.057   3.085
 3058SOL     OW10072   0.303   4.415   6.606
 3058SOL    HW110073   0.396   4.451   6.600
 3058SOL    HW210074   0.245   4.463   6.540
 3059SOL     OW10075   1.713   1.981   3.636
 3059SOL    HW110076   1.633   1.940   3.593
 3059SOL    HW210077   1.715   1.958   3.733
 3060SOL     OW10078   5.565   5.144   4.980
 3060SOL    HW110079   5.574   5.112   4.885
 3060SOL    HW210080   5.652   5.133   5.027
 3061SOL     OW10081   6.048   6.218   4.618
 3061SOL    HW110082   6.078   6.267   4.536
 3061SOL    HW210083   6.072   6.271   4.699
 3062SOL     OW10084   4.027   4.180   1.098
 3062SOL    HW110085   4.056   4.260   1.150
 3062SOL    HW210086   4.106   4.123   1.078
 3063SOL     OW10087   0.383   4.196   2.119
 3063SOL    HW110088   0.423   4.194   2.211
 3063SOL    HW210089   0.359   4.103   2.091
 3064SOL     OW10090   4.939   2.157   6.232
 3064SOL    HW110091   4.974   2.194   6.145
 3064SOL    HW210092   4.980   2.207   6.308
 3065SOL     OW10093   6.195   1.369   0.060
 3065SOL    HW110094   6.256   1.448   0.057
 3065SOL    HW210095   6.134   1.377   0.139
 3066SOL     OW10096   4.995   5.981   5.358
 3066SOL    HW110097   5.045   6.067   5.352
 3066SOL    HW210098   4.936   5.971   5.278
 3067SOL     OW10099   1.316   1.966   5.961
 3067SOL    HW110100   1.390   1.973   6.027
 3067SOL    HW210101   1.258   1.887   5.983
 3068SOL     OW10102   0.118   0.897   0.678
 3068SOL    HW110103   0.213   0.919   0.652
 3068SOL    HW210104   0.114   0.803   0.713
 3069SOL     OW10105   5.340   0.303   3.210
 3069SOL    HW110106   5.360   0.325   3.115
 3069SOL    HW210107   5.411   0.242   3.246
 3070SOL     OW10108   2.222   1.195   0.953
 3070SOL    HW110109   2.211   1.276   0.895
 3070SOL    HW210110   2.142   1.186   1.013
 3071SOL     OW10111   6.395   4.230   4.681
 3071SOL    HW110112   6.484   4.262   4.711
 3071SOL    HW210113   6.381   4.135   4.710
 3072SOL     OW10114   1.717   0.035   6.137
 3072SOL    HW110115   1.668   0.121   6.128
 3072SOL    HW210116   1.808   0.052   6.174
 3073SOL     OW10117   6.524   4.949   1.341
 3073SOL    HW110118   6.582   5.030   1.331
 3073SOL    HW210119   6.432   4.971   1.309
 3074SOL     OW10120   2.345   3.240   1.692
 3074SOL    HW110121   2.415   3.173   1.716
 3074SOL    HW210122   2.362   3.326   1.740
 3075SOL     OW10123   3.385   5.564   1.996
 3075SOL    HW110124   3.383   5.473   1.954
 3075SOL    HW210125   3.421   5.557   2.089
 3076SOL     OW10126   0.801   0.186   5.270
 3076SOL    HW110127   0.717   0.141   5.240
 3076SOL    HW210128   0.790   0.217   5.365
 3077SOL     OW10129   0.144   4.072   2.856
 3077SOL    HW110130   0.075   4.033   2.917
 3077SOL    HW210131   0.194   3.998   2.811
 3078SOL     OW10132   6.965   3.371   2.012
 3078SOL    HW110133   6.924   3.299   2.068
 3078SOL    HW210134   0.028   3.339   1.976
 3079SOL     OW10135   2.013   3.284   5.111
 3079SOL    HW110136   2.019   3.369   5.163
 3079SOL    HW210137   1.958   3.300   5.029
 3080SOL     OW10138   3.615   4.683   0.505
 3080SOL    HW110139   3.687   4.753   0.510
 3080SOL    HW210140   3.637   4.618   0.432
 3081SOL     OW10141   1.194   3.708   0.721
 3081SOL    HW110142   1.254   3.771   0.672
 3081SOL    HW210143   1.100   3.719   0.688
 3082SOL     OW10144   4.489   5.082   4.392
 3082SOL    HW110145   4.450   5.171   4.371
 3082SOL    HW210146   4.478   5.021   4.313
 3083SOL     OW10147   3.929   6.004   1.666
 3083SOL    HW110148   3.979   6.081   1.705
 3083SOL    HW210149   3.992   5.947   1.612
 3084SOL     OW10150   0.554   4.013   4.358
 3084SOL    HW110151   0.483   4.024   4.289
 3084SOL    HW210152   0.594   4.102   4.378
 3085SOL     OW10153   5.597   5.136   0.256
 3085SOL    HW110154   5.610   5.235   0.267
 3085SOL    HW210155   5.629   5.089   0.338
 3086SOL     OW10156   6.314   6.925   6.279
 3086SOL    HW110157   6.289   6.888   6.369
 3086SOL    HW210158   6.296   7.024   6.278
 3087SOL     OW10159   3.216   6.721   1.981
 3087SOL    HW110160   3.244   6.657   2.053
 3087SOL    HW210161   3.294   6.745   1.925
 3088SOL     OW10162   2.258   2.689   5.987
 3088SOL    HW110163   2.225   2.742   5.909
 3088SOL    HW210164   2.207   2.603   5.993
 3089SOL     OW10165   4.382   5.488   5.249
 3089SOL    HW110166   4.394   5.576   5.295
 3089SOL    HW210167   4.342   5.504   5.158
 3090SOL     OW10168   1.205   2.292   2.329
 3090SOL    HW110169   1.183   2.372   2.273
 3090SOL    HW210170   1.270   2.234   2.280
 3091SOL     OW10171   1.006   2.170   1.199
 3091SOL    HW110172   0.949   2.235   1.148
 3091SOL    HW210173   0.969   2.078   1.189
 3092SOL     OW10174   5.823   1.058   2.761
 3092SOL    HW110175   5.742   1.107   2.795
 3092SOL    HW210176   5.810   0.960   2.772
 3093SOL     OW10177   5.944   5.736   0.028
 3093SOL    HW110178   5.979   5.649   7.020
 3093SOL    HW210179   5.917   5.793   6.976
 3094SOL     OW10180   2.843   1.926   6.530
 3094SOL    HW110181   2.842   1.931   6.430
 3094SOL    HW210182   2.883   1.839   6.558
 3095SOL     OW10183   1.757   3.781   4.707
 3095SOL    HW110184   1.681   3.728   4.743
 3095SOL    HW210185   1.736   3.811   4.614
 3096SOL     OW10186   0.501   3.211   4.275
 3096SOL    HW110187   0.402   3.223   4.268
 3096SOL    HW210188   0.541   3.207   4.184
 3097SOL     OW10189   5.402   2.636   5.476
 3097SOL    HW110190   5.356   2.656   5.390
 3097SOL    HW210191   5.480   2.575   5.460
 3098SOL     OW10192   1.716   3.385   2.493
 3098SOL    HW110193   1.749   3.294   2.517
 3098SOL    HW210194   1.627   3.401   2.534
 3099SOL     OW10195   0.654   6.167   4.312
 3099SOL    HW110196   0.562   6.205   4.307
 3099SOL    HW210197   0.714   6.216   4.249
 3100SOL     OW10198   5.997   4.907   1.805
 3100SOL    HW110199   5.984   4.928   1.709
 3100SOL    HW210200   6.039   4.985   1.852
 3101SOL     OW10201   3.802   6.750   5.746
 3101SOL    HW110202   3.817   6.777   5.651
 3101SOL    HW210203   3.839   6.658   5.761
 3102SOL     OW10204   6.944   4.616   0.888
 3102SOL    HW110205   6.893   4.532   0.908
 3102SOL    HW210206   6.922   4.648   0.796
 3103SOL     OW10207   3.127   1.287   1.192
 3103SOL    HW110208   3.030   1.282   1.169
 3103SOL    HW210209   3.167   1.368   1.151
 3104SOL     OW10210   4.529   1.396   5.354
 3104SOL    HW110211   4.469   1.408   5.434
 3104SOL    HW210212   4.485   1.333   5.289
 3105SOL     OW10213   5.904   3.597   0.776
 3105SOL    HW110214   5.840   3.563   0.708
 3105SOL    HW210215   5.914   3.696   0.767
 3106SOL     OW10216   6.114   0.475   6.371
 3106SOL    HW110217   6.022   0.515   6.365
 3106SOL    HW210218   6.109   0.388   6.419
 3107SOL     OW10219   3.578   1.550   5.793
 3107SOL    HW110220   3.544   1.618   5.858
 3107SOL    HW210221   3.668   1.578   5.759
 3108SOL     OW10222   2.259   4.021   3.729
 3108SOL    HW110223   2.228   4.030   3.635
 3108SOL    HW210224   2.337   4.081   3.745
 3109SOL     OW10225   6.707   6.069   4.307
 3109SOL    HW110226   6.789   6.056   4.251
 3109SOL    HW210227   6.649   5.988   4.301
 3110SOL     OW10228   1.054   4.498   3.123
 3110SOL    HW110229   0.977   4.549   3.084
 3110SOL    HW210230   1.095   4.441   3.051
 3111SOL     OW10231   5.967   4.678   4.079
 3111SOL    HW110232   5.959   4.691   4.178
 3111SOL    HW210233   5.886   4.628   4.046
 3112SOL     OW10234   3.954   1.584   6.024
 3112SOL    HW110235   3.896   1.510   5.990
 3112SOL    HW210236   4.049   1.566   5.999
 3113SOL     OW10237   2.915   6.088   3.248
 3113SOL    HW110238   2.947   5.997   3.222
 3113SOL    HW210239   2.902   6.091   3.347
 3114SOL     OW10240   4.635   1.145   5.539
 3114SOL    HW110241   4.585   1.226   5.570
 3114SOL    HW210242   4.701   1.117   5.609
 3115SOL     OW10243   4.939   5.138   5.218
 3115SOL    HW110244   4.873   5.184   5.159
 3115SOL    HW210245   4.910   5.145   5.314
 3116SOL     OW10246   0.199   1.160   1.031
 3116SOL    HW110247   0.225   1.137   1.125
 3116SOL    HW210248   0.273   1.133   0.969
 3117SOL     OW10249   5.247   1.236   6.003
 3117SOL    HW110250   5.211   1.149   5.968
 3117SOL    HW210251   5.344   1.244   5.980
 3118SOL     OW10252   1.155   0.944   3.479
 3118SOL    HW110253   1.166   1.030   3.529
 3118SOL    HW210254   1.236   0.929   3.422
 3119SOL     OW10255   4.547   4.997   5.056
 3119SOL    HW110256   4.495   5.017   4.973
 3119SOL    HW210257   4.534   5.072   5.121
 3120SOL     OW10258   1.683   5.613   5.427
 3120SOL    HW110259   1.715   5.659   5.510
 3120SOL    HW210260   1.751   5.547   5.397
 3121SOL     OW10261   4.156   1.123   3.927
 3121SOL    HW110262   4.106   1.165   3.851
 3121SOL    HW210263   4.200   1.039   3.895
 3122SOL     OW10264   4.662   5.392   4.698
 3122SOL    HW110265   4.676   5.395   4.599
 3122SOL    HW210266   4.743   5.428   4.744
 3123SOL     OW10267   2.286   1.258   3.695
 3123SOL    HW110268   2.236   1.344   3.688
 3123SOL    HW210269   2.384   1.276   3.692
 3124SOL     OW10270   4.578   0.140   4.335
 3124SOL    HW110271   4.570   0.141   4.236
 3124SOL    HW210272   4.643   0.069   4.362
 3125SOL     OW10273   1.186   0.856   4.997
 3125SOL    HW110274   1.177   0.766   4.956
 3125SOL    HW210275   1.248   0.852   5.076
 3126SOL     OW10276   5.474   5.651   5.563
 3126SOL    HW110277   5.398   5.700   5.607
 3126SOL    HW210278   5.438   5.592   5.491
 3127SOL     OW10279   0.590   1.086   5.027
 3127SOL    HW110280   0.538   1.110   4.946
 3127SOL    HW210281   0.630   0.995   5.015
 3128SOL     OW10282   4.218   0.459   0.801
 3128SOL    HW110283   4.170   0.455   0.714
 3128SOL    HW210284   4.290   0.528   0.797
 3129SOL     OW10285   4.637   3.981   7.021
 3129SOL    HW110286   4.735   3.989   0.014
 3129SOL    HW210287   4.608   3.886   0.005
 3130SOL     OW10288   0.265   4.620   2.478
 3130SOL    HW110289   0.166   4.629   2.466
 3130SOL    HW210290   0.304   4.576   2.397
 3131SOL     OW10291   6.443   4.135   3.355
 3131SOL    HW110292   6.539   4.161   3.352
 3131SOL    HW210293   6.435   4.035   3.351
 3132SOL     OW10294   4.384   4.736   6.669
 3132SOL    HW110295   4.286   4.719   6.667
 3132SOL    HW210296   4.417   4.733   6.763
 3133SOL     OW10297   4.036   0.292   4.312
 3133SOL    HW110298   4.015   0.326   4.404
 3133SOL    HW210299   4.128   0.253   4.312
 3134SOL     OW10300   4.450   5.018   2.504
 3134SOL    HW110301   4.361   5.000   2.545
 3134SOL    HW210302   4.483   4.936   2.457
 3135SOL     OW10303   5.166   6.036   6.478
 3135SOL    HW110304   5.096   6.094   6.437
 3135SOL    HW210305   5.224   5.997   6.407
 3136SOL     OW10306   6.443   1.593   2.807
 3136SOL    HW110307   6.417   1.539   2.887
 3136SOL    HW210308   6.536   1.569   2.779
 3137SOL     OW10309   5.946   6.657   6.532
 3137SOL    HW110310   6.003   6.648   6.614
 3137SOL    HW210311   5.983   6.600   6.459
 3138SOL     OW10312   5.792   5.935   3.605
 3138SOL    HW110313   5.769   5.986   3.522
 3138SOL    HW210314   5.883   5.963   3.636
 3139SOL     OW10315   2.950   4.885   1.525
 3139SOL    HW110316   2.877   4.820   1.548
 3139SOL    HW210317   2.919   4.978   1.543
 3140SOL     OW10318   6.790   6.829   6.461
 3140SOL    HW110319   6.872   6.883   6.442
 3140SOL    HW210320   6.720   6.848   6.392
 3141SOL     OW10321   6.671   2.438   6.308
 3141SOL    HW110322   6.645   2.508   6.375
 3141SOL    HW210323   6.762   2.459   6.271
 3142SOL     OW10324   4.289   1.203   3.277
 3142SOL    HW110325   4.279   1.155   3.364
 3142SOL    HW210326   4.203   1.198   3.226
 3143SOL     OW10327   6.388   1.083   0.827
 3143SOL    HW110328   6.314   1.016   0.823
 3143SOL    HW210329   6.476   1.036   0.822
 3144SOL     OW10330   3.971   3.798   6.624
 3144SOL    HW110331   3.905   3.725   6.606
 3144SOL    HW210332   4.025   3.776   6.704
 3145SOL     OW10333   0.423   6.264   1.181
 3145SOL    HW110334   0.359   6.287   1.255
 3145SOL    HW210335   0.383   6.191   1.125
 3146SOL     OW10336   0.313   0.207   5.180
 3146SOL    HW110337   0.323   0.252   5.269
 3146SOL    HW210338   0.220   0.171   5.171
 3147SOL     OW10339   3.678   5.372   0.126
 3147SOL    HW110340   3.696   5.275   0.138
 3147SOL    HW210341   3.705   5.422   0.208
 3148SOL     OW10342   6.820   5.383   2.507
 3148SOL    HW110343   6.820   5.482   2.490
 3148SOL    HW210344   6.864   5.364   2.595
 3149SOL     OW10345   3.120   1.710   0.329
 3149SOL    HW110346   3.122   1.809   0.316
 3149SOL    HW210347   3.207   1.680   0.367
 3150SOL     OW10348   6.662   5.615   5.168
 3150SOL    HW110349   6.603   5.692   5.192
 3150SOL    HW210350   6.624   5.567   5.089
 3151SOL     OW10351   6.893   0.794   5.806
 3151SOL    HW110352   6.933   0.883   5.783
 3151SOL    HW210353   6.826   0.768   5.736
 3152SOL     OW10354   1.212   3.307   6.009
 3152SOL    HW110355   1.305   3.336   5.987
 3152SOL    HW210356   1.170   3.374   6.071
 3153SOL     OW10357   6.608   4.950   1.044
 3153SOL    HW110358   6.650   4.861   1.059
 3153SOL    HW210359   6.663   5.022   1.088
 3154SOL     OW10360   4.571   1.217   6.872
 3154SOL    HW110361   4.555   1.288   6.941
 3154SOL    HW210362   4.524   1.133   6.900
 3155SOL     OW10363   1.097   4.827   0.987
 3155SOL    HW110364   1.028   4.864   1.049
 3155SOL    HW210365   1.118   4.895   0.917
 3156SOL     OW10366   3.602   4.135   1.889
 3156SOL    HW110367   3.604   4.211   1.825
 3156SOL    HW210368   3.684   4.138   1.946
 3157SOL     OW10369   0.987   1.047   5.657
 3157SOL    HW110370   1.043   1.037   5.575
 3157SOL    HW210371   0.892   1.065   5.630
 3158SOL     OW10372   1.511   1.076   5.664
 3158SOL    HW110373   1.507   1.085   5.565
 3158SOL    HW210374   1.494   1.166   5.706
 3159SOL     OW10375   6.268   6.888   0.450
 3159SOL    HW110376   6.240   6.923   0.540
 3159SOL    HW210377   6.188   6.864   0.396
 3160SOL     OW10378   1.782   0.431   0.012
 3160SOL    HW110379   1.872   0.417   6.995
 3160SOL    HW210380   1.783   0.398   0.106
 3161SOL     OW10381   2.460   2.278   2.588
 3161SOL    HW110382   2.455   2.367   2.635
 3161SOL    HW210383   2.426   2.207   2.649
 3162SOL     OW10384   2.495   5.537   1.138
 3162SOL    HW110385   2.468   5.442   1.155
 3162SOL    HW210386   2.414   5.596   1.144
 3163SOL     OW10387   4.370   4.549   6.884
 3163SOL    HW110388   4.326   4.485   6.948
 3163SOL    HW210389   4.395   4.499   6.801
 3164SOL     OW10390   2.893   6.228   2.757
 3164SOL    HW110391   2.840   6.163   2.702
 3164SOL    HW210392   2.831   6.276   2.820
 3165SOL     OW10393   0.644   6.491   6.762
 3165SOL    HW110394   0.640   6.467   6.665
 3165SOL    HW210395   0.554   6.479   6.803
 3166SOL     OW10396   4.679   0.536   5.139
 3166SOL    HW110397   4.706   0.626   5.105
 3166SOL    HW210398   4.637   0.546   5.229
 3167SOL     OW10399   5.709   3.498   0.615
 3167SOL    HW110400   5.649   3.578   0.610
 3167SOL    HW210401   5.670   3.424   0.561
 3168SOL     OW10402   4.838   1.998   0.514
 3168SOL    HW110403   4.874   2.078   0.562
 3168SOL    HW210404   4.912   1.933   0.497
 3169SOL     OW10405   1.907   4.536   2.099
 3169SOL    HW110406   1.837   4.470   2.124
 3169SOL    HW210407   1.873   4.596   2.027
 3170SOL     OW10408   2.861   4.899   3.140
 3170SOL    HW110409   2.853   4.809   3.182
 3170SOL    HW210410   2.954   4.912   3.106
 3171SOL     OW10411   5.062   2.619   3.570
 3171SOL    HW110412   5.030   2.525   3.557
 3171SOL    HW210413   4.991   2.682   3.538
 3172SOL     OW10414   6.741   4.436   1.376
 3172SOL    HW110415   6.763   4.386   1.459
 3172SOL    HW210416   6.776   4.530   1.382
 3173SOL     OW10417   3.940   2.813   0.982
 3173SOL    HW110418   3.985   2.889   1.028
 3173SOL    HW210419   3.849   2.799   1.023
 3174SOL     OW10420   2.786   3.921   5.824
 3174SOL    HW110421   2.730   3.849   5.864
 3174SOL    HW210422   2.787   3.911   5.724
 3175SOL     OW10423   6.133   0.701   3.958
 3175SOL    HW110424   6.068   0.777   3.967
 3175SOL    HW210425   6.214   0.732   3.909
 3176SOL     OW10426   1.253   4.725   4.973
 3176SOL    HW110427   1.203   4.668   4.909
 3176SOL    HW210428   1.280   4.670   5.052
 3177SOL     OW10429   5.480   3.326   3.555
 3177SOL    HW110430   5.421   3.260   3.601
 3177SOL    HW210431   5.518   3.389   3.622
 3178SOL     OW10432   6.943   0.322   1.239
 3178SOL    HW110433   6.844   0.336   1.239
 3178SOL    HW210434   6.964   0.230   1.272
 3179SOL     OW10435   1.182   1.628   2.371
 3179SOL    HW110436   1.190   1.669   2.280
 3179SOL    HW210437   1.273   1.623   2.413
 3180SOL     OW10438   6.668   5.864   0.486
 3180SOL    HW110439   6.630   5.803   0.556
 3180SOL    HW210440   6.767   5.850   0.480
 3181SOL     OW10441   1.227   6.990   4.669
 3181SOL    HW110442   1.159   0.019   4.618
 3181SOL    HW210443   1.228   6.897   4.634
 3182SOL     OW10444   2.485   1.262   0.676
 3182SOL    HW110445   2.560   1.319   0.642
 3182SOL    HW210446   2.399   1.297   0.641
 3183SOL     OW10447   4.057   4.641   1.637
 3183SOL    HW110448   4.100   4.555   1.667
 3183SOL    HW210449   3.960   4.639   1.661
 3184SOL     OW10450   0.385   2.074   5.419
 3184SOL    HW110451   0.473   2.053   5.376
 3184SOL    HW210452   0.398   2.145   5.489
 3185SOL     OW10453   0.565   5.231   6.069
 3185SOL    HW110454   0.598   5.232   5.975
 3185SOL    HW210455   0.465   5.232   6.070
 3186SOL     OW10456   0.155   1.763   6.443
 3186SOL    HW110457   0.205   1.822   6.506
 3186SOL    HW210458   0.125   1.681   6.492
 3187SOL     OW10459   3.965   5.859   2.430
 3187SOL    HW110460   3.901   5.863   2.354
 3187SOL    HW210461   4.019   5.943   2.432
 3188SOL     OW10462   2.195   4.905   5.763
 3188SOL    HW110463   2.231   4.826   5.813
 3188SOL    HW210464   2.206   4.987   5.818
 3189SOL     OW10465   3.608   1.750   6.349
 3189SOL    HW110466   3.540   1.811   6.309
 3189SOL    HW210467   3.622   1.775   6.445
 3190SOL     OW10468   6.302   5.874   5.020
 3190SOL    HW110469   6.286   5.793   4.963
 3190SOL    HW210470   6.271   5.856   5.113
 3191SOL     OW10471   4.308   5.670   1.629
 3191SOL    HW110472   4.270   5.752   1.586
 3191SOL    HW210473   4.258   5.590   1.599
 3192SOL     OW10474   6.265   2.210   2.269
 3192SOL    HW110475   6.352   2.230   2.223
 3192SOL    HW210476   6.267   2.247   2.362
 3193SOL     OW10477   3.925   0.236   5.420
 3193SOL    HW110478   3.977   0.161   5.460
 3193SOL    HW210479   3.832   0.206   5.401
 3194SOL     OW10480   1.568   1.023   6.140
 3194SOL    HW110481   1.551   0.993   6.047
 3194SOL    HW210482   1.482   1.043   6.186
 3195SOL     OW10483   0.267   1.965   1.406
 3195SOL    HW110484   0.308   2.027   1.339
 3195SOL    HW210485   0.170   1.951   1.384
 3196SOL     OW10486   6.135   0.032   4.390
 3196SOL    HW110487   6.097   0.111   4.342
 3196SOL    HW210488   6.154   6.984   4.324
 3197SOL     OW10489   1.799   0.709   6.326
 3197SOL    HW110490   1.825   0.691   6.421
 3197SOL    HW210491   1.808   0.807   6.307
 3198SOL     OW10492   5.750   3.007   2.823
 3198SOL    HW110493   5.692   3.002   2.742
 3198SOL    HW210494   5.696   3.041   2.900
 3199SOL     OW10495   5.888   4.505   3.489
 3199SOL    HW110496   5.851   4.471   3.402
 3199SOL    HW210497   5.862   4.444   3.563
 3200SOL     OW10498   5.592   3.182   3.968
 3200SOL    HW110499   5.634   3.137   3.889
 3200SOL    HW210500   5.493   3.186   3.955
 3201SOL     OW10501   5.769   4.380   2.930
 3201SOL    HW110502   5.787   4.414   2.837
 3201SOL    HW210503   5.706   4.441   2.976
 3202SOL     OW10504   1.675   3.866   6.842
 3202SOL    HW110505   1.770   3.855   6.872
 3202SOL    HW210506   1.652   3.963   6.838
 3203SOL     OW10507   3.607   0.265   1.179
 3203SOL    HW110508   3.557   0.347   1.150
 3203SOL    HW210509   3.695   0.293   1.220
 3204SOL     OW10510   2.758   1.456   3.634
 3204SOL    HW110511   2.765   1.470   3.535
 3204SOL    HW210512   2.840   1.492   3.678
 3205SOL     OW10513   5.837   3.227   5.317
 3205SOL    HW110514   5.891   3.150   5.351
 3205SOL    HW210515   5.890   3.312   5.328
 3206SOL     OW10516   2.816   3.202   1.317
 3206SOL    HW110517   2.837   3.168   1.225
 3206SOL    HW210518   2.803   3.125   1.379
 3207SOL     OW10519   1.288   5.883   5.464
 3207SOL    HW110520   1.237   5.890   5.550
 3207SOL    HW210521   1.323   5.790   5.454
 3208SOL     OW10522   6.316   5.240   6.143
 3208SOL    HW110523   6.395   5.295   6.117
 3208SOL    HW210524   6.328   5.205   6.236
 3209SOL     OW10525   5.040   5.679   6.710
 3209SOL    HW110526   4.981   5.647   6.635
 3209SOL    HW210527   5.098   5.753   6.676
 3210SOL     OW10528   6.354   5.251   1.542
 3210SOL    HW110529   6.271   5.196   1.551
 3210SOL    HW210530   6.433   5.190   1.530
 3211SOL     OW10531   0.786   5.159   6.560
 3211SOL    HW110532   0.735   5.191   6.481
 3211SOL    HW210533   0.862   5.101   6.530
 3212SOL     OW10534   2.295   0.223   3.168
 3212SOL    HW110535   2.294   0.316   3.132
 3212SOL    HW210536   2.389   0.194   3.185
 3213SOL     OW10537   1.487   0.543   6.249
 3213SOL    HW110538   1.535   0.566   6.333
 3213SOL    HW210539   1.531   0.588   6.172
 3214SOL     OW10540   3.501   0.682   2.521
 3214SOL    HW110541   3.413   0.725   2.506
 3214SOL    HW210542   3.503   0.642   2.613
 3215SOL     OW10543   1.790   3.477   0.810
 3215SOL    HW110544   1.703   3.526   0.798
 3215SOL    HW210545   1.854   3.535   0.859
 3216SOL     OW10546   5.754   4.242   0.132
 3216SOL    HW110547   5.679   4.196   0.181
 3216SOL    HW210548   5.837   4.238   0.186
 3217SOL     OW10549   0.827   5.721   3.295
 3217SOL    HW110550   0.812   5.696   3.391
 3217SOL    HW210551   0.756   5.785   3.266
 3218SOL     OW10552   6.106   0.827   2.868
 3218SOL    HW110553   6.184   0.814   2.807
 3218SOL    HW210554   6.106   0.920   2.904
 3219SOL     OW10555   5.965   0.657   5.762
 3219SOL    HW110556   5.903   0.589   5.800
 3219SOL    HW210557   5.975   0.733   5.827
 3220SOL     OW10558   6.778   4.711   6.947
 3220SOL    HW110559   6.856   4.667   6.992
 3220SOL    HW210560   6.811   4.785   6.889
 3221SOL     OW10561   3.877   0.648   1.471
 3221SOL    HW110562   3.813   0.708   1.518
 3221SOL    HW210563   3.960   0.639   1.526
 3222SOL     OW10564   3.528   1.415   3.293
 3222SOL    HW110565   3.527   1.514   3.299
 3222SOL    HW210566   3.456   1.384   3.231
 3223SOL     OW10567   1.263   0.020   1.221
 3223SOL    HW110568   1.187   7.002   1.269
 3223SOL    HW210569   1.241   0.027   1.124
 3224SOL     OW10570   4.142   1.983   3.929
 3224SOL    HW110571   4.108   1.968   4.022
 3224SOL    HW210572   4.090   2.057   3.886
 3225SOL     OW10573   4.369   0.335   3.938
 3225SOL    HW110574   4.296   0.268   3.954
 3225SOL    HW210575   4.336   0.426   3.964
 3226SOL     OW10576   0.440   6.723   1.345
 3226SOL    HW110577   0.480   6.813   1.328
 3226SOL    HW210578   0.513   6.657   1.363
 3227SOL     OW10579   4.817   3.683   5.342
 3227SOL    HW110580   4.856   3.677   5.251
 3227SOL    HW210581   4.725   3.642   5.342
 3228SOL     OW10582   1.777   3.986   0.382
 3228SOL    HW110583   1.770   4.053   0.456
 3228SOL    HW210584   1.760   4.031   0.295
 3229SOL     OW10585   1.924   1.472   0.699
 3229SOL    HW110586   1.948   1.566   0.721
 3229SOL    HW210587   1.825   1.459   0.710
 3230SOL     OW10588   2.511   5.824   5.717
 3230SOL    HW110589   2.470   5.886   5.650
 3230SOL    HW210590   2.550   5.745   5.670
 3231SOL     OW10591   2.328   1.220   1.815
 3231SOL    HW110592   2.302   1.222   1.718
 3231SOL    HW210593   2.354   1.312   1.844
 3232SOL     OW10594   4.094   5.619   3.831
 3232SOL    HW110595   4.004   5.578   3.818
 3232SOL    HW210596   4.117   5.675   3.751
 3233SOL     OW10597   0.152   2.336   0.511
 3233SOL    HW110598   0.059   2.356   0.479
 3233SOL    HW210599   0.218   2.384   0.454
 3234SOL     OW10600   2.516   3.110   0.470
 3234SOL    HW110601   2.559   3.097   0.381
 3234SOL    HW210602   2.420   3.137   0.457
 3235SOL     OW10603   0.687   0.022   1.944
 3235SOL    HW110604   0.590   7.025   1.929
 3235SOL    HW210605   0.712   0.001   2.038
 3236SOL     OW10606   3.429   3.346   0.355
 3236SOL    HW110607   3.429   3.248   0.336
 3236SOL    HW210608   3.480   3.364   0.439
 3237SOL     OW10609   5.908   1.031   5.035
 3237SOL    HW110610   5.886   0.934   5.023
 3237SOL    HW210611   5.949   1.066   4.950
 3238SOL     OW10612   6.636   5.437   1.569
 3238SOL    HW110613   6.612   5.343   1.545
 3238SOL    HW210614   6.574   5.470   1.639
 3239SOL     OW10615   6.873   6.999   4.124
 3239SOL    HW110616   6.801   6.950   4.074
 3239SOL    HW210617   6.876   0.069   4.093
 3240SOL     OW10618   0.465   1.118   6.869
 3240SOL    HW110619   0.420   1.047   6.816
 3240SOL    HW210620   0.542   1.155   6.816
 3241SOL     OW10621   5.831   1.861   6.160
 3241SOL    HW110622   5.829   1.774   6.112
 3241SOL    HW210623   5.774   1.928   6.112
 3242SOL     OW10624   5.328   4.547   5.271
 3242SOL    HW110625   5.336   4.472   5.336
 3242SOL    HW210626   5.364   4.631   5.313
 3243SOL     OW10627   5.432   5.129   5.242
 3243SOL    HW110628   5.339   5.113   5.210
 3243SOL    HW210629   5.491   5.155   5.166
 3244SOL     OW10630   5.444   6.519   0.081
 3244SOL    HW110631   5.364   6.477   0.123
 3244SOL    HW210632   5.415   6.594   0.021
 3245SOL     OW10633   4.116   1.247   4.450
 3245SOL    HW110634   4.076   1.247   4.359
 3245SOL    HW210635   4.085   1.166   4.500
 3246SOL     OW10636   6.653   0.648   2.907
 3246SOL    HW110637   6.695   0.728   2.864
 3246SOL    HW210638   6.639   0.667   3.005
 3247SOL     OW10639   0.745   4.158   2.861
 3247SOL    HW110640   0.732   4.143   2.763
 3247SOL    HW210641   0.722   4.074   2.911
 3248SOL     OW10642   5.370   2.320   3.429
 3248SOL    HW110643   5.364   2.285   3.335
 3248SOL    HW210644   5.326   2.255   3.491
 3249SOL     OW10645   2.923   3.815   3.902
 3249SOL    HW110646   2.915   3.860   3.813
 3249SOL    HW210647   2.964   3.725   3.891
 3250SOL     OW10648   5.181   5.450   2.475
 3250SOL    HW110649   5.148   5.514   2.544
 3250SOL    HW210650   5.244   5.385   2.517
 3251SOL     OW10651   2.541   1.102   3.427
 3251SOL    HW110652   2.594   1.019   3.410
 3251SOL    HW210653   2.533   1.118   3.525
 3252SOL     OW10654   2.356   1.479   3.860
 3252SOL    HW110655   2.338   1.562   3.912
 3252SOL    HW210656   2.291   1.408   3.888
 3253SOL     OW10657   6.223   3.621   0.842
 3253SOL    HW110658   6.247   3.693   0.776
 3253SOL    HW210659   6.151   3.564   0.803
 3254SOL     OW10660   5.940   0.415   0.957
 3254SOL    HW110661   5.882   0.475   1.012
 3254SOL    HW210662   5.883   0.349   0.907
 3255SOL     OW10663   5.177   5.757   1.138
 3255SOL    HW110664   5.251   5.774   1.203
 3255SOL    HW210665   5.208   5.691   1.070
 3256SOL     OW10666   5.035   1.903   0.938
 3256SOL    HW110667   5.133   1.912   0.954
 3256SOL    HW210668   5.016   1.910   0.840
 3257SOL     OW10669   2.735   2.345   3.035
 3257SOL    HW110670   2.689   2.256   3.038
 3257SOL    HW210671   2.730   2.383   2.943
 3258SOL     OW10672   2.301   6.190   3.071
 3258SOL    HW110673   2.378   6.126   3.067
 3258SOL    HW210674   2.220   6.142   3.105
 3259SOL     OW10675   4.364   4.610   3.521
 3259SOL    HW110676   4.384   4.602   3.423
 3259SOL    HW210677   4.423   4.547   3.571
 3260SOL     OW10678   1.144   4.281   2.273
 3260SOL    HW110679   1.081   4.213   2.235
 3260SOL    HW210680   1.235   4.268   2.234
 3261SOL     OW10681   4.924   0.155   3.637
 3261SOL    HW110682   5.014   0.131   3.672
 3261SOL    HW210683   4.923   0.148   3.537
 3262SOL     OW10684   3.141   2.114   2.368
 3262SOL    HW110685   3.181   2.102   2.459
 3262SOL    HW210686   3.084   2.196   2.366
 3263SOL     OW10687   0.983   1.287   2.919
 3263SOL    HW110688   0.949   1.266   2.827
 3263SOL    HW210689   0.914   1.338   2.970
 3264SOL     OW10690   2.188   6.068   0.652
 3264SOL    HW110691   2.171   6.160   0.618
 3264SOL    HW210692   2.173   6.065   0.750
 3265SOL     OW10693   5.586   4.712   5.664
 3265SOL    HW110694   5.640   4.632   5.639
 3265SOL    HW210695   5.490   4.696   5.642
 3266SOL     OW10696   3.026   5.162   6.556
 3266SOL    HW110697   2.988   5.244   6.598
 3266SOL    HW210698   3.103   5.187   6.498
 3267SOL     OW10699   4.252   6.992   0.873
 3267SOL    HW110700   4.292   7.008   0.783
 3267SOL    HW210701   4.204   0.050   0.903
 3268SOL     OW10702   6.582   5.167   1.879
 3268SOL    HW110703   6.512   5.102   1.848
 3268SOL    HW210704   6.546   5.220   1.955
 3269SOL     OW10705   1.706   4.826   2.441
 3269SOL    HW110706   1.779   4.817   2.374
 3269SOL    HW210707   1.730   4.774   2.524
 3270SOL     OW10708   0.611   2.544   5.219
 3270SOL    HW110709   0.536   2.524   5.155
 3270SOL    HW210710   0.574   2.576   5.306
 3271SOL     OW10711   0.673   3.440   2.842
 3271SOL    HW110712   0.668   3.364   2.907
 3271SOL    HW210713   0.588   3.445   2.790
 3272SOL     OW10714   4.297   6.487   0.364
 3272SOL    HW110715   4.266   6.415   0.302
 3272SOL    HW210716   4.318   6.447   0.453
 3273SOL     OW10717   4.721   2.455   6.730
 3273SOL    HW110718   4.764   2.383   6.674
 3273SOL    HW210719   4.771   2.465   6.816
 3274SOL     OW10720   5.735   0.280   0.055
 3274SOL    HW110721   5.704   0.369   0.090
 3274SOL    HW210722   5.812   0.248   0.111
 3275SOL     OW10723   4.755   0.466   1.070
 3275SOL    HW110724   4.795   0.558   1.073
 3275SOL    HW210725   4.662   0.470   1.105
 3276SOL     OW10726   4.778   6.809   0.039
 3276SOL    HW110727   4.794   6.809   6.965
 3276SOL    HW210728   4.700   6.868   0.060
 3277SOL     OW10729   3.584   1.852   2.095
 3277SOL    HW110730   3.607   1.861   1.998
 3277SOL    HW210731   3.561   1.942   2.132
 3278SOL     OW10732   6.881   0.020   6.711
 3278SOL    HW110733   6.905   0.010   6.614
 3278SOL    HW210734   6.917   6.968   6.763
 3279SOL     OW10735   3.846   0.264   1.344
 3279SOL    HW110736   3.806   0.181   1.383
 3279SOL    HW210737   3.831   0.341   1.407
 3280SOL     OW10738   5.777   3.284   4.579
 3280SOL    HW110739   5.714   3.356   4.550
 3280SOL    HW210740   5.724   3.206   4.614
 3281SOL     OW10741   6.167   3.606   1.481
 3281SOL    HW110742   6.069   3.619   1.467
 3281SOL    HW210743   6.185   3.591   1.579
 3282SOL     OW10744   0.397   4.620   4.579
 3282SOL    HW110745   0.316   4.621   4.520
 3282SOL    HW210746   0.384   4.686   4.653
 3283SOL     OW10747   3.906   1.696   0.579
 3283SOL    HW110748   3.998   1.721   0.608
 3283SOL    HW210749   3.852   1.779   0.566
 3284SOL     OW10750   1.350   5.681   4.510
 3284SOL    HW110751   1.420   5.632   4.562
 3284SOL    HW210752   1.369   5.672   4.412
 3285SOL     OW10753   4.710   1.478   4.703
 3285SOL    HW110754   4.737   1.456   4.797
 3285SOL    HW210755   4.762   1.420   4.640
 3286SOL     OW10756   2.847   1.316   1.251
 3286SOL    HW110757   2.762   1.265   1.235
 3286SOL    HW210758   2.860   1.328   1.350
 3287SOL     OW10759   2.067   0.527   6.647
 3287SOL    HW110760   2.045   0.527   6.550
 3287SOL    HW210761   2.141   0.593   6.664
 3288SOL     OW10762   2.075   6.674   1.638
 3288SOL    HW110763   2.036   6.711   1.722
 3288SOL    HW210764   2.002   6.642   1.578
 3289SOL     OW10765   4.022   1.534   6.779
 3289SOL    HW110766   4.088   1.463   6.756
 3289SOL    HW210767   4.002   1.588   6.698
 3290SOL     OW10768   6.726   4.760   0.792
 3290SOL    HW110769   6.701   4.841   0.739
 3290SOL    HW210770   6.752   4.787   0.885
 3291SOL     OW10771   4.918   7.007   5.232
 3291SOL    HW110772   4.926   0.011   5.137
 3291SOL    HW210773   4.967   6.921   5.246
 3292SOL     OW10774   6.764   2.261   1.502
 3292SOL    HW110775   6.707   2.294   1.427
 3292SOL    HW210776   6.860   2.280   1.481
 3293SOL     OW10777   5.918   5.056   3.334
 3293SOL    HW110778   5.998   5.072   3.392
 3293SOL    HW210779   5.916   5.123   3.260
 3294SOL     OW10780   5.094   2.434   5.020
 3294SOL    HW110781   5.188   2.463   5.037
 3294SOL    HW210782   5.058   2.389   5.102
 3295SOL     OW10783   1.461   3.045   2.178
 3295SOL    HW110784   1.481   3.049   2.080
 3295SOL    HW210785   1.476   3.135   2.219
 3296SOL     OW10786   1.047   0.026   6.009
 3296SOL    HW110787   1.069   0.056   5.916
 3296SOL    HW210788   1.127   7.007   6.049
 3297SOL     OW10789   3.155   1.453   4.617
 3297SOL    HW110790   3.192   1.439   4.708
 3297SOL    HW210791   3.116   1.367   4.583
 3298SOL     OW10792   5.313   4.184   5.669
 3298SOL    HW110793   5.380   4.122   5.629
 3298SOL    HW210794   5.256   4.135   5.735
 3299SOL     OW10795   2.703   4.687   4.524
 3299SOL    HW110796   2.670   4.717   4.435
 3299SOL    HW210797   2.626   4.649   4.576
 3300SOL     OW10798   1.969   0.122   4.231
 3300SOL    HW110799   1.953   0.158   4.323
 3300SOL    HW210800   2.034   0.045   4.236
 3301SOL     OW10801   1.968   1.979   3.332
 3301SOL    HW110802   1.993   1.883   3.346
 3301SOL    HW210803   2.043   2.026   3.285
 3302SOL     OW10804   2.296   4.898   6.261
 3302SOL    HW110805   2.354   4.841   6.203
 3302SOL    HW210806   2.352   4.970   6.304
 3303SOL     OW10807   3.472   3.142   7.000
 3303SOL    HW110808   3.543   3.177   0.037
 3303SOL    HW210809   3.383   3.176   0.005
 3304SOL     OW10810   2.594   4.856   6.076
 3304SOL    HW110811   2.682   4.823   6.043
 3304SOL    HW210812   2.548   4.783   6.128
 3305SOL     OW10813   3.360   1.422   0.604
 3305SOL    HW110814   3.367   1.393   0.508
 3305SOL    HW210815   3.440   1.390   0.654
 3306SOL     OW10816   1.842   0.595   0.437
 3306SOL    HW110817   1.830   0.566   0.532
 3306SOL    HW210818   1.913   0.666   0.433
 3307SOL     OW10819   1.479   0.434   4.808
 3307SOL    HW110820   1.541   0.437   4.887
 3307SOL    HW210821   1.531   0.449   4.724
 3308SOL     OW10822   3.741   4.230   1.134
 3308SOL    HW110823   3.704   4.157   1.192
 3308SOL    HW210824   3.840   4.232   1.142
 3309SOL     OW10825   5.868   3.534   3.376
 3309SOL    HW110826   5.853   3.603   3.446
 3309SOL    HW210827   5.929   3.571   3.306
 3310SOL     OW10828   6.549   5.218   5.563
 3310SOL    HW110829   6.501   5.255   5.483
 3310SOL    HW210830   6.609   5.144   5.533
 3311SOL     OW10831   3.469   3.756   0.348
 3311SOL    HW110832   3.472   3.844   0.300
 3311SOL    HW210833   3.485   3.682   0.282
 3312SOL     OW10834   4.467   2.831   5.909
 3312SOL    HW110835   4.499   2.756   5.851
 3312SOL    HW210836   4.542   2.864   5.966
 3313SOL     OW10837   1.508   0.779   3.145
 3313SOL    HW110838   1.478   0.753   3.237
 3313SOL    HW210839   1.608   0.783   3.142
 3314SOL     OW10840   2.200   5.808   2.212
 3314SOL    HW110841   2.103   5.787   2.199
 3314SOL    HW210842   2.215   5.838   2.306
 3315SOL     OW10843   0.060   4.805   5.387
 3315SOL    HW110844   0.033   4.813   5.291
 3315SOL    HW210845   7.011   4.763   5.439
 3316SOL     OW10846   3.437   1.590   6.198
 3316SOL    HW110847   3.447   1.646   6.116
 3316SOL    HW210848   3.489   1.632   6.273
 3317SOL     OW10849   5.696   2.673   2.843
 3317SOL    HW110850   5.598   2.672   2.863
 3317SOL    HW210851   5.745   2.714   2.921
 3318SOL     OW10852   2.838   2.746   0.485
 3318SOL    HW110853   2.919   2.729   0.542
 3318SOL    HW210854   2.780   2.814   0.530
 3319SOL     OW10855   6.888   6.589   3.287
 3319SOL    HW110856   6.849   6.679   3.306
 3319SOL    HW210857   6.923   6.550   3.372
 3320SOL     OW10858   6.119   0.276   1.156
 3320SOL    HW110859   6.192   0.249   1.093
 3320SOL    HW210860   6.062   0.346   1.113
 3321SOL     OW10861   5.132   1.278   6.936
 3321SOL    HW110862   5.184   1.198   6.906
 3321SOL    HW210863   5.066   1.250   7.006
 3322SOL     OW10864   6.706   3.856   1.182
 3322SOL    HW110865   6.679   3.814   1.268
 3322SOL    HW210866   6.762   3.936   1.200
 3323SOL     OW10867   1.517   1.779   2.080
 3323SOL    HW110868   1.613   1.770   2.104
 3323SOL    HW210869   1.469   1.828   2.152
 3324SOL     OW10870   5.264   5.439   5.758
 3324SOL    HW110871   5.347   5.390   5.732
 3324SOL    HW210872   5.207   5.454   5.677
 3325SOL     OW10873   1.503   3.350   6.561
 3325SOL    HW110874   1.518   3.421   6.630
 3325SOL    HW210875   1.585   3.292   6.555
 3326SOL     OW10876   4.655   0.904   2.862
 3326SOL    HW110877   4.662   0.860   2.952
 3326SOL    HW210878   4.718   0.982   2.858
 3327SOL     OW10879   1.389   5.926   1.175
 3327SOL    HW110880   1.329   5.923   1.095
 3327SOL    HW210881   1.334   5.920   1.258
 3328SOL     OW10882   4.545   2.278   0.402
 3328SOL    HW110883   4.636   2.321   0.407
 3328SOL    HW210884   4.475   2.348   0.413
 3329SOL     OW10885   5.882   5.360   5.647
 3329SOL    HW110886   5.803   5.397   5.697
 3329SOL    HW210887   5.902   5.268   5.682
 3330SOL     OW10888   6.410   3.570   2.642
 3330SOL    HW110889   6.339   3.610   2.584
 3330SOL    HW210890   6.455   3.496   2.593
 3331SOL     OW10891   2.242   2.940   1.650
 3331SOL    HW110892   2.246   3.004   1.574
 3331SOL    HW210893   2.248   2.989   1.736
 3332SOL     OW10894   6.042   4.265   0.546
 3332SOL    HW110895   5.945   4.285   0.530
 3332SOL    HW210896   6.068   4.295   0.638
 3333SOL     OW10897   4.312   4.977   5.622
 3333SOL    HW110898   4.297   4.909   5.550
 3333SOL    HW210899   4.304   4.934   5.712
 3334SOL     OW10900   2.447   4.488   1.803
 3334SOL    HW110901   2.499   4.441   1.731
 3334SOL    HW210902   2.358   4.445   1.813
 3335SOL     OW10903   4.726   4.235   5.489
 3335SOL    HW110904   4.694   4.265   5.579
 3335SOL    HW210905   4.737   4.136   5.489
 3336SOL     OW10906   3.572   5.061   5.992
 3336SOL    HW110907   3.475   5.045   6.016
 3336SOL    HW210908   3.588   5.159   5.984
 3337SOL     OW10909   3.249   2.271   1.238
 3337SOL    HW110910   3.204   2.303   1.322
 3337SOL    HW210911   3.348   2.269   1.251
 3338SOL     OW10912   0.145   4.278   0.931
 3338SOL    HW110913   0.177   4.341   0.860
 3338SOL    HW210914   0.056   4.308   0.965
 3339SOL     OW10915   6.870   6.030   6.895
 3339SOL    HW110916   6.799   6.021   6.825
 3339SOL    HW210917   6.839   6.095   6.964
 3340SOL     OW10918   3.266   6.489   1.456
 3340SOL    HW110919   3.339   6.436   1.500
 3340SOL    HW210920   3.305   6.570   1.413
 3341SOL     OW10921   0.495   0.970   2.836
 3341SOL    HW110922   0.592   0.980   2.858
 3341SOL    HW210923   0.447   0.931   2.914
 3342SOL     OW10924   2.043   6.563   4.317
 3342SOL    HW110925   2.071   6.585   4.224
 3342SOL    HW210926   1.944   6.576   4.326
 3343SOL     OW10927   5.268   2.872   0.604
 3343SOL    HW110928   5.357   2.916   0.618
 3343SOL    HW210929   5.278   2.774   0.615
 3344SOL     OW10930   6.423   3.048   5.793
 3344SOL    HW110931   6.363   2.984   5.747
 3344SOL    HW210932   6.419   3.137   5.748
 3345SOL     OW10933   2.942   3.431   6.035
 3345SOL    HW110934   2.991   3.345   6.050
 3345SOL    HW210935   2.870   3.442   6.103
 3346SOL     OW10936   0.377   0.510   1.476
 3346SOL    HW110937   0.475   0.495   1.489
 3346SOL    HW210938   0.362   0.598   1.433
 3347SOL     OW10939   5.618   3.784   4.877
 3347SOL    HW110940   5.706   3.757   4.840
 3347SOL    HW210941   5.557   3.705   4.880
 3348SOL     OW10942   3.577   2.949   3.879
 3348SOL    HW110943   3.648   2.896   3.926
 3348SOL    HW210944   3.554   3.030   3.934
 3349SOL     OW10945   6.173   3.760   4.550
 3349SOL    HW110946   6.114   3.705   4.491
 3349SOL    HW210947   6.208   3.704   4.625
 3350SOL     OW10948   1.473   1.353   1.076
 3350SOL    HW110949   1.539   1.423   1.103
 3350SOL    HW210950   1.380   1.388   1.089
 3351SOL     OW10951   5.166   1.648   1.298
 3351SOL    HW110952   5.150   1.716   1.369
 3351SOL    HW210953   5.131   1.560   1.328
 3352SOL     OW10954   0.688   3.138   1.024
 3352SOL    HW110955   0.758   3.144   1.095
 3352SOL    HW210956   0.611   3.198   1.048
 3353SOL     OW10957   2.016   0.064   6.151
 3353SOL    HW110958   2.071   0.142   6.181
 3353SOL    HW210959   2.049   7.006   6.195
 3354SOL     OW10960   0.582   2.670   3.584
 3354SOL    HW110961   0.679   2.685   3.605
 3354SOL    HW210962   0.527   2.684   3.666
 3355SOL     OW10963   6.394   1.207   2.762
 3355SOL    HW110964   6.397   1.129   2.700
 3355SOL    HW210965   6.357   1.178   2.850
 3356SOL     OW10966   2.777   3.884   0.310
 3356SOL    HW110967   2.740   3.792   0.319
 3356SOL    HW210968   2.732   3.932   0.235
 3357SOL     OW10969   2.948   5.023   2.351
 3357SOL    HW110970   3.006   5.050   2.274
 3357SOL    HW210971   2.880   5.094   2.367
 3358SOL     OW10972   4.827   5.818   2.213
 3358SOL    HW110973   4.875   5.732   2.194
 3358SOL    HW210974   4.728   5.803   2.210
 3359SOL     OW10975   2.203   0.987   2.791
 3359SOL    HW110976   2.109   0.968   2.762
 3359SOL    HW210977   2.263   0.914   2.758
 3360SOL     OW10978   0.848   0.733   0.321
 3360SOL    HW110979   0.760   0.755   0.278
 3360SOL    HW210980   0.922   0.752   0.256
 3361SOL     OW10981   6.282   6.349   2.924
 3361SOL    HW110982   6.282   6.403   2.840
 3361SOL    HW210983   6.194   6.301   2.932
 3362SOL     OW10984   1.918   0.886   5.596
 3362SOL    HW110985   1.903   0.844   5.686
 3362SOL    HW210986   1.938   0.814   5.529
 3363SOL     OW10987   0.061   1.726   0.040
 3363SOL    HW110988   0.019   1.745   0.129
 3363SOL    HW210989   0.045   1.803   7.003
 3364SOL     OW10990   1.820   5.002   6.348
 3364SOL    HW110991   1.737   4.970   6.303
 3364SOL    HW210992   1.831   4.954   6.435
 3365SOL     OW10993   6.234   1.956   4.777
 3365SOL    HW110994   6.143   1.925   4.748
 3365SOL    HW210995   6.243   2.054   4.760
 3366SOL     OW10996   5.323   0.686   5.714
 3366SOL    HW110997   5.411   0.661   5.675
 3366SOL    HW210998   5.307   0.633   5.798
 3367SOL     OW10999   1.300   1.175   2.492
 3367SOL    HW111000   1.350   1.254   2.527
 3367SOL    HW211001   1.286   1.184   2.394
 3368SOL     OW11002   6.361   5.920   6.078
 3368SOL    HW111003   6.346   5.829   6.039
 3368SOL    HW211004   6.419   5.973   6.016
 3369SOL     OW11005   4.194   0.338   6.817
 3369SOL    HW111006   4.239   0.393   6.747
 3369SOL    HW211007   4.260   0.273   6.855
 3370SOL     OW11008   6.230   6.387   5.340
 3370SOL    HW111009   6.172   6.404   5.260
 3370SOL    HW211010   6.182   6.326   5.403
 3371SOL     OW11011   0.373   5.440   2.152
 3371SOL    HW111012   0.320   5.524   2.143
 3371SOL    HW211013   0.458   5.448   2.101
 3372SOL     OW11014   0.837   0.485   2.925
 3372SOL    HW111015   0.739   0.498   2.933
 3372SOL    HW211016   0.858   0.425   2.848
 3373SOL     OW11017   6.337   2.069   5.075
 3373SOL    HW111018   6.305   2.041   4.984
 3373SOL    HW211019   6.269   2.045   5.144
 3374SOL     OW11020   2.661   5.165   5.965
 3374SOL    HW111021   2.604   5.102   5.912
 3374SOL    HW211022   2.723   5.214   5.903
 3375SOL     OW11023   4.436   4.448   5.455
 3375SOL    HW111024   4.524   4.419   5.495
 3375SOL    HW211025   4.376   4.480   5.528
 3376SOL     OW11026   3.145   3.622   2.165
 3376SOL    HW111027   3.137   3.683   2.086
 3376SOL    HW211028   3.235   3.635   2.208
 3377SOL     OW11029   1.566   6.199   5.204
 3377SOL    HW111030   1.545   6.121   5.264
 3377SOL    HW211031   1.533   6.283   5.247
 3378SOL     OW11032   6.786   1.684   1.423
 3378SOL    HW111033   6.865   1.623   1.425
 3378SOL    HW211034   6.751   1.691   1.330
 3379SOL     OW11035   0.598   4.458   5.563
 3379SOL    HW111036   0.643   4.392   5.623
 3379SOL    HW211037   0.502   4.466   5.587
 3380SOL     OW11038   6.813   4.477   6.731
 3380SOL    HW111039   6.858   4.516   6.811
 3380SOL    HW211040   6.856   4.512   6.648
 3381SOL     OW11041   3.164   2.706   0.451
 3381SOL    HW111042   3.123   2.619   0.423
 3381SOL    HW211043   3.217   2.691   0.535
 3382SOL     OW11044   0.165   1.565   1.261
 3382SOL    HW111045   0.192   1.640   1.322
 3382SOL    HW211046   0.230   1.558   1.186
 3383SOL     OW11047   5.731   4.908   2.895
 3383SOL    HW111048   5.715   4.907   2.796
 3383SOL    HW211049   5.643   4.906   2.942
 3384SOL     OW11050   3.648   2.914   4.476
 3384SOL    HW111051   3.684   2.901   4.569
 3384SOL    HW211052   3.581   2.989   4.477
 3385SOL     OW11053   6.342   3.915   3.656
 3385SOL    HW111054   6.421   3.909   3.595
 3385SOL    HW211055   6.318   3.824   3.688
 3386SOL     OW11056   5.954   4.908   5.511
 3386SOL    HW111057   5.881   4.854   5.469
 3386SOL    HW211058   5.916   4.996   5.542
 3387SOL     OW11059   2.475   2.180   3.283
 3387SOL    HW111060   2.496   2.140   3.194
 3387SOL    HW211061   2.544   2.249   3.305
 3388SOL     OW11062   5.448   1.766   1.631
 3388SOL    HW111063   5.385   1.720   1.694
 3388SOL    HW211064   5.426   1.863   1.627
 3389SOL     OW11065   5.055   4.726   3.397
 3389SOL    HW111066   5.033   4.634   3.429
 3389SOL    HW211067   4.995   4.752   3.322
 3390SOL     OW11068   4.932   2.998   5.660
 3390SOL    HW111069   4.840   3.036   5.654
 3390SOL    HW211070   4.988   3.056   5.719
 3391SOL     OW11071   4.016   2.122   4.889
 3391SOL    HW111072   4.019   2.196   4.956
 3391SOL    HW211073   4.050   2.156   4.801
 3392SOL     OW11074   3.247   0.707   3.852
 3392SOL    HW111075   3.303   0.634   3.814
 3392SOL    HW211076   3.207   0.760   3.777
 3393SOL     OW11077   6.847   6.494   6.991
 3393SOL    HW111078   6.875   6.533   0.054
 3393SOL    HW211079   6.848   6.394   6.997
 3394SOL     OW11080   6.023   2.543   1.314
 3394SOL    HW111081   6.032   2.533   1.215
 3394SOL    HW211082   5.958   2.475   1.348
 3395SOL     OW11083   0.808   3.272   4.394
 3395SOL    HW111084   0.722   3.253   4.346
 3395SOL    HW211085   0.814   3.216   4.476
 3396SOL     OW11086   0.004   3.845   3.828
 3396SOL    HW111087   0.000   3.926   3.885
 3396SOL    HW211088   0.068   3.860   3.753
 3397SOL     OW11089   3.728   6.442   6.281
 3397SOL    HW111090   3.822   6.437   6.316
 3397SOL    HW211091   3.696   6.350   6.260
 3398SOL     OW11092   1.406   6.819   3.993
 3398SOL    HW111093   1.347   6.741   3.973
 3398SOL    HW211094   1.476   6.792   4.059
 3399SOL     OW11095   5.083   4.863   3.668
 3399SOL    HW111096   5.086   4.801   3.746
 3399SOL    HW211097   5.076   4.811   3.583
 3400SOL     OW11098   4.903   2.168   6.700
 3400SOL    HW111099   4.867   2.170   6.793
 3400SOL    HW211100   4.998   2.198   6.700
 3401SOL     OW11101   5.982   4.171   0.299
 3401SOL    HW111102   5.959   4.077   0.324
 3401SOL    HW211103   6.043   4.210   0.367
 3402SOL     OW11104   5.555   5.591   1.303
 3402SOL    HW111105   5.572   5.502   1.344
 3402SOL    HW211106   5.630   5.654   1.326
 3403SOL     OW11107   3.751   0.691   5.172
 3403SOL    HW111108   3.835   0.662   5.127
 3403SOL    HW211109   3.763   0.784   5.208
 3404SOL     OW11110   4.657   1.058   0.470
 3404SOL    HW111111   4.698   0.966   0.476
 3404SOL    HW211112   4.558   1.049   0.461
 3405SOL     OW11113   6.619   3.734   6.469
 3405SOL    HW111114   6.616   3.653   6.411
 3405SOL    HW211115   6.645   3.813   6.414
 3406SOL     OW11116   2.065   3.754   2.389
 3406SOL    HW111117   1.969   3.737   2.413
 3406SOL    HW211118   2.091   3.693   2.315
 3407SOL     OW11119   1.173   5.686   2.043
 3407SOL    HW111120   1.145   5.781   2.053
 3407SOL    HW211121   1.155   5.637   2.128
 3408SOL     OW11122   5.290   4.200   2.033
 3408SOL    HW111123   5.225   4.126   2.015
 3408SOL    HW211124   5.346   4.176   2.113
 3409SOL     OW11125   3.302   0.179   6.115
 3409SOL    HW111126   3.285   0.085   6.145
 3409SOL    HW211127   3.216   0.223   6.092
 3410SOL     OW11128   6.487   6.522   0.288
 3410SOL    HW111129   6.436   6.603   0.261
 3410SOL    HW211130   6.438   6.440   0.259
 3411SOL     OW11131   4.539   1.551   2.887
 3411SOL    HW111132   4.539   1.639   2.839
 3411SOL    HW211133   4.568   1.565   2.981
 3412SOL     OW11134   3.672   4.329   0.070
 3412SOL    HW111135   3.708   4.265   0.137
 3412SOL    HW211136   3.686   4.291   7.003
 3413SOL     OW11137   3.594   1.209   3.465
 3413SOL    HW111138   3.515   1.199   3.525
 3413SOL    HW211139   3.576   1.278   3.395
 3414SOL     OW11140   3.004   2.176   5.297
 3414SOL    HW111141   3.049   2.169   5.386
 3414SOL    HW211142   3.048   2.248   5.244
 3415SOL     OW11143   0.669   4.682   4.022
 3415SOL    HW111144   0.683   4.702   3.925
 3415SOL    HW211145   0.753   4.643   4.061
 3416SOL     OW11146   0.563   5.294   5.226
 3416SOL    HW111147   0.632   5.265   5.292
 3416SOL    HW211148   0.567   5.393   5.215
 3417SOL     OW11149   0.218   6.865   2.489
 3417SOL    HW111150   0.126   6.849   2.451
 3417SOL    HW211151   0.281   6.887   2.415
 3418SOL     OW11152   3.115   1.456   5.317
 3418SOL    HW111153   3.040   1.465   5.381
 3418SOL    HW211154   3.081   1.419   5.230
 3419SOL     OW11155   4.122   4.688   6.728
 3419SOL    HW111156   4.109   4.594   6.759
 3419SOL    HW211157   4.060   4.707   6.651
 3420SOL     OW11158   4.516   2.139   3.693
 3420SOL    HW111159   4.431   2.187   3.670
 3420SOL    HW211160   4.496   2.042   3.707
 3421SOL     OW11161   0.080   5.712   5.751
 3421SOL    HW111162   7.020   5.745   5.709
 3421SOL    HW211163   0.072   5.614   5.768
 3422SOL     OW11164   3.563   0.891   1.261
 3422SOL    HW111165   3.487   0.846   1.308
 3422SOL    HW211166   3.590   0.837   1.181
 3423SOL     OW11167   2.436   1.050   0.869
 3423SOL    HW111168   2.344   1.078   0.897
 3423SOL    HW211169   2.478   1.123   0.815
 3424SOL     OW11170   4.405   1.101   2.436
 3424SOL    HW111171   4.435   1.032   2.501
 3424SOL    HW211172   4.307   1.120   2.449
 3425SOL     OW11173   4.820   4.478   1.826
 3425SOL    HW111174   4.846   4.470   1.922
 3425SOL    HW211175   4.809   4.574   1.801
 3426SOL     OW11176   4.034   3.644   0.644
 3426SOL    HW111177   4.119   3.605   0.679
 3426SOL    HW211178   4.055   3.715   0.577
 3427SOL     OW11179   0.013   1.017   0.283
 3427SOL    HW111180   7.023   0.922   0.256
 3427SOL    HW211181   0.016   1.074   0.201
 3428SOL     OW11182   4.126   4.737   2.203
 3428SOL    HW111183   4.154   4.708   2.112
 3428SOL    HW211184   4.064   4.815   2.196
 3429SOL     OW11185   1.222   3.185   0.848
 3429SOL    HW111186   1.272   3.222   0.769
 3429SOL    HW211187   1.285   3.131   0.905
 3430SOL     OW11188   1.794   0.027   0.569
 3430SOL    HW111189   1.774   0.122   0.591
 3430SOL    HW211190   1.711   7.008   0.534
 3431SOL     OW11191   1.409   6.146   0.682
 3431SOL    HW111192   1.400   6.119   0.778
 3431SOL    HW211193   1.418   6.246   0.677
 3432SOL     OW11194   3.427   1.293   5.836
 3432SOL    HW111195   3.500   1.360   5.852
 3432SOL    HW211196   3.366   1.326   5.765
 3433SOL     OW11197   3.591   1.107   4.932
 3433SOL    HW111198   3.606   1.177   5.003
 3433SOL    HW211199   3.539   1.031   4.971
 3434SOL     OW11200   4.633   2.781   1.754
 3434SOL    HW111201   4.634   2.877   1.780
 3434SOL    HW211202   4.667   2.725   1.830
 3435SOL     OW11203   0.342   2.235   2.436
 3435SOL    HW111204   0.256   2.232   2.486
 3435SOL    HW211205   0.418   2.241   2.501
 3436SOL     OW11206   4.694   6.897   4.897
 3436SOL    HW111207   4.702   6.996   4.881
 3436SOL    HW211208   4.784   6.855   4.888
 3437SOL     OW11209   4.027   6.977   5.025
 3437SOL    HW111210   4.037   0.031   5.085
 3437SOL    HW211211   4.115   6.956   4.982
 3438SOL     OW11212   1.346   2.842   6.305
 3438SOL    HW111213   1.328   2.940   6.290
 3438SOL    HW211214   1.427   2.831   6.363
 3439SOL     OW11215   2.839   6.858   4.631
 3439SOL    HW111216   2.870   6.766   4.609
 3439SOL    HW211217   2.739   6.860   4.632
 3440SOL     OW11218   4.729   3.439   1.016
 3440SOL    HW111219   4.743   3.342   1.000
 3440SOL    HW211220   4.785   3.469   1.094
 3441SOL     OW11221   3.592   6.909   3.532
 3441SOL    HW111222   3.566   6.832   3.591
 3441SOL    HW211223   3.630   6.982   3.588
 3442SOL     OW11224   1.911   5.106   3.306
 3442SOL    HW111225   1.991   5.139   3.357
 3442SOL    HW211226   1.831   5.160   3.332
 3443SOL     OW11227   5.382   1.700   3.056
 3443SOL    HW111228   5.416   1.744   2.972
 3443SOL    HW211229   5.426   1.611   3.066
 3444SOL     OW11230   5.001   5.053   6.904
 3444SOL    HW111231   5.070   5.103   6.958
 3444SOL    HW211232   5.036   5.039   6.811
 3445SOL     OW11233   6.508   4.603   3.984
 3445SOL    HW111234   6.604   4.574   3.990
 3445SOL    HW211235   6.493   4.648   3.896
 3446SOL     OW11236   4.146   0.219   2.916
 3446SOL    HW111237   4.199   0.134   2.910
 3446SOL    HW211238   4.206   0.295   2.941
 3447SOL     OW11239   5.797   6.129   0.243
 3447SOL    HW111240   5.846   6.049   0.208
 3447SOL    HW211241   5.858   6.208   0.245
 3448SOL     OW11242   3.331   1.122   1.181
 3448SOL    HW111243   3.418   1.171   1.175
 3448SOL    HW211244   3.258   1.187   1.204
 3449SOL     OW11245   6.956   0.330   2.242
 3449SOL    HW111246   6.872   0.279   2.222
 3449SOL    HW211247   0.010   0.277   2.210
 3450SOL     OW11248   0.904   1.770   1.805
 3450SOL    HW111249   0.832   1.772   1.874
 3450SOL    HW211250   0.962   1.851   1.815
 3451SOL     OW11251   1.364   5.375   4.006
 3451SOL    HW111252   1.321   5.457   4.046
 3451SOL    HW211253   1.353   5.298   4.069
 3452SOL     OW11254   6.248   0.651   0.205
 3452SOL    HW111255   6.154   0.671   0.178
 3452SOL    HW211256   6.293   0.736   0.234
 3453SOL     OW11257   5.749   5.587   4.940
 3453SOL    HW111258   5.804   5.509   4.969
 3453SOL    HW211259   5.720   5.640   5.020
 3454SOL     OW11260   1.082   1.201   1.244
 3454SOL    HW111261   1.161   1.148   1.212
 3454SOL    HW211262   0.998   1.149   1.229
 3455SOL     OW11263   1.676   3.125   4.448
 3455SOL    HW111264   1.756   3.065   4.446
 3455SOL    HW211265   1.596   3.076   4.413
 3456SOL     OW11266   5.682   7.025   1.557
 3456SOL    HW111267   5.703   6.964   1.634
 3456SOL    HW211268   5.679   6.972   1.473
 3457SOL     OW11269   2.827   5.061   3.412
 3457SOL    HW111270   2.925   5.045   3.403
 3457SOL    HW211271   2.811   5.147   3.462
 3458SOL     OW11272   5.916   6.680   0.469
 3458SOL    HW111273   5.911   6.759   0.407
 3458SOL    HW211274   6.010   6.645   0.470
 3459SOL     OW11275   0.290   4.249   3.482
 3459SOL    HW111276   0.382   4.228   3.515
 3459SOL    HW211277   0.235   4.285   3.557
 3460SOL     OW11278   3.840   2.608   0.151
 3460SOL    HW111279   3.839   2.527   0.093
 3460SOL    HW211280   3.768   2.601   0.220
 3461SOL     OW11281   3.754   5.403   4.620
 3461SOL    HW111282   3.826   5.428   4.556
 3461SOL    HW211283   3.754   5.304   4.633
 3462SOL     OW11284   4.902   3.610   2.636
 3462SOL    HW111285   4.815   3.651   2.663
 3462SOL    HW211286   4.927   3.539   2.701
 3463SOL     OW11287   2.094   3.262   1.977
 3463SOL    HW111288   2.150   3.339   1.947
 3463SOL    HW211289   2.031   3.292   2.049
 3464SOL     OW11290   5.114   3.420   6.191
 3464SOL    HW111291   5.015   3.405   6.192
 3464SOL    HW211292   5.152   3.389   6.103
 3465SOL     OW11293   2.197   3.730   1.832
 3465SOL    HW111294   2.212   3.642   1.876
 3465SOL    HW211295   2.099   3.749   1.827
 3466SOL     OW11296   5.359   4.296   4.844
 3466SOL    HW111297   5.442   4.351   4.836
 3466SOL    HW211298   5.348   4.265   4.939
 3467SOL     OW11299   2.968   2.694   0.827
 3467SOL    HW111300   3.028   2.624   0.867
 3467SOL    HW211301   2.916   2.739   0.899
 3468SOL     OW11302   4.631   1.348   1.574
 3468SOL    HW111303   4.662   1.276   1.636
 3468SOL    HW211304   4.581   1.417   1.626
 3469SOL     OW11305   4.698   6.888   6.099
 3469SOL    HW111306   4.605   6.922   6.118
 3469SOL    HW211307   4.719   6.904   6.002
 3470SOL     OW11308   0.358   2.378   1.553
 3470SOL    HW111309   0.427   2.306   1.554
 3470SOL    HW211310   0.361   2.426   1.465
 3471SOL     OW11311   4.160   4.714   2.786
 3471SOL    HW111312   4.255   4.685   2.773
 3471SOL    HW211313   4.101   4.667   2.720
 3472SOL     OW11314   4.318   2.339   3.176
 3472SOL    HW111315   4.232   2.289   3.176
 3472SOL    HW211316   4.300   2.435   3.199
 3473SOL     OW11317   0.296   4.139   3.848
 3473SOL    HW111318   0.280   4.139   3.947
 3473SOL    HW211319   0.268   4.050   3.811
 3474SOL     OW11320   6.783   4.958   4.507
 3474SOL    HW111321   6.731   5.008   4.576
 3474SOL    HW211322   6.793   4.862   4.535
 3475SOL     OW11323   6.830   4.685   4.534
 3475SOL    HW111324   6.798   4.616   4.600
 3475SOL    HW211325   6.918   4.656   4.496
 3476SOL     OW11326   1.790   1.622   3.608
 3476SOL    HW111327   1.730   1.637   3.529
 3476SOL    HW211328   1.735   1.593   3.686
 3477SOL     OW11329   0.362   3.835   1.757
 3477SOL    HW111330   0.399   3.915   1.711
 3477SOL    HW211331   0.276   3.809   1.713
 3478SOL     OW11332   2.386   0.355   0.328
 3478SOL    HW111333   2.315   0.420   0.303
 3478SOL    HW211334   2.397   0.287   0.256
 3479SOL     OW11335   0.416   3.023   3.418
 3479SOL    HW111336   0.326   3.013   3.461
 3479SOL    HW211337   0.469   3.092   3.467
 3480SOL     OW11338   1.421   5.832   6.622
 3480SOL    HW111339   1.515   5.813   6.594
 3480SOL    HW211340   1.361   5.826   6.542
 3481SOL     OW11341   5.974   0.283   0.197
 3481SOL    HW111342   6.002   0.378   0.180
 3481SOL    HW211343   6.047   0.236   0.248
 3482SOL     OW11344   6.216   2.621   4.226
 3482SOL    HW111345   6.161   2.669   4.158
 3482SOL    HW211346   6.228   2.679   4.307
 3483SOL     OW11347   4.579   2.204   3.381
 3483SOL    HW111348   4.546   2.125   3.433
 3483SOL    HW211349   4.560   2.288   3.432
 3484SOL     OW11350   1.885   3.261   6.114
 3484SOL    HW111351   1.794   3.218   6.111
 3484SOL    HW211352   1.929   3.251   6.024
 3485SOL     OW11353   6.694   1.493   5.546
 3485SOL    HW111354   6.631   1.562   5.509
 3485SOL    HW211355   6.681   1.406   5.497
 3486SOL     OW11356   2.243   6.925   4.852
 3486SOL    HW111357   2.320   6.937   4.916
 3486SOL    HW211358   2.258   6.983   4.772
 3487SOL     OW11359   5.814   1.601   6.795
 3487SOL    HW111360   5.817   1.659   6.714
 3487SOL    HW211361   5.898   1.546   6.800
 3488SOL     OW11362   5.772   0.183   4.564
 3488SOL    HW111363   5.849   0.122   4.583
 3488SOL    HW211364   5.726   0.154   4.480
 3489SOL     OW11365   3.022   0.222   1.345
 3489SOL    HW111366   3.051   0.276   1.266
 3489SOL    HW211367   2.933   0.181   1.325
 3490SOL     OW11368   4.048   4.720   0.953
 3490SOL    HW111369   4.026   4.804   0.904
 3490SOL    HW211370   4.106   4.662   0.896
 3491SOL     OW11371   5.130   3.809   0.085
 3491SOL    HW111372   5.200   3.784   0.152
 3491SOL    HW211373   5.062   3.737   0.079
 3492SOL     OW11374   6.237   3.936   2.765
 3492SOL    HW111375   6.295   3.931   2.684
 3492SOL    HW211376   6.223   4.032   2.789
 3493SOL     OW11377   6.169   3.690   4.133
 3493SOL    HW111378   6.153   3.699   4.035
 3493SOL    HW211379   6.084   3.706   4.183
 3494SOL     OW11380   3.022   1.859   2.547
 3494SOL    HW111381   3.000   1.762   2.549
 3494SOL    HW211382   2.948   1.909   2.502
 3495SOL     OW11383   1.111   3.832   1.717
 3495SOL    HW111384   1.140   3.783   1.799
 3495SOL    HW211385   1.158   3.793   1.637
 3496SOL     OW11386   6.453   4.957   0.378
 3496SOL    HW111387   6.360   4.921   0.379
 3496SOL    HW211388   6.518   4.881   0.376
 3497SOL     OW11389   4.372   0.430   3.019
 3497SOL    HW111390   4.295   0.474   3.065
 3497SOL    HW211391   4.436   0.500   2.986
 3498SOL     OW11392   2.389   1.429   1.973
 3498SOL    HW111393   2.427   1.506   1.922
 3498SOL    HW211394   2.353   1.461   2.061
 3499SOL     OW11395   6.181   5.729   5.558
 3499SOL    HW111396   6.169   5.818   5.601
 3499SOL    HW211397   6.149   5.657   5.620
 3500SOL     OW11398   1.577   1.348   4.124
 3500SOL    HW111399   1.628   1.270   4.162
 3500SOL    HW211400   1.479   1.326   4.123
 3501SOL     OW11401   2.402   7.021   6.702
 3501SOL    HW111402   2.472   6.959   6.666
 3501SOL    HW211403   2.423   0.090   6.672
 3502SOL     OW11404   5.514   2.787   1.643
 3502SOL    HW111405   5.463   2.871   1.663
 3502SOL    HW211406   5.585   2.774   1.712
 3503SOL     OW11407   7.014   6.073   6.159
 3503SOL    HW111408   7.000   6.132   6.080
 3503SOL    HW211409   6.988   5.979   6.136
 3504SOL     OW11410   1.452   0.899   1.939
 3504SOL    HW111411   1.540   0.893   1.985
 3504SOL    HW211412   1.445   0.986   1.890
 3505SOL     OW11413   5.477   5.299   5.621
 3505SOL    HW111414   5.484   5.201   5.603
 3505SOL    HW211415   5.558   5.328   5.673
 3506SOL     OW11416   5.525   4.360   4.544
 3506SOL    HW111417   5.430   4.327   4.539
 3506SOL    HW211418   5.526   4.452   4.583
 3507SOL     OW11419   2.595   0.549   0.641
 3507SOL    HW111420   2.571   0.645   0.655
 3507SOL    HW211421   2.513   0.492   0.651
 3508SOL     OW11422   3.270   2.592   5.291
 3508SOL    HW111423   3.254   2.512   5.232
 3508SOL    HW211424   3.187   2.647   5.294
 3509SOL     OW11425   4.558   6.706   0.432
 3509SOL    HW111426   4.605   6.670   0.352
 3509SOL    HW211427   4.622   6.757   0.490
 3510SOL     OW11428   2.048   1.177   1.302
 3510SOL    HW111429   2.135   1.139   1.271
 3510SOL    HW211430   2.018   1.249   1.239
 3511SOL     OW11431   2.076   4.612   1.255
 3511SOL    HW111432   2.061   4.550   1.178
 3511SOL    HW211433   1.989   4.633   1.299
 3512SOL     OW11434   0.741   4.158   0.159
 3512SOL    HW111435   0.748   4.058   0.155
 3512SOL    HW211436   0.653   4.183   0.200
 3513SOL     OW11437   6.310   2.312   1.146
 3513SOL    HW111438   6.258   2.231   1.171
 3513SOL    HW211439   6.399   2.283   1.108
 3514SOL     OW11440   5.406   0.758   2.807
 3514SOL    HW111441   5.330   0.792   2.751
 3514SOL    HW211442   5.486   0.743   2.749
 3515SOL     OW11443   5.559   5.778   4.088
 3515SOL    HW111444   5.580   5.856   4.148
 3515SOL    HW211445   5.614   5.785   4.005
 3516SOL     OW11446   4.935   0.281   1.154
 3516SOL    HW111447   4.864   0.340   1.115
 3516SOL    HW211448   4.919   0.269   1.252
 3517SOL     OW11449   6.651   1.423   0.703
 3517SOL    HW111450   6.554   1.440   0.714
 3517SOL    HW211451   6.664   1.336   0.655
 3518SOL     OW11452   6.000   1.833   4.684
 3518SOL    HW111453   5.958   1.757   4.733
 3518SOL    HW211454   5.944   1.856   4.603
 3519SOL     OW11455   3.096   0.953   6.852
 3519SOL    HW111456   3.195   0.942   6.849
 3519SOL    HW211457   3.070   1.034   6.801
 3520SOL     OW11458   3.165   5.533   5.798
 3520SOL    HW111459   3.101   5.464   5.832
 3520SOL    HW211460   3.183   5.517   5.701
 3521SOL     OW11461   3.401   2.925   6.716
 3521SOL    HW111462   3.489   2.883   6.695
 3521SOL    HW211463   3.370   2.897   6.807
 3522SOL     OW11464   6.575   5.576   6.513
 3522SOL    HW111465   6.511   5.586   6.436
 3522SOL    HW211466   6.665   5.553   6.478
 3523SOL     OW11467   1.194   5.233   5.075
 3523SOL    HW111468   1.277   5.286   5.060
 3523SOL    HW211469   1.158   5.201   4.987
 3524SOL     OW11470   5.557   2.108   3.095
 3524SOL    HW111471   5.471   2.100   3.146
 3524SOL    HW211472   5.537   2.126   2.999
 3525SOL     OW11473   6.328   4.181   4.368
 3525SOL    HW111474   6.270   4.105   4.397
 3525SOL    HW211475   6.305   4.263   4.421
 3526SOL     OW11476   1.763   5.505   3.685
 3526SOL    HW111477   1.761   5.512   3.785
 3526SOL    HW211478   1.826   5.431   3.658
 3527SOL     OW11479   5.921   2.631   5.864
 3527SOL    HW111480   5.908   2.702   5.933
 3527SOL    HW211481   5.986   2.563   5.898
 3528SOL     OW11482   2.598   6.553   5.306
 3528SOL    HW111483   2.670   6.536   5.238
 3528SOL    HW211484   2.639   6.567   5.396
 3529SOL     OW11485   4.171   5.890   7.002
 3529SOL    HW111486   4.171   5.925   6.908
 3529SOL    HW211487   4.155   5.791   7.000
 3530SOL     OW11488   0.055   5.599   2.067
 3530SOL    HW111489   0.053   5.499   2.061
 3530SOL    HW211490   6.994   5.632   2.105
 3531SOL     OW11491   4.872   1.897   1.909
 3531SOL    HW111492   4.905   1.916   1.817
 3531SOL    HW211493   4.772   1.890   1.908
 3532SOL     OW11494   2.440   0.961   2.182
 3532SOL    HW111495   2.454   1.050   2.226
 3532SOL    HW211496   2.440   0.974   2.083
 3533SOL     OW11497   0.016   1.862   2.721
 3533SOL    HW111498   6.977   1.906   2.784
 3533SOL    HW211499   0.017   1.764   2.737
 3534SOL     OW11500   0.641   2.333   2.311
 3534SOL    HW111501   0.607   2.241   2.294
 3534SOL    HW211502   0.642   2.384   2.225
 3535SOL     OW11503   2.700   4.943   5.019
 3535SOL    HW111504   2.765   4.903   4.954
 3535SOL    HW211505   2.637   4.872   5.050
 3536SOL     OW11506   3.262   1.730   3.094
 3536SOL    HW111507   3.301   1.711   3.004
 3536SOL    HW211508   3.179   1.784   3.083
 3537SOL     OW11509   1.240   5.892   2.962
 3537SOL    HW111510   1.212   5.840   2.881
 3537SOL    HW211511   1.340   5.888   2.970
 3538SOL     OW11512   3.108   5.463   5.186
 3538SOL    HW111513   3.019   5.421   5.205
 3538SOL    HW211514   3.104   5.560   5.209
 3539SOL     OW11515   3.643   3.862   4.255
 3539SOL    HW111516   3.589   3.889   4.176
 3539SOL    HW211517   3.739   3.884   4.238
 3540SOL     OW11518   2.030   2.193   4.111
 3540SOL    HW111519   2.058   2.228   4.200
 3540SOL    HW211520   1.987   2.103   4.123
 3541SOL     OW11521   3.187   3.415   5.237
 3541SOL    HW111522   3.138   3.427   5.151
 3541SOL    HW211523   3.284   3.403   5.218
 3542SOL     OW11524   1.969   4.808   2.962
 3542SOL    HW111525   1.898   4.738   2.953
 3542SOL    HW211526   2.001   4.834   2.871
 3543SOL     OW11527   5.241   2.151   4.319
 3543SOL    HW111528   5.174   2.104   4.377
 3543SOL    HW211529   5.278   2.230   4.369
 3544SOL     OW11530   1.926   3.967   6.924
 3544SOL    HW111531   1.900   3.989   6.830
 3544SOL    HW211532   2.004   3.904   6.923
 3545SOL     OW11533   4.242   6.065   6.758
 3545SOL    HW111534   4.297   6.135   6.804
 3545SOL    HW211535   4.220   6.095   6.665
 3546SOL     OW11536   0.136   5.840   3.432
 3546SOL    HW111537   0.179   5.930   3.427
 3546SOL    HW211538   0.176   5.780   3.363
 3547SOL     OW11539   3.830   5.613   4.107
 3547SOL    HW111540   3.919   5.656   4.090
 3547SOL    HW211541   3.822   5.530   4.053
 3548SOL     OW11542   4.870   2.372   5.801
 3548SOL    HW111543   4.899   2.281   5.831
 3548SOL    HW211544   4.771   2.374   5.792
 3549SOL     OW11545   6.359   4.938   4.028
 3549SOL    HW111546   6.342   4.899   4.118
 3549SOL    HW211547   6.331   5.034   4.027
 3550SOL     OW11548   5.040   2.292   3.382
 3550SOL    HW111549   5.021   2.275   3.479
 3550SOL    HW211550   5.126   2.247   3.356
 3551SOL     OW11551   3.688   6.195   2.974
 3551SOL    HW111552   3.674   6.294   2.967
 3551SOL    HW211553   3.666   6.165   3.067
 3552SOL     OW11554   5.616   5.613   2.973
 3552SOL    HW111555   5.612   5.656   3.064
 3552SOL    HW211556   5.652   5.521   2.981
 3553SOL     OW11557   5.694   2.665   2.116
 3553SOL    HW111558   5.728   2.571   2.123
 3553SOL    HW211559   5.660   2.695   2.204
 3554SOL     OW11560   4.280   4.108   6.567
 3554SOL    HW111561   4.190   4.149   6.583
 3554SOL    HW211562   4.350   4.161   6.615
 3555SOL     OW11563   0.829   3.691   2.861
 3555SOL    HW111564   0.793   3.601   2.886
 3555SOL    HW211565   0.767   3.735   2.797
 3556SOL     OW11566   3.088   0.616   5.399
 3556SOL    HW111567   3.174   0.648   5.439
 3556SOL    HW211568   3.021   0.691   5.398
 3557SOL     OW11569   1.237   0.336   4.831
 3557SOL    HW111570   1.204   0.344   4.736
 3557SOL    HW211571   1.336   0.349   4.833
 3558SOL     OW11572   0.247   5.512   1.637
 3558SOL    HW111573   0.254   5.424   1.685
 3558SOL    HW211574   0.242   5.496   1.538
 3559SOL     OW11575   0.457   0.256   4.941
 3559SOL    HW111576   0.406   0.229   5.022
 3559SOL    HW211577   0.431   0.350   4.915
 3560SOL     OW11578   1.157   5.939   0.744
 3560SOL    HW111579   1.075   5.886   0.766
 3560SOL    HW211580   1.180   5.927   0.648
 3561SOL     OW11581   4.704   4.453   5.675
 3561SOL    HW111582   4.681   4.379   5.738
 3561SOL    HW211583   4.632   4.522   5.675
 3562SOL     OW11584   5.139   0.059   3.836
 3562SOL    HW111585   5.141   0.138   3.898
 3562SOL    HW211586   5.207   0.072   3.765
 3563SOL     OW11587   5.283   1.188   1.207
 3563SOL    HW111588   5.348   1.183   1.283
 3563SOL    HW211589   5.281   1.280   1.170
 3564SOL     OW11590   0.690   4.300   4.982
 3564SOL    HW111591   0.691   4.202   4.999
 3564SOL    HW211592   0.598   4.329   4.958
 3565SOL     OW11593   2.280   0.405   4.720
 3565SOL    HW111594   2.287   0.504   4.724
 3565SOL    HW211595   2.333   0.371   4.642
 3566SOL     OW11596   0.194   3.124   6.044
 3566SOL    HW111597   0.187   3.179   6.127
 3566SOL    HW211598   0.291   3.111   6.022
 3567SOL     OW11599   0.744   3.394   1.249
 3567SOL    HW111600   0.679   3.436   1.186
 3567SOL    HW211601   0.829   3.447   1.249
 3568SOL     OW11602   4.718   4.795   2.619
 3568SOL    HW111603   4.812   4.765   2.603
 3568SOL    HW211604   4.662   4.775   2.538
 3569SOL     OW11605   3.024   3.434   4.352
 3569SOL    HW111606   3.014   3.529   4.322
 3569SOL    HW211607   2.951   3.412   4.417
 3570SOL     OW11608   6.422   1.865   5.821
 3570SOL    HW111609   6.426   1.780   5.872
 3570SOL    HW211610   6.452   1.849   5.727
 3571SOL     OW11611   1.914   0.500   5.169
 3571SOL    HW111612   1.874   0.417   5.207
 3571SOL    HW211613   1.916   0.572   5.239
 3572SOL     OW11614   5.035   4.087   1.930
 3572SOL    HW111615   5.046   4.158   1.861
 3572SOL    HW211616   4.998   4.004   1.887
 3573SOL     OW11617   6.133   4.083   2.135
 3573SOL    HW111618   6.045   4.065   2.179
 3573SOL    HW211619   6.201   4.107   2.204
 3574SOL     OW11620   2.510   3.018   5.994
 3574SOL    HW111621   2.497   3.013   5.895
 3574SOL    HW211622   2.607   3.027   6.015
 3575SOL     OW11623   4.804   6.155   0.829
 3575SOL    HW111624   4.876   6.120   0.769
 3575SOL    HW211625   4.780   6.248   0.801
 3576SOL     OW11626   0.114   3.488   7.022
 3576SOL    HW111627   0.148   3.495   0.091
 3576SOL    HW211628   0.046   3.560   7.006
 3577SOL     OW11629   2.134   2.583   5.092
 3577SOL    HW111630   2.167   2.619   5.005
 3577SOL    HW211631   2.034   2.585   5.093
 3578SOL     OW11632   3.193   3.007   0.218
 3578SOL    HW111633   3.205   3.076   0.146
 3578SOL    HW211634   3.139   2.931   0.182
 3579SOL     OW11635   0.168   3.499   2.405
 3579SOL    HW111636   0.088   3.483   2.462
 3579SOL    HW211637   0.250   3.499   2.462
 3580SOL     OW11638   0.236   3.502   1.231
 3580SOL    HW111639   0.244   3.423   1.292
 3580SOL    HW211640   0.237   3.471   1.136
 3581SOL     OW11641   0.839   0.359   2.689
 3581SOL    HW111642   0.780   0.420   2.637
 3581SOL    HW211643   0.825   0.265   2.658
 3582SOL     OW11644   3.709   3.875   5.674
 3582SOL    HW111645   3.634   3.813   5.651
 3582SOL    HW211646   3.736   3.861   5.769
 3583SOL     OW11647   0.186   4.607   0.986
 3583SOL    HW111648   0.150   4.549   0.913
 3583SOL    HW211649   0.113   4.663   1.024
 3584SOL     OW11650   5.258   4.276   4.576
 3584SOL    HW111651   5.169   4.237   4.557
 3584SOL    HW211652   5.261   4.307   4.672
 3585SOL     OW11653   2.726   2.151   4.491
 3585SOL    HW111654   2.629   2.134   4.474
 3585SOL    HW211655   2.750   2.120   4.583
 3586SOL     OW11656   6.667   3.024   3.634
 3586SOL    HW111657   6.687   2.968   3.553
 3586SOL    HW211658   6.655   2.965   3.713
 3587SOL     OW11659   3.808   6.893   6.217
 3587SOL    HW111660   3.790   6.934   6.127
 3587SOL    HW211661   3.734   6.830   6.240
 3588SOL     OW11662   6.616   3.828   4.621
 3588SOL    HW111663   6.629   3.800   4.716
 3588SOL    HW211664   6.700   3.811   4.569
 3589SOL     OW11665   6.935   6.977   6.125
 3589SOL    HW111666   6.862   6.982   6.057
 3589SOL    HW211667   7.024   6.984   6.080
 3590SOL     OW11668   0.464   4.269   0.819
 3590SOL    HW111669   0.529   4.256   0.894
 3590SOL    HW211670   0.371   4.260   0.854
 3591SOL     OW11671   5.583   2.449   6.726
 3591SOL    HW111672   5.570   2.461   6.824
 3591SOL    HW211673   5.580   2.537   6.680
 3592SOL     OW11674   1.445   0.130   2.268
 3592SOL    HW111675   1.474   0.075   2.190
 3592SOL    HW211676   1.381   0.201   2.237
 3593SOL     OW11677   5.886   3.672   5.913
 3593SOL    HW111678   5.959   3.608   5.938
 3593SOL    HW211679   5.927   3.755   5.875
 3594SOL     OW11680   4.170   5.066   4.478
 3594SOL    HW111681   4.265   5.058   4.449
 3594SOL    HW211682   4.121   5.127   4.416
 3595SOL     OW11683   5.742   5.845   6.235
 3595SOL    HW111684   5.775   5.752   6.223
 3595SOL    HW211685   5.724   5.887   6.146
 3596SOL     OW11686   3.851   1.077   2.956
 3596SOL    HW111687   3.899   1.092   2.869
 3596SOL    HW211688   3.832   0.980   2.967
 3597SOL     OW11689   1.449   3.124   5.156
 3597SOL    HW111690   1.414   3.032   5.171
 3597SOL    HW211691   1.547   3.121   5.138
 3598SOL     OW11692   1.813   5.414   4.612
 3598SOL    HW111693   1.728   5.444   4.569
 3598SOL    HW211694   1.829   5.468   4.695
 3599SOL     OW11695   4.765   1.543   5.411
 3599SOL    HW111696   4.678   1.504   5.379
 3599SOL    HW211697   4.760   1.643   5.404
 3600SOL     OW11698   3.662   3.631   0.653
 3600SOL    HW111699   3.614   3.713   0.621
 3600SOL    HW211700   3.742   3.658   0.707
 3601SOL     OW11701   4.626   0.985   5.303
 3601SOL    HW111702   4.713   0.962   5.259
 3601SOL    HW211703   4.644   1.020   5.395
 3602SOL     OW11704   2.133   2.498   1.070
 3602SOL    HW111705   2.130   2.405   1.034
 3602SOL    HW211706   2.044   2.520   1.111
 3603SOL     OW11707   3.158   0.829   5.766
 3603SOL    HW111708   3.111   0.740   5.769
 3603SOL    HW211709   3.093   0.900   5.739
 3604SOL     OW11710   6.360   0.351   3.736
 3604SOL    HW111711   6.424   0.413   3.780
 3604SOL    HW211712   6.274   0.399   3.717
 3605SOL     OW11713   0.495   5.725   3.632
 3605SOL    HW111714   0.554   5.670   3.574
 3605SOL    HW211715   0.502   5.821   3.604
 3606SOL     OW11716   2.302   6.588   1.531
 3606SOL    HW111717   2.226   6.630   1.580
 3606SOL    HW211718   2.364   6.659   1.498
 3607SOL     OW11719   5.197   2.646   2.716
 3607SOL    HW111720   5.157   2.560   2.683
 3607SOL    HW211721   5.166   2.662   2.810
 3608SOL     OW11722   3.881   2.050   4.535
 3608SOL    HW111723   3.822   2.011   4.606
 3608SOL    HW211724   3.941   2.119   4.576
 3609SOL     OW11725   2.270   0.052   4.614
 3609SOL    HW111726   2.172   0.071   4.615
 3609SOL    HW211727   2.318   0.127   4.568
 3610SOL     OW11728   2.024   6.935   5.297
 3610SOL    HW111729   1.945   6.937   5.235
 3610SOL    HW211730   2.095   6.996   5.261
 3611SOL     OW11731   4.856   4.531   3.450
 3611SOL    HW111732   4.847   4.438   3.484
 3611SOL    HW211733   4.817   4.595   3.517
 3612SOL     OW11734   5.410   1.582   6.794
 3612SOL    HW111735   5.461   1.649   6.848
 3612SOL    HW211736   5.474   1.516   6.754
 3613SOL     OW11737   3.361   5.023   1.133
 3613SOL    HW111738   3.283   4.977   1.177
 3613SOL    HW211739   3.360   5.003   1.035
 3614SOL     OW11740   3.632   4.348   6.111
 3614SOL    HW111741   3.684   4.332   6.027
 3614SOL    HW211742   3.577   4.268   6.133
 3615SOL     OW11743   6.358   2.408   5.302
 3615SOL    HW111744   6.409   2.487   5.335
 3615SOL    HW211745   6.371   2.398   5.203
 3616SOL     OW11746   2.032   1.827   6.765
 3616SOL    HW111747   1.946   1.794   6.728
 3616SOL    HW211748   2.074   1.891   6.700
 3617SOL     OW11749   4.123   6.638   5.857
 3617SOL    HW111750   4.036   6.606   5.819
 3617SOL    HW211751   4.135   6.601   5.949
 3618SOL     OW11752   1.878   3.933   4.475
 3618SOL    HW111753   1.833   4.022   4.488
 3618SOL    HW211754   1.977   3.946   4.469
 3619SOL     OW11755   6.758   2.939   1.098
 3619SOL    HW111756   6.806   2.866   1.145
 3619SOL    HW211757   6.768   3.024   1.150
 3620SOL     OW11758   6.383   6.595   5.171
 3620SOL    HW111759   6.336   6.569   5.255
 3620SOL    HW211760   6.480   6.612   5.191
 3621SOL     OW11761   3.201   2.990   3.796
 3621SOL    HW111762   3.157   3.077   3.814
 3621SOL    HW211763   3.243   2.956   3.880
 3622SOL     OW11764   0.964   0.129   0.275
 3622SOL    HW111765   0.939   0.131   0.178
 3622SOL    HW211766   0.884   0.151   0.330
 3623SOL     OW11767   1.067   5.299   6.355
 3623SOL    HW111768   0.992   5.355   6.390
 3623SOL    HW211769   1.090   5.229   6.422
 3624SOL     OW11770   3.068   0.751   2.013
 3624SOL    HW111771   3.166   0.765   2.031
 3624SOL    HW211772   3.057   0.681   1.943
 3625SOL     OW11773   6.874   2.585   6.580
 3625SOL    HW111774   6.860   2.567   6.677
 3625SOL    HW211775   6.785   2.590   6.535
 3626SOL     OW11776   0.861   2.386   5.002
 3626SOL    HW111777   0.951   2.347   5.020
 3626SOL    HW211778   0.797   2.312   4.982
 3627SOL     OW11779   4.024   2.539   1.324
 3627SOL    HW111780   4.040   2.442   1.308
 3627SOL    HW211781   4.059   2.592   1.246
 3628SOL     OW11782   7.010   1.750   2.324
 3628SOL    HW111783   6.960   1.691   2.387
 3628SOL    HW211784   6.950   1.775   2.248
 3629SOL     OW11785   1.554   1.422   4.569
 3629SOL    HW111786   1.645   1.436   4.530
 3629SOL    HW211787   1.548   1.329   4.605
 3630SOL     OW11788   6.461   2.681   3.531
 3630SOL    HW111789   6.450   2.595   3.481
 3630SOL    HW211790   6.432   2.668   3.626
 3631SOL     OW11791   1.428   6.799   2.612
 3631SOL    HW111792   1.480   6.842   2.538
 3631SOL    HW211793   1.464   6.707   2.628
 3632SOL     OW11794   4.570   3.672   0.898
 3632SOL    HW111795   4.606   3.760   0.929
 3632SOL    HW211796   4.637   3.600   0.917
 3633SOL     OW11797   3.341   2.858   6.003
 3633SOL    HW111798   3.362   2.902   6.090
 3633SOL    HW211799   3.425   2.832   5.957
 3634SOL     OW11800   2.760   5.444   6.518
 3634SOL    HW111801   2.741   5.542   6.515
 3634SOL    HW211802   2.847   5.428   6.565
 3635SOL     OW11803   2.736   0.883   1.545
 3635SOL    HW111804   2.813   0.931   1.503
 3635SOL    HW211805   2.762   0.853   1.637
 3636SOL     OW11806   1.244   5.420   0.065
 3636SOL    HW111807   1.148   5.396   0.082
 3636SOL    HW211808   1.275   5.482   0.138
 3637SOL     OW11809   0.119   2.761   6.973
 3637SOL    HW111810   0.129   2.748   6.875
 3637SOL    HW211811   0.129   2.859   6.995
 3638SOL     OW11812   5.770   4.484   2.668
 3638SOL    HW111813   5.672   4.500   2.684
 3638SOL    HW211814   5.799   4.532   2.585
 3639SOL     OW11815   3.133   3.857   4.556
 3639SOL    HW111816   3.160   3.877   4.462
 3639SOL    HW211817   3.034   3.845   4.561
 3640SOL     OW11818   5.523   1.832   0.718
 3640SOL    HW111819   5.431   1.869   0.728
 3640SOL    HW211820   5.570   1.879   0.643
 3641SOL     OW11821   6.485   4.268   2.448
 3641SOL    HW111822   6.393   4.275   2.407
 3641SOL    HW211823   6.483   4.307   2.540
 3642SOL     OW11824   6.104   2.822   6.815
 3642SOL    HW111825   6.015   2.783   6.839
 3642SOL    HW211826   6.153   2.759   6.755
 3643SOL     OW11827   3.550   5.403   5.478
 3643SOL    HW111828   3.540   5.383   5.575
 3643SOL    HW211829   3.644   5.431   5.459
 3644SOL     OW11830   3.094   1.149   1.992
 3644SOL    HW111831   3.177   1.167   2.046
 3644SOL    HW211832   3.103   1.062   1.944
 3645SOL     OW11833   1.551   4.337   4.168
 3645SOL    HW111834   1.532   4.279   4.089
 3645SOL    HW211835   1.561   4.432   4.138
 3646SOL     OW11836   2.374   4.419   4.793
 3646SOL    HW111837   2.450   4.473   4.830
 3646SOL    HW211838   2.319   4.383   4.868
 3647SOL     OW11839   2.906   0.224   0.297
 3647SOL    HW111840   2.918   0.290   0.223
 3647SOL    HW211841   2.939   0.264   0.383
 3648SOL     OW11842   4.147   5.332   3.711
 3648SOL    HW111843   4.209   5.395   3.663
 3648SOL    HW211844   4.115   5.262   3.647
 3649SOL     OW11845   5.858   2.773   0.426
 3649SOL    HW111846   5.873   2.794   0.522
 3649SOL    HW211847   5.861   2.674   0.412
 3650SOL     OW11848   5.692   5.617   0.111
 3650SOL    HW111849   5.744   5.637   0.028
 3650SOL    HW211850   5.741   5.653   0.190
 3651SOL     OW11851   1.016   2.621   6.324
 3651SOL    HW111852   0.944   2.552   6.333
 3651SOL    HW211853   1.073   2.620   6.406
 3652SOL     OW11854   4.965   1.822   2.160
 3652SOL    HW111855   4.934   1.837   2.066
 3652SOL    HW211856   5.011   1.733   2.165
 3653SOL     OW11857   0.469   1.345   1.568
 3653SOL    HW111858   0.383   1.373   1.610
 3653SOL    HW211859   0.546   1.385   1.617
 3654SOL     OW11860   5.764   0.254   0.832
 3654SOL    HW111861   5.674   0.296   0.842
 3654SOL    HW211862   5.763   0.191   0.754
 3655SOL     OW11863   1.842   2.256   4.727
 3655SOL    HW111864   1.829   2.194   4.804
 3655SOL    HW211865   1.825   2.207   4.642
 3656SOL     OW11866   0.192   6.113   1.581
 3656SOL    HW111867   0.223   6.018   1.589
 3656SOL    HW211868   0.271   6.173   1.572
 3657SOL     OW11869   5.052   6.069   4.843
 3657SOL    HW111870   4.988   6.147   4.846
 3657SOL    HW211871   5.146   6.103   4.849
 3658SOL     OW11872   1.575   4.950   6.236
 3658SOL    HW111873   1.555   5.030   6.293
 3658SOL    HW211874   1.514   4.875   6.262
 3659SOL     OW11875   6.749   1.649   6.273
 3659SOL    HW111876   6.724   1.617   6.181
 3659SOL    HW211877   6.812   1.727   6.264
 3660SOL     OW11878   5.474   5.164   5.885
 3660SOL    HW111879   5.379   5.192   5.900
 3660SOL    HW211880   5.480   5.114   5.799
 3661SOL     OW11881   6.880   1.758   4.338
 3661SOL    HW111882   6.948   1.731   4.406
 3661SOL    HW211883   6.812   1.686   4.329
 3662SOL     OW11884   3.122   1.231   5.502
 3662SOL    HW111885   3.096   1.218   5.406
 3662SOL    HW211886   3.131   1.329   5.521
 3663SOL     OW11887   2.328   2.414   6.332
 3663SOL    HW111888   2.311   2.513   6.331
 3663SOL    HW211889   2.427   2.398   6.323
 3664SOL     OW11890   3.683   1.314   2.140
 3664SOL    HW111891   3.672   1.222   2.178
 3664SOL    HW211892   3.752   1.363   2.193
 3665SOL     OW11893   1.024   5.773   5.900
 3665SOL    HW111894   1.060   5.680   5.885
 3665SOL    HW211895   1.046   5.830   5.821
 3666SOL     OW11896   2.311   2.116   5.020
 3666SOL    HW111897   2.299   2.201   5.071
 3666SOL    HW211898   2.315   2.136   4.922
 3667SOL     OW11899   2.303   0.244   2.750
 3667SOL    HW111900   2.273   0.199   2.834
 3667SOL    HW211901   2.367   0.185   2.701
 3668SOL     OW11902   0.456   0.661   1.876
 3668SOL    HW111903   0.531   0.707   1.923
 3668SOL    HW211904   0.446   0.699   1.784
 3669SOL     OW11905   6.714   1.356   3.882
 3669SOL    HW111906   6.625   1.395   3.905
 3669SOL    HW211907   6.777   1.430   3.859
 3670SOL     OW11908   3.196   5.268   1.677
 3670SOL    HW111909   3.289   5.238   1.696
 3670SOL    HW211910   3.190   5.368   1.682
 3671SOL     OW11911   6.480   0.263   3.507
 3671SOL    HW111912   6.428   0.283   3.590
 3671SOL    HW211913   6.417   0.245   3.432
 3672SOL     OW11914   4.563   6.488   2.590
 3672SOL    HW111915   4.648   6.467   2.639
 3672SOL    HW211916   4.495   6.521   2.655
 3673SOL     OW11917   4.755   6.058   1.249
 3673SOL    HW111918   4.774   6.137   1.190
 3673SOL    HW211919   4.812   5.981   1.221
 3674SOL     OW11920   1.301   5.065   6.263
 3674SOL    HW111921   1.241   5.134   6.222
 3674SOL    HW211922   1.318   4.992   6.197
 3675SOL     OW11923   0.633   0.861   3.762
 3675SOL    HW111924   0.649   0.767   3.732
 3675SOL    HW211925   0.686   0.879   3.845
 3676SOL     OW11926   3.772   1.536   3.496
 3676SOL    HW111927   3.731   1.446   3.507
 3676SOL    HW211928   3.758   1.567   3.401
 3677SOL     OW11929   2.114   0.399   4.311
 3677SOL    HW111930   2.116   0.330   4.239
 3677SOL    HW211931   2.166   0.479   4.281
 3678SOL     OW11932   1.116   0.511   3.709
 3678SOL    HW111933   1.036   0.570   3.711
 3678SOL    HW211934   1.145   0.497   3.614
 3679SOL     OW11935   4.577   0.811   2.388
 3679SOL    HW111936   4.657   0.751   2.379
 3679SOL    HW211937   4.580   0.880   2.315
 3680SOL     OW11938   4.166   1.377   4.089
 3680SOL    HW111939   4.194   1.283   4.069
 3680SOL    HW211940   4.082   1.376   4.143
 3681SOL     OW11941   1.501   5.952   5.016
 3681SOL    HW111942   1.546   5.866   5.040
 3681SOL    HW211943   1.564   6.028   5.030
 3682SOL     OW11944   5.421   1.984   1.342
 3682SOL    HW111945   5.434   2.077   1.375
 3682SOL    HW211946   5.332   1.975   1.299
 3683SOL     OW11947   6.317   0.863   5.949
 3683SOL    HW111948   6.318   0.933   6.021
 3683SOL    HW211949   6.254   0.891   5.877
 3684SOL     OW11950   2.426   6.877   5.299
 3684SOL    HW111951   2.473   6.942   5.358
 3684SOL    HW211952   2.415   6.917   5.208
 3685SOL     OW11953   2.212   6.315   5.516
 3685SOL    HW111954   2.231   6.400   5.566
 3685SOL    HW211955   2.257   6.239   5.562
 3686SOL     OW11956   1.251   4.493   4.101
 3686SOL    HW111957   1.215   4.584   4.118
 3686SOL    HW211958   1.349   4.499   4.081
 3687SOL     OW11959   5.577   5.516   4.196
 3687SOL    HW111960   5.665   5.476   4.222
 3687SOL    HW211961   5.593   5.605   4.153
 3688SOL     OW11962   5.777   3.152   0.698
 3688SOL    HW111963   5.800   3.219   0.769
 3688SOL    HW211964   5.830   3.172   0.616
 3689SOL     OW11965   1.930   6.837   6.024
 3689SOL    HW111966   1.921   6.934   6.045
 3689SOL    HW211967   2.026   6.810   6.032
 3690SOL     OW11968   5.035   4.723   1.005
 3690SOL    HW111969   5.006   4.746   1.098
 3690SOL    HW211970   5.123   4.675   1.008
 3691SOL     OW11971   2.293   2.352   0.532
 3691SOL    HW111972   2.259   2.349   0.438
 3691SOL    HW211973   2.215   2.346   0.595
 3692SOL     OW11974   0.466   3.531   6.096
 3692SOL    HW111975   0.529   3.607   6.114
 3692SOL    HW211976   0.509   3.445   6.124
 3693SOL     OW11977   0.122   1.549   2.653
 3693SOL    HW111978   0.146   1.505   2.739
 3693SOL    HW211979   0.205   1.580   2.607
 3694SOL     OW11980   6.752   0.380   1.499
 3694SOL    HW111981   6.757   0.288   1.460
 3694SOL    HW211982   6.672   0.428   1.463
 3695SOL     OW11983   6.319   2.931   2.118
 3695SOL    HW111984   6.374   3.008   2.150
 3695SOL    HW211985   6.345   2.848   2.167
 3696SOL     OW11986   4.713   1.110   4.553
 3696SOL    HW111987   4.762   1.039   4.604
 3696SOL    HW211988   4.645   1.153   4.612
 3697SOL     OW11989   7.009   6.520   3.538
 3697SOL    HW111990   7.006   6.523   3.638
 3697SOL    HW211991   0.079   6.523   3.507
 3698SOL     OW11992   2.354   0.453   2.947
 3698SOL    HW111993   2.318   0.409   2.864
 3698SOL    HW211994   2.297   0.531   2.971
 3699SOL     OW11995   2.599   2.483   3.637
 3699SOL    HW111996   2.638   2.553   3.697
 3699SOL    HW211997   2.599   2.395   3.684
 3700SOL     OW11998   0.922   4.914   4.957
 3700SOL    HW111999   0.957   4.888   4.867
 3700SOL    HW212000   0.953   5.006   4.979
 3701SOL     OW12001   1.976   0.962   2.655
 3701SOL    HW112002   1.984   1.018   2.573
 3701SOL    HW212003   1.901   0.997   2.712
 3702SOL     OW12004   5.332   4.160   3.917
 3702SOL    HW112005   5.255   4.123   3.866
 3702SOL    HW212006   5.299   4.202   4.002
 3703SOL     OW12007   1.160   2.065   4.242
 3703SOL    HW112008   1.086   2.111   4.292
 3703SOL    HW212009   1.215   2.132   4.194
 3704SOL     OW12010   6.719   2.206   0.845
 3704SOL    HW112011   6.788   2.173   0.909
 3704SOL    HW212012   6.744   2.296   0.811
 3705SOL     OW12013   5.262   4.861   3.065
 3705SOL    HW112014   5.267   4.857   3.165
 3705SOL    HW212015   5.171   4.892   3.037
 3706SOL     OW12016   0.411   3.873   0.378
 3706SOL    HW112017   0.370   3.903   0.292
 3706SOL    HW212018   0.346   3.814   0.426
 3707SOL     OW12019   1.290   5.453   3.735
 3707SOL    HW112020   1.304   5.373   3.676
 3707SOL    HW212021   1.296   5.425   3.831
 3708SOL     OW12022   3.469   6.874   0.341
 3708SOL    HW112023   3.451   6.890   0.438
 3708SOL    HW212024   3.551   6.819   0.331
 3709SOL     OW12025   1.699   1.201   2.656
 3709SOL    HW112026   1.617   1.258   2.661
 3709SOL    HW212027   1.770   1.249   2.605
 3710SOL     OW12028   6.663   4.888   5.980
 3710SOL    HW112029   6.734   4.958   5.970
 3710SOL    HW212030   6.600   4.892   5.902
 3711SOL     OW12031   1.489   5.408   4.306
 3711SOL    HW112032   1.426   5.340   4.344
 3711SOL    HW212033   1.437   5.486   4.272
 3712SOL     OW12034   2.013   5.505   5.040
 3712SOL    HW112035   1.997   5.585   5.097
 3712SOL    HW212036   2.097   5.519   4.987
 3713SOL     OW12037   6.162   6.401   4.433
 3713SOL    HW112038   6.108   6.423   4.352
 3713SOL    HW212039   6.243   6.349   4.405
 3714SOL     OW12040   0.725   4.740   0.470
 3714SOL    HW112041   0.689   4.666   0.414
 3714SOL    HW212042   0.654   4.808   0.485
 3715SOL     OW12043   6.197   5.161   3.922
 3715SOL    HW112044   6.137   5.082   3.910
 3715SOL    HW212045   6.169   5.234   3.859
 3716SOL     OW12046   5.011   5.328   3.722
 3716SOL    HW112047   5.050   5.394   3.658
 3716SOL    HW212048   5.065   5.244   3.720
 3717SOL     OW12049   4.357   1.276   1.385
 3717SOL    HW112050   4.300   1.254   1.306
 3717SOL    HW212051   4.352   1.374   1.403
 3718SOL     OW12052   0.371   6.862   5.443
 3718SOL    HW112053   0.457   6.882   5.396
 3718SOL    HW212054   0.391   6.812   5.528
 3719SOL     OW12055   3.514   4.074   6.115
 3719SOL    HW112056   3.428   4.029   6.141
 3719SOL    HW212057   3.523   4.072   6.015
 3720SOL     OW12058   0.139   2.243   1.609
 3720SOL    HW112059   0.229   2.285   1.597
 3720SOL    HW212060   0.087   2.252   1.524
 3721SOL     OW12061   6.261   5.011   5.986
 3721SOL    HW112062   6.316   5.092   6.008
 3721SOL    HW212063   6.192   5.036   5.918
 3722SOL     OW12064   4.681   6.662   3.259
 3722SOL    HW112065   4.741   6.740   3.247
 3722SOL    HW212066   4.684   6.604   3.177
 3723SOL     OW12067   4.628   4.630   0.219
 3723SOL    HW112068   4.660   4.612   0.126
 3723SOL    HW212069   4.630   4.728   0.236
 3724SOL     OW12070   1.316   4.996   5.071
 3724SOL    HW112071   1.259   4.915   5.056
 3724SOL    HW212072   1.258   5.072   5.099
 3725SOL     OW12073   0.942   5.801   6.448
 3725SOL    HW112074   0.982   5.772   6.535
 3725SOL    HW212075   0.847   5.773   6.444
 3726SOL     OW12076   6.240   3.352   4.434
 3726SOL    HW112077   6.272   3.349   4.529
 3726SOL    HW212078   6.161   3.292   4.424
 3727SOL     OW12079   6.840   3.472   4.182
 3727SOL    HW112080   6.784   3.395   4.151
 3727SOL    HW212081   6.825   3.550   4.121
 3728SOL     OW12082   3.147   3.471   0.117
 3728SOL    HW112083   3.127   3.562   0.082
 3728SOL    HW212084   3.165   3.476   0.215
 3729SOL     OW12085   0.605   6.906   5.759
 3729SOL    HW112086   0.626   6.971   5.832
 3729SOL    HW212087   0.686   6.850   5.740
 3730SOL     OW12088   3.471   5.725   4.699
 3730SOL    HW112089   3.464   5.798   4.767
 3730SOL    HW212090   3.437   5.640   4.738
 3731SOL     OW12091   0.528   2.640   6.728
 3731SOL    HW112092   0.540   2.543   6.744
 3731SOL    HW212093   0.437   2.657   6.690
 3732SOL     OW12094   3.221   2.253   7.014
 3732SOL    HW112095   3.180   2.291   6.931
 3732SOL    HW212096   3.165   2.177   0.022
 3733SOL     OW12097   1.709   1.497   3.828
 3733SOL    HW112098   1.707   1.539   3.918
 3733SOL    HW212099   1.795   1.448   3.816
 3734SOL     OW12100   4.380   6.648   0.805
 3734SOL    HW112101   4.362   6.703   0.887
 3734SOL    HW212102   4.358   6.702   0.724
 3735SOL     OW12103   4.555   6.739   2.309
 3735SOL    HW112104   4.503   6.655   2.324
 3735SOL    HW212105   4.492   6.811   2.279
 3736SOL     OW12106   7.001   1.287   1.265
 3736SOL    HW112107   6.985   1.333   1.177
 3736SOL    HW212108   6.950   1.201   1.267
 3737SOL     OW12109   0.193   2.803   2.853
 3737SOL    HW112110   0.274   2.800   2.912
 3737SOL    HW212111   0.121   2.745   2.891
 3738SOL     OW12112   6.869   6.289   1.268
 3738SOL    HW112113   6.797   6.351   1.236
 3738SOL    HW212114   6.955   6.339   1.276
 3739SOL     OW12115   2.878   4.320   0.761
 3739SOL    HW112116   2.782   4.348   0.762
 3739SOL    HW212117   2.883   4.221   0.774
 3740SOL     OW12118   5.175   5.377   6.520
 3740SOL    HW112119   5.120   5.332   6.450
 3740SOL    HW212120   5.255   5.420   6.478
 3741SOL     OW12121   5.295   3.274   6.983
 3741SOL    HW112122   5.343   3.346   0.009
 3741SOL    HW212123   5.206   3.258   7.025
 3742SOL     OW12124   3.821   5.474   6.924
 3742SOL    HW112125   3.769   5.442   7.004
 3742SOL    HW212126   3.874   5.398   6.887
 3743SOL     OW12127   4.412   3.289   1.542
 3743SOL    HW112128   4.415   3.386   1.566
 3743SOL    HW212129   4.331   3.270   1.487
 3744SOL     OW12130   0.592   6.946   2.411
 3744SOL    HW112131   0.592   6.996   2.498
 3744SOL    HW212132   0.636   6.857   2.424
 3745SOL     OW12133   4.942   4.211   2.301
 3745SOL    HW112134   4.887   4.224   2.218
 3745SOL    HW212135   4.929   4.118   2.336
 3746SOL     OW12136   6.288   0.134   4.606
 3746SOL    HW112137   6.252   0.093   4.522
 3746SOL    HW212138   6.334   0.063   4.660
 3747SOL     OW12139   3.686   6.443   5.993
 3747SOL    HW112140   3.632   6.512   5.944
 3747SOL    HW212141   3.699   6.474   6.088
 3748SOL     OW12142   5.521   1.605   2.807
 3748SOL    HW112143   5.523   1.608   2.707
 3748SOL    HW212144   5.581   1.532   2.840
 3749SOL     OW12145   6.968   6.791   2.782
 3749SOL    HW112146   6.896   6.813   2.848
 3749SOL    HW212147   6.931   6.732   2.710
 3750SOL     OW12148   5.532   4.299   0.561
 3750SOL    HW112149   5.540   4.349   0.476
 3750SOL    HW212150   5.538   4.362   0.638
 3751SOL     OW12151   2.158   3.921   2.177
 3751SOL    HW112152   2.195   3.850   2.117
 3751SOL    HW212153   2.135   3.881   2.266
 3752SOL     OW12154   1.468   6.634   6.928
 3752SOL    HW112155   1.497   6.618   7.023
 3752SOL    HW212156   1.376   6.672   6.928
 3753SOL     OW12157   6.843   6.611   4.628
 3753SOL    HW112158   6.830   6.575   4.536
 3753SOL    HW212159   6.849   6.534   4.693
 3754SOL     OW12160   6.748   5.729   1.666
 3754SOL    HW112161   6.802   5.723   1.583
 3754SOL    HW212162   6.753   5.822   1.703
 3755SOL     OW12163   5.268   3.810   3.628
 3755SOL    HW112164   5.203   3.838   3.558
 3755SOL    HW212165   5.224   3.810   3.718
 3756SOL     OW12166   2.753   0.849   6.509
 3756SOL    HW112167   2.747   0.945   6.481
 3756SOL    HW212168   2.815   0.841   6.587
 3757SOL     OW12169   2.722   5.729   6.492
 3757SOL    HW112170   2.787   5.727   6.415
 3757SOL    HW212171   2.639   5.776   6.464
 3758SOL     OW12172   1.974   1.124   4.356
 3758SOL    HW112173   1.952   1.028   4.336
 3758SOL    HW212174   2.065   1.128   4.398
 3759SOL     OW12175   4.824   4.844   5.904
 3759SOL    HW112176   4.756   4.867   5.834
 3759SOL    HW212177   4.815   4.747   5.928
 3760SOL     OW12178   1.591   2.413   4.760
 3760SOL    HW112179   1.562   2.492   4.705
 3760SOL    HW212180   1.674   2.374   4.721
 3761SOL     OW12181   0.394   6.266   4.340
 3761SOL    HW112182   0.357   6.219   4.420
 3761SOL    HW212183   0.320   6.289   4.277
 3762SOL     OW12184   0.545   4.102   0.556
 3762SOL    HW112185   0.488   4.054   0.489
 3762SOL    HW212186   0.500   4.186   0.584
 3763SOL     OW12187   6.852   2.928   6.646
 3763SOL    HW112188   6.891   2.835   6.648
 3763SOL    HW212189   6.818   2.952   6.737
 3764SOL     OW12190   2.735   6.643   3.553
 3764SOL    HW112191   2.704   6.729   3.512
 3764SOL    HW212192   2.697   6.566   3.501
 3765SOL     OW12193   5.616   0.740   3.928
 3765SOL    HW112194   5.661   0.665   3.974
 3765SOL    HW212195   5.682   0.791   3.873
 3766SOL     OW12196   1.024   0.397   4.640
 3766SOL    HW112197   0.992   0.466   4.575
 3766SOL    HW212198   0.946   0.360   4.690
 3767SOL     OW12199   1.926   4.915   0.598
 3767SOL    HW112200   1.938   4.933   0.501
 3767SOL    HW212201   1.940   5.000   0.650
 3768SOL     OW12202   5.244   6.314   0.199
 3768SOL    HW112203   5.265   6.216   0.192
 3768SOL    HW212204   5.274   6.349   0.288
 3769SOL     OW12205   4.793   6.206   5.480
 3769SOL    HW112206   4.827   6.167   5.394
 3769SOL    HW212207   4.815   6.304   5.483
 3770SOL     OW12208   2.238   1.643   6.621
 3770SOL    HW112209   2.162   1.672   6.562
 3770SOL    HW212210   2.202   1.619   6.711
 3771SOL     OW12211   5.668   2.036   6.018
 3771SOL    HW112212   5.682   2.033   5.919
 3771SOL    HW212213   5.601   2.107   6.039
 3772SOL     OW12214   5.608   1.207   1.715
 3772SOL    HW112215   5.664   1.178   1.793
 3772SOL    HW212216   5.666   1.253   1.648
 3773SOL     OW12217   6.612   2.648   6.473
 3773SOL    HW112218   6.640   2.735   6.432
 3773SOL    HW212219   6.517   2.654   6.503
 3774SOL     OW12220   0.079   0.504   1.082
 3774SOL    HW112221   0.077   0.586   1.140
 3774SOL    HW212222   0.034   0.429   1.129
 3775SOL     OW12223   6.031   3.764   3.881
 3775SOL    HW112224   6.046   3.853   3.839
 3775SOL    HW212225   5.933   3.750   3.896
 3776SOL     OW12226   2.375   3.319   1.095
 3776SOL    HW112227   2.391   3.224   1.071
 3776SOL    HW212228   2.299   3.356   1.040
 3777SOL     OW12229   2.220   4.067   4.026
 3777SOL    HW112230   2.292   4.136   4.018
 3777SOL    HW212231   2.216   4.013   3.942
 3778SOL     OW12232   2.732   5.713   1.562
 3778SOL    HW112233   2.696   5.640   1.503
 3778SOL    HW212234   2.743   5.678   1.655
 3779SOL     OW12235   2.464   4.621   6.181
 3779SOL    HW112236   2.454   4.598   6.278
 3779SOL    HW212237   2.436   4.543   6.125
 3780SOL     OW12238   3.124   6.336   5.132
 3780SOL    HW112239   3.200   6.280   5.165
 3780SOL    HW212240   3.092   6.300   5.044
 3781SOL     OW12241   3.141   6.326   4.429
 3781SOL    HW112242   3.155   6.242   4.482
 3781SOL    HW212243   3.147   6.405   4.490
 3782SOL     OW12244   2.569   1.448   4.073
 3782SOL    HW112245   2.549   1.485   4.164
 3782SOL    HW212246   2.491   1.466   4.012
 3783SOL     OW12247   5.395   6.168   5.101
 3783SOL    HW112248   5.350   6.079   5.090
 3783SOL    HW212249   5.488   6.164   5.064
 3784SOL     OW12250   5.407   1.427   3.111
 3784SOL    HW112251   5.309   1.436   3.128
 3784SOL    HW212252   5.429   1.330   3.096
 3785SOL     OW12253   2.250   2.457   1.561
 3785SOL    HW112254   2.308   2.376   1.558
 3785SOL    HW212255   2.165   2.438   1.511
 3786SOL     OW12256   3.235   5.211   3.169
 3786SOL    HW112257   3.196   5.280   3.231
 3786SOL    HW212258   3.256   5.254   3.081
 3787SOL     OW12259   4.021   1.204   3.652
 3787SOL    HW112260   3.978   1.195   3.562
 3787SOL    HW212261   3.951   1.208   3.723
 3788SOL     OW12262   5.682   2.661   2.560
 3788SOL    HW112263   5.644   2.693   2.647
 3788SOL    HW212264   5.767   2.611   2.577
 3789SOL     OW12265   1.923   5.313   3.581
 3789SOL    HW112266   1.925   5.365   3.496
 3789SOL    HW212267   2.001   5.251   3.584
 3790SOL     OW12268   2.096   3.244   3.962
 3790SOL    HW112269   2.012   3.198   3.932
 3790SOL    HW212270   2.117   3.319   3.900
 3791SOL     OW12271   4.618   6.886   1.219
 3791SOL    HW112272   4.679   6.883   1.298
 3791SOL    HW212273   4.530   6.925   1.245
 3792SOL     OW12274   6.416   6.486   5.530
 3792SOL    HW112275   6.343   6.455   5.470
 3792SOL    HW212276   6.378   6.541   5.605
 3793SOL     OW12277   1.980   1.499   2.999
 3793SOL    HW112278   2.073   1.465   3.012
 3793SOL    HW212279   1.921   1.462   3.071
 3794SOL     OW12280   4.261   5.906   2.005
 3794SOL    HW112281   4.305   5.838   1.947
 3794SOL    HW212282   4.277   5.997   1.968
 3795SOL     OW12283   5.284   6.825   6.631
 3795SOL    HW112284   5.220   6.889   6.587
 3795SOL    HW212285   5.353   6.877   6.681
 3796SOL     OW12286   1.432   2.638   1.651
 3796SOL    HW112287   1.522   2.666   1.618
 3796SOL    HW212288   1.398   2.563   1.594
 3797SOL     OW12289   0.837   5.017   2.916
 3797SOL    HW112290   0.747   4.979   2.896
 3797SOL    HW212291   0.859   5.087   2.848
 3798SOL     OW12292   1.968   5.499   2.117
 3798SOL    HW112293   2.023   5.439   2.175
 3798SOL    HW212294   1.944   5.452   2.032
 3799SOL     OW12295   1.600   0.797   5.581
 3799SOL    HW112296   1.586   0.766   5.676
 3799SOL    HW212297   1.636   0.890   5.581
 3800SOL     OW12298   4.472   2.401   4.290
 3800SOL    HW112299   4.454   2.441   4.380
 3800SOL    HW212300   4.539   2.327   4.299
 3801SOL     OW12301   0.123   6.608   5.489
 3801SOL    HW112302   0.199   6.586   5.549
 3801SOL    HW212303   0.056   6.534   5.490
 3802SOL     OW12304   1.116   1.431   5.607
 3802SOL    HW112305   1.178   1.509   5.610
 3802SOL    HW212306   1.028   1.460   5.569
 3803SOL     OW12307   3.633   1.134   1.421
 3803SOL    HW112308   3.607   1.131   1.518
 3803SOL    HW212309   3.628   1.042   1.382
 3804SOL     OW12310   4.635   2.186   4.291
 3804SOL    HW112311   4.708   2.117   4.283
 3804SOL    HW212312   4.553   2.143   4.327
 3805SOL     OW12313   2.666   4.421   1.655
 3805SOL    HW112314   2.740   4.432   1.721
 3805SOL    HW212315   2.628   4.329   1.663
 3806SOL     OW12316   2.527   1.920   0.270
 3806SOL    HW112317   2.533   1.859   0.349
 3806SOL    HW212318   2.617   1.960   0.252
 3807SOL     OW12319   1.593   6.404   3.634
 3807SOL    HW112320   1.593   6.504   3.642
 3807SOL    HW212321   1.680   6.369   3.668
 3808SOL     OW12322   3.593   0.149   1.520
 3808SOL    HW112323   3.578   0.248   1.522
 3808SOL    HW212324   3.528   0.107   1.457
 3809SOL     OW12325   5.545   1.128   6.911
 3809SOL    HW112326   5.634   1.088   6.890
 3809SOL    HW212327   5.545   1.164   7.004
 3810SOL     OW12328   3.015   3.141   5.164
 3810SOL    HW112329   3.000   3.235   5.134
 3810SOL    HW212330   3.088   3.099   5.110
 3811SOL     OW12331   0.436   5.112   5.015
 3811SOL    HW112332   0.494   5.030   5.019
 3811SOL    HW212333   0.476   5.184   5.072
 3812SOL     OW12334   5.853   1.599   5.350
 3812SOL    HW112335   5.948   1.588   5.380
 3812SOL    HW212336   5.820   1.689   5.379
 3813SOL     OW12337   3.070   5.706   0.252
 3813SOL    HW112338   3.034   5.795   0.224
 3813SOL    HW212339   3.002   5.635   0.233
 3814SOL     OW12340   0.214   6.008   2.223
 3814SOL    HW112341   0.244   5.926   2.175
 3814SOL    HW212342   0.170   6.071   2.159
 3815SOL     OW12343   5.176   1.835   1.737
 3815SOL    HW112344   5.151   1.741   1.759
 3815SOL    HW212345   5.128   1.864   1.655
 3816SOL     OW12346   1.153   0.340   1.533
 3816SOL    HW112347   1.095   0.417   1.506
 3816SOL    HW212348   1.121   0.304   1.621
 3817SOL     OW12349   4.759   1.995   4.733
 3817SOL    HW112350   4.734   1.945   4.816
 3817SOL    HW212351   4.822   2.068   4.757
 3818SOL     OW12352   4.676   5.763   1.897
 3818SOL    HW112353   4.702   5.693   1.964
 3818SOL    HW212354   4.681   5.853   1.940
 3819SOL     OW12355   5.149   5.141   0.450
 3819SOL    HW112356   5.223   5.155   0.516
 3819SOL    HW212357   5.179   5.172   0.359
 3820SOL     OW12358   5.293   5.927   4.257
 3820SOL    HW112359   5.383   5.971   4.258
 3820SOL    HW212360   5.228   5.982   4.310
 3821SOL     OW12361   1.584   3.732   1.606
 3821SOL    HW112362   1.501   3.767   1.561
 3821SOL    HW212363   1.568   3.638   1.635
 3822SOL     OW12364   2.797   5.980   1.446
 3822SOL    HW112365   2.779   5.893   1.492
 3822SOL    HW212366   2.843   6.042   1.509
 3823SOL     OW12367   2.958   3.100   5.861
 3823SOL    HW112368   2.862   3.097   5.888
 3823SOL    HW212369   3.010   3.149   5.931
 3824SOL     OW12370   6.924   2.186   5.619
 3824SOL    HW112371   6.845   2.194   5.558
 3824SOL    HW212372   6.922   2.259   5.687
 3825SOL     OW12373   6.836   6.511   6.140
 3825SOL    HW112374   6.920   6.486   6.091
 3825SOL    HW212375   6.847   6.490   6.237
 3826SOL     OW12376   6.580   3.285   1.997
 3826SOL    HW112377   6.562   3.380   1.972
 3826SOL    HW212378   6.577   3.228   1.915
 3827SOL     OW12379   4.395   3.252   0.933
 3827SOL    HW112380   4.315   3.298   0.971
 3827SOL    HW212381   4.445   3.206   1.006
 3828SOL     OW12382   5.081   1.735   2.975
 3828SOL    HW112383   5.048   1.830   2.978
 3828SOL    HW212384   5.167   1.728   3.025
 3829SOL     OW12385   2.341   4.359   4.045
 3829SOL    HW112386   2.296   4.448   4.035
 3829SOL    HW212387   2.375   4.349   4.138
 3830SOL     OW12388   2.548   0.957   4.744
 3830SOL    HW112389   2.476   0.976   4.811
 3830SOL    HW212390   2.507   0.951   4.653
 3831SOL     OW12391   3.665   1.791   2.350
 3831SOL    HW112392   3.738   1.857   2.365
 3831SOL    HW212393   3.615   1.815   2.267
 3832SOL     OW12394   6.902   0.799   2.128
 3832SOL    HW112395   6.861   0.732   2.067
 3832SOL    HW212396   6.959   0.862   2.076
 3833SOL     OW12397   1.339   4.757   0.270
 3833SOL    HW112398   1.282   4.775   0.350
 3833SOL    HW212399   1.423   4.811   0.276
 3834SOL     OW12400   2.715   1.680   0.354
 3834SOL    HW112401   2.756   1.713   0.269
 3834SOL    HW212402   2.734   1.745   0.428
 3835SOL     OW12403   3.783   4.933   5.141
 3835SOL    HW112404   3.871   4.891   5.121
 3835SOL    HW212405   3.797   5.024   5.179
 3836SOL     OW12406   0.861   4.078   6.239
 3836SOL    HW112407   0.888   3.991   6.198
 3836SOL    HW212408   0.943   4.129   6.266
 3837SOL     OW12409   3.863   3.642   0.853
 3837SOL    HW112410   3.836   3.546   0.844
 3837SOL    HW212411   3.923   3.666   0.777
 3838SOL     OW12412   6.312   2.655   4.802
 3838SOL    HW112413   6.253   2.580   4.771
 3838SOL    HW212414   6.257   2.738   4.812
 3839SOL     OW12415   5.985   5.951   5.403
 3839SOL    HW112416   5.903   5.943   5.348
 3839SOL    HW212417   5.977   5.892   5.483
 3840SOL     OW12418   1.375   1.079   4.312
 3840SOL    HW112419   1.466   1.052   4.343
 3840SOL    HW212420   1.381   1.111   4.217
 3841SOL     OW12421   0.727   3.542   5.281
 3841SOL    HW112422   0.770   3.479   5.216
 3841SOL    HW212423   0.761   3.522   5.374
 3842SOL     OW12424   1.134   4.917   6.812
 3842SOL    HW112425   1.035   4.901   6.805
 3842SOL    HW212426   1.158   4.936   6.907
 3843SOL     OW12427   5.917   3.071   1.135
 3843SOL    HW112428   6.016   3.078   1.128
 3843SOL    HW212429   5.890   3.080   1.231
 3844SOL     OW12430   1.993   4.551   6.330
 3844SOL    HW112431   1.909   4.522   6.376
 3844SOL    HW212432   1.973   4.573   6.235
 3845SOL     OW12433   3.458   4.145   3.790
 3845SOL    HW112434   3.540   4.129   3.735
 3845SOL    HW212435   3.377   4.123   3.736
 3846SOL     OW12436   0.260   4.695   4.958
 3846SOL    HW112437   0.201   4.697   4.877
 3846SOL    HW212438   0.350   4.660   4.932
 3847SOL     OW12439   0.578   6.901   0.277
 3847SOL    HW112440   0.562   6.971   0.347
 3847SOL    HW212441   0.502   6.901   0.213
 3848SOL     OW12442   2.506   5.198   1.225
 3848SOL    HW112443   2.589   5.231   1.270
 3848SOL    HW212444   2.438   5.175   1.295
 3849SOL     OW12445   0.942   1.935   5.781
 3849SOL    HW112446   0.966   1.947   5.877
 3849SOL    HW212447   0.958   1.840   5.754
 3850SOL     OW12448   3.154   3.846   1.278
 3850SOL    HW112449   3.083   3.844   1.347
 3850SOL    HW212450   3.146   3.765   1.219
 3851SOL     OW12451   2.437   2.596   2.601
 3851SOL    HW112452   2.382   2.679   2.602
 3851SOL    HW212453   2.493   2.594   2.518
 3852SOL     OW12454   3.754   0.796   4.526
 3852SOL    HW112455   3.805   0.817   4.610
 3852SOL    HW212456   3.670   0.849   4.524
 3853SOL     OW12457   1.091   2.974   1.710
 3853SOL    HW112458   1.111   3.070   1.728
 3853SOL    HW212459   1.040   2.967   1.624
 3854SOL     OW12460   1.395   3.579   4.423
 3854SOL    HW112461   1.312   3.530   4.399
 3854SOL    HW212462   1.475   3.521   4.403
 3855SOL     OW12463   6.734   2.562   5.633
 3855SOL    HW112464   6.704   2.504   5.709
 3855SOL    HW212465   6.801   2.629   5.665
 3856SOL     OW12466   0.651   6.306   5.983
 3856SOL    HW112467   0.724   6.303   6.051
 3856SOL    HW212468   0.584   6.234   6.003
 3857SOL     OW12469   0.665   6.468   5.110
 3857SOL    HW112470   0.605   6.533   5.156
 3857SOL    HW212471   0.720   6.420   5.178
 3858SOL     OW12472   2.573   5.901   7.002
 3858SOL    HW112473   2.536   5.863   6.917
 3858SOL    HW212474   2.618   5.829   0.029
 3859SOL     OW12475   0.530   2.747   2.346
 3859SOL    HW112476   0.590   2.764   2.267
 3859SOL    HW212477   0.531   2.828   2.405
 3860SOL     OW12478   2.209   6.895   5.548
 3860SOL    HW112479   2.220   6.842   5.463
 3860SOL    HW212480   2.189   6.990   5.526
 3861SOL     OW12481   4.261   4.469   1.052
 3861SOL    HW112482   4.192   4.463   1.125
 3861SOL    HW212483   4.217   4.457   0.963
 3862SOL     OW12484   1.371   6.068   6.327
 3862SOL    HW112485   1.306   6.004   6.369
 3862SOL    HW212486   1.400   6.136   6.394
 3863SOL     OW12487   3.330   3.347   1.326
 3863SOL    HW112488   3.236   3.345   1.358
 3863SOL    HW212489   3.391   3.366   1.402
 3864SOL     OW12490   3.597   2.320   0.229
 3864SOL    HW112491   3.508   2.361   0.247
 3864SOL    HW212492   3.643   2.370   0.156
 3865SOL     OW12493   4.847   0.182   2.726
 3865SOL    HW112494   4.799   0.127   2.795
 3865SOL    HW212495   4.946   0.168   2.735
 3866SOL     OW12496   4.221   6.776   6.654
 3866SOL    HW112497   4.128   6.813   6.661
 3866SOL    HW212498   4.256   6.794   6.562
 3867SOL     OW12499   1.784   2.943   3.655
 3867SOL    HW112500   1.813   2.853   3.622
 3867SOL    HW212501   1.777   3.007   3.578
 3868SOL     OW12502   1.591   5.939   2.583
 3868SOL    HW112503   1.651   5.877   2.633
 3868SOL    HW212504   1.607   6.033   2.613
 3869SOL     OW12505   0.804   2.813   3.701
 3869SOL    HW112506   0.807   2.913   3.697
 3869SOL    HW212507   0.764   2.783   3.788
 3870SOL     OW12508   2.949   4.902   0.360
 3870SOL    HW112509   3.009   4.866   0.289
 3870SOL    HW212510   2.959   5.002   0.365
 3871SOL     OW12511   2.695   0.233   3.893
 3871SOL    HW112512   2.775   0.246   3.951
 3871SOL    HW212513   2.717   0.258   3.799
 3872SOL     OW12514   4.012   4.112   0.112
 3872SOL    HW112515   4.093   4.106   0.054
 3872SOL    HW212516   4.040   4.109   0.208
 3873SOL     OW12517   5.174   4.815   2.151
 3873SOL    HW112518   5.135   4.817   2.058
 3873SOL    HW212519   5.202   4.907   2.177
 3874SOL     OW12520   4.403   6.872   6.116
 3874SOL    HW112521   4.371   6.938   6.185
 3874SOL    HW212522   4.403   6.780   6.155
 3875SOL     OW12523   1.760   4.715   0.579
 3875SOL    HW112524   1.833   4.782   0.595
 3875SOL    HW212525   1.726   4.683   0.667
 3876SOL     OW12526   4.828   3.935   2.355
 3876SOL    HW112527   4.796   3.972   2.442
 3876SOL    HW212528   4.879   3.851   2.371
 3877SOL     OW12529   5.262   1.412   2.143
 3877SOL    HW112530   5.311   1.494   2.174
 3877SOL    HW212531   5.227   1.362   2.222
 3878SOL     OW12532   3.289   6.139   5.214
 3878SOL    HW112533   3.359   6.073   5.186
 3878SOL    HW212534   3.199   6.107   5.184
 3879SOL     OW12535   4.043   6.295   1.162
 3879SOL    HW112536   4.116   6.228   1.179
 3879SOL    HW212537   4.067   6.349   1.082
 3880SOL     OW12538   5.753   2.750   4.093
 3880SOL    HW112539   5.745   2.655   4.122
 3880SOL    HW212540   5.697   2.765   4.012
 3881SOL     OW12541   1.462   4.334   1.000
 3881SOL    HW112542   1.439   4.383   0.917
 3881SOL    HW212543   1.466   4.236   0.981
 3882SOL     OW12544   0.189   0.306   6.315
 3882SOL    HW112545   0.159   0.397   6.288
 3882SOL    HW212546   0.270   0.280   6.263
 3883SOL     OW12547   3.066   0.584   5.724
 3883SOL    HW112548   3.138   0.565   5.791
 3883SOL    HW212549   3.032   0.497   5.686
 3884SOL     OW12550   1.553   4.989   5.666
 3884SOL    HW112551   1.523   4.914   5.725
 3884SOL    HW212552   1.606   4.953   5.590
 3885SOL     OW12553   0.553   1.504   4.566
 3885SOL    HW112554   0.467   1.458   4.541
 3885SOL    HW212555   0.622   1.485   4.497
 3886SOL     OW12556   6.906   5.759   5.288
 3886SOL    HW112557   6.898   5.859   5.285
 3886SOL    HW212558   6.834   5.718   5.233
 3887SOL     OW12559   4.648   2.786   5.498
 3887SOL    HW112560   4.631   2.752   5.591
 3887SOL    HW212561   4.576   2.851   5.473
 3888SOL     OW12562   5.905   2.091   1.245
 3888SOL    HW112563   5.902   2.047   1.335
 3888SOL    HW212564   5.890   2.190   1.256
 3889SOL     OW12565   0.673   5.728   6.514
 3889SOL    HW112566   0.644   5.772   6.599
 3889SOL    HW212567   0.717   5.640   6.537
 3890SOL     OW12568   5.796   3.763   1.784
 3890SOL    HW112569   5.773   3.685   1.727
 3890SOL    HW212570   5.895   3.766   1.798
 3891SOL     OW12571   5.813   4.860   5.783
 3891SOL    HW112572   5.762   4.794   5.728
 3891SOL    HW212573   5.858   4.812   5.859
 3892SOL     OW12574   4.886   6.948   3.859
 3892SOL    HW112575   4.982   6.961   3.834
 3892SOL    HW212576   4.835   0.007   3.839
 3893SOL     OW12577   2.929   6.607   3.958
 3893SOL    HW112578   3.010   6.649   4.000
 3893SOL    HW212579   2.925   6.633   3.861
 3894SOL     OW12580   5.217   4.959   0.095
 3894SOL    HW112581   5.142   4.931   0.155
 3894SOL    HW212582   5.269   4.879   0.066
 3895SOL     OW12583   1.889   2.037   5.876
 3895SOL    HW112584   1.863   1.994   5.790
 3895SOL    HW212585   1.949   2.116   5.857
 3896SOL     OW12586   6.853   2.363   6.015
 3896SOL    HW112587   6.870   2.407   6.103
 3896SOL    HW212588   6.937   2.320   5.982
 3897SOL     OW12589   3.432   6.289   2.460
 3897SOL    HW112590   3.523   6.283   2.499
 3897SOL    HW212591   3.371   6.335   2.524
 3898SOL     OW12592   3.387   4.202   4.667
 3898SOL    HW112593   3.428   4.288   4.637
 3898SOL    HW212594   3.455   4.150   4.720
 3899SOL     OW12595   5.104   1.506   4.868
 3899SOL    HW112596   5.048   1.488   4.787
 3899SOL    HW212597   5.181   1.442   4.869
 3900SOL     OW12598   6.461   2.202   3.785
 3900SOL    HW112599   6.440   2.256   3.703
 3900SOL    HW212600   6.395   2.128   3.794
 3901SOL     OW12601   2.690   5.567   5.178
 3901SOL    HW112602   2.736   5.632   5.116
 3901SOL    HW212603   2.632   5.506   5.124
 3902SOL     OW12604   4.001   4.823   1.408
 3902SOL    HW112605   4.089   4.777   1.415
 3902SOL    HW212606   3.940   4.791   1.480
 3903SOL     OW12607   3.714   2.832   6.146
 3903SOL    HW112608   3.720   2.857   6.049
 3903SOL    HW212609   3.805   2.836   6.187
 3904SOL     OW12610   1.772   6.465   0.682
 3904SOL    HW112611   1.790   6.414   0.598
 3904SOL    HW212612   1.854   6.516   0.708
 3905SOL     OW12613   0.022   0.203   5.184
 3905SOL    HW112614   7.005   0.291   5.208
 3905SOL    HW212615   6.985   0.129   5.211
 3906SOL     OW12616   0.340   5.438   5.036
 3906SOL    HW112617   0.286   5.392   4.966
 3906SOL    HW212618   0.331   5.389   5.123
 3907SOL     OW12619   1.250   1.025   4.795
 3907SOL    HW112620   1.223   0.973   4.876
 3907SOL    HW212621   1.282   0.962   4.724
 3908SOL     OW12622   1.995   0.629   4.436
 3908SOL    HW112623   1.975   0.642   4.534
 3908SOL    HW212624   1.994   0.531   4.415
 3909SOL     OW12625   5.767   2.577   0.975
 3909SOL    HW112626   5.797   2.656   1.029
 3909SOL    HW212627   5.794   2.493   1.021
 3910SOL     OW12628   3.098   2.927   1.324
 3910SOL    HW112629   3.027   2.974   1.271
 3910SOL    HW212630   3.188   2.966   1.301
 3911SOL     OW12631   6.378   0.601   0.870
 3911SOL    HW112632   6.472   0.587   0.903
 3911SOL    HW212633   6.359   0.698   0.862
 3912SOL     OW12634   4.090   3.461   6.822
 3912SOL    HW112635   4.152   3.456   6.744
 3912SOL    HW212636   4.127   3.406   6.898
 3913SOL     OW12637   4.549   5.839   1.281
 3913SOL    HW112638   4.617   5.897   1.237
 3913SOL    HW212639   4.564   5.839   1.380
 3914SOL     OW12640   6.599   1.408   0.241
 3914SOL    HW112641   6.676   1.344   0.235
 3914SOL    HW212642   6.516   1.359   0.267
 3915SOL     OW12643   5.047   5.560   5.562
 3915SOL    HW112644   5.024   5.503   5.483
 3915SOL    HW212645   4.967   5.612   5.590
 3916SOL     OW12646   2.494   1.792   2.983
 3916SOL    HW112647   2.446   1.705   2.986
 3916SOL    HW212648   2.535   1.804   2.892
 3917SOL     OW12649   3.768   4.549   1.320
 3917SOL    HW112650   3.687   4.606   1.339
 3917SOL    HW212651   3.739   4.455   1.306
 3918SOL     OW12652   4.783   0.883   6.968
 3918SOL    HW112653   4.858   0.938   7.005
 3918SOL    HW212654   4.811   0.788   6.963
 3919SOL     OW12655   4.374   6.081   2.365
 3919SOL    HW112656   4.323   6.028   2.297
 3919SOL    HW212657   4.375   6.032   2.452
 3920SOL     OW12658   3.480   1.773   5.311
 3920SOL    HW112659   3.499   1.842   5.242
 3920SOL    HW212660   3.414   1.707   5.276
 3921SOL     OW12661   0.086   3.141   6.707
 3921SOL    HW112662   0.071   3.232   6.668
 3921SOL    HW212663   0.017   3.078   6.670
 3922SOL     OW12664   4.970   3.933   2.936
 3922SOL    HW112665   5.031   3.983   2.875
 3922SOL    HW212666   4.886   3.985   2.949
 3923SOL     OW12667   5.001   1.395   1.991
 3923SOL    HW112668   5.083   1.365   1.942
 3923SOL    HW212669   4.939   1.318   2.003
 3924SOL     OW12670   6.000   4.970   4.060
 3924SOL    HW112671   6.028   4.888   4.011
 3924SOL    HW212672   5.911   4.955   4.102
 3925SOL     OW12673   5.405   4.779   0.737
 3925SOL    HW112674   5.487   4.750   0.687
 3925SOL    HW212675   5.421   4.774   0.835
 3926SOL     OW12676   0.622   5.430   4.971
 3926SOL    HW112677   0.525   5.409   4.984
 3926SOL    HW212678   0.632   5.527   4.948
 3927SOL     OW12679   5.675   1.956   6.403
 3927SOL    HW112680   5.597   1.894   6.403
 3927SOL    HW212681   5.747   1.919   6.344
 3928SOL     OW12682   3.616   5.799   1.993
 3928SOL    HW112683   3.645   5.835   1.904
 3928SOL    HW212684   3.562   5.716   1.979
 3929SOL     OW12685   0.583   1.875   5.402
 3929SOL    HW112686   0.493   1.843   5.372
 3929SOL    HW212687   0.595   1.854   5.499
 3930SOL     OW12688   2.557   4.486   3.922
 3930SOL    HW112689   2.489   4.515   3.855
 3930SOL    HW212690   2.517   4.418   3.983
 3931SOL     OW12691   2.121   2.839   0.971
 3931SOL    HW112692   2.152   2.792   0.888
 3931SOL    HW212693   2.163   2.796   1.051
 3932SOL     OW12694   2.357   4.276   3.784
 3932SOL    HW112695   2.346   4.303   3.880
 3932SOL    HW212696   2.420   4.339   3.739
 3933SOL     OW12697   1.378   6.400   1.315
 3933SOL    HW112698   1.380   6.423   1.412
 3933SOL    HW212699   1.433   6.466   1.264
 3934SOL     OW12700   1.095   7.023   1.573
 3934SOL    HW112701   1.192   0.004   1.596
 3934SOL    HW212702   1.041   0.027   1.651
 3935SOL     OW12703   6.798   3.544   5.625
 3935SOL    HW112704   6.699   3.535   5.638
 3935SOL    HW212705   6.828   3.633   5.660
 3936SOL     OW12706   6.709   3.997   5.824
 3936SOL    HW112707   6.766   3.999   5.907
 3936SOL    HW212708   6.616   3.970   5.849
 3937SOL     OW12709   0.872   6.569   1.484
 3937SOL    HW112710   0.914   6.479   1.491
 3937SOL    HW212711   0.943   6.638   1.475
 3938SOL     OW12712   0.974   3.229   1.609
 3938SOL    HW112713   0.930   3.319   1.609
 3938SOL    HW212714   0.919   3.165   1.555
 3939SOL     OW12715   0.686   1.058   3.154
 3939SOL    HW112716   0.748   1.019   3.222
 3939SOL    HW212717   0.727   1.050   3.063
 3940SOL     OW12718   3.235   6.562   0.771
 3940SOL    HW112719   3.317   6.584   0.824
 3940SOL    HW212720   3.261   6.510   0.690
 3941SOL     OW12721   5.634   5.728   2.116
 3941SOL    HW112722   5.628   5.629   2.125
 3941SOL    HW212723   5.721   5.760   2.153
 3942SOL     OW12724   6.895   5.892   5.651
 3942SOL    HW112725   6.822   5.881   5.583
 3942SOL    HW212726   6.878   5.975   5.704
 3943SOL     OW12727   1.836   3.109   0.527
 3943SOL    HW112728   1.860   3.015   0.501
 3943SOL    HW212729   1.848   3.169   0.447
 3944SOL     OW12730   4.745   2.777   6.893
 3944SOL    HW112731   4.653   2.804   6.863
 3944SOL    HW212732   4.812   2.813   6.828
 3945SOL     OW12733   5.527   0.154   4.069
 3945SOL    HW112734   5.456   0.205   4.117
 3945SOL    HW212735   5.538   0.064   4.112
 3946SOL     OW12736   0.040   3.623   0.948
 3946SOL    HW112737   6.969   3.634   0.973
 3946SOL    HW212738   0.055   3.660   0.856
 3947SOL     OW12739   6.000   5.498   2.089
 3947SOL    HW112740   6.029   5.566   2.157
 3947SOL    HW212741   5.908   5.520   2.058
 3948SOL     OW12742   1.424   2.415   6.084
 3948SOL    HW112743   1.395   2.453   5.996
 3948SOL    HW212744   1.391   2.473   6.158
 3949SOL     OW12745   6.221   0.199   2.342
 3949SOL    HW112746   6.230   0.112   2.294
 3949SOL    HW212747   6.143   0.196   2.404
 3950SOL     OW12748   2.810   4.682   1.634
 3950SOL    HW112749   2.869   4.652   1.709
 3950SOL    HW212750   2.718   4.645   1.647
 3951SOL     OW12751   0.615   2.641   4.727
 3951SOL    HW112752   0.635   2.667   4.632
 3951SOL    HW212753   0.699   2.641   4.781
 3952SOL     OW12754   5.402   4.076   0.462
 3952SOL    HW112755   5.481   4.050   0.406
 3952SOL    HW212756   5.427   4.152   0.521
 3953SOL     OW12757   3.388   3.226   6.698
 3953SOL    HW112758   3.334   3.309   6.710
 3953SOL    HW212759   3.406   3.185   6.788
 3954SOL     OW12760   0.563   2.640   5.702
 3954SOL    HW112761   0.639   2.584   5.736
 3954SOL    HW212762   0.600   2.718   5.652
 3955SOL     OW12763   6.434   3.701   0.311
 3955SOL    HW112764   6.488   3.629   0.355
 3955SOL    HW212765   6.338   3.674   0.310
 3956SOL     OW12766   6.541   2.584   5.424
 3956SOL    HW112767   6.596   2.566   5.342
 3956SOL    HW212768   6.599   2.580   5.505
 3957SOL     OW12769   0.741   1.468   3.502
 3957SOL    HW112770   0.715   1.383   3.456
 3957SOL    HW212771   0.840   1.479   3.498
 3958SOL     OW12772   5.614   6.319   6.941
 3958SOL    HW112773   5.592   6.391   7.007
 3958SOL    HW212774   5.530   6.272   6.913
 3959SOL     OW12775   2.361   6.332   1.227
 3959SOL    HW112776   2.271   6.375   1.212
 3959SOL    HW212777   2.384   6.274   1.149
 3960SOL     OW12778   5.158   3.459   1.178
 3960SOL    HW112779   5.112   3.373   1.156
 3960SOL    HW212780   5.115   3.500   1.258
 3961SOL     OW12781   5.282   0.627   1.063
 3961SOL    HW112782   5.270   0.685   1.143
 3961SOL    HW212783   5.257   0.533   1.085
 3962SOL     OW12784   0.736   0.015   6.052
 3962SOL    HW112785   0.684   7.010   6.132
 3962SOL    HW212786   0.827   6.998   6.054
 3963SOL     OW12787   4.436   5.176   2.886
 3963SOL    HW112788   4.375   5.208   2.958
 3963SOL    HW212789   4.398   5.092   2.846
 3964SOL     OW12790   6.047   6.405   6.126
 3964SOL    HW112791   6.113   6.457   6.071
 3964SOL    HW212792   6.076   6.310   6.132
 3965SOL     OW12793   3.971   3.026   0.645
 3965SOL    HW112794   4.062   3.050   0.677
 3965SOL    HW212795   3.940   2.943   0.691
 3966SOL     OW12796   6.248   3.690   5.557
 3966SOL    HW112797   6.306   3.703   5.477
 3966SOL    HW212798   6.171   3.631   5.532
 3967SOL     OW12799   1.925   0.069   6.471
 3967SOL    HW112800   1.863   0.145   6.491
 3967SOL    HW212801   1.873   7.018   6.432
 3968SOL     OW12802   5.446   0.578   1.795
 3968SOL    HW112803   5.411   0.663   1.834
 3968SOL    HW212804   5.388   0.550   1.718
 3969SOL     OW12805   1.033   6.210   1.904
 3969SOL    HW112806   0.993   6.299   1.884
 3969SOL    HW212807   1.111   6.195   1.843
 3970SOL     OW12808   4.841   4.069   4.046
 3970SOL    HW112809   4.865   4.081   4.142
 3970SOL    HW212810   4.779   4.141   4.018
 3971SOL     OW12811   1.436   5.911   3.288
 3971SOL    HW112812   1.453   5.959   3.202
 3971SOL    HW212813   1.520   5.909   3.343
 3972SOL     OW12814   0.965   0.477   6.896
 3972SOL    HW112815   0.971   0.521   6.985
 3972SOL    HW212816   0.871   0.444   6.882
 3973SOL     OW12817   3.318   2.978   3.113
 3973SOL    HW112818   3.292   2.962   3.017
 3973SOL    HW212819   3.236   2.972   3.170
 3974SOL     OW12820   5.477   0.282   6.321
 3974SOL    HW112821   5.533   0.199   6.315
 3974SOL    HW212822   5.487   0.335   6.237
 3975SOL     OW12823   6.877   6.185   5.690
 3975SOL    HW112824   6.888   6.223   5.782
 3975SOL    HW212825   6.918   6.248   5.623
 3976SOL     OW12826   1.461   3.077   6.768
 3976SOL    HW112827   1.445   3.175   6.767
 3976SOL    HW212828   1.507   3.051   6.853
 3977SOL     OW12829   3.728   5.783   5.957
 3977SOL    HW112830   3.703   5.818   5.867
 3977SOL    HW212831   3.740   5.859   6.020
 3978SOL     OW12832   6.186   4.198   6.385
 3978SOL    HW112833   6.228   4.108   6.396
 3978SOL    HW212834   6.129   4.218   6.465
 3979SOL     OW12835   1.273   6.511   3.303
 3979SOL    HW112836   1.295   6.501   3.400
 3979SOL    HW212837   1.217   6.593   3.290
 3980SOL     OW12838   4.965   3.459   4.834
 3980SOL    HW112839   4.957   3.360   4.845
 3980SOL    HW212840   4.904   3.505   4.899
 3981SOL     OW12841   6.447   2.153   5.372
 3981SOL    HW112842   6.396   2.228   5.330
 3981SOL    HW212843   6.538   2.146   5.330
 3982SOL     OW12844   2.388   2.658   3.969
 3982SOL    HW112845   2.296   2.620   3.977
 3982SOL    HW212846   2.410   2.709   4.052
 3983SOL     OW12847   3.639   0.293   3.697
 3983SOL    HW112848   3.566   0.231   3.671
 3983SOL    HW212849   3.669   0.344   3.616
 3984SOL     OW12850   1.745   0.394   1.726
 3984SOL    HW112851   1.774   0.394   1.821
 3984SOL    HW212852   1.733   0.488   1.695
 3985SOL     OW12853   1.774   3.197   1.877
 3985SOL    HW112854   1.750   3.181   1.782
 3985SOL    HW212855   1.827   3.281   1.885
 3986SOL     OW12856   1.467   2.488   2.104
 3986SOL    HW112857   1.502   2.448   2.189
 3986SOL    HW212858   1.374   2.524   2.121
 3987SOL     OW12859   1.527   4.188   5.701
 3987SOL    HW112860   1.491   4.095   5.710
 3987SOL    HW212861   1.527   4.215   5.605
 3988SOL     OW12862   4.809   1.200   6.730
 3988SOL    HW112863   4.728   1.217   6.786
 3988SOL    HW212864   4.835   1.284   6.683
 3989SOL     OW12865   4.199   0.453   6.438
 3989SOL    HW112866   4.178   0.534   6.383
 3989SOL    HW212867   4.135   0.380   6.417
 3990SOL     OW12868   1.700   2.798   4.023
 3990SOL    HW112869   1.691   2.702   4.049
 3990SOL    HW212870   1.609   2.838   4.010
 3991SOL     OW12871   0.555   1.151   4.330
 3991SOL    HW112872   0.653   1.141   4.314
 3991SOL    HW212873   0.536   1.143   4.428
 3992SOL     OW12874   5.583   3.931   6.678
 3992SOL    HW112875   5.655   3.957   6.742
 3992SOL    HW212876   5.537   3.849   6.711
 3993SOL     OW12877   1.046   0.962   4.070
 3993SOL    HW112878   1.041   1.061   4.064
 3993SOL    HW212879   1.103   0.936   4.147
 3994SOL     OW12880   2.450   1.513   3.442
 3994SOL    HW112881   2.524   1.521   3.509
 3994SOL    HW212882   2.404   1.601   3.432
 3995SOL     OW12883   1.080   3.468   2.125
 3995SOL    HW112884   0.995   3.432   2.087
 3995SOL    HW212885   1.122   3.530   2.058
 3996SOL     OW12886   6.123   6.225   3.964
 3996SOL    HW112887   6.175   6.145   3.993
 3996SOL    HW212888   6.032   6.196   3.933
 3997SOL     OW12889   5.329   3.579   2.878
 3997SOL    HW112890   5.345   3.615   2.786
 3997SOL    HW212891   5.235   3.597   2.905
 3998SOL     OW12892   5.764   2.376   2.924
 3998SOL    HW112893   5.742   2.303   2.859
 3998SOL    HW212894   5.718   2.461   2.895
 3999SOL     OW12895   4.865   2.480   1.271
 3999SOL    HW112896   4.853   2.385   1.299
 3999SOL    HW212897   4.781   2.531   1.288
 4000SOL     OW12898   3.465   5.012   2.261
 4000SOL    HW112899   3.440   5.054   2.349
 4000SOL    HW212900   3.384   5.008   2.202
 4001SOL     OW12901   1.139   4.857   4.384
 4001SOL    HW112902   1.182   4.769   4.402
 4001SOL    HW212903   1.163   4.921   4.457
 4002SOL     OW12904   3.722   3.921   3.450
 4002SOL    HW112905   3.692   3.921   3.545
 4002SOL    HW212906   3.671   3.991   3.399
 4003SOL     OW12907   2.201   0.971   5.649
 4003SOL    HW112908   2.228   0.996   5.742
 4003SOL    HW212909   2.103   0.951   5.647
 4004SOL     OW12910   0.861   3.796   3.728
 4004SOL    HW112911   0.850   3.838   3.638
 4004SOL    HW212912   0.955   3.808   3.759
 4005SOL     OW12913   4.773   3.064   0.055
 4005SOL    HW112914   4.858   3.011   0.049
 4005SOL    HW212915   4.702   3.006   0.096
 4006SOL     OW12916   5.130   5.514   3.226
 4006SOL    HW112917   5.084   5.427   3.207
 4006SOL    HW212918   5.160   5.555   3.140
 4007SOL     OW12919   0.103   1.075   2.819
 4007SOL    HW112920   0.158   1.027   2.888
 4007SOL    HW212921   0.116   1.030   2.730
 4008SOL     OW12922   3.531   1.110   0.667
 4008SOL    HW112923   3.467   1.144   0.736
 4008SOL    HW212924   3.491   1.120   0.576
 4009SOL     OW12925   4.572   2.014   0.436
 4009SOL    HW112926   4.557   2.113   0.439
 4009SOL    HW212927   4.666   1.993   0.464
 4010SOL     OW12928   2.856   4.991   1.908
 4010SOL    HW112929   2.883   5.068   1.850
 4010SOL    HW212930   2.929   4.922   1.908
 4011SOL     OW12931   4.961   6.098   6.739
 4011SOL    HW112932   5.019   6.155   6.679
 4011SOL    HW212933   5.010   6.015   6.762
 4012SOL     OW12934   4.594   6.260   2.815
 4012SOL    HW112935   4.620   6.349   2.778
 4012SOL    HW212936   4.519   6.222   2.762
 4013SOL     OW12937   0.155   1.043   6.013
 4013SOL    HW112938   0.229   1.054   5.946
 4013SOL    HW212939   0.188   1.067   6.104
 4014SOL     OW12940   3.180   4.932   2.643
 4014SOL    HW112941   3.121   4.880   2.704
 4014SOL    HW212942   3.173   4.894   2.550
 4015SOL     OW12943   4.216   4.822   5.838
 4015SOL    HW112944   4.291   4.770   5.878
 4015SOL    HW212945   4.155   4.760   5.789
 4016SOL     OW12946   4.120   5.058   5.296
 4016SOL    HW112947   4.179   5.099   5.365
 4016SOL    HW212948   4.035   5.027   5.340
 4017SOL     OW12949   0.932   4.789   5.435
 4017SOL    HW112950   0.862   4.755   5.498
 4017SOL    HW212951   0.889   4.813   5.348
 4018SOL     OW12952   4.675   6.151   1.713
 4018SOL    HW112953   4.652   6.105   1.627
 4018SOL    HW212954   4.642   6.097   1.790
 4019SOL     OW12955   5.425   3.391   3.266
 4019SOL    HW112956   5.404   3.365   3.360
 4019SOL    HW212957   5.524   3.394   3.253
 4020SOL     OW12958   6.610   5.159   4.210
 4020SOL    HW112959   6.594   5.069   4.250
 4020SOL    HW212960   6.688   5.202   4.255
 4021SOL     OW12961   4.311   3.622   6.535
 4021SOL    HW112962   4.261   3.535   6.537
 4021SOL    HW212963   4.266   3.685   6.471
 4022SOL     OW12964   2.127   0.568   1.604
 4022SOL    HW112965   2.069   0.561   1.523
 4022SOL    HW212966   2.094   0.642   1.663
 4023SOL     OW12967   0.693   1.387   5.085
 4023SOL    HW112968   0.720   1.481   5.106
 4023SOL    HW212969   0.673   1.380   4.987
 4024SOL     OW12970   1.030   5.997   4.493
 4024SOL    HW112971   0.940   6.019   4.530
 4024SOL    HW212972   1.051   5.901   4.512
 4025SOL     OW12973   0.343   5.598   4.054
 4025SOL    HW112974   0.360   5.572   4.149
 4025SOL    HW212975   0.308   5.520   4.003
 4026SOL     OW12976   6.715   6.912   3.930
 4026SOL    HW112977   6.665   6.992   3.896
 4026SOL    HW212978   6.776   6.878   3.858
 4027SOL     OW12979   2.415   3.796   6.095
 4027SOL    HW112980   2.419   3.768   6.191
 4027SOL    HW212981   2.384   3.891   6.089
 4028SOL     OW12982   4.417   1.780   3.139
 4028SOL    HW112983   4.356   1.739   3.206
 4028SOL    HW212984   4.497   1.722   3.125
 4029SOL     OW12985   2.046   5.972   6.708
 4029SOL    HW112986   1.996   5.892   6.675
 4029SOL    HW212987   2.141   5.947   6.725
 4030SOL     OW12988   6.940   1.166   2.981
 4030SOL    HW112989   6.881   1.208   2.913
 4030SOL    HW212990   7.024   1.133   2.938
 4031SOL     OW12991   6.243   6.385   0.984
 4031SOL    HW112992   6.276   6.295   1.014
 4031SOL    HW212993   6.268   6.454   1.053
 4032SOL     OW12994   5.306   0.874   1.829
 4032SOL    HW112995   5.297   0.914   1.920
 4032SOL    HW212996   5.399   0.888   1.795
 4033SOL     OW12997   1.713   2.402   2.679
 4033SOL    HW112998   1.751   2.440   2.764
 4033SOL    HW212999   1.688   2.477   2.618
 4034SOL     OW13000   0.103   3.223   5.040
 4034SOL    HW113001   0.068   3.292   5.103
 4034SOL    HW213002   0.201   3.210   5.056
 4035SOL     OW13003   4.654   1.559   1.813
 4035SOL    HW113004   4.684   1.591   1.903
 4035SOL    HW213005   4.562   1.594   1.794
 4036SOL     OW13006   2.305   5.472   2.792
 4036SOL    HW113007   2.362   5.397   2.756
 4036SOL    HW213008   2.268   5.446   2.881
 4037SOL     OW13009   2.398   1.080   6.183
 4037SOL    HW113010   2.453   1.082   6.100
 4037SOL    HW213011   2.411   0.992   6.230
 4038SOL     OW13012   3.311   3.827   5.822
 4038SOL    HW113013   3.374   3.812   5.898
 4038SOL    HW213014   3.280   3.922   5.823
 4039SOL     OW13015   6.156   4.693   1.552
 4039SOL    HW113016   6.181   4.628   1.624
 4039SOL    HW213017   6.177   4.653   1.463
 4040SOL     OW13018   3.164   6.003   4.765
 4040SOL    HW113019   3.214   5.941   4.825
 4040SOL    HW213020   3.226   6.071   4.728
 4041SOL     OW13021   2.433   6.559   0.868
 4041SOL    HW113022   2.392   6.639   0.824
 4041SOL    HW213023   2.387   6.543   0.955
 4042SOL     OW13024   5.941   0.938   3.539
 4042SOL    HW113025   5.966   1.035   3.545
 4042SOL    HW213026   6.020   0.886   3.505
 4043SOL     OW13027   5.604   3.288   6.934
 4043SOL    HW113028   5.558   3.306   7.021
 4043SOL    HW213029   5.652   3.201   6.939
 4044SOL     OW13030   4.628   5.587   2.763
 4044SOL    HW113031   4.650   5.677   2.799
 4044SOL    HW213032   4.660   5.580   2.668
 4045SOL     OW13033   4.852   0.200   5.373
 4045SOL    HW113034   4.889   0.119   5.327
 4045SOL    HW213035   4.756   0.184   5.396
 4046SOL     OW13036   6.016   1.867   2.539
 4046SOL    HW113037   6.100   1.853   2.593
 4046SOL    HW213038   6.039   1.907   2.451
 4047SOL     OW13039   2.853   3.633   6.974
 4047SOL    HW113040   2.918   3.649   0.024
 4047SOL    HW213041   2.849   3.536   6.954
 4048SOL     OW13042   4.675   1.611   2.093
 4048SOL    HW113043   4.631   1.699   2.105
 4048SOL    HW213044   4.673   1.560   2.178
 4049SOL     OW13045   3.765   4.685   6.582
 4049SOL    HW113046   3.713   4.684   6.497
 4049SOL    HW213047   3.850   4.738   6.568
 4050SOL     OW13048   0.560   5.801   2.624
 4050SOL    HW113049   0.490   5.750   2.674
 4050SOL    HW213050   0.648   5.790   2.669
 4051SOL     OW13051   5.362   0.950   5.182
 4051SOL    HW113052   5.364   0.946   5.083
 4051SOL    HW213053   5.377   1.044   5.212
 4052SOL     OW13054   6.212   2.352   3.600
 4052SOL    HW113055   6.161   2.407   3.533
 4052SOL    HW213056   6.174   2.368   3.691
 4053SOL     OW13057   0.970   5.120   4.586
 4053SOL    HW113058   0.980   5.212   4.547
 4053SOL    HW213059   0.880   5.084   4.561
 4054SOL     OW13060   4.417   4.254   0.387
 4054SOL    HW113061   4.483   4.216   0.322
 4054SOL    HW213062   4.345   4.303   0.336
 4055SOL     OW13063   0.458   4.502   1.031
 4055SOL    HW113064   0.542   4.500   0.976
 4055SOL    HW213065   0.379   4.515   0.971
 4056SOL     OW13066   5.202   3.420   0.607
 4056SOL    HW113067   5.267   3.358   0.651
 4056SOL    HW213068   5.138   3.455   0.675
 4057SOL     OW13069   6.777   3.047   6.892
 4057SOL    HW113070   6.859   3.094   6.923
 4057SOL    HW213071   6.696   3.092   6.930
 4058SOL     OW13072   2.570   6.334   5.742
 4058SOL    HW113073   2.636   6.405   5.716
 4058SOL    HW213074   2.618   6.251   5.768
 4059SOL     OW13075   1.245   1.610   4.608
 4059SOL    HW113076   1.266   1.569   4.519
 4059SOL    HW213077   1.220   1.706   4.595
 4060SOL     OW13078   6.526   5.977   5.752
 4060SOL    HW113079   6.428   5.993   5.744
 4060SOL    HW213080   6.575   6.062   5.734
 4061SOL     OW13081   2.156   5.992   0.918
 4061SOL    HW113082   2.141   5.904   0.872
 4061SOL    HW213083   2.151   5.979   1.017
 4062SOL     OW13084   1.813   1.888   1.766
 4062SOL    HW113085   1.735   1.925   1.716
 4062SOL    HW213086   1.817   1.928   1.858
 4063SOL     OW13087   5.413   1.402   0.368
 4063SOL    HW113088   5.426   1.325   0.430
 4063SOL    HW213089   5.345   1.378   0.299
 4064SOL     OW13090   1.993   2.097   5.462
 4064SOL    HW113091   2.068   2.057   5.515
 4064SOL    HW213092   1.994   2.057   5.369
 4065SOL     OW13093   2.121   6.822   1.163
 4065SOL    HW113094   2.154   6.753   1.099
 4065SOL    HW213095   2.167   6.909   1.145
 4066SOL     OW13096   0.097   4.338   3.711
 4066SOL    HW113097   0.088   4.400   3.789
 4066SOL    HW213098   0.149   4.257   3.738
 4067SOL     OW13099   5.095   5.056   1.664
 4067SOL    HW113100   5.023   5.126   1.664
 4067SOL    HW213101   5.142   5.057   1.576
 4068SOL     OW13102   1.843   2.793   5.318
 4068SOL    HW113103   1.917   2.859   5.306
 4068SOL    HW213104   1.875   2.718   5.376
 4069SOL     OW13105   4.212   0.075   6.970
 4069SOL    HW113106   4.127   0.050   7.017
 4069SOL    HW213107   4.237   0.003   6.906
 4070SOL     OW13108   1.795   3.104   3.430
 4070SOL    HW113109   1.857   3.182   3.434
 4070SOL    HW213110   1.773   3.083   3.335
 4071SOL     OW13111   0.596   0.432   4.038
 4071SOL    HW113112   0.586   0.426   3.939
 4071SOL    HW213113   0.515   0.393   4.082
 4072SOL     OW13114   2.264   5.729   3.416
 4072SOL    HW113115   2.179   5.682   3.390
 4072SOL    HW213116   2.323   5.665   3.464
 4073SOL     OW13117   3.198   4.682   6.976
 4073SOL    HW113118   3.165   4.619   6.906
 4073SOL    HW213119   3.297   4.689   6.971
 4074SOL     OW13120   1.230   6.172   2.987
 4074SOL    HW113121   1.298   6.219   3.044
 4074SOL    HW213122   1.248   6.073   2.989
 4075SOL     OW13123   6.005   0.598   0.374
 4075SOL    HW113124   5.974   0.585   0.280
 4075SOL    HW213125   5.959   0.533   0.434
 4076SOL     OW13126   2.940   3.653   5.201
 4076SOL    HW113127   2.895   3.621   5.284
 4076SOL    HW213128   2.998   3.732   5.223
 4077SOL     OW13129   3.520   1.648   1.669
 4077SOL    HW113130   3.494   1.554   1.644
 4077SOL    HW213131   3.587   1.682   1.603
 4078SOL     OW13132   2.691   4.672   2.672
 4078SOL    HW113133   2.667   4.617   2.752
 4078SOL    HW213134   2.654   4.629   2.590
 4079SOL     OW13135   0.988   2.284   4.289
 4079SOL    HW113136   0.943   2.263   4.375
 4079SOL    HW213137   1.005   2.382   4.283
 4080SOL     OW13138   6.161   1.305   4.913
 4080SOL    HW113139   6.162   1.393   4.865
 4080SOL    HW213140   6.149   1.321   5.011
 4081SOL     OW13141   1.973   3.298   3.444
 4081SOL    HW113142   1.922   3.378   3.474
 4081SOL    HW213143   2.025   3.321   3.361
 4082SOL     OW13144   0.823   2.666   1.448
 4082SOL    HW113145   0.877   2.611   1.384
 4082SOL    HW213146   0.827   2.625   1.539
 4083SOL     OW13147   5.424   2.597   5.137
 4083SOL    HW113148   5.491   2.563   5.203
 4083SOL    HW213149   5.345   2.634   5.186
 4084SOL     OW13150   0.302   1.548   4.297
 4084SOL    HW113151   0.315   1.494   4.214
 4084SOL    HW213152   0.321   1.491   4.377
 4085SOL     OW13153   3.651   6.628   0.096
 4085SOL    HW113154   3.606   6.577   0.023
 4085SOL    HW213155   3.604   6.611   0.183
 4086SOL     OW13156   1.669   4.456   1.092
 4086SOL    HW113157   1.588   4.407   1.059
 4086SOL    HW213158   1.702   4.414   1.176
 4087SOL     OW13159   1.982   1.714   3.416
 4087SOL    HW113160   1.981   1.656   3.335
 4087SOL    HW213161   1.910   1.685   3.479
 4088SOL     OW13162   6.308   1.830   1.413
 4088SOL    HW113163   6.280   1.826   1.317
 4088SOL    HW213164   6.392   1.777   1.426
 4089SOL     OW13165   0.783   0.783   4.372
 4089SOL    HW113166   0.740   0.872   4.357
 4089SOL    HW213167   0.763   0.723   4.295
 4090SOL     OW13168   2.329   4.335   6.312
 4090SOL    HW113169   2.312   4.370   6.220
 4090SOL    HW213170   2.378   4.404   6.366
 4091SOL     OW13171   4.402   5.805   0.245
 4091SOL    HW113172   4.361   5.835   0.331
 4091SOL    HW213173   4.431   5.710   0.254
 4092SOL     OW13174   0.392   2.705   4.848
 4092SOL    HW113175   0.348   2.747   4.769
 4092SOL    HW213176   0.483   2.672   4.821
 4093SOL     OW13177   5.502   0.506   3.758
 4093SOL    HW113178   5.420   0.518   3.702
 4093SOL    HW213179   5.517   0.589   3.813
 4094SOL     OW13180   1.791   3.987   5.326
 4094SOL    HW113181   1.836   3.931   5.396
 4094SOL    HW213182   1.850   4.064   5.303
 4095SOL     OW13183   0.795   3.174   6.095
 4095SOL    HW113184   0.851   3.192   6.176
 4095SOL    HW213185   0.789   3.075   6.080
 4096SOL     OW13186   4.471   4.798   6.974
 4096SOL    HW113187   4.429   4.709   6.956
 4096SOL    HW213188   4.400   4.866   6.987
 4097SOL     OW13189   3.493   3.695   6.023
 4097SOL    HW113190   3.572   3.650   6.064
 4097SOL    HW213191   3.433   3.730   6.095
 4098SOL     OW13192   0.424   2.199   3.097
 4098SOL    HW113193   0.477   2.220   3.179
 4098SOL    HW213194   0.342   2.257   3.096
 4099SOL     OW13195   3.683   5.893   1.753
 4099SOL    HW113196   3.686   5.800   1.716
 4099SOL    HW213197   3.758   5.946   1.715
 4100SOL     OW13198   4.111   5.759   3.542
 4100SOL    HW113199   4.069   5.682   3.494
 4100SOL    HW213200   4.204   5.772   3.508
 4101SOL     OW13201   5.868   1.393   6.417
 4101SOL    HW113202   5.822   1.481   6.410
 4101SOL    HW213203   5.960   1.406   6.455
 4102SOL     OW13204   5.968   1.159   0.428
 4102SOL    HW113205   6.009   1.083   0.480
 4102SOL    HW213206   5.879   1.181   0.467
 4103SOL     OW13207   0.633   0.492   2.156
 4103SOL    HW113208   0.552   0.453   2.200
 4103SOL    HW213209   0.686   0.419   2.114
 4104SOL     OW13210   1.275   4.946   2.587
 4104SOL    HW113211   1.178   4.951   2.564
 4104SOL    HW213212   1.329   4.941   2.503
 4105SOL     OW13213   3.726   4.968   0.404
 4105SOL    HW113214   3.742   5.067   0.407
 4105SOL    HW213215   3.647   4.946   0.461
 4106SOL     OW13216   0.256   3.702   4.694
 4106SOL    HW113217   0.221   3.678   4.784
 4106SOL    HW213218   0.356   3.696   4.694
 4107SOL     OW13219   0.216   0.143   1.201
 4107SOL    HW113220   0.132   0.093   1.224
 4107SOL    HW213221   0.243   0.200   1.278
 4108SOL     OW13222   6.661   3.495   6.313
 4108SOL    HW113223   6.724   3.423   6.283
 4108SOL    HW213224   6.567   3.466   6.296
 4109SOL     OW13225   3.711   6.649   3.744
 4109SOL    HW113226   3.713   6.615   3.838
 4109SOL    HW213227   3.784   6.717   3.732
 4110SOL     OW13228   5.112   3.812   5.928
 4110SOL    HW113229   5.120   3.892   5.987
 4110SOL    HW213230   5.156   3.830   5.840
 4111SOL     OW13231   4.022   2.703   6.831
 4111SOL    HW113232   4.081   2.624   6.815
 4111SOL    HW213233   4.025   2.727   6.928
 4112SOL     OW13234   3.448   1.757   3.764
 4112SOL    HW113235   3.417   1.711   3.847
 4112SOL    HW213236   3.546   1.775   3.770
 4113SOL     OW13237   3.517   4.934   5.262
 4113SOL    HW113238   3.470   5.012   5.222
 4113SOL    HW213239   3.615   4.939   5.242
 4114SOL     OW13240   2.992   1.569   3.758
 4114SOL    HW113241   3.020   1.599   3.849
 4114SOL    HW213242   2.973   1.649   3.701
 4115SOL     OW13243   4.772   4.773   1.966
 4115SOL    HW113244   4.692   4.776   1.907
 4115SOL    HW213245   4.763   4.697   2.030
 4116SOL     OW13246   3.668   1.771   1.448
 4116SOL    HW113247   3.655   1.738   1.355
 4116SOL    HW213248   3.596   1.837   1.470
 4117SOL     OW13249   1.141   5.350   1.254
 4117SOL    HW113250   1.238   5.349   1.279
 4117SOL    HW213251   1.126   5.292   1.174
 4118SOL     OW13252   1.251   6.790   0.623
 4118SOL    HW113253   1.258   6.748   0.713
 4118SOL    HW213254   1.285   6.884   0.627
 4119SOL     OW13255   3.396   0.708   4.416
 4119SOL    HW113256   3.304   0.692   4.382
 4119SOL    HW213257   3.451   0.751   4.345
 4120SOL     OW13258   3.982   6.941   1.221
 4120SOL    HW113259   4.069   6.989   1.214
 4120SOL    HW213260   3.939   6.960   1.309
 4121SOL     OW13261   6.967   2.593   4.078
 4121SOL    HW113262   6.960   2.493   4.071
 4121SOL    HW213263   0.037   2.618   4.098
 4122SOL     OW13264   0.804   5.527   5.594
 4122SOL    HW113265   0.739   5.535   5.670
 4122SOL    HW213266   0.856   5.611   5.585
 4123SOL     OW13267   5.439   4.009   6.006
 4123SOL    HW113268   5.422   3.914   5.977
 4123SOL    HW213269   5.536   4.023   6.020
 4124SOL     OW13270   5.561   6.420   4.407
 4124SOL    HW113271   5.567   6.520   4.412
 4124SOL    HW213272   5.651   6.383   4.384
 4125SOL     OW13273   4.332   1.039   1.086
 4125SOL    HW113274   4.326   1.061   0.988
 4125SOL    HW213275   4.243   1.055   1.129
 4126SOL     OW13276   2.254   4.166   4.742
 4126SOL    HW113277   2.265   4.116   4.828
 4126SOL    HW213278   2.345   4.193   4.708
 4127SOL     OW13279   5.689   3.209   5.088
 4127SOL    HW113280   5.632   3.130   5.109
 4127SOL    HW213281   5.761   3.218   5.156
 4128SOL     OW13282   1.411   3.337   2.215
 4128SOL    HW113283   1.425   3.358   2.312
 4128SOL    HW213284   1.313   3.325   2.198
 4129SOL     OW13285   5.652   2.007   5.750
 4129SOL    HW113286   5.617   1.924   5.706
 4129SOL    HW213287   5.703   2.061   5.682
 4130SOL     OW13288   6.675   4.324   6.302
 4130SOL    HW113289   6.732   4.253   6.343
 4130SOL    HW213290   6.579   4.307   6.324
 4131SOL     OW13291   0.004   4.926   4.004
 4131SOL    HW113292   6.947   4.870   3.998
 4131SOL    HW213293   0.083   4.873   3.974
 4132SOL     OW13294   5.160   3.090   3.334
 4132SOL    HW113295   5.178   3.158   3.405
 4132SOL    HW213296   5.247   3.058   3.297
 4133SOL     OW13297   2.552   1.348   1.377
 4133SOL    HW113298   2.617   1.402   1.430
 4133SOL    HW213299   2.479   1.406   1.343
 4134SOL     OW13300   2.140   2.011   0.156
 4134SOL    HW113301   2.062   1.998   0.093
 4134SOL    HW213302   2.176   2.103   0.145
 4135SOL     OW13303   2.256   1.374   2.429
 4135SOL    HW113304   2.227   1.335   2.516
 4135SOL    HW213305   2.261   1.474   2.437
 4136SOL     OW13306   6.939   2.064   3.960
 4136SOL    HW113307   6.973   1.982   4.006
 4136SOL    HW213308   6.859   2.042   3.906
 4137SOL     OW13309   3.309   3.450   6.493
 4137SOL    HW113310   3.235   3.388   6.518
 4137SOL    HW213311   3.277   3.544   6.499
 4138SOL     OW13312   4.009   4.830   3.509
 4138SOL    HW113313   4.039   4.791   3.596
 4138SOL    HW213314   4.086   4.829   3.444
 4139SOL     OW13315   1.511   1.806   6.129
 4139SOL    HW113316   1.548   1.899   6.134
 4139SOL    HW213317   1.527   1.769   6.037
 4140SOL     OW13318   4.102   0.871   5.415
 4140SOL    HW113319   4.153   0.874   5.329
 4140SOL    HW213320   4.054   0.958   5.428
 4141SOL     OW13321   5.354   5.264   0.574
 4141SOL    HW113322   5.352   5.335   0.503
 4141SOL    HW213323   5.392   5.303   0.658
 4142SOL     OW13324   6.956   4.292   1.185
 4142SOL    HW113325   0.013   4.244   1.216
 4142SOL    HW213326   6.900   4.316   1.265
 4143SOL     OW13327   6.832   3.194   0.706
 4143SOL    HW113328   6.829   3.111   0.761
 4143SOL    HW213329   6.927   3.223   0.695
 4144SOL     OW13330   5.169   1.344   2.410
 4144SOL    HW113331   5.102   1.406   2.368
 4144SOL    HW213332   5.135   1.314   2.499
 4145SOL     OW13333   1.759   0.336   1.467
 4145SOL    HW113334   1.754   0.385   1.554
 4145SOL    HW213335   1.846   0.355   1.423
 4146SOL     OW13336   5.086   6.968   6.992
 4146SOL    HW113337   5.074   6.887   6.935
 4146SOL    HW213338   5.156   6.951   0.036
 4147SOL     OW13339   3.175   1.742   5.585
 4147SOL    HW113340   3.123   1.738   5.500
 4147SOL    HW213341   3.253   1.804   5.574
 4148SOL     OW13342   6.366   0.568   3.399
 4148SOL    HW113343   6.451   0.615   3.423
 4148SOL    HW213344   6.374   0.533   3.306
 4149SOL     OW13345   6.083   4.108   1.589
 4149SOL    HW113346   6.069   4.095   1.688
 4149SOL    HW213347   6.093   4.205   1.570
 4150SOL     OW13348   5.699   0.081   6.856
 4150SOL    HW113349   5.758   0.000   6.855
 4150SOL    HW213350   5.714   0.133   6.940
 4151SOL     OW13351   0.065   6.124   0.548
 4151SOL    HW113352   0.032   6.041   0.503
 4151SOL    HW213353   0.158   6.145   0.517
 4152SOL     OW13354   4.202   4.852   1.735
 4152SOL    HW113355   4.281   4.883   1.682
 4152SOL    HW213356   4.161   4.773   1.690
 4153SOL     OW13357   6.237   4.829   6.404
 4153SOL    HW113358   6.291   4.845   6.321
 4153SOL    HW213359   6.203   4.917   6.438
 4154SOL     OW13360   6.094   2.962   5.675
 4154SOL    HW113361   6.121   2.956   5.771
 4154SOL    HW213362   6.176   2.960   5.617
 4155SOL     OW13363   0.802   3.319   1.888
 4155SOL    HW113364   0.766   3.411   1.904
 4155SOL    HW213365   0.832   3.312   1.793
 4156SOL     OW13366   5.351   6.506   5.533
 4156SOL    HW113367   5.405   6.584   5.566
 4156SOL    HW213368   5.413   6.437   5.496
 4157SOL     OW13369   4.296   0.600   3.946
 4157SOL    HW113370   4.197   0.603   3.954
 4157SOL    HW213371   4.323   0.618   3.852
 4158SOL     OW13372   0.503   5.723   3.279
 4158SOL    HW113373   0.528   5.626   3.278
 4158SOL    HW213374   0.404   5.733   3.278
 4159SOL     OW13375   1.058   2.869   3.967
 4159SOL    HW113376   1.060   2.885   3.868
 4159SOL    HW213377   1.122   2.931   4.012
 4160SOL     OW13378   6.698   0.338   1.144
 4160SOL    HW113379   6.619   0.297   1.189
 4160SOL    HW213380   6.712   0.294   1.055
 4161SOL     OW13381   1.037   1.922   0.105
 4161SOL    HW113382   0.952   1.961   0.071
 4161SOL    HW213383   1.093   1.994   0.146
 4162SOL     OW13384   6.125   6.323   4.854
 4162SOL    HW113385   6.160   6.398   4.797
 4162SOL    HW213386   6.093   6.359   4.941
 4163SOL     OW13387   5.534   1.583   3.908
 4163SOL    HW113388   5.469   1.658   3.923
 4163SOL    HW213389   5.495   1.498   3.943
 4164SOL     OW13390   1.368   0.672   7.008
 4164SOL    HW113391   1.303   0.705   6.940
 4164SOL    HW213392   1.338   0.583   0.018
 4165SOL     OW13393   3.700   7.014   1.189
 4165SOL    HW113394   3.651   0.076   1.176
 4165SOL    HW213395   3.785   7.016   1.138
 4166SOL     OW13396   4.721   3.018   0.573
 4166SOL    HW113397   4.738   3.109   0.611
 4166SOL    HW213398   4.647   3.023   0.506
 4167SOL     OW13399   2.380   2.680   1.651
 4167SOL    HW113400   2.325   2.611   1.605
 4167SOL    HW213401   2.341   2.771   1.635
 4168SOL     OW13402   0.912   5.384   1.698
 4168SOL    HW113403   0.815   5.406   1.696
 4168SOL    HW213404   0.964   5.465   1.728
 4169SOL     OW13405   5.168   3.400   3.480
 4169SOL    HW113406   5.200   3.426   3.571
 4169SOL    HW213407   5.200   3.466   3.413
 4170SOL     OW13408   3.673   2.835   5.184
 4170SOL    HW113409   3.720   2.893   5.251
 4170SOL    HW213410   3.740   2.778   5.136
 4171SOL     OW13411   5.093   3.617   1.427
 4171SOL    HW113412   5.079   3.545   1.496
 4171SOL    HW213413   5.115   3.703   1.473
 4172SOL     OW13414   0.746   1.711   0.692
 4172SOL    HW113415   0.780   1.617   0.691
 4172SOL    HW213416   0.750   1.747   0.785
 4173SOL     OW13417   4.961   2.863   5.309
 4173SOL    HW113418   4.862   2.848   5.299
 4173SOL    HW213419   4.983   2.957   5.284
 4174SOL     OW13420   4.606   0.615   3.658
 4174SOL    HW113421   4.607   0.617   3.758
 4174SOL    HW213422   4.666   0.542   3.626
 4175SOL     OW13423   3.337   6.987   3.439
 4175SOL    HW113424   3.414   6.926   3.421
 4175SOL    HW213425   3.332   0.032   3.368
 4176SOL     OW13426   4.858   6.899   3.192
 4176SOL    HW113427   4.915   6.954   3.132
 4176SOL    HW213428   4.902   6.889   3.281
 4177SOL     OW13429   0.523   6.391   2.854
 4177SOL    HW113430   0.440   6.375   2.908
 4177SOL    HW213431   0.512   6.349   2.764
 4178SOL     OW13432   3.407   1.906   5.533
 4178SOL    HW113433   3.480   1.917   5.601
 4178SOL    HW213434   3.434   1.837   5.466
 4179SOL     OW13435   5.549   3.603   5.317
 4179SOL    HW113436   5.621   3.601   5.386
 4179SOL    HW213437   5.573   3.542   5.241
 4180SOL     OW13438   4.684   4.347   1.406
 4180SOL    HW113439   4.675   4.333   1.504
 4180SOL    HW213440   4.593   4.348   1.364
 4181SOL     OW13441   0.680   1.680   0.097
 4181SOL    HW113442   0.589   1.720   0.104
 4181SOL    HW213443   0.679   1.588   0.136
 4182SOL     OW13444   5.859   0.268   2.645
 4182SOL    HW113445   5.883   0.316   2.729
 4182SOL    HW213446   5.900   0.316   2.567
 4183SOL     OW13447   1.677   1.624   1.734
 4183SOL    HW113448   1.734   1.698   1.769
 4183SOL    HW213449   1.728   1.538   1.738
 4184SOL     OW13450   3.818   5.446   0.368
 4184SOL    HW113451   3.764   5.417   0.447
 4184SOL    HW213452   3.834   5.545   0.373
 4185SOL     OW13453   0.477   0.063   3.594
 4185SOL    HW113454   0.577   0.065   3.586
 4185SOL    HW213455   0.439   0.011   3.517
 4186SOL     OW13456   2.274   3.875   1.185
 4186SOL    HW113457   2.253   3.790   1.233
 4186SOL    HW213458   2.192   3.907   1.137
 4187SOL     OW13459   3.669   3.295   6.156
 4187SOL    HW113460   3.629   3.257   6.072
 4187SOL    HW213461   3.768   3.298   6.148
 4188SOL     OW13462   4.533   0.190   4.608
 4188SOL    HW113463   4.548   0.154   4.516
 4188SOL    HW213464   4.599   0.262   4.627
 4189SOL     OW13465   2.311   1.943   4.649
 4189SOL    HW113466   2.295   1.846   4.627
 4189SOL    HW213467   2.223   1.987   4.665
 4190SOL     OW13468   3.271   1.189   0.105
 4190SOL    HW113469   3.221   1.268   0.072
 4190SOL    HW213470   3.210   1.110   0.109
 4191SOL     OW13471   6.507   2.106   2.526
 4191SOL    HW113472   6.512   2.201   2.497
 4191SOL    HW213473   6.556   2.048   2.461
 4192SOL     OW13474   5.852   1.328   3.748
 4192SOL    HW113475   5.891   1.318   3.839
 4192SOL    HW213476   5.871   1.246   3.694
 4193SOL     OW13477   1.813   6.951   2.265
 4193SOL    HW113478   1.816   6.861   2.222
 4193SOL    HW213479   1.857   7.019   2.206
 4194SOL     OW13480   0.227   1.339   3.924
 4194SOL    HW113481   0.286   1.344   3.843
 4194SOL    HW213482   0.277   1.296   3.998
 4195SOL     OW13483   5.263   0.443   1.614
 4195SOL    HW113484   5.222   0.419   1.702
 4195SOL    HW213485   5.197   0.426   1.541
 4196SOL     OW13486   4.825   2.373   4.140
 4196SOL    HW113487   4.879   2.358   4.223
 4196SOL    HW213488   4.749   2.309   4.137
 4197SOL     OW13489   4.739   4.189   4.331
 4197SOL    HW113490   4.737   4.256   4.256
 4197SOL    HW213491   4.658   4.131   4.324
 4198SOL     OW13492   6.226   3.835   0.123
 4198SOL    HW113493   6.314   3.802   0.089
 4198SOL    HW213494   6.199   3.917   0.072
 4199SOL     OW13495   2.933   3.681   5.629
 4199SOL    HW113496   2.968   3.669   5.722
 4199SOL    HW213497   3.005   3.658   5.563
 4200SOL     OW13498   2.099   0.178   6.998
 4200SOL    HW113499   2.014   0.128   7.012
 4200SOL    HW213500   2.084   0.256   6.937
 4201SOL     OW13501   5.870   6.295   3.739
 4201SOL    HW113502   5.803   6.361   3.705
 4201SOL    HW213503   5.918   6.254   3.661
 4202SOL     OW13504   5.615   4.662   4.519
 4202SOL    HW113505   5.535   4.635   4.466
 4202SOL    HW213506   5.647   4.752   4.488
 4203SOL     OW13507   5.345   5.901   3.175
 4203SOL    HW113508   5.333   5.965   3.100
 4203SOL    HW213509   5.443   5.892   3.196
 4204SOL     OW13510   3.013   2.830   1.550
 4204SOL    HW113511   3.100   2.817   1.598
 4204SOL    HW213512   3.032   2.858   1.455
 4205SOL     OW13513   2.552   5.213   3.844
 4205SOL    HW113514   2.476   5.162   3.882
 4205SOL    HW213515   2.635   5.196   3.898
 4206SOL     OW13516   4.919   0.585   4.777
 4206SOL    HW113517   4.916   0.603   4.678
 4206SOL    HW213518   4.836   0.536   4.804
 4207SOL     OW13519   1.195   1.766   2.124
 4207SOL    HW113520   1.096   1.751   2.118
 4207SOL    HW213521   1.234   1.764   2.032
 4208SOL     OW13522   1.098   2.940   0.606
 4208SOL    HW113523   1.172   2.890   0.651
 4208SOL    HW213524   1.114   3.038   0.616
 4209SOL     OW13525   2.696   0.098   5.108
 4209SOL    HW113526   2.774   0.118   5.167
 4209SOL    HW213527   2.710   0.138   5.018
 4210SOL     OW13528   4.451   2.969   0.411
 4210SOL    HW113529   4.380   2.917   0.458
 4210SOL    HW213530   4.409   3.043   0.358
 4211SOL     OW13531   4.356   4.995   3.414
 4211SOL    HW113532   4.297   4.921   3.381
 4211SOL    HW213533   4.408   5.032   3.338
 4212SOL     OW13534   6.261   1.453   2.684
 4212SOL    HW113535   6.314   1.523   2.731
 4212SOL    HW213536   6.296   1.363   2.707
 4213SOL     OW13537   1.365   1.021   2.760
 4213SOL    HW113538   1.340   1.060   2.671
 4213SOL    HW213539   1.344   0.923   2.761
 4214SOL     OW13540   0.781   3.016   4.573
 4214SOL    HW113541   0.829   2.948   4.518
 4214SOL    HW213542   0.683   2.996   4.572
 4215SOL     OW13543   0.339   5.642   4.474
 4215SOL    HW113544   0.378   5.552   4.496
 4215SOL    HW213545   0.256   5.656   4.528
 4216SOL     OW13546   1.097   2.769   4.769
 4216SOL    HW113547   1.034   2.768   4.846
 4216SOL    HW213548   1.152   2.853   4.771
 4217SOL     OW13549   6.824   0.452   3.087
 4217SOL    HW113550   6.880   0.517   3.036
 4217SOL    HW213551   6.743   0.498   3.122
 4218SOL     OW13552   4.148   0.181   1.753
 4218SOL    HW113553   4.182   0.157   1.844
 4218SOL    HW213554   4.181   0.272   1.727
 4219SOL     OW13555   4.388   5.723   3.478
 4219SOL    HW113556   4.416   5.756   3.388
 4219SOL    HW213557   4.411   5.793   3.547
 4220SOL     OW13558   6.049   2.652   3.806
 4220SOL    HW113559   6.077   2.560   3.835
 4220SOL    HW213560   6.040   2.711   3.887
 4221SOL     OW13561   5.651   5.662   5.958
 4221SOL    HW113562   5.559   5.667   5.998
 4221SOL    HW213563   5.690   5.754   5.954
 4222SOL     OW13564   4.719   1.865   0.930
 4222SOL    HW113565   4.816   1.888   0.933
 4222SOL    HW213566   4.672   1.922   0.862
 4223SOL     OW13567   3.469   4.189   2.167
 4223SOL    HW113568   3.462   4.141   2.079
 4223SOL    HW213569   3.461   4.287   2.152
 4224SOL     OW13570   4.456   2.376   5.099
 4224SOL    HW113571   4.521   2.449   5.079
 4224SOL    HW213572   4.363   2.410   5.081
 4225SOL     OW13573   5.597   6.991   5.236
 4225SOL    HW113574   5.624   0.062   5.238
 4225SOL    HW213575   5.540   6.973   5.156
 4226SOL     OW13576   0.749   1.186   4.012
 4226SOL    HW113577   0.695   1.104   3.992
 4226SOL    HW213578   0.717   1.261   3.955
 4227SOL     OW13579   5.182   4.482   0.157
 4227SOL    HW113580   5.232   4.402   0.126
 4227SOL    HW213581   5.106   4.454   0.215
 4228SOL     OW13582   6.184   5.312   2.667
 4228SOL    HW113583   6.202   5.350   2.757
 4228SOL    HW213584   6.267   5.318   2.611
 4229SOL     OW13585   5.102   4.739   5.646
 4229SOL    HW113586   5.023   4.763   5.590
 4229SOL    HW213587   5.075   4.674   5.717
 4230SOL     OW13588   3.662   7.008   5.050
 4230SOL    HW113589   3.748   7.015   5.001
 4230SOL    HW213590   3.669   6.935   5.119
 4231SOL     OW13591   4.636   0.147   5.527
 4231SOL    HW113592   4.633   0.204   5.609
 4231SOL    HW213593   4.544   0.137   5.490
 4232SOL     OW13594   2.416   4.399   2.374
 4232SOL    HW113595   2.324   4.394   2.413
 4232SOL    HW213596   2.412   4.375   2.277
 4233SOL     OW13597   6.435   6.253   0.234
 4233SOL    HW113598   6.465   6.261   0.139
 4233SOL    HW213599   6.471   6.169   0.274
 4234SOL     OW13600   2.980   4.261   5.832
 4234SOL    HW113601   2.905   4.280   5.769
 4234SOL    HW213602   3.067   4.268   5.783
 4235SOL     OW13603   6.486   3.552   5.686
 4235SOL    HW113604   6.451   3.580   5.775
 4235SOL    HW213605   6.450   3.613   5.615
 4236SOL     OW13606   1.142   2.959   4.381
 4236SOL    HW113607   1.046   2.987   4.379
 4236SOL    HW213608   1.149   2.862   4.404
 4237SOL     OW13609   5.115   3.110   5.180
 4237SOL    HW113610   5.091   3.207   5.183
 4237SOL    HW213611   5.131   3.083   5.085
 4238SOL     OW13612   4.334   5.530   3.925
 4238SOL    HW113613   4.260   5.596   3.910
 4238SOL    HW213614   4.295   5.441   3.948
 4239SOL     OW13615   4.774   5.523   5.851
 4239SOL    HW113616   4.738   5.457   5.786
 4239SOL    HW213617   4.781   5.613   5.808
 4240SOL     OW13618   2.512   4.545   6.858
 4240SOL    HW113619   2.419   4.559   6.823
 4240SOL    HW213620   2.508   4.485   6.938
 4241SOL     OW13621   4.069   0.656   6.750
 4241SOL    HW113622   4.043   0.676   6.845
 4241SOL    HW213623   4.013   0.581   6.715
 4242SOL     OW13624   2.601   0.850   2.631
 4242SOL    HW113625   2.672   0.893   2.687
 4242SOL    HW213626   2.525   0.914   2.620
 4243SOL     OW13627   1.691   3.020   2.760
 4243SOL    HW113628   1.740   2.994   2.844
 4243SOL    HW213629   1.605   2.968   2.755
 4244SOL     OW13630   4.016   6.664   1.222
 4244SOL    HW113631   4.073   6.634   1.145
 4244SOL    HW213632   3.995   6.761   1.212
 4245SOL     OW13633   6.176   3.667   1.103
 4245SOL    HW113634   6.177   3.665   1.003
 4245SOL    HW213635   6.228   3.590   1.139
 4246SOL     OW13636   5.014   1.828   3.322
 4246SOL    HW113637   4.923   1.864   3.303
 4246SOL    HW213638   5.014   1.782   3.410
 4247SOL     OW13639   1.235   5.078   5.490
 4247SOL    HW113640   1.228   5.170   5.454
 4247SOL    HW213641   1.244   5.081   5.590
 4248SOL     OW13642   1.565   0.999   3.368
 4248SOL    HW113643   1.659   1.023   3.347
 4248SOL    HW213644   1.563   0.931   3.441
 4249SOL     OW13645   6.955   6.859   4.637
 4249SOL    HW113646   6.895   6.937   4.618
 4249SOL    HW213647   6.904   6.774   4.625
 4250SOL     OW13648   0.350   5.377   4.462
 4250SOL    HW113649   0.283   5.391   4.389
 4250SOL    HW213650   0.437   5.349   4.422
 4251SOL     OW13651   5.941   1.942   5.689
 4251SOL    HW113652   5.957   1.993   5.604
 4251SOL    HW213653   5.967   1.999   5.767
 4252SOL     OW13654   0.103   6.395   0.204
 4252SOL    HW113655   0.192   6.408   0.248
 4252SOL    HW213656   0.067   6.483   0.174
 4253SOL     OW13657   4.717   5.531   2.510
 4253SOL    HW113658   4.782   5.605   2.495
 4253SOL    HW213659   4.758   5.444   2.482
 4254SOL     OW13660   1.658   3.204   0.170
 4254SOL    HW113661   1.714   3.280   0.135
 4254SOL    HW213662   1.641   3.139   0.096
 4255SOL     OW13663   1.255   3.788   2.830
 4255SOL    HW113664   1.217   3.875   2.800
 4255SOL    HW213665   1.310   3.749   2.757
 4256SOL     OW13666   0.763   5.610   2.238
 4256SOL    HW113667   0.691   5.672   2.269
 4256SOL    HW213668   0.814   5.653   2.164
 4257SOL     OW13669   6.200   0.721   4.340
 4257SOL    HW113670   6.269   0.650   4.323
 4257SOL    HW213671   6.242   0.811   4.332
 4258SOL     OW13672   3.762   6.225   0.834
 4258SOL    HW113673   3.687   6.288   0.814
 4258SOL    HW213674   3.730   6.131   0.822
 4259SOL     OW13675   1.271   0.374   2.269
 4259SOL    HW113676   1.280   0.455   2.211
 4259SOL    HW213677   1.185   0.381   2.321
 4260SOL     OW13678   5.579   0.830   4.471
 4260SOL    HW113679   5.650   0.900   4.469
 4260SOL    HW213680   5.584   0.780   4.557
 4261SOL     OW13681   2.158   6.466   4.549
 4261SOL    HW113682   2.122   6.494   4.460
 4261SOL    HW213683   2.128   6.531   4.619
 4262SOL     OW13684   1.864   3.972   6.603
 4262SOL    HW113685   1.814   3.889   6.626
 4262SOL    HW213686   1.908   3.960   6.514
 4263SOL     OW13687   2.733   2.303   4.138
 4263SOL    HW113688   2.799   2.302   4.214
 4263SOL    HW213689   2.645   2.268   4.171
 4264SOL     OW13690   5.104   1.166   5.125
 4264SOL    HW113691   5.119   1.228   5.202
 4264SOL    HW213692   5.166   1.190   5.050
 4265SOL     OW13693   3.630   0.919   0.053
 4265SOL    HW113694   3.684   0.920   0.137
 4265SOL    HW213695   3.625   0.825   0.018
 4266SOL     OW13696   1.166   5.988   1.016
 4266SOL    HW113697   1.151   5.981   0.918
 4266SOL    HW213698   1.077   5.998   1.062
 4267SOL     OW13699   1.818   4.174   5.027
 4267SOL    HW113700   1.859   4.114   4.959
 4267SOL    HW213701   1.878   4.179   5.107
 4268SOL     OW13702   1.215   4.692   0.041
 4268SOL    HW113703   1.176   4.776   0.003
 4268SOL    HW213704   1.265   4.713   0.125
 4269SOL     OW13705   2.815   1.486   4.798
 4269SOL    HW113706   2.730   1.502   4.849
 4269SOL    HW213707   2.843   1.571   4.753
 4270SOL     OW13708   3.928   2.746   0.695
 4270SOL    HW113709   3.937   2.777   0.790
 4270SOL    HW213710   3.914   2.647   0.694
 4271SOL     OW13711   0.121   0.770   1.576
 4271SOL    HW113712   0.095   0.865   1.559
 4271SOL    HW213713   0.103   0.747   1.671
 4272SOL     OW13714   6.900   1.470   6.460
 4272SOL    HW113715   6.859   1.480   6.550
 4272SOL    HW213716   6.876   1.551   6.404
 4273SOL     OW13717   3.284   5.926   4.474
 4273SOL    HW113718   3.248   5.934   4.381
 4273SOL    HW213719   3.231   5.858   4.524
 4274SOL     OW13720   0.064   1.544   1.826
 4274SOL    HW113721   0.111   1.516   1.910
 4274SOL    HW213722   6.990   1.542   1.841
 4275SOL     OW13723   6.653   2.974   3.032
 4275SOL    HW113724   6.694   3.034   3.101
 4275SOL    HW213725   6.655   2.879   3.064
 4276SOL     OW13726   2.415   5.706   4.372
 4276SOL    HW113727   2.418   5.607   4.390
 4276SOL    HW213728   2.465   5.754   4.443
 4277SOL     OW13729   5.927   5.492   3.284
 4277SOL    HW113730   5.883   5.482   3.194
 4277SOL    HW213731   5.971   5.582   3.290
 4278SOL     OW13732   1.359   0.015   1.673
 4278SOL    HW113733   1.454   7.012   1.657
 4278SOL    HW213734   1.352   0.114   1.670
 4279SOL     OW13735   1.645   1.550   3.353
 4279SOL    HW113736   1.597   1.617   3.297
 4279SOL    HW213737   1.591   1.467   3.359
 4280SOL     OW13738   0.584   6.758   6.513
 4280SOL    HW113739   0.629   6.687   6.459
 4280SOL    HW213740   0.572   6.726   6.607
 4281SOL     OW13741   4.976   5.764   3.223
 4281SOL    HW113742   5.029   5.684   3.250
 4281SOL    HW213743   4.883   5.736   3.201
 4282SOL     OW13744   3.562   4.163   0.874
 4282SOL    HW113745   3.465   4.174   0.894
 4282SOL    HW213746   3.600   4.091   0.931
 4283SOL     OW13747   5.037   1.200   4.295
 4283SOL    HW113748   5.041   1.289   4.341
 4283SOL    HW213749   4.944   1.164   4.301
 4284SOL     OW13750   4.452   5.599   5.885
 4284SOL    HW113751   4.494   5.560   5.802
 4284SOL    HW213752   4.375   5.657   5.859
 4285SOL     OW13753   2.958   0.417   5.544
 4285SOL    HW113754   3.020   0.479   5.496
 4285SOL    HW213755   2.869   0.417   5.499
 4286SOL     OW13756   5.708   0.706   6.150
 4286SOL    HW113757   5.630   0.769   6.149
 4286SOL    HW213758   5.721   0.668   6.059
 4287SOL     OW13759   4.567   0.542   0.379
 4287SOL    HW113760   4.582   0.523   0.281
 4287SOL    HW213761   4.655   0.554   0.424
 4288SOL     OW13762   6.953   6.322   2.110
 4288SOL    HW113763   6.953   6.223   2.122
 4288SOL    HW213764   0.001   6.363   2.166
 4289SOL     OW13765   0.374   3.909   4.157
 4289SOL    HW113766   0.461   3.862   4.141
 4289SOL    HW213767   0.311   3.848   4.205
 4290SOL     OW13768   0.314   0.737   3.711
 4290SOL    HW113769   0.309   0.721   3.613
 4290SOL    HW213770   0.407   0.718   3.743
 4291SOL     OW13771   4.874   3.188   6.234
 4291SOL    HW113772   4.788   3.151   6.199
 4291SOL    HW213773   4.864   3.286   6.249
 4292SOL     OW13774   5.832   2.336   1.309
 4292SOL    HW113775   5.762   2.313   1.242
 4292SOL    HW213776   5.789   2.355   1.397
 4293SOL     OW13777   3.823   4.538   6.878
 4293SOL    HW113778   3.752   4.470   6.861
 4293SOL    HW213779   3.908   4.509   6.834
 4294SOL     OW13780   1.771   1.768   6.607
 4294SOL    HW113781   1.797   1.686   6.555
 4294SOL    HW213782   1.785   1.849   6.550
 4295SOL     OW13783   4.120   6.002   2.748
 4295SOL    HW113784   4.141   6.070   2.818
 4295SOL    HW213785   4.028   5.966   2.763
 4296SOL     OW13786   2.935   6.127   2.297
 4296SOL    HW113787   2.996   6.084   2.230
 4296SOL    HW213788   2.989   6.166   2.371
 4297SOL     OW13789   6.010   4.609   0.711
 4297SOL    HW113790   6.025   4.707   0.723
 4297SOL    HW213791   5.912   4.591   0.703
 4298SOL     OW13792   2.280   6.710   0.284
 4298SOL    HW113793   2.274   6.809   0.269
 4298SOL    HW213794   2.369   6.677   0.255
 4299SOL     OW13795   0.570   3.322   0.105
 4299SOL    HW113796   0.515   3.245   0.137
 4299SOL    HW213797   0.647   3.336   0.167
 4300SOL     OW13798   2.478   1.383   1.010
 4300SOL    HW113799   2.541   1.331   1.069
 4300SOL    HW213800   2.411   1.321   0.969
 4301SOL     OW13801   2.489   0.067   1.281
 4301SOL    HW113802   2.481   0.011   1.199
 4301SOL    HW213803   2.580   0.056   1.321
 4302SOL     OW13804   2.097   5.938   6.058
 4302SOL    HW113805   2.163   5.863   6.051
 4302SOL    HW213806   2.012   5.912   6.012
 4303SOL     OW13807   5.966   5.217   3.131
 4303SOL    HW113808   5.979   5.174   3.042
 4303SOL    HW213809   6.055   5.231   3.174
 4304SOL     OW13810   3.610   3.797   1.465
 4304SOL    HW113811   3.602   3.856   1.545
 4304SOL    HW213812   3.524   3.748   1.452
 4305SOL     OW13813   1.770   6.992   5.198
 4305SOL    HW113814   1.735   0.009   5.114
 4305SOL    HW213815   1.775   0.037   5.270
 4306SOL     OW13816   6.216   3.252   5.201
 4306SOL    HW113817   6.150   3.186   5.165
 4306SOL    HW213818   6.196   3.271   5.297
 4307SOL     OW13819   0.243   1.459   5.652
 4307SOL    HW113820   0.273   1.438   5.745
 4307SOL    HW213821   0.143   1.467   5.650
 4308SOL     OW13822   4.567   5.528   0.049
 4308SOL    HW113823   4.650   5.584   0.056
 4308SOL    HW213824   4.504   5.571   7.009
 4309SOL     OW13825   0.988   2.565   0.668
 4309SOL    HW113826   1.000   2.470   0.698
 4309SOL    HW213827   0.966   2.566   0.571
 4310SOL     OW13828   6.461   1.816   3.298
 4310SOL    HW113829   6.408   1.900   3.285
 4310SOL    HW213830   6.538   1.815   3.234
 4311SOL     OW13831   0.616   0.454   2.537
 4311SOL    HW113832   0.522   0.434   2.567
 4311SOL    HW213833   0.624   0.551   2.517
 4312SOL     OW13834   0.527   5.118   2.833
 4312SOL    HW113835   0.491   5.026   2.821
 4312SOL    HW213836   0.476   5.182   2.774
 4313SOL     OW13837   6.372   2.348   0.050
 4313SOL    HW113838   6.297   2.283   0.057
 4313SOL    HW213839   6.426   2.346   0.135
 4314SOL     OW13840   6.519   1.917   5.574
 4314SOL    HW113841   6.618   1.922   5.587
 4314SOL    HW213842   6.490   1.989   5.512
 4315SOL     OW13843   2.930   1.348   4.365
 4315SOL    HW113844   2.969   1.256   4.368
 4315SOL    HW213845   2.852   1.353   4.428
 4316SOL     OW13846   5.236   0.055   1.627
 4316SOL    HW113847   5.274   6.989   1.636
 4316SOL    HW213848   5.308   0.119   1.599
 4317SOL     OW13849   4.562   0.876   5.723
 4317SOL    HW113850   4.472   0.895   5.684
 4317SOL    HW213851   4.591   0.954   5.779
 4318SOL     OW13852   0.501   0.544   4.351
 4318SOL    HW113853   0.510   0.562   4.449
 4318SOL    HW213854   0.405   0.538   4.327
 4319SOL     OW13855   1.615   4.964   2.832
 4319SOL    HW113856   1.560   4.882   2.819
 4319SOL    HW213857   1.644   5.001   2.744
 4320SOL     OW13858   3.418   6.611   1.190
 4320SOL    HW113859   3.488   6.641   1.255
 4320SOL    HW213860   3.391   6.517   1.212
 4321SOL     OW13861   6.506   6.595   2.521
 4321SOL    HW113862   6.512   6.693   2.536
 4321SOL    HW213863   6.517   6.547   2.609
 4322SOL     OW13864   0.813   3.195   5.328
 4322SOL    HW113865   0.763   3.148   5.256
 4322SOL    HW213866   0.910   3.203   5.301
 4323SOL     OW13867   3.854   5.078   6.481
 4323SOL    HW113868   3.826   5.172   6.497
 4323SOL    HW213869   3.873   5.065   6.383
 4324SOL     OW13870   6.926   4.149   6.006
 4324SOL    HW113871   6.865   4.227   6.022
 4324SOL    HW213872   7.003   4.178   5.948
 4325SOL     OW13873   2.640   0.606   2.419
 4325SOL    HW113874   2.612   0.677   2.484
 4325SOL    HW213875   2.689   0.648   2.342
 4326SOL     OW13876   4.678   2.489   2.289
 4326SOL    HW113877   4.588   2.448   2.300
 4326SOL    HW213878   4.668   2.587   2.272
 4327SOL     OW13879   3.098   6.032   3.798
 4327SOL    HW113880   3.124   6.085   3.878
 4327SOL    HW213881   3.169   6.040   3.728
 4328SOL     OW13882   5.853   6.803   4.533
 4328SOL    HW113883   5.892   6.742   4.601
 4328SOL    HW213884   5.876   6.898   4.555
 4329SOL     OW13885   0.338   1.959   6.289
 4329SOL    HW113886   0.270   1.886   6.290
 4329SOL    HW213887   0.344   1.998   6.197
 4330SOL     OW13888   2.906   4.844   4.859
 4330SOL    HW113889   2.962   4.901   4.920
 4330SOL    HW213890   2.887   4.757   4.903
 4331SOL     OW13891   5.921   0.980   2.210
 4331SOL    HW113892   5.857   0.978   2.287
 4331SOL    HW213893   5.930   1.074   2.177
 4332SOL     OW13894   0.385   5.354   2.412
 4332SOL    HW113895   0.406   5.355   2.314
 4332SOL    HW213896   0.294   5.392   2.426
 4333SOL     OW13897   3.579   2.306   5.618
 4333SOL    HW113898   3.610   2.212   5.630
 4333SOL    HW213899   3.505   2.325   5.683
 4334SOL     OW13900   0.035   2.324   4.288
 4334SOL    HW113901   0.110   2.378   4.250
 4334SOL    HW213902   6.982   2.326   4.225
 4335SOL     OW13903   2.659   4.154   1.700
 4335SOL    HW113904   2.600   4.074   1.711
 4335SOL    HW213905   2.750   4.125   1.670
 4336SOL     OW13906   2.460   4.921   5.510
 4336SOL    HW113907   2.389   4.857   5.481
 4336SOL    HW213908   2.507   4.958   5.429
 4337SOL     OW13909   1.491   5.149   3.866
 4337SOL    HW113910   1.584   5.140   3.831
 4337SOL    HW213911   1.479   5.239   3.908
 4338SOL     OW13912   3.915   1.069   5.821
 4338SOL    HW113913   3.858   0.996   5.860
 4338SOL    HW213914   3.878   1.096   5.732
 4339SOL     OW13915   3.668   3.569   6.178
 4339SOL    HW113916   3.692   3.599   6.270
 4339SOL    HW213917   3.679   3.469   6.173
 4340SOL     OW13918   6.329   3.913   1.082
 4340SOL    HW113919   6.344   3.990   1.144
 4340SOL    HW213920   6.321   3.829   1.136
 4341SOL     OW13921   0.453   0.008   2.643
 4341SOL    HW113922   0.479   0.042   2.733
 4341SOL    HW213923   0.409   6.943   2.653
 4342SOL     OW13924   5.201   3.777   2.120
 4342SOL    HW113925   5.162   3.690   2.091
 4342SOL    HW213926   5.127   3.840   2.145
 4343SOL     OW13927   4.332   0.227   5.691
 4343SOL    HW113928   4.418   0.278   5.686
 4343SOL    HW213929   4.263   0.283   5.738
 4344SOL     OW13930   0.387   3.375   3.950
 4344SOL    HW113931   0.329   3.454   3.928
 4344SOL    HW213932   0.376   3.305   3.880
 4345SOL     OW13933   3.149   3.171   2.417
 4345SOL    HW113934   3.097   3.144   2.498
 4345SOL    HW213935   3.217   3.101   2.396
 4346SOL     OW13936   1.111   2.989   2.350
 4346SOL    HW113937   1.113   2.896   2.388
 4346SOL    HW213938   1.178   2.997   2.277
 4347SOL     OW13939   5.724   5.392   0.551
 4347SOL    HW113940   5.660   5.376   0.476
 4347SOL    HW213941   5.807   5.339   0.536
 4348SOL     OW13942   6.192   5.692   4.330
 4348SOL    HW113943   6.126   5.622   4.305
 4348SOL    HW213944   6.200   5.698   4.429
 4349SOL     OW13945   0.115   3.824   4.478
 4349SOL    HW113946   0.167   3.798   4.559
 4349SOL    HW213947   0.159   3.787   4.396
 4350SOL     OW13948   4.505   1.693   4.836
 4350SOL    HW113949   4.489   1.614   4.895
 4350SOL    HW213950   4.473   1.672   4.743
 4351SOL     OW13951   0.912   6.544   0.382
 4351SOL    HW113952   0.886   6.640   0.393
 4351SOL    HW213953   0.830   6.490   0.362
 4352SOL     OW13954   3.753   3.943   0.733
 4352SOL    HW113955   3.714   3.936   0.824
 4352SOL    HW213956   3.852   3.930   0.738
 4353SOL     OW13957   2.794   3.502   1.287
 4353SOL    HW113958   2.735   3.524   1.364
 4353SOL    HW213959   2.775   3.409   1.255
 4354SOL     OW13960   5.222   6.720   3.895
 4354SOL    HW113961   5.308   6.676   3.872
 4354SOL    HW213962   5.182   6.761   3.813
 4355SOL     OW13963   1.489   6.237   3.139
 4355SOL    HW113964   1.582   6.211   3.112
 4355SOL    HW213965   1.492   6.323   3.190
 4356SOL     OW13966   5.399   2.286   5.824
 4356SOL    HW113967   5.392   2.380   5.858
 4356SOL    HW213968   5.394   2.222   5.901
 4357SOL     OW13969   5.758   0.536   2.459
 4357SOL    HW113970   5.848   0.579   2.471
 4357SOL    HW213971   5.714   0.574   2.378
 4358SOL     OW13972   2.166   6.886   6.790
 4358SOL    HW113973   2.148   6.857   6.696
 4358SOL    HW213974   2.240   6.954   6.790
 4359SOL     OW13975   2.896   2.218   6.953
 4359SOL    HW113976   2.850   2.180   6.873
 4359SOL    HW213977   2.903   2.317   6.943
 4360SOL     OW13978   1.664   3.906   3.770
 4360SOL    HW113979   1.719   3.833   3.810
 4360SOL    HW213980   1.627   3.964   3.842
 4361SOL     OW13981   6.560   1.774   0.625
 4361SOL    HW113982   6.551   1.863   0.579
 4361SOL    HW213983   6.600   1.708   0.562
 4362SOL     OW13984   1.539   5.520   3.538
 4362SOL    HW113985   1.628   5.511   3.581
 4362SOL    HW213986   1.470   5.475   3.594
 4363SOL     OW13987   4.665   1.596   2.546
 4363SOL    HW113988   4.720   1.574   2.626
 4363SOL    HW213989   4.589   1.656   2.573
 4364SOL     OW13990   3.826   3.575   2.794
 4364SOL    HW113991   3.846   3.521   2.712
 4364SOL    HW213992   3.845   3.520   2.876
 4365SOL     OW13993   2.605   2.082   1.366
 4365SOL    HW113994   2.611   2.101   1.464
 4365SOL    HW213995   2.697   2.070   1.329
 4366SOL     OW13996   4.188   5.885   5.026
 4366SOL    HW113997   4.194   5.800   5.078
 4366SOL    HW213998   4.278   5.908   4.988
 4367SOL     OW13999   2.440   5.273   3.503
 4367SOL    HW114000   2.480   5.182   3.514
 4367SOL    HW214001   2.484   5.319   3.426
 4368SOL     OW14002   4.631   4.311   3.176
 4368SOL    HW114003   4.538   4.298   3.143
 4368SOL    HW214004   4.655   4.408   3.170
 4369SOL     OW14005   4.136   4.721   3.053
 4369SOL    HW114006   4.040   4.746   3.066
 4369SOL    HW214007   4.152   4.694   2.958
 4370SOL     OW14008   3.929   4.306   1.642
 4370SOL    HW114009   3.833   4.329   1.660
 4370SOL    HW214010   3.969   4.264   1.723
 4371SOL     OW14011   2.994   1.686   1.000
 4371SOL    HW114012   3.027   1.715   0.910
 4371SOL    HW214013   2.956   1.594   0.994
 4372SOL     OW14014   1.899   2.958   4.523
 4372SOL    HW114015   1.950   2.917   4.447
 4372SOL    HW214016   1.954   3.031   4.564
 4373SOL     OW14017   4.396   1.601   5.593
 4373SOL    HW114018   4.391   1.634   5.499
 4373SOL    HW214019   4.367   1.674   5.655
 4374SOL     OW14020   2.288   1.139   1.556
 4374SOL    HW114021   2.346   1.057   1.556
 4374SOL    HW214022   2.251   1.153   1.464
 4375SOL     OW14023   4.924   1.358   3.527
 4375SOL    HW114024   5.009   1.306   3.517
 4375SOL    HW214025   4.945   1.456   3.526
 4376SOL     OW14026   1.366   6.472   0.476
 4376SOL    HW114027   1.406   6.505   0.561
 4376SOL    HW214028   1.273   6.438   0.494
 4377SOL     OW14029   6.106   0.096   6.571
 4377SOL    HW114030   6.129   0.022   6.634
 4377SOL    HW214031   6.035   0.065   6.508
 4378SOL     OW14032   1.910   5.745   2.509
 4378SOL    HW114033   1.846   5.792   2.568
 4378SOL    HW214034   2.003   5.778   2.527
 4379SOL     OW14035   1.372   0.717   2.137
 4379SOL    HW114036   1.456   0.689   2.183
 4379SOL    HW214037   1.395   0.767   2.054
 4380SOL     OW14038   1.941   5.740   5.169
 4380SOL    HW114039   1.990   5.785   5.095
 4380SOL    HW214040   1.972   5.775   5.257
 4381SOL     OW14041   4.007   6.062   4.977
 4381SOL    HW114042   4.069   5.985   4.992
 4381SOL    HW214043   3.995   6.112   5.063
 4382SOL     OW14044   4.838   3.906   3.258
 4382SOL    HW114045   4.856   3.911   3.160
 4382SOL    HW214046   4.789   3.989   3.287
 4383SOL     OW14047   0.620   3.124   6.569
 4383SOL    HW114048   0.561   3.171   6.635
 4383SOL    HW214049   0.712   3.162   6.572
 4384SOL     OW14050   4.225   5.894   0.811
 4384SOL    HW114051   4.214   5.860   0.904
 4384SOL    HW214052   4.286   5.973   0.811
 4385SOL     OW14053   0.360   1.633   2.521
 4385SOL    HW114054   0.454   1.601   2.526
 4385SOL    HW214055   0.340   1.692   2.600
 4386SOL     OW14056   0.983   3.222   6.920
 4386SOL    HW114057   0.944   3.211   6.829
 4386SOL    HW214058   1.082   3.218   6.915
 4387SOL     OW14059   0.186   3.271   1.961
 4387SOL    HW114060   0.214   3.265   2.057
 4387SOL    HW214061   0.267   3.268   1.902
 4388SOL     OW14062   3.422   1.193   5.410
 4388SOL    HW114063   3.486   1.243   5.469
 4388SOL    HW214064   3.336   1.179   5.459
 4389SOL     OW14065   4.994   2.395   3.078
 4389SOL    HW114066   4.977   2.383   3.175
 4389SOL    HW214067   4.935   2.467   3.042
 4390SOL     OW14068   4.696   2.749   2.151
 4390SOL    HW114069   4.659   2.692   2.078
 4390SOL    HW214070   4.685   2.845   2.127
 4391SOL     OW14071   1.107   5.682   0.678
 4391SOL    HW114072   1.055   5.652   0.758
 4391SOL    HW214073   1.204   5.665   0.693
 4392SOL     OW14074   5.124   3.210   4.466
 4392SOL    HW114075   5.191   3.266   4.417
 4392SOL    HW214076   5.039   3.207   4.414
 4393SOL     OW14077   4.791   6.380   3.276
 4393SOL    HW114078   4.734   6.329   3.340
 4393SOL    HW214079   4.736   6.414   3.200
 4394SOL     OW14080   5.033   0.205   2.330
 4394SOL    HW114081   5.089   0.182   2.251
 4394SOL    HW214082   5.071   0.164   2.412
 4395SOL     OW14083   5.241   1.850   2.380
 4395SOL    HW114084   5.324   1.861   2.434
 4395SOL    HW214085   5.197   1.939   2.366
 4396SOL     OW14086   1.220   0.501   3.951
 4396SOL    HW114087   1.172   0.498   3.864
 4396SOL    HW214088   1.265   0.591   3.961
 4397SOL     OW14089   6.567   0.324   5.633
 4397SOL    HW114090   6.508   0.395   5.594
 4397SOL    HW214091   6.512   0.262   5.689
 4398SOL     OW14092   0.264   4.656   4.310
 4398SOL    HW114093   0.320   4.627   4.233
 4398SOL    HW214094   0.275   4.755   4.324
 4399SOL     OW14095   2.669   1.604   1.459
 4399SOL    HW114096   2.736   1.669   1.425
 4399SOL    HW214097   2.658   1.615   1.558
 4400SOL     OW14098   3.667   6.622   4.791
 4400SOL    HW114099   3.735   6.688   4.824
 4400SOL    HW214100   3.645   6.641   4.696
 4401SOL     OW14101   5.664   6.012   4.234
 4401SOL    HW114102   5.732   6.076   4.199
 4401SOL    HW214103   5.588   6.063   4.274
 4402SOL     OW14104   0.255   6.847   2.872
 4402SOL    HW114105   0.172   6.864   2.820
 4402SOL    HW214106   0.310   6.777   2.826
 4403SOL     OW14107   0.578   0.334   3.358
 4403SOL    HW114108   0.664   0.369   3.394
 4403SOL    HW214109   0.506   0.342   3.428
 4404SOL     OW14110   1.256   4.161   3.327
 4404SOL    HW114111   1.328   4.135   3.392
 4404SOL    HW214112   1.167   4.130   3.362
 4405SOL     OW14113   3.181   4.317   5.623
 4405SOL    HW114114   3.256   4.383   5.624
 4405SOL    HW214115   3.185   4.264   5.538
 4406SOL     OW14116   5.192   3.897   1.223
 4406SOL    HW114117   5.265   3.873   1.159
 4406SOL    HW214118   5.214   3.983   1.269
 4407SOL     OW14119   6.027   6.947   0.010
 4407SOL    HW114120   6.074   7.009   6.972
 4407SOL    HW214121   6.024   6.855   6.995
 4408SOL     OW14122   4.419   5.638   6.889
 4408SOL    HW114123   4.493   5.704   6.880
 4408SOL    HW214124   4.385   5.614   6.798
 4409SOL     OW14125   3.266   1.315   1.764
 4409SOL    HW114126   3.296   1.410   1.770
 4409SOL    HW214127   3.271   1.285   1.669
 4410SOL     OW14128   2.807   5.433   1.981
 4410SOL    HW114129   2.760   5.492   2.047
 4410SOL    HW214130   2.745   5.362   1.949
 4411SOL     OW14131   3.984   3.162   2.690
 4411SOL    HW114132   3.916   3.090   2.704
 4411SOL    HW214133   4.017   3.158   2.596
 4412SOL     OW14134   3.965   1.960   6.579
 4412SOL    HW114135   3.939   1.863   6.583
 4412SOL    HW214136   3.884   2.017   6.594
 4413SOL     OW14137   4.235   6.248   4.706
 4413SOL    HW114138   4.222   6.148   4.702
 4413SOL    HW214139   4.295   6.270   4.782
 4414SOL     OW14140   3.583   4.873   1.661
 4414SOL    HW114141   3.655   4.935   1.690
 4414SOL    HW214142   3.560   4.811   1.736
 4415SOL     OW14143   5.289   2.572   0.108
 4415SOL    HW114144   5.327   2.592   0.198
 4415SOL    HW214145   5.216   2.504   0.117
 4416SOL     OW14146   3.982   0.588   3.435
 4416SOL    HW114147   4.020   0.572   3.527
 4416SOL    HW214148   3.935   0.676   3.433
 4417SOL     OW14149   0.118   6.830   2.076
 4417SOL    HW114150   0.191   6.764   2.093
 4417SOL    HW214151   0.143   6.888   1.999
 4418SOL     OW14152   4.450   6.799   3.196
 4418SOL    HW114153   4.425   6.859   3.272
 4418SOL    HW214154   4.501   6.720   3.231
 4419SOL     OW14155   0.199   5.088   6.570
 4419SOL    HW114156   0.147   5.020   6.623
 4419SOL    HW214157   0.172   5.180   6.597
 4420SOL     OW14158   5.178   1.763   6.532
 4420SOL    HW114159   5.152   1.672   6.500
 4420SOL    HW214160   5.096   1.817   6.552
 4421SOL     OW14161   1.686   1.618   4.071
 4421SOL    HW114162   1.784   1.615   4.086
 4421SOL    HW214163   1.644   1.534   4.104
 4422SOL     OW14164   2.250   3.736   5.898
 4422SOL    HW114165   2.328   3.757   5.957
 4422SOL    HW214166   2.276   3.746   5.802
 4423SOL     OW14167   1.047   1.873   6.532
 4423SOL    HW114168   0.990   1.792   6.544
 4423SOL    HW214169   1.101   1.888   6.615
 4424SOL     OW14170   6.485   0.184   3.034
 4424SOL    HW114171   6.429   0.101   3.040
 4424SOL    HW214172   6.460   0.236   2.952
 4425SOL     OW14173   4.655   4.674   6.306
 4425SOL    HW114174   4.596   4.733   6.362
 4425SOL    HW214175   4.726   4.729   6.262
 4426SOL     OW14176   0.602   0.497   6.336
 4426SOL    HW114177   0.549   0.485   6.252
 4426SOL    HW214178   0.700   0.498   6.313
 4427SOL     OW14179   0.853   0.413   3.400
 4427SOL    HW114180   0.888   0.395   3.308
 4427SOL    HW214181   0.884   0.341   3.462
 4428SOL     OW14182   2.368   5.437   3.246
 4428SOL    HW114183   2.411   5.526   3.258
 4428SOL    HW214184   2.428   5.378   3.191
 4429SOL     OW14185   4.344   6.766   2.949
 4429SOL    HW114186   4.389   6.768   3.038
 4429SOL    HW214187   4.251   6.802   2.957
 4430SOL     OW14188   1.983   1.215   1.946
 4430SOL    HW114189   2.058   1.208   2.012
 4430SOL    HW214190   2.000   1.153   1.869
 4431SOL     OW14191   2.314   2.383   3.033
 4431SOL    HW114192   2.300   2.397   3.131
 4431SOL    HW214193   2.264   2.301   3.004
 4432SOL     OW14194   3.258   3.986   2.859
 4432SOL    HW114195   3.286   4.059   2.921
 4432SOL    HW214196   3.260   3.898   2.907
 4433SOL     OW14197   6.547   6.857   2.614
 4433SOL    HW114198   6.619   6.871   2.546
 4433SOL    HW214199   6.588   6.838   2.703
 4434SOL     OW14200   6.076   2.424   4.411
 4434SOL    HW114201   6.057   2.327   4.393
 4434SOL    HW214202   6.164   2.449   4.369
 4435SOL     OW14203   3.564   3.120   1.578
 4435SOL    HW114204   3.554   3.119   1.478
 4435SOL    HW214205   3.593   3.030   1.609
 4436SOL     OW14206   4.971   1.900   6.599
 4436SOL    HW114207   4.920   1.840   6.661
 4436SOL    HW214208   4.957   1.995   6.625
 4437SOL     OW14209   3.620   0.824   4.800
 4437SOL    HW114210   3.653   0.915   4.827
 4437SOL    HW214211   3.563   0.786   4.872
 4438SOL     OW14212   4.332   2.986   6.630
 4438SOL    HW114213   4.235   2.970   6.611
 4438SOL    HW214214   4.343   3.076   6.672
 4439SOL     OW14215   2.089   6.184   2.185
 4439SOL    HW114216   2.098   6.086   2.197
 4439SOL    HW214217   2.139   6.232   2.257
 4440SOL     OW14218   0.857   6.927   6.360
 4440SOL    HW114219   0.888   6.907   6.453
 4440SOL    HW214220   0.758   6.919   6.355
 4441SOL     OW14221   6.160   2.672   2.934
 4441SOL    HW114222   6.130   2.580   2.908
 4441SOL    HW214223   6.096   2.739   2.897
 4442SOL     OW14224   2.967   6.772   2.743
 4442SOL    HW114225   2.896   6.726   2.690
 4442SOL    HW214226   2.997   6.713   2.817
 4443SOL     OW14227   2.634   1.799   5.431
 4443SOL    HW114228   2.674   1.864   5.495
 4443SOL    HW214229   2.667   1.817   5.339
 4444SOL     OW14230   5.479   0.734   1.532
 4444SOL    HW114231   5.387   0.771   1.516
 4444SOL    HW214232   5.526   0.792   1.598
 4445SOL     OW14233   1.549   1.002   6.490
 4445SOL    HW114234   1.642   1.002   6.526
 4445SOL    HW214235   1.503   0.918   6.520
 4446SOL     OW14236   6.461   6.976   3.154
 4446SOL    HW114237   6.508   6.909   3.096
 4446SOL    HW214238   6.383   6.932   3.200
 4447SOL     OW14239   5.679   2.576   5.521
 4447SOL    HW114240   5.677   2.503   5.590
 4447SOL    HW214241   5.765   2.627   5.528
 4448SOL     OW14242   2.582   3.610   6.652
 4448SOL    HW114243   2.515   3.538   6.669
 4448SOL    HW214244   2.556   3.692   6.702
 4449SOL     OW14245   1.260   1.180   5.165
 4449SOL    HW114246   1.258   1.080   5.166
 4449SOL    HW214247   1.242   1.214   5.257
 4450SOL     OW14248   3.792   3.637   3.310
 4450SOL    HW114249   3.890   3.654   3.320
 4450SOL    HW214250   3.742   3.685   3.383
 4451SOL     OW14251   6.232   4.332   2.357
 4451SOL    HW114252   6.142   4.291   2.372
 4451SOL    HW214253   6.221   4.428   2.330
 4452SOL     OW14254   6.460   6.209   6.757
 4452SOL    HW114255   6.421   6.118   6.776
 4452SOL    HW214256   6.411   6.250   6.680
 4453SOL     OW14257   5.528   2.251   1.305
 4453SOL    HW114258   5.473   2.313   1.250
 4453SOL    HW214259   5.558   2.298   1.388
 4454SOL     OW14260   5.294   3.214   1.618
 4454SOL    HW114261   5.208   3.261   1.635
 4454SOL    HW214262   5.323   3.230   1.524
 4455SOL     OW14263   3.968   1.127   2.120
 4455SOL    HW114264   3.966   1.140   2.021
 4455SOL    HW214265   4.026   1.197   2.161
 4456SOL     OW14266   0.989   5.552   3.140
 4456SOL    HW114267   0.973   5.459   3.175
 4456SOL    HW214268   0.956   5.618   3.207
 4457SOL     OW14269   5.300   2.341   6.408
 4457SOL    HW114270   5.350   2.260   6.439
 4457SOL    HW214271   5.322   2.358   6.312
 4458SOL     OW14272   3.885   2.263   5.846
 4458SOL    HW114273   3.801   2.312   5.866
 4458SOL    HW214274   3.954   2.327   5.811
 4459SOL     OW14275   4.843   6.314   4.923
 4459SOL    HW114276   4.763   6.295   4.867
 4459SOL    HW214277   4.848   6.412   4.942
 4460SOL     OW14278   2.334   1.734   6.293
 4460SOL    HW114279   2.254   1.760   6.346
 4460SOL    HW214280   2.417   1.767   6.338
 4461SOL     OW14281   2.404   0.334   2.226
 4461SOL    HW114282   2.308   0.321   2.251
 4461SOL    HW214283   2.415   0.420   2.178
 4462SOL     OW14284   0.009   5.321   1.666
 4462SOL    HW114285   6.971   5.316   1.744
 4462SOL    HW214286   0.094   5.273   1.689
 4463SOL     OW14287   0.978   3.839   6.148
 4463SOL    HW114288   1.045   3.815   6.077
 4463SOL    HW214289   1.018   3.822   6.238
 4464SOL     OW14290   5.675   3.115   6.576
 4464SOL    HW114291   5.624   3.133   6.492
 4464SOL    HW214292   5.685   3.200   6.628
 4465SOL     OW14293   1.460   6.539   2.239
 4465SOL    HW114294   1.439   6.493   2.153
 4465SOL    HW214295   1.478   6.470   2.310
 4466SOL     OW14296   0.839   2.172   3.621
 4466SOL    HW114297   0.845   2.086   3.569
 4466SOL    HW214298   0.743   2.197   3.632
 4467SOL     OW14299   1.161   6.765   3.277
 4467SOL    HW114300   1.218   6.828   3.331
 4467SOL    HW214301   1.094   6.722   3.337
 4468SOL     OW14302   1.362   2.220   0.608
 4468SOL    HW114303   1.426   2.200   0.534
 4468SOL    HW214304   1.360   2.319   0.624
 4469SOL     OW14305   3.944   0.410   0.329
 4469SOL    HW114306   3.867   0.392   0.269
 4469SOL    HW214307   4.018   0.345   0.310
 4470SOL     OW14308   4.926   4.463   1.013
 4470SOL    HW114309   4.833   4.456   0.977
 4470SOL    HW214310   4.965   4.551   0.986
 4471SOL     OW14311   6.155   3.407   1.278
 4471SOL    HW114312   6.132   3.490   1.330
 4471SOL    HW214313   6.211   3.347   1.334
 4472SOL     OW14314   1.625   4.071   2.667
 4472SOL    HW114315   1.585   4.151   2.622
 4472SOL    HW214316   1.561   4.036   2.736
 4473SOL     OW14317   0.387   6.554   4.329
 4473SOL    HW114318   0.317   6.564   4.400
 4473SOL    HW214319   0.395   6.458   4.304
 4474SOL     OW14320   4.734   0.237   3.017
 4474SOL    HW114321   4.728   0.330   3.053
 4474SOL    HW214322   4.646   0.190   3.028
 4475SOL     OW14323   1.686   3.732   0.299
 4475SOL    HW114324   1.638   3.717   0.213
 4475SOL    HW214325   1.702   3.829   0.313
 4476SOL     OW14326   4.931   6.031   1.909
 4476SOL    HW114327   4.871   6.068   1.839
 4476SOL    HW214328   4.917   6.081   1.995
 4477SOL     OW14329   1.397   1.645   0.916
 4477SOL    HW114330   1.479   1.598   0.947
 4477SOL    HW214331   1.372   1.611   0.825
 4478SOL     OW14332   2.334   6.266   1.868
 4478SOL    HW114333   2.419   6.245   1.917
 4478SOL    HW214334   2.338   6.359   1.831
 4479SOL     OW14335   1.079   7.016   5.700
 4479SOL    HW114336   1.141   6.963   5.643
 4479SOL    HW214337   0.998   6.961   5.721
 4480SOL     OW14338   0.566   5.103   3.780
 4480SOL    HW114339   0.486   5.058   3.819
 4480SOL    HW214340   0.621   5.142   3.853
 4481SOL     OW14341   1.367   6.465   4.351
 4481SOL    HW114342   1.279   6.484   4.393
 4481SOL    HW214343   1.438   6.519   4.396
 4482SOL     OW14344   0.152   4.454   3.981
 4482SOL    HW114345   0.101   4.517   4.040
 4482SOL    HW214346   0.131   4.360   4.007
 4483SOL     OW14347   5.555   2.779   2.322
 4483SOL    HW114348   5.597   2.751   2.408
 4483SOL    HW214349   5.543   2.878   2.320
 4484SOL     OW14350   4.442   2.948   5.413
 4484SOL    HW114351   4.373   2.892   5.368
 4484SOL    HW214352   4.399   2.998   5.489
 4485SOL     OW14353   5.331   1.892   6.746
 4485SOL    HW114354   5.303   1.826   6.676
 4485SOL    HW214355   5.424   1.924   6.726
 4486SOL     OW14356   6.144   2.954   4.238
 4486SOL    HW114357   6.128   3.052   4.226
 4486SOL    HW214358   6.094   2.922   4.318
 4487SOL     OW14359   3.153   2.949   6.321
 4487SOL    HW114360   3.100   3.000   6.388
 4487SOL    HW214361   3.203   2.876   6.366
 4488SOL     OW14362   0.185   1.141   4.388
 4488SOL    HW114363   0.122   1.071   4.354
 4488SOL    HW214364   0.272   1.099   4.414
 4489SOL     OW14365   6.358   6.729   4.420
 4489SOL    HW114366   6.415   6.658   4.379
 4489SOL    HW214367   6.316   6.784   4.348
 4490SOL     OW14368   6.488   1.864   2.919
 4490SOL    HW114369   6.533   1.837   3.005
 4490SOL    HW214370   6.475   1.782   2.862
 4491SOL     OW14371   0.907   3.237   3.021
 4491SOL    HW114372   0.884   3.140   3.016
 4491SOL    HW214373   0.848   3.283   3.087
 4492SOL     OW14374   5.038   3.252   6.984
 4492SOL    HW114375   5.026   3.191   6.906
 4492SOL    HW214376   4.959   3.246   0.020
 4493SOL     OW14377   5.747   4.898   4.448
 4493SOL    HW114378   5.772   4.934   4.538
 4493SOL    HW214379   5.718   4.974   4.388
 4494SOL     OW14380   6.130   3.838   4.887
 4494SOL    HW114381   6.063   3.779   4.842
 4494SOL    HW214382   6.100   3.933   4.881
 4495SOL     OW14383   5.057   6.353   1.162
 4495SOL    HW114384   4.971   6.310   1.131
 4495SOL    HW214385   5.038   6.412   1.240
 4496SOL     OW14386   4.811   3.951   5.410
 4496SOL    HW114387   4.873   3.961   5.488
 4496SOL    HW214388   4.822   3.860   5.371
 4497SOL     OW14389   6.288   4.855   0.673
 4497SOL    HW114390   6.326   4.777   0.624
 4497SOL    HW214391   6.216   4.823   0.735
 4498SOL     OW14392   6.739   3.563   0.011
 4498SOL    HW114393   6.722   3.508   0.092
 4498SOL    HW214394   6.657   3.615   7.013
 4499SOL     OW14395   6.932   2.525   6.225
 4499SOL    HW114396   6.897   2.618   6.227
 4499SOL    HW214397   0.001   2.525   6.191
 4500SOL     OW14398   3.040   3.989   4.979
 4500SOL    HW114399   3.059   4.026   4.887
 4500SOL    HW214400   2.959   3.931   4.975
 4501SOL     OW14401   0.092   4.402   5.390
 4501SOL    HW114402   0.139   4.475   5.340
 4501SOL    HW214403   0.006   4.379   5.344
 4502SOL     OW14404   0.344   2.477   0.361
 4502SOL    HW114405   0.384   2.489   0.271
 4502SOL    HW214406   0.382   2.545   0.424
 4503SOL     OW14407   1.187   1.605   3.964
 4503SOL    HW114408   1.090   1.625   3.974
 4503SOL    HW214409   1.232   1.680   3.915
 4504SOL     OW14410   5.211   1.949   4.091
 4504SOL    HW114411   5.137   2.007   4.056
 4504SOL    HW214412   5.260   1.998   4.162
 4505SOL     OW14413   1.697   6.410   5.855
 4505SOL    HW114414   1.782   6.388   5.903
 4505SOL    HW214415   1.626   6.432   5.921
 4506SOL     OW14416   4.358   0.180   5.320
 4506SOL    HW114417   4.353   0.226   5.231
 4506SOL    HW214418   4.322   0.240   5.391
 4507SOL     OW14419   6.144   4.523   0.472
 4507SOL    HW114420   6.138   4.423   0.476
 4507SOL    HW214421   6.084   4.564   0.541
 4508SOL     OW14422   0.951   3.912   0.375
 4508SOL    HW114423   0.991   3.824   0.400
 4508SOL    HW214424   1.017   3.965   0.322
 4509SOL     OW14425   2.546   1.608   3.727
 4509SOL    HW114426   2.480   1.570   3.792
 4509SOL    HW214427   2.628   1.552   3.727
 4510SOL     OW14428   4.044   6.374   5.090
 4510SOL    HW114429   4.081   6.467   5.086
 4510SOL    HW214430   3.995   6.355   5.005
 4511SOL     OW14431   6.110   2.532   0.673
 4511SOL    HW114432   6.189   2.495   0.720
 4511SOL    HW214433   6.137   2.613   0.620
 4512SOL     OW14434   3.055   5.703   6.692
 4512SOL    HW114435   2.964   5.679   6.726
 4512SOL    HW214436   3.106   5.750   6.764
 4513SOL     OW14437   5.043   1.136   1.807
 4513SOL    HW114438   5.079   1.089   1.727
 4513SOL    HW214439   5.104   1.121   1.885
 4514SOL     OW14440   3.459   1.542   5.004
 4514SOL    HW114441   3.386   1.579   5.061
 4514SOL    HW214442   3.545   1.541   5.056
 4515SOL     OW14443   0.562   5.345   0.968
 4515SOL    HW114444   0.551   5.299   1.056
 4515SOL    HW214445   0.594   5.278   0.900
 4516SOL     OW14446   0.779   0.499   5.213
 4516SOL    HW114447   0.710   0.545   5.157
 4516SOL    HW214448   0.870   0.531   5.187
 4517SOL     OW14449   3.223   6.778   5.272
 4517SOL    HW114450   3.186   6.818   5.189
 4517SOL    HW214451   3.308   6.825   5.298
 4518SOL     OW14452   1.316   2.129   4.546
 4518SOL    HW114453   1.329   2.177   4.459
 4518SOL    HW214454   1.246   2.177   4.600
 4519SOL     OW14455   0.164   2.933   3.912
 4519SOL    HW114456   0.128   3.024   3.894
 4519SOL    HW214457   0.096   2.879   3.962
 4520SOL     OW14458   6.971   3.908   3.050
 4520SOL    HW114459   6.913   3.989   3.060
 4520SOL    HW214460   6.933   3.848   2.979
 4521SOL     OW14461   5.589   1.960   0.023
 4521SOL    HW114462   5.603   2.059   0.025
 4521SOL    HW214463   5.636   1.918   0.100
 4522SOL     OW14464   6.050   0.250   4.176
 4522SOL    HW114465   6.069   0.346   4.155
 4522SOL    HW214466   5.975   0.218   4.117
 4523SOL     OW14467   3.508   4.007   0.260
 4523SOL    HW114468   3.438   4.077   0.274
 4523SOL    HW214469   3.598   4.050   0.263
 4524SOL     OW14470   5.569   0.130   4.724
 4524SOL    HW114471   5.651   0.164   4.675
 4524SOL    HW214472   5.511   0.080   4.660
 4525SOL     OW14473   6.553   1.695   5.381
 4525SOL    HW114474   6.533   1.779   5.432
 4525SOL    HW214475   6.612   1.718   5.303
 4526SOL     OW14476   4.853   6.834   0.891
 4526SOL    HW114477   4.754   6.847   0.893
 4526SOL    HW214478   4.898   6.917   0.925
 4527SOL     OW14479   4.973   0.625   2.668
 4527SOL    HW114480   4.950   0.722   2.668
 4527SOL    HW214481   4.935   0.581   2.749
 4528SOL     OW14482   5.767   0.233   0.358
 4528SOL    HW114483   5.702   0.287   0.304
 4528SOL    HW214484   5.841   0.201   0.299
 4529SOL     OW14485   3.788   6.462   3.127
 4529SOL    HW114486   3.795   6.363   3.143
 4529SOL    HW214487   3.718   6.500   3.189
 4530SOL     OW14488   0.773   3.511   5.568
 4530SOL    HW114489   0.785   3.595   5.620
 4530SOL    HW214490   0.675   3.494   5.555
 4531SOL     OW14491   0.216   3.707   4.269
 4531SOL    HW114492   0.197   3.699   4.171
 4531SOL    HW214493   0.259   3.622   4.301
 4532SOL     OW14494   6.325   1.396   0.775
 4532SOL    HW114495   6.339   1.297   0.776
 4532SOL    HW214496   6.320   1.429   0.681
 4533SOL     OW14497   2.374   5.698   2.541
 4533SOL    HW114498   2.425   5.781   2.565
 4533SOL    HW214499   2.301   5.684   2.608
 4534SOL     OW14500   6.126   3.498   5.026
 4534SOL    HW114501   6.150   3.401   5.032
 4534SOL    HW214502   6.123   3.525   4.929
 4535SOL     OW14503   4.953   3.059   1.931
 4535SOL    HW114504   4.984   2.973   1.891
 4535SOL    HW214505   4.860   3.048   1.966
 4536SOL     OW14506   6.410   0.678   4.702
 4536SOL    HW114507   6.435   0.581   4.705
 4536SOL    HW214508   6.372   0.706   4.790
 4537SOL     OW14509   3.685   2.848   6.779
 4537SOL    HW114510   3.653   2.865   6.873
 4537SOL    HW214511   3.683   2.750   6.761
 4538SOL     OW14512   3.222   1.260   2.836
 4538SOL    HW114513   3.195   1.169   2.867
 4538SOL    HW214514   3.203   1.270   2.739
 4539SOL     OW14515   2.094   1.747   3.025
 4539SOL    HW114516   2.101   1.768   2.927
 4539SOL    HW214517   2.047   1.660   3.037
 4540SOL     OW14518   3.744   3.326   4.288
 4540SOL    HW114519   3.774   3.253   4.349
 4540SOL    HW214520   3.716   3.405   4.342
 4541SOL     OW14521   4.591   1.740   1.145
 4541SOL    HW114522   4.642   1.779   1.068
 4541SOL    HW214523   4.632   1.654   1.173
 4542SOL     OW14524   5.459   0.084   2.372
 4542SOL    HW114525   5.497   0.165   2.416
 4542SOL    HW214526   5.386   0.046   2.429
 4543SOL     OW14527   5.354   1.444   1.091
 4543SOL    HW114528   5.441   1.404   1.121
 4543SOL    HW214529   5.359   1.543   1.097
 4544SOL     OW14530   3.225   5.199   6.385
 4544SOL    HW114531   3.171   5.244   6.314
 4544SOL    HW214532   3.277   5.124   6.344
 4545SOL     OW14533   3.861   2.216   5.538
 4545SOL    HW114534   3.885   2.213   5.635
 4545SOL    HW214535   3.851   2.123   5.503
 4546SOL     OW14536   1.469   6.265   6.476
 4546SOL    HW114537   1.527   6.197   6.521
 4546SOL    HW214538   1.475   6.352   6.525
 4547SOL     OW14539   4.846   2.179   1.924
 4547SOL    HW114540   4.750   2.196   1.947
 4547SOL    HW214541   4.862   2.081   1.917
 4548SOL     OW14542   1.159   4.183   3.613
 4548SOL    HW114543   1.127   4.244   3.540
 4548SOL    HW214544   1.167   4.234   3.698
 4549SOL     OW14545   6.612   2.853   2.530
 4549SOL    HW114546   6.641   2.793   2.456
 4549SOL    HW214547   6.534   2.812   2.578
 4550SOL     OW14548   1.361   5.641   4.213
 4550SOL    HW114549   1.279   5.633   4.156
 4550SOL    HW214550   1.403   5.730   4.198
 4551SOL     OW14551   0.618   2.544   6.086
 4551SOL    HW114552   0.599   2.640   6.109
 4551SOL    HW214553   0.563   2.517   6.007
 4552SOL     OW14554   0.227   3.347   4.708
 4552SOL    HW114555   0.306   3.290   4.690
 4552SOL    HW214556   0.207   3.403   4.628
 4553SOL     OW14557   4.887   4.490   0.275
 4553SOL    HW114558   4.909   4.489   0.372
 4553SOL    HW214559   4.791   4.512   0.263
 4554SOL     OW14560   5.099   6.781   2.327
 4554SOL    HW114561   5.111   6.831   2.242
 4554SOL    HW214562   5.019   6.816   2.376
 4555SOL     OW14563   5.193   2.353   6.691
 4555SOL    HW114564   5.227   2.329   6.601
 4555SOL    HW214565   5.171   2.270   6.742
 4556SOL     OW14566   4.746   1.143   3.622
 4556SOL    HW114567   4.665   1.202   3.616
 4556SOL    HW214568   4.826   1.193   3.588
 4557SOL     OW14569   5.273   6.852   5.930
 4557SOL    HW114570   5.182   6.818   5.952
 4557SOL    HW214571   5.317   6.886   6.013
 4558SOL     OW14572   6.394   3.204   6.539
 4558SOL    HW114573   6.332   3.250   6.602
 4558SOL    HW214574   6.433   3.271   6.476
 4559SOL     OW14575   1.101   6.734   1.465
 4559SOL    HW114576   1.162   6.807   1.496
 4559SOL    HW214577   1.150   6.675   1.401
 4560SOL     OW14578   5.075   3.284   2.974
 4560SOL    HW114579   5.030   3.207   3.018
 4560SOL    HW214580   5.173   3.283   2.997
 4561SOL     OW14581   3.366   0.364   6.603
 4561SOL    HW114582   3.394   0.317   6.519
 4561SOL    HW214583   3.331   0.455   6.580
 4562SOL     OW14584   2.697   5.172   6.855
 4562SOL    HW114585   2.797   5.180   6.852
 4562SOL    HW214586   2.671   5.113   6.932
 4563SOL     OW14587   5.859   2.183   6.892
 4563SOL    HW114588   5.786   2.211   6.953
 4563SOL    HW214589   5.879   2.258   6.828
 4564SOL     OW14590   1.478   6.037   0.262
 4564SOL    HW114591   1.435   5.976   0.328
 4564SOL    HW214592   1.514   6.117   0.309
 4565SOL     OW14593   1.654   0.135   5.390
 4565SOL    HW114594   1.712   0.208   5.426
 4565SOL    HW214595   1.579   0.175   5.336
 4566SOL     OW14596   6.770   1.344   6.970
 4566SOL    HW114597   6.791   1.310   6.878
 4566SOL    HW214598   6.844   1.401   7.003
 4567SOL     OW14599   6.574   1.156   1.067
 4567SOL    HW114600   6.638   1.175   1.142
 4567SOL    HW214601   6.489   1.206   1.084
 4568SOL     OW14602   3.402   4.493   5.854
 4568SOL    HW114603   3.341   4.556   5.806
 4568SOL    HW214604   3.483   4.476   5.797
 4569SOL     OW14605   0.946   1.972   4.088
 4569SOL    HW114606   1.029   1.990   4.141
 4569SOL    HW214607   0.936   1.874   4.074
 4570SOL     OW14608   0.393   5.257   4.137
 4570SOL    HW114609   0.390   5.175   4.080
 4570SOL    HW214610   0.468   5.316   4.106
 4571SOL     OW14611   3.612   3.358   4.586
 4571SOL    HW114612   3.631   3.375   4.683
 4571SOL    HW214613   3.678   3.292   4.551
 4572SOL     OW14614   1.902   0.068   1.833
 4572SOL    HW114615   1.973   0.077   1.763
 4572SOL    HW214616   1.817   0.106   1.799
 4573SOL     OW14617   5.544   6.663   0.856
 4573SOL    HW114618   5.590   6.721   0.790
 4573SOL    HW214619   5.548   6.567   0.826
 4574SOL     OW14620   6.947   4.598   1.789
 4574SOL    HW114621   7.021   4.583   1.855
 4574SOL    HW214622   6.984   4.591   1.696
 4575SOL     OW14623   6.530   0.183   2.433
 4575SOL    HW114624   6.434   0.198   2.411
 4575SOL    HW214625   6.557   0.245   2.506
 4576SOL     OW14626   2.946   5.809   5.942
 4576SOL    HW114627   3.035   5.782   5.980
 4576SOL    HW214628   2.924   5.902   5.971
 4577SOL     OW14629   1.483   3.140   3.532
 4577SOL    HW114630   1.449   3.115   3.441
 4577SOL    HW214631   1.532   3.226   3.527
 4578SOL     OW14632   6.763   3.665   3.999
 4578SOL    HW114633   6.752   3.760   4.026
 4578SOL    HW214634   6.673   3.626   3.977
 4579SOL     OW14635   5.548   2.074   3.644
 4579SOL    HW114636   5.553   2.012   3.566
 4579SOL    HW214637   5.629   2.133   3.645
 4580SOL     OW14638   6.718   5.781   0.916
 4580SOL    HW114639   6.747   5.866   0.959
 4580SOL    HW214640   6.654   5.733   0.977
 4581SOL     OW14641   3.081   5.383   2.760
 4581SOL    HW114642   3.064   5.475   2.725
 4581SOL    HW214643   3.024   5.366   2.839
 4582SOL     OW14644   5.303   6.430   2.855
 4582SOL    HW114645   5.215   6.385   2.865
 4582SOL    HW214646   5.337   6.418   2.762
 4583SOL     OW14647   3.730   1.715   5.451
 4583SOL    HW114648   3.759   1.632   5.498
 4583SOL    HW214649   3.652   1.694   5.392
 4584SOL     OW14650   0.648   5.551   5.278
 4584SOL    HW114651   0.674   5.647   5.269
 4584SOL    HW214652   0.631   5.530   5.375
 4585SOL     OW14653   3.858   6.160   2.725
 4585SOL    HW114654   3.835   6.064   2.715
 4585SOL    HW214655   3.838   6.190   2.818
 4586SOL     OW14656   3.293   5.303   2.309
 4586SOL    HW114657   3.224   5.309   2.382
 4586SOL    HW214658   3.275   5.222   2.253
 4587SOL     OW14659   2.463   3.941   1.375
 4587SOL    HW114660   2.388   3.929   1.309
 4587SOL    HW214661   2.549   3.909   1.333
 4588SOL     OW14662   4.124   3.582   4.662
 4588SOL    HW114663   4.105   3.642   4.740
 4588SOL    HW214664   4.146   3.637   4.581
 4589SOL     OW14665   6.639   2.027   4.454
 4589SOL    HW114666   6.725   2.060   4.416
 4589SOL    HW214667   6.646   2.022   4.554
 4590SOL     OW14668   4.161   5.209   2.416
 4590SOL    HW114669   4.169   5.122   2.464
 4590SOL    HW214670   4.222   5.277   2.459
 4591SOL     OW14671   5.666   5.978   5.361
 4591SOL    HW114672   5.666   5.963   5.460
 4591SOL    HW214673   5.575   5.960   5.324
 4592SOL     OW14674   3.767   2.532   6.445
 4592SOL    HW114675   3.781   2.534   6.346
 4592SOL    HW214676   3.774   2.438   6.479
 4593SOL     OW14677   3.684   6.311   2.564
 4593SOL    HW114678   3.688   6.399   2.611
 4593SOL    HW214679   3.747   6.247   2.607
 4594SOL     OW14680   2.354   1.569   2.225
 4594SOL    HW114681   2.255   1.555   2.224
 4594SOL    HW214682   2.384   1.586   2.318
 4595SOL     OW14683   3.922   3.353   6.088
 4595SOL    HW114684   3.998   3.289   6.079
 4595SOL    HW214685   3.957   3.443   6.113
 4596SOL     OW14686   5.436   0.286   1.833
 4596SOL    HW114687   5.450   0.385   1.827
 4596SOL    HW214688   5.339   0.266   1.846
 4597SOL     OW14689   5.486   4.354   6.665
 4597SOL    HW114690   5.405   4.297   6.679
 4597SOL    HW214691   5.508   4.403   6.749
 4598SOL     OW14692   2.509   4.895   6.843
 4598SOL    HW114693   2.531   4.806   6.804
 4598SOL    HW214694   2.493   4.961   6.770
 4599SOL     OW14695   1.746   4.181   0.827
 4599SOL    HW114696   1.832   4.227   0.804
 4599SOL    HW214697   1.698   4.235   0.897
 4600SOL     OW14698   2.846   5.499   1.361
 4600SOL    HW114699   2.879   5.576   1.416
 4600SOL    HW214700   2.884   5.506   1.269
 4601SOL     OW14701   1.644   6.501   5.216
 4601SOL    HW114702   1.589   6.542   5.290
 4601SOL    HW214703   1.593   6.505   5.130
 4602SOL     OW14704   1.839   0.611   1.923
 4602SOL    HW114705   1.839   0.521   1.967
 4602SOL    HW214706   1.933   0.636   1.900
 4603SOL     OW14707   3.403   0.027   1.182
 4603SOL    HW114708   3.417   7.000   1.266
 4603SOL    HW214709   3.465   0.105   1.180
 4604SOL     OW14710   3.526   6.751   1.957
 4604SOL    HW114711   3.542   6.702   1.871
 4604SOL    HW214712   3.574   6.839   1.955
 4605SOL     OW14713   5.225   6.888   4.849
 4605SOL    HW114714   5.325   6.890   4.850
 4605SOL    HW214715   5.191   6.968   4.800
 4606SOL     OW14716   6.963   6.359   5.470
 4606SOL    HW114717   0.017   6.309   5.436
 4606SOL    HW214718   6.900   6.377   5.394
 4607SOL     OW14719   3.344   2.237   1.581
 4607SOL    HW114720   3.362   2.140   1.599
 4607SOL    HW214721   3.262   2.265   1.630
 4608SOL     OW14722   1.924   3.665   5.597
 4608SOL    HW114723   1.983   3.642   5.675
 4608SOL    HW214724   1.932   3.762   5.576
 4609SOL     OW14725   4.642   6.748   6.747
 4609SOL    HW114726   4.682   6.819   6.689
 4609SOL    HW214727   4.705   6.669   6.751
 4610SOL     OW14728   0.229   3.454   6.750
 4610SOL    HW114729   0.132   3.476   6.738
 4610SOL    HW214730   0.240   3.393   6.829
 4611SOL     OW14731   0.480   4.229   0.271
 4611SOL    HW114732   0.416   4.174   0.216
 4611SOL    HW214733   0.431   4.270   0.347
 4612SOL     OW14734   2.313   6.622   6.784
 4612SOL    HW114735   2.410   6.643   6.801
 4612SOL    HW214736   2.257   6.700   6.811
 4613SOL     OW14737   3.085   5.287   2.494
 4613SOL    HW114738   3.091   5.324   2.587
 4613SOL    HW214739   3.020   5.211   2.493
 4614SOL     OW14740   1.822   5.399   0.253
 4614SOL    HW114741   1.876   5.382   0.336
 4614SOL    HW214742   1.751   5.330   0.245
 4615SOL     OW14743   0.511   2.677   0.481
 4615SOL    HW114744   0.448   2.686   0.559
 4615SOL    HW214745   0.602   2.653   0.515
 4616SOL     OW14746   5.268   1.077   6.860
 4616SOL    HW114747   5.235   0.982   6.857
 4616SOL    HW214748   5.365   1.078   6.884
 4617SOL     OW14749   0.498   2.538   1.756
 4617SOL    HW114750   0.463   2.498   1.671
 4617SOL    HW214751   0.424   2.543   1.823
 4618SOL     OW14752   1.105   2.197   6.441
 4618SOL    HW114753   1.135   2.102   6.439
 4618SOL    HW214754   1.072   2.220   6.533
 4619SOL     OW14755   3.437   0.908   3.347
 4619SOL    HW114756   3.398   1.000   3.344
 4619SOL    HW214757   3.517   0.904   3.288
 4620SOL     OW14758   2.479   4.523   6.464
 4620SOL    HW114759   2.485   4.597   6.531
 4620SOL    HW214760   2.555   4.459   6.478
 4621SOL     OW14761   0.575   6.332   5.717
 4621SOL    HW114762   0.584   6.320   5.816
 4621SOL    HW214763   0.597   6.245   5.671
 4622SOL     OW14764   1.952   3.705   0.913
 4622SOL    HW114765   1.891   3.771   0.869
 4622SOL    HW214766   2.045   3.717   0.878
 4623SOL     OW14767   6.621   5.151   1.572
 4623SOL    HW114768   6.666   5.062   1.585
 4623SOL    HW214769   6.601   5.191   1.662
 4624SOL     OW14770   5.188   0.134   4.765
 4624SOL    HW114771   5.272   0.176   4.801
 4624SOL    HW214772   5.147   0.195   4.697
 4625SOL     OW14773   1.147   3.989   6.667
 4625SOL    HW114774   1.083   3.923   6.628
 4625SOL    HW214775   1.240   3.967   6.637
 4626SOL     OW14776   6.822   5.436   1.187
 4626SOL    HW114777   6.832   5.390   1.099
 4626SOL    HW214778   6.912   5.463   1.221
 4627SOL     OW14779   3.310   6.400   5.856
 4627SOL    HW114780   3.283   6.308   5.827
 4627SOL    HW214781   3.395   6.426   5.809
 4628SOL     OW14782   6.997   4.383   1.981
 4628SOL    HW114783   6.965   4.460   2.036
 4628SOL    HW214784   0.071   4.371   1.993
 4629SOL     OW14785   2.037   4.514   5.578
 4629SOL    HW114786   2.056   4.417   5.597
 4629SOL    HW214787   2.121   4.567   5.588
 4630SOL     OW14788   2.034   6.604   2.932
 4630SOL    HW114789   2.092   6.563   3.002
 4630SOL    HW214790   2.068   6.579   2.841
 4631SOL     OW14791   3.001   6.723   2.411
 4631SOL    HW114792   2.952   6.722   2.324
 4631SOL    HW214793   2.938   6.699   2.485
 4632SOL     OW14794   5.133   5.479   3.956
 4632SOL    HW114795   5.057   5.434   3.909
 4632SOL    HW214796   5.158   5.562   3.907
 4633SOL     OW14797   6.416   1.856   4.413
 4633SOL    HW114798   6.502   1.906   4.402
 4633SOL    HW214799   6.401   1.838   4.510
 4634SOL     OW14800   3.367   4.639   0.635
 4634SOL    HW114801   3.333   4.555   0.594
 4634SOL    HW214802   3.448   4.670   0.586
 4635SOL     OW14803   5.143   3.862   1.545
 4635SOL    HW114804   5.228   3.915   1.554
 4635SOL    HW214805   5.068   3.915   1.584
 4636SOL     OW14806   2.649   5.646   0.762
 4636SOL    HW114807   2.549   5.641   0.766
 4636SOL    HW214808   2.687   5.622   0.851
 4637SOL     OW14809   1.443   1.496   5.281
 4637SOL    HW114810   1.448   1.508   5.380
 4637SOL    HW214811   1.429   1.585   5.237
 4638SOL     OW14812   5.494   3.487   5.769
 4638SOL    HW114813   5.465   3.484   5.673
 4638SOL    HW214814   5.472   3.576   5.808
 4639SOL     OW14815   0.072   3.892   5.214
 4639SOL    HW114816   0.106   3.985   5.206
 4639SOL    HW214817   0.149   3.829   5.223
 4640SOL     OW14818   5.514   4.155   2.665
 4640SOL    HW114819   5.592   4.132   2.606
 4640SOL    HW214820   5.452   4.216   2.616
 4641SOL     OW14821   2.045   5.001   5.003
 4641SOL    HW114822   2.079   4.921   5.053
 4641SOL    HW214823   2.120   5.066   4.991
 4642SOL     OW14824   6.173   5.976   4.711
 4642SOL    HW114825   6.129   6.060   4.682
 4642SOL    HW214826   6.270   5.993   4.728
 4643SOL     OW14827   3.992   2.243   1.893
 4643SOL    HW114828   4.038   2.300   1.826
 4643SOL    HW214829   3.898   2.273   1.905
 4644SOL     OW14830   2.425   5.766   5.374
 4644SOL    HW114831   2.520   5.775   5.403
 4644SOL    HW214832   2.421   5.768   5.274
 4645SOL     OW14833   1.969   5.987   4.448
 4645SOL    HW114834   1.888   5.958   4.397
 4645SOL    HW214835   1.943   6.006   4.543
 4646SOL     OW14836   3.780   0.921   1.597
 4646SOL    HW114837   3.794   0.926   1.696
 4646SOL    HW214838   3.772   1.013   1.560
 4647SOL     OW14839   6.164   0.354   4.449
 4647SOL    HW114840   6.225   0.311   4.515
 4647SOL    HW214841   6.219   0.401   4.379
 4648SOL     OW14842   2.495   5.672   2.825
 4648SOL    HW114843   2.570   5.695   2.763
 4648SOL    HW214844   2.457   5.583   2.801
 4649SOL     OW14845   5.070   0.916   6.115
 4649SOL    HW114846   5.157   0.944   6.074
 4649SOL    HW214847   5.011   0.877   6.044
 4650SOL     OW14848   5.927   4.840   2.358
 4650SOL    HW114849   5.886   4.910   2.299
 4650SOL    HW214850   5.879   4.753   2.346
 4651SOL     OW14851   0.318   2.532   1.963
 4651SOL    HW114852   0.282   2.625   1.968
 4651SOL    HW214853   0.263   2.471   2.020
 4652SOL     OW14854   6.825   6.570   5.619
 4652SOL    HW114855   6.883   6.652   5.614
 4652SOL    HW214856   6.881   6.489   5.601
 4653SOL     OW14857   0.335   6.218   0.001
 4653SOL    HW114858   0.381   6.138   0.040
 4653SOL    HW214859   0.309   6.280   0.075
 4654SOL     OW14860   1.034   0.897   6.931
 4654SOL    HW114861   0.947   0.916   6.885
 4654SOL    HW214862   1.102   0.868   6.864
 4655SOL     OW14863   0.148   4.731   3.136
 4655SOL    HW114864   0.215   4.752   3.208
 4655SOL    HW214865   0.070   4.792   3.144
 4656SOL     OW14866   2.090   6.992   3.586
 4656SOL    HW114867   2.156   6.916   3.588
 4656SOL    HW214868   2.128   0.042   3.533
 4657SOL     OW14869   5.113   0.077   0.816
 4657SOL    HW114870   5.157   7.022   0.777
 4657SOL    HW214871   5.083   0.057   0.909
 4658SOL     OW14872   5.186   0.279   3.409
 4658SOL    HW114873   5.245   0.274   3.328
 4658SOL    HW214874   5.231   0.232   3.485
 4659SOL     OW14875   1.869   2.597   5.089
 4659SOL    HW114876   1.814   2.676   5.118
 4659SOL    HW214877   1.830   2.513   5.127
 4660SOL     OW14878   7.024   0.639   6.023
 4660SOL    HW114879   6.965   0.667   5.947
 4660SOL    HW214880   0.015   0.717   6.083
 4661SOL     OW14881   3.397   4.211   4.063
 4661SOL    HW114882   3.298   4.207   4.046
 4661SOL    HW214883   3.446   4.207   3.976
 4662SOL     OW14884   5.042   0.295   5.224
 4662SOL    HW114885   5.031   0.251   5.136
 4662SOL    HW214886   4.965   0.270   5.284
 4663SOL     OW14887   0.281   2.115   2.752
 4663SOL    HW114888   0.378   2.124   2.774
 4663SOL    HW214889   0.246   2.203   2.718
 4664SOL     OW14890   3.033   2.024   0.039
 4664SOL    HW114891   2.970   2.097   0.010
 4664SOL    HW214892   3.038   1.955   6.993
 4665SOL     OW14893   5.013   0.313   0.130
 4665SOL    HW114894   4.926   0.291   0.088
 4665SOL    HW214895   5.088   0.282   0.072
 4666SOL     OW14896   2.193   1.391   0.779
 4666SOL    HW114897   2.120   1.429   0.723
 4666SOL    HW214898   2.278   1.389   0.727
 4667SOL     OW14899   0.352   5.187   6.320
 4667SOL    HW114900   0.323   5.146   6.406
 4667SOL    HW214901   0.359   5.286   6.329
 4668SOL     OW14902   6.509   1.778   4.123
 4668SOL    HW114903   6.436   1.739   4.178
 4668SOL    HW214904   6.592   1.723   4.133
 4669SOL     OW14905   1.453   0.575   0.471
 4669SOL    HW114906   1.466   0.579   0.570
 4669SOL    HW214907   1.488   0.488   0.436
 4670SOL     OW14908   2.466   2.165   4.197
 4670SOL    HW114909   2.464   2.123   4.288
 4670SOL    HW214910   2.460   2.095   4.127
 4671SOL     OW14911   5.701   3.250   1.515
 4671SOL    HW114912   5.797   3.238   1.540
 4671SOL    HW214913   5.695   3.280   1.419
 4672SOL     OW14914   1.822   3.528   6.183
 4672SOL    HW114915   1.854   3.434   6.179
 4672SOL    HW214916   1.734   3.532   6.230
 4673SOL     OW14917   4.310   0.751   2.447
 4673SOL    HW114918   4.324   0.710   2.538
 4673SOL    HW214919   4.398   0.782   2.411
 4674SOL     OW14920   4.322   5.323   5.653
 4674SOL    HW114921   4.248   5.289   5.595
 4674SOL    HW214922   4.286   5.348   5.743
 4675SOL     OW14923   1.120   4.106   0.182
 4675SOL    HW114924   1.111   4.206   0.180
 4675SOL    HW214925   1.087   4.068   0.096
 4676SOL     OW14926   1.113   5.710   3.859
 4676SOL    HW114927   1.107   5.779   3.786
 4676SOL    HW214928   1.173   5.636   3.829
 4677SOL     OW14929   1.572   2.935   6.977
 4677SOL    HW114930   1.664   2.930   7.016
 4677SOL    HW214931   1.505   2.905   0.021
 4678SOL     OW14932   2.387   4.869   2.583
 4678SOL    HW114933   2.487   4.865   2.578
 4678SOL    HW214934   2.357   4.847   2.676
 4679SOL     OW14935   5.140   0.212   1.824
 4679SOL    HW114936   5.165   0.167   1.738
 4679SOL    HW214937   5.041   0.211   1.834
 4680SOL     OW14938   2.100   1.400   1.743
 4680SOL    HW114939   2.182   1.387   1.798
 4680SOL    HW214940   2.022   1.356   1.788
 4681SOL     OW14941   5.338   4.145   1.269
 4681SOL    HW114942   5.424   4.117   1.311
 4681SOL    HW214943   5.354   4.175   1.174
 4682SOL     OW14944   3.853   3.498   6.621
 4682SOL    HW114945   3.943   3.455   6.631
 4682SOL    HW214946   3.812   3.471   6.534
 4683SOL     OW14947   6.245   4.322   3.378
 4683SOL    HW114948   6.308   4.247   3.356
 4683SOL    HW214949   6.251   4.342   3.476
 4684SOL     OW14950   4.997   6.394   0.096
 4684SOL    HW114951   4.946   6.451   0.160
 4684SOL    HW214952   5.088   6.375   0.133
 4685SOL     OW14953   2.416   3.373   5.794
 4685SOL    HW114954   2.490   3.431   5.759
 4685SOL    HW214955   2.431   3.279   5.764
 4686SOL     OW14956   2.834   5.920   0.441
 4686SOL    HW114957   2.887   5.930   0.357
 4686SOL    HW214958   2.771   5.997   0.451
 4687SOL     OW14959   3.171   0.628   2.807
 4687SOL    HW114960   3.131   0.709   2.764
 4687SOL    HW214961   3.150   0.548   2.752
 4688SOL     OW14962   5.752   3.461   5.801
 4688SOL    HW114963   5.652   3.458   5.801
 4688SOL    HW214964   5.783   3.539   5.855
 4689SOL     OW14965   5.658   0.905   1.228
 4689SOL    HW114966   5.679   0.990   1.277
 4689SOL    HW214967   5.743   0.855   1.210
 4690SOL     OW14968   2.494   1.443   0.322
 4690SOL    HW114969   2.498   1.343   0.328
 4690SOL    HW214970   2.585   1.480   0.306
 4691SOL     OW14971   0.000   4.221   1.520
 4691SOL    HW114972   0.058   4.282   1.575
 4691SOL    HW214973   0.054   4.142   1.491
 4692SOL     OW14974   6.115   3.770   2.936
 4692SOL    HW114975   6.124   3.671   2.926
 4692SOL    HW214976   6.150   3.815   2.855
 4693SOL     OW14977   1.521   0.590   3.817
 4693SOL    HW114978   1.474   0.647   3.885
 4693SOL    HW214979   1.612   0.567   3.852
 4694SOL     OW14980   2.400   1.417   0.046
 4694SOL    HW114981   2.358   1.502   0.016
 4694SOL    HW214982   2.445   1.432   0.135
 4695SOL     OW14983   0.962   6.094   1.625
 4695SOL    HW114984   0.981   6.164   1.556
 4695SOL    HW214985   1.043   6.080   1.682
 4696SOL     OW14986   0.893   5.212   5.862
 4696SOL    HW114987   0.991   5.210   5.842
 4696SOL    HW214988   0.848   5.137   5.815
 4697SOL     OW14989   2.964   4.870   0.629
 4697SOL    HW114990   3.060   4.888   0.652
 4697SOL    HW214991   2.949   4.891   0.533
 4698SOL     OW14992   5.676   1.159   3.199
 4698SOL    HW114993   5.749   1.093   3.218
 4698SOL    HW214994   5.665   1.220   3.277
 4699SOL     OW14995   1.275   6.825   2.915
 4699SOL    HW114996   1.231   6.748   2.961
 4699SOL    HW214997   1.236   6.836   2.823
 4700SOL     OW14998   5.733   2.164   2.747
 4700SOL    HW114999   5.753   2.078   2.794
 4700SOL    HW215000   5.637   2.168   2.723
 4701SOL     OW15001   3.320   1.886   1.827
 4701SOL    HW115002   3.341   1.980   1.853
 4701SOL    HW215003   3.281   1.838   1.905
 4702SOL     OW15004   5.136   4.781   6.212
 4702SOL    HW115005   5.143   4.682   6.224
 4702SOL    HW215006   5.190   4.826   6.284
 4703SOL     OW15007   0.760   4.805   3.458
 4703SOL    HW115008   0.746   4.827   3.361
 4703SOL    HW215009   0.857   4.813   3.480
 4704SOL     OW15010   0.948   5.035   5.550
 4704SOL    HW115011   1.035   5.081   5.536
 4704SOL    HW215012   0.948   4.948   5.501
 4705SOL     OW15013   3.297   2.804   1.596
 4705SOL    HW115014   3.296   2.712   1.636
 4705SOL    HW215015   3.279   2.798   1.498
 4706SOL     OW15016   1.722   0.911   0.556
 4706SOL    HW115017   1.772   0.961   0.486
 4706SOL    HW215018   1.630   0.890   0.523
 4707SOL     OW15019   1.726   6.895   1.332
 4707SOL    HW115020   1.770   6.968   1.384
 4707SOL    HW215021   1.770   6.885   1.243
 4708SOL     OW15022   0.670   2.925   4.178
 4708SOL    HW115023   0.572   2.914   4.191
 4708SOL    HW215024   0.688   3.014   4.134
 4709SOL     OW15025   4.501   3.778   5.341
 4709SOL    HW115026   4.546   3.843   5.279
 4709SOL    HW215027   4.477   3.695   5.291
 4710SOL     OW15028   5.848   6.228   4.291
 4710SOL    HW115029   5.909   6.304   4.269
 4710SOL    HW215030   5.819   6.235   4.386
 4711SOL     OW15031   6.164   3.172   3.042
 4711SOL    HW115032   6.242   3.202   3.096
 4711SOL    HW215033   6.115   3.099   3.090
 4712SOL     OW15034   4.355   4.194   5.313
 4712SOL    HW115035   4.343   4.286   5.275
 4712SOL    HW215036   4.444   4.158   5.285
 4713SOL     OW15037   5.621   4.447   1.069
 4713SOL    HW115038   5.614   4.522   1.135
 4713SOL    HW215039   5.705   4.396   1.086
 4714SOL     OW15040   5.548   0.861   5.875
 4714SOL    HW115041   5.626   0.924   5.880
 4714SOL    HW215042   5.489   0.874   5.954
 4715SOL     OW15043   6.142   1.224   1.471
 4715SOL    HW115044   6.156   1.229   1.570
 4715SOL    HW215045   6.083   1.299   1.441
 4716SOL     OW15046   3.932   4.194   5.496
 4716SOL    HW115047   3.896   4.101   5.502
 4716SOL    HW215048   3.921   4.228   5.403
 4717SOL     OW15049   2.859   5.322   5.197
 4717SOL    HW115050   2.801   5.401   5.216
 4717SOL    HW215051   2.823   5.271   5.118
 4718SOL     OW15052   5.101   4.143   0.940
 4718SOL    HW115053   5.176   4.080   0.920
 4718SOL    HW215054   5.128   4.206   1.013
 4719SOL     OW15055   6.939   3.566   3.757
 4719SOL    HW115056   0.013   3.569   3.771
 4719SOL    HW215057   6.899   3.652   3.791
 4720SOL     OW15058   2.879   4.290   6.731
 4720SOL    HW115059   2.831   4.205   6.753
 4720SOL    HW215060   2.859   4.359   6.801
 4721SOL     OW15061   6.554   3.725   2.820
 4721SOL    HW115062   6.513   3.717   2.730
 4721SOL    HW215063   6.511   3.659   2.883
 4722SOL     OW15064   1.397   4.539   6.924
 4722SOL    HW115065   1.404   4.473   6.998
 4722SOL    HW215066   1.347   4.620   6.956
 4723SOL     OW15067   3.917   4.049   6.544
 4723SOL    HW115068   3.937   3.952   6.560
 4723SOL    HW215069   3.863   4.057   6.460
 4724SOL     OW15070   1.426   0.059   4.823
 4724SOL    HW115071   1.355   0.118   4.863
 4724SOL    HW215072   1.389   0.011   4.744
 4725SOL     OW15073   5.805   6.011   0.486
 4725SOL    HW115074   5.769   6.070   0.414
 4725SOL    HW215075   5.732   5.990   0.552
 4726SOL     OW15076   1.356   2.882   5.280
 4726SOL    HW115077   1.428   2.815   5.300
 4726SOL    HW215078   1.308   2.905   5.365
 4727SOL     OW15079   1.204   5.589   0.316
 4727SOL    HW115080   1.263   5.620   0.390
 4727SOL    HW215081   1.192   5.489   0.323
 4728SOL     OW15082   6.314   1.022   4.372
 4728SOL    HW115083   6.283   0.963   4.447
 4728SOL    HW215084   6.306   1.118   4.400
 4729SOL     OW15085   6.304   1.176   1.070
 4729SOL    HW115086   6.347   1.137   0.989
 4729SOL    HW215087   6.223   1.228   1.043
 4730SOL     OW15088   3.601   0.394   4.785
 4730SOL    HW115089   3.579   0.476   4.733
 4730SOL    HW215090   3.630   0.321   4.722
 4731SOL     OW15091   3.385   0.808   0.600
 4731SOL    HW115092   3.326   0.858   0.536
 4731SOL    HW215093   3.481   0.824   0.576
 4732SOL     OW15094   0.426   4.348   4.329
 4732SOL    HW115095   0.491   4.361   4.254
 4732SOL    HW215096   0.458   4.396   4.410
 4733SOL     OW15097   2.101   3.419   3.104
 4733SOL    HW115098   2.163   3.359   3.154
 4733SOL    HW215099   2.135   3.513   3.106
 4734SOL     OW15100   4.997   3.780   6.597
 4734SOL    HW115101   4.938   3.725   6.537
 4734SOL    HW215102   5.033   3.723   6.670
 4735SOL     OW15103   0.096   6.834   4.857
 4735SOL    HW115104   0.190   6.802   4.847
 4735SOL    HW215105   0.047   6.821   4.771
 4736SOL     OW15106   6.303   1.597   3.329
 4736SOL    HW115107   6.354   1.683   3.334
 4736SOL    HW215108   6.286   1.563   3.421
 4737SOL     OW15109   2.374   4.918   0.942
 4737SOL    HW115110   2.367   4.868   0.856
 4737SOL    HW215111   2.349   4.857   1.017
 4738SOL     OW15112   2.084   6.706   4.059
 4738SOL    HW115113   2.169   6.753   4.035
 4738SOL    HW215114   2.051   6.656   3.979
 4739SOL     OW15115   5.879   3.213   3.999
 4739SOL    HW115116   5.796   3.163   4.024
 4739SOL    HW215117   5.870   3.246   3.905
 4740SOL     OW15118   0.085   0.723   1.290
 4740SOL    HW115119   0.092   0.706   1.388
 4740SOL    HW215120   0.028   0.804   1.274
 4741SOL     OW15121   4.696   4.779   1.590
 4741SOL    HW115122   4.791   4.751   1.605
 4741SOL    HW215123   4.642   4.753   1.669
 4742SOL     OW15124   2.860   6.293   1.724
 4742SOL    HW115125   2.850   6.204   1.769
 4742SOL    HW215126   2.935   6.289   1.658
 4743SOL     OW15127   2.475   2.207   0.382
 4743SOL    HW115128   2.407   2.249   0.442
 4743SOL    HW215129   2.447   2.114   0.360
 4744SOL     OW15130   1.874   3.107   5.545
 4744SOL    HW115131   1.862   3.055   5.629
 4744SOL    HW215132   1.903   3.045   5.472
 4745SOL     OW15133   3.043   6.040   5.168
 4745SOL    HW115134   3.001   6.053   5.078
 4745SOL    HW215135   2.971   6.028   5.236
 4746SOL     OW15136   6.661   6.996   0.695
 4746SOL    HW115137   6.586   0.032   0.670
 4746SOL    HW215138   6.745   7.025   0.649
 4747SOL     OW15139   6.322   2.623   1.157
 4747SOL    HW115140   6.322   2.593   1.252
 4747SOL    HW215141   6.242   2.585   1.110
 4748SOL     OW15142   1.344   1.111   1.446
 4748SOL    HW115143   1.414   1.064   1.500
 4748SOL    HW215144   1.334   1.205   1.480
 4749SOL     OW15145   1.856   6.613   0.238
 4749SOL    HW115146   1.843   6.710   0.216
 4749SOL    HW215147   1.877   6.563   0.154
 4750SOL     OW15148   0.112   0.315   4.532
 4750SOL    HW115149   0.146   0.319   4.625
 4750SOL    HW215150   0.156   0.240   4.483
 4751SOL     OW15151   1.400   4.307   6.491
 4751SOL    HW115152   1.415   4.236   6.422
 4751SOL    HW215153   1.310   4.295   6.533
 4752SOL     OW15154   2.959   5.856   1.747
 4752SOL    HW115155   3.013   5.798   1.808
 4752SOL    HW215156   2.948   5.809   1.659
 4753SOL     OW15157   5.750   6.462   5.161
 4753SOL    HW115158   5.782   6.383   5.212
 4753SOL    HW215159   5.650   6.465   5.165
 4754SOL     OW15160   0.489   0.456   6.096
 4754SOL    HW115161   0.556   0.459   6.023
 4754SOL    HW215162   0.469   0.361   6.120
 4755SOL     OW15163   2.229   1.457   6.400
 4755SOL    HW115164   2.182   1.514   6.332
 4755SOL    HW215165   2.249   1.512   6.481
 4756SOL     OW15166   4.905   2.801   1.250
 4756SOL    HW115167   4.898   2.763   1.342
 4756SOL    HW215168   4.993   2.774   1.209
 4757SOL     OW15169   1.910   2.537   1.251
 4757SOL    HW115170   1.950   2.459   1.301
 4757SOL    HW215171   1.874   2.603   1.316
 4758SOL     OW15172   5.177   4.983   5.367
 4758SOL    HW115173   5.132   4.934   5.292
 4758SOL    HW215174   5.164   4.932   5.452
 4759SOL     OW15175   5.514   5.401   6.176
 4759SOL    HW115176   5.542   5.420   6.082
 4759SOL    HW215177   5.434   5.340   6.176
 4760SOL     OW15178   1.598   1.340   1.581
 4760SOL    HW115179   1.609   1.332   1.680
 4760SOL    HW215180   1.679   1.384   1.541
 4761SOL     OW15181   0.139   6.892   6.555
 4761SOL    HW115182   0.171   6.987   6.559
 4761SOL    HW215183   0.122   6.859   6.647
 4762SOL     OW15184   2.375   5.708   1.843
 4762SOL    HW115185   2.338   5.619   1.815
 4762SOL    HW215186   2.312   5.780   1.816
 4763SOL     OW15187   6.044   6.009   3.624
 4763SOL    HW115188   6.085   6.100   3.628
 4763SOL    HW215189   6.080   5.953   3.699
 4764SOL     OW15190   3.620   3.554   4.374
 4764SOL    HW115191   3.661   3.639   4.407
 4764SOL    HW215192   3.604   3.493   4.451
 4765SOL     OW15193   4.946   5.817   4.841
 4765SOL    HW115194   5.000   5.901   4.836
 4765SOL    HW215195   5.004   5.738   4.821
 4766SOL     OW15196   2.995   0.114   3.271
 4766SOL    HW115197   3.084   0.137   3.310
 4766SOL    HW215198   2.990   0.151   3.178
 4767SOL     OW15199   4.488   6.464   6.588
 4767SOL    HW115200   4.539   6.460   6.502
 4767SOL    HW215201   4.538   6.521   6.653
 4768SOL     OW15202   6.573   0.539   5.159
 4768SOL    HW115203   6.656   0.527   5.103
 4768SOL    HW215204   6.493   0.519   5.103
 4769SOL     OW15205   3.917   6.864   1.489
 4769SOL    HW115206   3.854   6.922   1.541
 4769SOL    HW215207   3.873   6.777   1.470
 4770SOL     OW15208   2.957   0.710   3.239
 4770SOL    HW115209   2.998   0.637   3.294
 4770SOL    HW215210   2.864   0.685   3.214
 4771SOL     OW15211   3.992   4.118   5.151
 4771SOL    HW115212   4.035   4.028   5.153
 4771SOL    HW215213   3.898   4.109   5.119
 4772SOL     OW15214   2.631   2.100   1.661
 4772SOL    HW115215   2.704   2.031   1.655
 4772SOL    HW215216   2.649   2.160   1.739
 4773SOL     OW15217   0.206   5.816   3.824
 4773SOL    HW115218   0.293   5.777   3.857
 4773SOL    HW215219   0.209   5.826   3.725
 4774SOL     OW15220   0.596   3.626   1.425
 4774SOL    HW115221   0.568   3.547   1.370
 4774SOL    HW215222   0.689   3.653   1.400
 4775SOL     OW15223   4.186   0.204   2.347
 4775SOL    HW115224   4.165   0.108   2.365
 4775SOL    HW215225   4.182   0.255   2.433
 4776SOL     OW15226   3.071   5.484   2.267
 4776SOL    HW115227   3.116   5.461   2.181
 4776SOL    HW215228   3.064   5.402   2.324
 4777SOL     OW15229   2.876   3.936   1.032
 4777SOL    HW115230   2.884   3.993   1.113
 4777SOL    HW215231   2.880   3.839   1.058
 4778SOL     OW15232   4.762   4.250   2.065
 4778SOL    HW115233   4.822   4.231   1.988
 4778SOL    HW215234   4.668   4.264   2.032
 4779SOL     OW15235   5.801   0.795   2.858
 4779SOL    HW115236   5.861   0.740   2.915
 4779SOL    HW215237   5.744   0.735   2.801
 4780SOL     OW15238   0.769   6.773   6.856
 4780SOL    HW115239   0.710   6.709   6.906
 4780SOL    HW215240   0.823   6.826   6.921
 4781SOL     OW15241   2.486   5.311   1.593
 4781SOL    HW115242   2.521   5.379   1.528
 4781SOL    HW215243   2.444   5.236   1.542
 4782SOL     OW15244   5.643   6.101   6.642
 4782SOL    HW115245   5.702   6.175   6.674
 4782SOL    HW215246   5.676   6.068   6.554
 4783SOL     OW15247   5.326   4.286   1.025
 4783SOL    HW115248   5.423   4.263   1.025
 4783SOL    HW215249   5.306   4.349   0.950
 4784SOL     OW15250   5.283   4.904   4.603
 4784SOL    HW115251   5.366   4.893   4.657
 4784SOL    HW215252   5.225   4.823   4.615
 4785SOL     OW15253   6.915   6.583   1.517
 4785SOL    HW115254   6.992   6.646   1.521
 4785SOL    HW215255   6.946   6.491   1.542
 4786SOL     OW15256   2.031   3.361   2.239
 4786SOL    HW115257   2.027   3.328   2.333
 4786SOL    HW215258   2.068   3.454   2.237
 4787SOL     OW15259   3.204   2.134   3.372
 4787SOL    HW115260   3.159   2.137   3.283
 4787SOL    HW215261   3.135   2.139   3.445
 4788SOL     OW15262   1.222   5.188   4.193
 4788SOL    HW115263   1.128   5.174   4.221
 4788SOL    HW215264   1.250   5.114   4.131
 4789SOL     OW15265   5.723   0.743   6.906
 4789SOL    HW115266   5.665   0.675   6.951
 4789SOL    HW215267   5.798   0.696   6.858
 4790SOL     OW15268   5.658   2.329   6.311
 4790SOL    HW115269   5.653   2.427   6.330
 4790SOL    HW215270   5.588   2.282   6.363
 4791SOL     OW15271   5.417   0.035   2.051
 4791SOL    HW115272   5.487   0.005   2.116
 4791SOL    HW215273   5.328   0.001   2.080
 4792SOL     OW15274   2.167   2.470   2.588
 4792SOL    HW115275   2.117   2.502   2.669
 4792SOL    HW215276   2.256   2.516   2.583
 4793SOL     OW15277   1.168   6.680   6.612
 4793SOL    HW115278   1.074   6.646   6.612
 4793SOL    HW215279   1.168   6.780   6.613
 4794SOL     OW15280   3.026   0.490   2.319
 4794SOL    HW115281   3.005   0.484   2.417
 4794SOL    HW215282   2.994   0.578   2.283
 4795SOL     OW15283   6.432   2.909   4.194
 4795SOL    HW115284   6.337   2.908   4.224
 4795SOL    HW215285   6.492   2.928   4.272
 4796SOL     OW15286   6.041   4.337   0.798
 4796SOL    HW115287   5.965   4.282   0.833
 4796SOL    HW215288   6.023   4.434   0.818
 4797SOL     OW15289   0.221   4.557   5.232
 4797SOL    HW115290   0.321   4.555   5.229
 4797SOL    HW215291   0.187   4.639   5.186
 4798SOL     OW15292   7.025   4.057   4.022
 4798SOL    HW115293   0.080   4.066   4.082
 4798SOL    HW215294   6.950   4.015   4.073
 4799SOL     OW15295   4.210   1.452   5.158
 4799SOL    HW115296   4.165   1.496   5.080
 4799SOL    HW215297   4.156   1.468   5.241
 4800SOL     OW15298   2.245   2.335   5.165
 4800SOL    HW115299   2.307   2.356   5.240
 4800SOL    HW215300   2.182   2.411   5.151
 4801SOL     OW15301   1.090   1.748   0.898
 4801SOL    HW115302   1.189   1.738   0.909
 4801SOL    HW215303   1.046   1.661   0.921
 4802SOL     OW15304   3.054   0.460   1.901
 4802SOL    HW115305   2.977   0.412   1.859
 4802SOL    HW215306   3.078   0.415   1.987
 4803SOL     OW15307   0.842   0.295   0.499
 4803SOL    HW115308   0.830   0.393   0.481
 4803SOL    HW215309   0.867   0.282   0.595
 4804SOL     OW15310   3.908   5.503   6.410
 4804SOL    HW115311   4.002   5.470   6.404
 4804SOL    HW215312   3.846   5.426   6.413
 4805SOL     OW15313   6.974   1.955   0.892
 4805SOL    HW115314   6.896   1.899   0.865
 4805SOL    HW215315   6.941   2.039   0.935
 4806SOL     OW15316   0.687   2.934   3.053
 4806SOL    HW115317   0.699   2.925   3.152
 4806SOL    HW215318   0.774   2.917   3.007
 4807SOL     OW15319   0.424   6.850   1.077
 4807SOL    HW115320   0.382   6.777   1.024
 4807SOL    HW215321   0.442   6.818   1.170
 4808SOL     OW15322   5.018   3.215   1.133
 4808SOL    HW115323   4.959   3.193   1.055
 4808SOL    HW215324   5.102   3.161   1.128
 4809SOL     OW15325   3.475   5.547   6.659
 4809SOL    HW115326   3.440   5.570   6.569
 4809SOL    HW215327   3.572   5.524   6.653
 4810SOL     OW15328   0.644   6.926   1.289
 4810SOL    HW115329   0.644   6.996   1.218
 4810SOL    HW215330   0.709   6.854   1.264
 4811SOL     OW15331   3.769   5.083   1.770
 4811SOL    HW115332   3.841   5.029   1.814
 4811SOL    HW215333   3.704   5.114   1.839
 4812SOL     OW15334   6.929   5.608   4.393
 4812SOL    HW115335   6.893   5.616   4.486
 4812SOL    HW215336   0.003   5.598   4.396
 4813SOL     OW15337   5.139   2.342   2.703
 4813SOL    HW115338   5.041   2.349   2.724
 4813SOL    HW215339   5.152   2.347   2.604
 4814SOL     OW15340   0.139   4.114   1.268
 4814SOL    HW115341   0.168   4.043   1.332
 4814SOL    HW215342   0.217   4.172   1.245
 4815SOL     OW15343   4.919   5.867   1.175
 4815SOL    HW115344   5.012   5.841   1.200
 4815SOL    HW215345   4.875   5.790   1.127
 4816SOL     OW15346   5.291   5.306   3.061
 4816SOL    HW115347   5.206   5.266   3.027
 4816SOL    HW215348   5.331   5.364   2.989
 4817SOL     OW15349   1.163   2.566   6.556
 4817SOL    HW115350   1.115   2.529   6.635
 4817SOL    HW215351   1.250   2.605   6.586
 4818SOL     OW15352   0.383   6.940   3.832
 4818SOL    HW115353   0.351   6.886   3.754
 4818SOL    HW215354   0.419   0.003   3.799
 4819SOL     OW15355   1.374   3.303   0.626
 4819SOL    HW115356   1.401   3.380   0.684
 4819SOL    HW215357   1.444   3.288   0.556
 4820SOL     OW15358   6.978   3.009   1.862
 4820SOL    HW115359   6.941   2.973   1.776
 4820SOL    HW215360   0.049   3.035   1.848
 4821SOL     OW15361   6.986   5.636   2.542
 4821SOL    HW115362   6.900   5.664   2.585
 4821SOL    HW215363   0.037   5.685   2.585
 4822SOL     OW15364   1.532   3.822   4.534
 4822SOL    HW115365   1.567   3.883   4.462
 4822SOL    HW215366   1.499   3.737   4.492
 4823SOL     OW15367   2.240   2.833   2.269
 4823SOL    HW115368   2.261   2.931   2.271
 4823SOL    HW215369   2.172   2.815   2.198
 4824SOL     OW15370   5.844   1.382   5.522
 4824SOL    HW115371   5.832   1.429   5.434
 4824SOL    HW215372   5.941   1.380   5.546
 4825SOL     OW15373   1.602   6.724   4.209
 4825SOL    HW115374   1.563   6.723   4.301
 4825SOL    HW215375   1.693   6.766   4.211
 4826SOL     OW15376   4.487   0.536   1.891
 4826SOL    HW115377   4.564   0.599   1.906
 4826SOL    HW215378   4.468   0.486   1.976
 4827SOL     OW15379   7.002   1.511   1.435
 4827SOL    HW115380   6.951   1.424   1.428
 4827SOL    HW215381   0.036   1.521   1.355
 4828SOL     OW15382   4.775   0.487   3.139
 4828SOL    HW115383   4.720   0.523   3.214
 4828SOL    HW215384   4.870   0.481   3.167
 4829SOL     OW15385   4.046   0.273   5.188
 4829SOL    HW115386   4.008   0.262   5.280
 4829SOL    HW215387   3.977   0.314   5.128
 4830SOL     OW15388   3.192   5.801   3.290
 4830SOL    HW115389   3.114   5.835   3.238
 4830SOL    HW215390   3.276   5.826   3.243
 4831SOL     OW15391   3.079   4.899   6.220
 4831SOL    HW115392   3.112   4.953   6.297
 4831SOL    HW215393   3.005   4.947   6.174
 4832SOL     OW15394   3.531   3.221   4.137
 4832SOL    HW115395   3.482   3.291   4.085
 4832SOL    HW215396   3.619   3.257   4.168
 4833SOL     OW15397   0.336   2.740   3.812
 4833SOL    HW115398   0.271   2.803   3.855
 4833SOL    HW215399   0.297   2.705   3.727
 4834SOL     OW15400   1.455   5.353   1.692
 4834SOL    HW115401   1.531   5.407   1.729
 4834SOL    HW215402   1.492   5.272   1.647
 4835SOL     OW15403   6.666   2.276   5.521
 4835SOL    HW115404   6.577   2.233   5.505
 4835SOL    HW215405   6.660   2.335   5.602
 4836SOL     OW15406   5.229   1.277   5.480
 4836SOL    HW115407   5.274   1.190   5.501
 4836SOL    HW215408   5.207   1.324   5.565
 4837SOL     OW15409   0.038   4.597   4.433
 4837SOL    HW115410   0.035   4.501   4.461
 4837SOL    HW215411   0.126   4.617   4.390
 4838SOL     OW15412   1.933   4.232   6.600
 4838SOL    HW115413   1.882   4.148   6.617
 4838SOL    HW215414   1.978   4.226   6.511
 4839SOL     OW15415   2.631   1.362   6.945
 4839SOL    HW115416   2.532   1.372   6.942
 4839SOL    HW215417   2.666   1.395   0.008
 4840SOL     OW15418   5.726   3.089   4.824
 4840SOL    HW115419   5.667   3.162   4.858
 4840SOL    HW215420   5.673   3.004   4.820
 4841SOL     OW15421   3.246   5.614   2.560
 4841SOL    HW115422   3.251   5.601   2.461
 4841SOL    HW215423   3.321   5.564   2.605
 4842SOL     OW15424   2.971   5.458   3.179
 4842SOL    HW115425   2.945   5.387   3.114
 4842SOL    HW215426   2.928   5.545   3.151
 4843SOL     OW15427   0.533   1.578   2.122
 4843SOL    HW115428   0.468   1.567   2.048
 4843SOL    HW215429   0.489   1.623   2.199
 4844SOL     OW15430   1.071   5.715   4.558
 4844SOL    HW115431   1.166   5.689   4.544
 4844SOL    HW215432   1.048   5.711   4.655
 4845SOL     OW15433   4.924   3.782   4.934
 4845SOL    HW115434   4.887   3.708   4.991
 4845SOL    HW215435   4.857   3.855   4.928
 4846SOL     OW15436   6.899   3.685   4.607
 4846SOL    HW115437   6.919   3.655   4.701
 4846SOL    HW215438   6.931   3.779   4.594
 4847SOL     OW15439   2.273   6.403   6.102
 4847SOL    HW115440   2.234   6.313   6.081
 4847SOL    HW215441   2.224   6.473   6.049
 4848SOL     OW15442   3.168   1.016   4.144
 4848SOL    HW115443   3.142   1.086   4.077
 4848SOL    HW215444   3.242   0.960   4.107
 4849SOL     OW15445   1.868   6.916   1.112
 4849SOL    HW115446   1.841   6.907   1.016
 4849SOL    HW215447   1.961   6.881   1.124
 4850SOL     OW15448   4.349   0.145   0.277
 4850SOL    HW115449   4.370   0.068   0.336
 4850SOL    HW215450   4.424   0.161   0.213
 4851SOL     OW15451   3.416   5.004   6.298
 4851SOL    HW115452   3.502   5.002   6.349
 4851SOL    HW215453   3.430   4.967   6.207
 4852SOL     OW15454   4.894   5.512   4.775
 4852SOL    HW115455   4.901   5.441   4.846
 4852SOL    HW215456   4.985   5.549   4.756
 4853SOL     OW15457   4.187   0.087   2.015
 4853SOL    HW115458   4.162   7.020   2.045
 4853SOL    HW215459   4.118   0.152   2.045
 4854SOL     OW15460   5.794   6.196   1.595
 4854SOL    HW115461   5.797   6.294   1.576
 4854SOL    HW215462   5.705   6.159   1.566
 4855SOL     OW15463   5.730   5.085   5.486
 4855SOL    HW115464   5.679   5.167   5.462
 4855SOL    HW215465   5.790   5.060   5.410
 4856SOL     OW15466   0.150   3.728   3.192
 4856SOL    HW115467   0.074   3.790   3.177
 4856SOL    HW215468   0.119   3.634   3.185
 4857SOL     OW15469   2.753   2.152   4.969
 4857SOL    HW115470   2.707   2.217   5.029
 4857SOL    HW215471   2.783   2.198   4.885
 4858SOL     OW15472   0.729   5.870   4.001
 4858SOL    HW115473   0.649   5.852   3.943
 4858SOL    HW215474   0.698   5.910   4.087
 4859SOL     OW15475   1.180   6.287   2.409
 4859SOL    HW115476   1.111   6.232   2.361
 4859SOL    HW215477   1.151   6.383   2.409
 4860SOL     OW15478   4.263   5.650   0.982
 4860SOL    HW115479   4.307   5.563   1.003
 4860SOL    HW215480   4.243   5.655   0.884
 4861SOL     OW15481   0.187   4.607   6.766
 4861SOL    HW115482   0.271   4.661   6.771
 4861SOL    HW215483   0.203   4.524   6.714
 4862SOL     OW15484   2.472   5.216   5.403
 4862SOL    HW115485   2.485   5.231   5.501
 4862SOL    HW215486   2.377   5.236   5.379
 4863SOL     OW15487   4.583   1.850   2.855
 4863SOL    HW115488   4.638   1.861   2.937
 4863SOL    HW215489   4.611   1.917   2.786
 4864SOL     OW15490   2.391   1.450   1.621
 4864SOL    HW115491   2.374   1.540   1.580
 4864SOL    HW215492   2.368   1.378   1.555
 4865SOL     OW15493   3.664   5.855   5.238
 4865SOL    HW115494   3.592   5.890   5.178
 4865SOL    HW215495   3.730   5.927   5.256
 4866SOL     OW15496   6.437   4.452   1.471
 4866SOL    HW115497   6.485   4.523   1.522
 4866SOL    HW215498   6.472   4.448   1.377
 4867SOL     OW15499   5.184   6.152   3.402
 4867SOL    HW115500   5.208   6.057   3.381
 4867SOL    HW215501   5.170   6.161   3.500
 4868SOL     OW15502   0.732   5.962   1.061
 4868SOL    HW115503   0.717   5.874   1.017
 4868SOL    HW215504   0.819   5.960   1.110
 4869SOL     OW15505   6.138   0.475   0.787
 4869SOL    HW115506   6.216   0.519   0.830
 4869SOL    HW215507   6.065   0.463   0.855
 4870SOL     OW15508   6.466   6.563   1.596
 4870SOL    HW115509   6.498   6.521   1.511
 4870SOL    HW215510   6.537   6.556   1.665
 4871SOL     OW15511   0.899   3.730   4.038
 4871SOL    HW115512   0.915   3.639   4.074
 4871SOL    HW215513   0.895   3.726   3.938
 4872SOL     OW15514   0.997   0.446   3.151
 4872SOL    HW115515   0.947   0.451   3.065
 4872SOL    HW215516   1.049   0.361   3.154
 4873SOL     OW15517   0.204   5.653   5.490
 4873SOL    HW115518   0.170   5.619   5.578
 4873SOL    HW215519   0.182   5.750   5.481
 4874SOL     OW15520   5.200   3.784   3.072
 4874SOL    HW115521   5.272   3.851   3.092
 4874SOL    HW215522   5.117   3.832   3.044
 4875SOL     OW15523   6.067   2.468   6.890
 4875SOL    HW115524   6.091   2.403   6.818
 4875SOL    HW215525   5.992   2.526   6.859
 4876SOL     OW15526   0.528   1.431   6.724
 4876SOL    HW115527   0.514   1.462   6.818
 4876SOL    HW215528   0.579   1.345   6.725
 4877SOL     OW15529   6.309   1.490   1.238
 4877SOL    HW115530   6.330   1.406   1.289
 4877SOL    HW215531   6.389   1.519   1.186
 4878SOL     OW15532   7.011   1.941   1.368
 4878SOL    HW115533   6.968   1.897   1.289
 4878SOL    HW215534   6.997   1.884   1.449
 4879SOL     OW15535   4.312   5.451   3.514
 4879SOL    HW115536   4.330   5.548   3.497
 4879SOL    HW215537   4.375   5.395   3.462
 4880SOL     OW15538   5.458   2.225   6.117
 4880SOL    HW115539   5.400   2.307   6.105
 4880SOL    HW215540   5.554   2.253   6.123
 4881SOL     OW15541   3.541   6.188   6.167
 4881SOL    HW115542   3.524   6.286   6.160
 4881SOL    HW215543   3.490   6.151   6.244
 4882SOL     OW15544   5.545   0.813   5.582
 4882SOL    HW115545   5.473   0.875   5.551
 4882SOL    HW215546   5.559   0.824   5.680
 4883SOL     OW15547   0.210   5.733   1.238
 4883SOL    HW115548   0.301   5.773   1.252
 4883SOL    HW215549   0.150   5.801   1.196
 4884SOL     OW15550   3.336   6.740   1.618
 4884SOL    HW115551   3.428   6.745   1.655
 4884SOL    HW215552   3.288   6.662   1.656
 4885SOL     OW15553   2.023   0.084   2.121
 4885SOL    HW115554   1.971   0.067   2.038
 4885SOL    HW215555   2.105   0.027   2.121
 4886SOL     OW15556   6.286   0.815   6.411
 4886SOL    HW115557   6.286   0.811   6.511
 4886SOL    HW215558   6.310   0.725   6.374
 4887SOL     OW15559   0.394   1.872   4.599
 4887SOL    HW115560   0.336   1.798   4.635
 4887SOL    HW215561   0.401   1.944   4.668
 4888SOL     OW15562   2.792   5.259   2.379
 4888SOL    HW115563   2.713   5.198   2.384
 4888SOL    HW215564   2.762   5.349   2.347
 4889SOL     OW15565   1.398   2.459   0.316
 4889SOL    HW115566   1.355   2.537   0.272
 4889SOL    HW215567   1.478   2.489   0.368
 4890SOL     OW15568   1.331   0.745   4.743
 4890SOL    HW115569   1.288   0.685   4.810
 4890SOL    HW215570   1.301   0.720   4.651
 4891SOL     OW15571   1.330   4.392   0.399
 4891SOL    HW115572   1.281   4.347   0.474
 4891SOL    HW215573   1.408   4.442   0.436
 4892SOL     OW15574   0.915   5.511   1.316
 4892SOL    HW115575   0.984   5.441   1.332
 4892SOL    HW215576   0.864   5.490   1.233
 4893SOL     OW15577   0.141   3.673   6.511
 4893SOL    HW115578   0.076   3.601   6.489
 4893SOL    HW215579   0.170   3.719   6.427
 4894SOL     OW15580   2.663   0.694   3.171
 4894SOL    HW115581   2.601   0.634   3.221
 4894SOL    HW215582   2.629   0.707   3.078
 4895SOL     OW15583   0.428   3.476   0.594
 4895SOL    HW115584   0.444   3.392   0.646
 4895SOL    HW215585   0.515   3.514   0.565
 4896SOL     OW15586   4.034   5.248   4.288
 4896SOL    HW115587   3.997   5.221   4.199
 4896SOL    HW215588   3.962   5.286   4.345
 4897SOL     OW15589   3.249   5.528   6.244
 4897SOL    HW115590   3.237   5.600   6.175
 4897SOL    HW215591   3.191   5.450   6.221
 4898SOL     OW15592   5.607   2.451   5.288
 4898SOL    HW115593   5.618   2.362   5.243
 4898SOL    HW215594   5.644   2.446   5.381
 4899SOL     OW15595   5.622   4.014   4.300
 4899SOL    HW115596   5.593   3.984   4.209
 4899SOL    HW215597   5.623   4.114   4.304
 4900SOL     OW15598   0.943   6.799   5.411
 4900SOL    HW115599   1.022   6.738   5.411
 4900SOL    HW215600   0.904   6.803   5.319
 4901SOL     OW15601   1.602   6.671   3.629
 4901SOL    HW115602   1.517   6.718   3.651
 4901SOL    HW215603   1.666   6.679   3.705
 4902SOL     OW15604   3.051   4.790   2.075
 4902SOL    HW115605   3.050   4.761   1.980
 4902SOL    HW215606   2.984   4.736   2.127
 4903SOL     OW15607   4.775   6.745   6.349
 4903SOL    HW115608   4.853   6.735   6.288
 4903SOL    HW215609   4.802   6.798   6.430
 4904SOL     OW15610   3.496   5.895   3.883
 4904SOL    HW115611   3.492   5.837   3.802
 4904SOL    HW215612   3.404   5.910   3.919
 4905SOL     OW15613   6.044   3.473   2.338
 4905SOL    HW115614   6.048   3.546   2.406
 4905SOL    HW215615   5.988   3.502   2.261
 4906SOL     OW15616   5.784   0.647   0.809
 4906SOL    HW115617   5.760   0.550   0.804
 4906SOL    HW215618   5.842   0.671   0.731
 4907SOL     OW15619   3.288   1.236   2.312
 4907SOL    HW115620   3.299   1.140   2.285
 4907SOL    HW215621   3.353   1.292   2.261
 4908SOL     OW15622   3.181   5.902   6.950
 4908SOL    HW115623   3.246   5.871   7.019
 4908SOL    HW215624   3.090   5.912   6.991
 4909SOL     OW15625   6.850   0.013   5.254
 4909SOL    HW115626   6.808   6.959   5.300
 4909SOL    HW215627   6.912   7.005   5.183
 4910SOL     OW15628   6.096   0.080   4.924
 4910SOL    HW115629   6.178   0.025   4.909
 4910SOL    HW215630   6.028   0.026   4.974
 4911SOL     OW15631   6.594   2.699   6.096
 4911SOL    HW115632   6.617   2.790   6.062
 4911SOL    HW215633   6.569   2.640   6.019
 4912SOL     OW15634   2.376   2.284   2.150
 4912SOL    HW115635   2.317   2.343   2.095
 4912SOL    HW215636   2.469   2.321   2.151
 4913SOL     OW15637   2.971   3.689   2.925
 4913SOL    HW115638   3.015   3.667   2.838
 4913SOL    HW215639   2.941   3.785   2.924
 4914SOL     OW15640   2.051   6.360   3.421
 4914SOL    HW115641   2.075   6.265   3.439
 4914SOL    HW215642   2.135   6.415   3.415
 4915SOL     OW15643   3.237   5.753   3.577
 4915SOL    HW115644   3.235   5.771   3.479
 4915SOL    HW215645   3.164   5.688   3.600
 4916SOL     OW15646   2.829   1.172   2.341
 4916SOL    HW115647   2.813   1.249   2.402
 4916SOL    HW215648   2.813   1.200   2.246
 4917SOL     OW15649   1.954   5.137   0.785
 4917SOL    HW115650   2.053   5.142   0.798
 4917SOL    HW215651   1.908   5.161   0.870
 4918SOL     OW15652   2.405   0.602   2.138
 4918SOL    HW115653   2.487   0.660   2.134
 4918SOL    HW215654   2.352   0.613   2.055
 4919SOL     OW15655   2.690   2.316   1.840
 4919SOL    HW115656   2.621   2.388   1.836
 4919SOL    HW215657   2.771   2.350   1.889
 4920SOL     OW15658   4.438   0.532   6.928
 4920SOL    HW115659   4.408   0.439   6.947
 4920SOL    HW215660   4.430   0.551   6.830
 4921SOL     OW15661   1.634   5.020   1.744
 4921SOL    HW115662   1.588   5.060   1.664
 4921SOL    HW215663   1.613   4.923   1.749
 4922SOL     OW15664   1.414   2.704   5.995
 4922SOL    HW115665   1.394   2.789   5.946
 4922SOL    HW215666   1.411   2.721   6.093
 4923SOL     OW15667   4.160   1.155   0.547
 4923SOL    HW115668   4.107   1.233   0.581
 4923SOL    HW215669   4.185   1.096   0.624
 4924SOL     OW15670   0.557   3.675   4.689
 4924SOL    HW115671   0.559   3.714   4.597
 4924SOL    HW215672   0.587   3.580   4.685
 4925SOL     OW15673   4.011   6.125   6.915
 4925SOL    HW115674   4.107   6.100   6.913
 4925SOL    HW215675   3.997   6.210   6.864
 4926SOL     OW15676   4.706   2.415   1.820
 4926SOL    HW115677   4.654   2.373   1.894
 4926SOL    HW215678   4.759   2.492   1.856
 4927SOL     OW15679   3.814   3.355   3.362
 4927SOL    HW115680   3.838   3.327   3.455
 4927SOL    HW215681   3.834   3.452   3.350
 4928SOL     OW15682   0.550   5.944   0.476
 4928SOL    HW115683   0.558   5.983   0.567
 4928SOL    HW215684   0.624   5.977   0.418
 4929SOL     OW15685   0.815   5.235   4.222
 4929SOL    HW115686   0.820   5.297   4.143
 4929SOL    HW215687   0.879   5.160   4.209
 4930SOL     OW15688   0.105   1.796   0.663
 4930SOL    HW115689   0.055   1.850   0.730
 4930SOL    HW215690   0.042   1.737   0.613
 4931SOL     OW15691   0.025   0.961   0.939
 4931SOL    HW115692   0.066   1.047   0.970
 4931SOL    HW215693   0.052   0.944   0.844
 4932SOL     OW15694   2.773   2.375   1.504
 4932SOL    HW115695   2.821   2.294   1.534
 4932SOL    HW215696   2.773   2.444   1.577
 4933SOL     OW15697   3.011   1.089   4.348
 4933SOL    HW115698   3.071   1.076   4.270
 4933SOL    HW215699   2.944   1.014   4.352
 4934SOL     OW15700   1.374   6.272   4.979
 4934SOL    HW115701   1.278   6.290   5.001
 4934SOL    HW215702   1.420   6.234   5.059
 4935SOL     OW15703   1.447   1.264   0.833
 4935SOL    HW115704   1.485   1.301   0.917
 4935SOL    HW215705   1.519   1.221   0.779
 4936SOL     OW15706   3.721   5.339   0.619
 4936SOL    HW115707   3.666   5.262   0.650
 4936SOL    HW215708   3.668   5.423   0.629
 4937SOL     OW15709   0.426   3.447   6.557
 4937SOL    HW115710   0.343   3.429   6.609
 4937SOL    HW215711   0.403   3.483   6.467
 4938SOL     OW15712   3.512   4.355   1.332
 4938SOL    HW115713   3.511   4.346   1.432
 4938SOL    HW215714   3.547   4.271   1.291
 4939SOL     OW15715   1.794   1.733   2.152
 4939SOL    HW115716   1.866   1.712   2.085
 4939SOL    HW215717   1.779   1.653   2.210
 4940SOL     OW15718   6.844   2.001   5.083
 4940SOL    HW115719   6.887   2.060   5.150
 4940SOL    HW215720   6.887   2.015   4.993
 4941SOL     OW15721   3.895   1.973   5.253
 4941SOL    HW115722   3.890   1.971   5.353
 4941SOL    HW215723   3.983   2.011   5.225
 4942SOL     OW15724   6.722   1.709   3.771
 4942SOL    HW115725   6.784   1.771   3.724
 4942SOL    HW215726   6.646   1.760   3.810
 4943SOL     OW15727   5.188   3.318   6.465
 4943SOL    HW115728   5.225   3.230   6.436
 4943SOL    HW215729   5.154   3.368   6.385
 4944SOL     OW15730   1.492   5.176   0.857
 4944SOL    HW115731   1.572   5.230   0.883
 4944SOL    HW215732   1.509   5.080   0.877
 4945SOL     OW15733   1.935   1.376   4.930
 4945SOL    HW115734   1.973   1.384   5.022
 4945SOL    HW215735   1.899   1.464   4.900
 4946SOL     OW15736   2.571   4.993   0.053
 4946SOL    HW115737   2.577   4.916   0.117
 4946SOL    HW215738   2.540   4.961   6.989
 4947SOL     OW15739   1.438   1.158   1.828
 4947SOL    HW115740   1.346   1.165   1.788
 4947SOL    HW215741   1.459   1.242   1.877
 4948SOL     OW15742   1.274   2.735   1.861
 4948SOL    HW115743   1.330   2.715   1.781
 4948SOL    HW215744   1.177   2.723   1.838
 4949SOL     OW15745   0.053   3.975   6.852
 4949SOL    HW115746   0.116   3.899   6.834
 4949SOL    HW215747   0.048   4.035   6.772
 4950SOL     OW15748   2.414   3.738   5.314
 4950SOL    HW115749   2.496   3.796   5.306
 4950SOL    HW215750   2.335   3.790   5.282
 4951SOL     OW15751   4.898   5.402   3.400
 4951SOL    HW115752   4.972   5.455   3.444
 4951SOL    HW215753   4.810   5.431   3.438
 4952SOL     OW15754   0.342   6.509   5.847
 4952SOL    HW115755   0.374   6.587   5.793
 4952SOL    HW215756   0.318   6.433   5.787
 4953SOL     OW15757   0.705   2.144   5.024
 4953SOL    HW115758   0.608   2.167   5.020
 4953SOL    HW215759   0.739   2.128   4.931
 4954SOL     OW15760   3.285   4.213   5.380
 4954SOL    HW115761   3.227   4.251   5.308
 4954SOL    HW215762   3.382   4.225   5.355
 4955SOL     OW15763   3.388   5.268   6.601
 4955SOL    HW115764   3.345   5.275   6.510
 4955SOL    HW215765   3.438   5.353   6.620
 4956SOL     OW15766   2.813   0.521   4.495
 4956SOL    HW115767   2.722   0.556   4.471
 4956SOL    HW215768   2.875   0.598   4.509
 4957SOL     OW15769   6.157   4.254   6.895
 4957SOL    HW115770   6.081   4.308   6.931
 4957SOL    HW215771   6.164   4.268   6.796
 4958SOL     OW15772   3.418   6.139   0.248
 4958SOL    HW115773   3.510   6.103   0.267
 4958SOL    HW215774   3.387   6.104   0.159
 4959SOL     OW15775   0.634   3.143   2.717
 4959SOL    HW115776   0.677   3.163   2.805
 4959SOL    HW215777   0.703   3.109   2.653
 4960SOL     OW15778   4.435   5.551   4.272
 4960SOL    HW115779   4.514   5.554   4.210
 4960SOL    HW215780   4.438   5.631   4.333
 4961SOL     OW15781   4.261   1.031   6.836
 4961SOL    HW115782   4.344   0.993   6.878
 4961SOL    HW215783   4.235   0.974   6.757
 4962SOL     OW15784   1.287   4.336   1.224
 4962SOL    HW115785   1.221   4.269   1.190
 4962SOL    HW215786   1.360   4.349   1.156
 4963SOL     OW15787   1.094   4.153   6.353
 4963SOL    HW115788   1.063   4.181   6.444
 4963SOL    HW215789   1.193   4.136   6.356
 4964SOL     OW15790   3.041   0.005   4.626
 4964SOL    HW115791   2.965   6.966   4.619
 4964SOL    HW215792   3.127   6.980   4.626
 4965SOL     OW15793   1.834   6.132   3.087
 4965SOL    HW115794   1.922   6.112   3.130
 4965SOL    HW215795   1.810   6.228   3.102
 4966SOL     OW15796   3.422   6.447   4.302
 4966SOL    HW115797   3.341   6.397   4.333
 4966SOL    HW215798   3.462   6.400   4.223
 4967SOL     OW15799   4.323   4.731   4.834
 4967SOL    HW115800   4.406   4.786   4.832
 4967SOL    HW215801   4.340   4.645   4.882
 4968SOL     OW15802   6.097   2.443   3.166
 4968SOL    HW115803   6.011   2.462   3.213
 4968SOL    HW215804   6.081   2.373   3.096
 4969SOL     OW15805   0.781   6.441   3.260
 4969SOL    HW115806   0.717   6.438   3.336
 4969SOL    HW215807   0.809   6.348   3.236
 4970SOL     OW15808   0.713   1.834   1.588
 4970SOL    HW115809   0.795   1.822   1.643
 4970SOL    HW215810   0.666   1.918   1.615
 4971SOL     OW15811   6.611   5.839   2.966
 4971SOL    HW115812   6.642   5.769   3.031
 4971SOL    HW215813   6.566   5.913   3.016
 4972SOL     OW15814   1.573   4.667   1.255
 4972SOL    HW115815   1.511   4.610   1.309
 4972SOL    HW215816   1.630   4.608   1.198
 4973SOL     OW15817   6.611   0.561   0.989
 4973SOL    HW115818   6.700   0.595   0.960
 4973SOL    HW215819   6.623   0.496   1.063
 4974SOL     OW15820   3.416   5.623   5.387
 4974SOL    HW115821   3.456   5.699   5.438
 4974SOL    HW215822   3.463   5.538   5.412
 4975SOL     OW15823   5.818   4.219   0.888
 4975SOL    HW115824   5.777   4.280   0.956
 4975SOL    HW215825   5.747   4.160   0.849
 4976SOL     OW15826   1.908   0.039   3.992
 4976SOL    HW115827   1.918   0.061   4.089
 4976SOL    HW215828   1.995   0.055   3.946
 4977SOL     OW15829   1.913   4.648   6.070
 4977SOL    HW115830   1.924   4.630   5.973
 4977SOL    HW215831   1.967   4.728   6.096
 4978SOL     OW15832   5.174   4.660   4.562
 4978SOL    HW115833   5.227   4.603   4.625
 4978SOL    HW215834   5.080   4.627   4.560
 4979SOL     OW15835   2.571   7.021   6.089
 4979SOL    HW115836   2.635   7.008   6.165
 4979SOL    HW215837   2.522   6.935   6.073
 4980SOL     OW15838   5.557   3.819   3.300
 4980SOL    HW115839   5.549   3.834   3.201
 4980SOL    HW215840   5.473   3.851   3.345
 4981SOL     OW15841   3.293   4.896   2.059
 4981SOL    HW115842   3.221   4.828   2.074
 4981SOL    HW215843   3.348   4.869   1.980
 4982SOL     OW15844   4.222   1.584   6.474
 4982SOL    HW115845   4.202   1.488   6.458
 4982SOL    HW215846   4.211   1.635   6.389
 4983SOL     OW15847   6.306   5.379   2.931
 4983SOL    HW115848   6.400   5.355   2.907
 4983SOL    HW215849   6.307   5.450   3.001
 4984SOL     OW15850   5.318   4.576   2.970
 4984SOL    HW115851   5.262   4.516   3.027
 4984SOL    HW215852   5.320   4.668   3.009
 4985SOL     OW15853   5.711   6.660   2.461
 4985SOL    HW115854   5.668   6.698   2.543
 4985SOL    HW215855   5.753   6.572   2.484
 4986SOL     OW15856   0.426   4.864   2.806
 4986SOL    HW115857   0.401   4.842   2.711
 4986SOL    HW215858   0.373   4.806   2.868
 4987SOL     OW15859   0.766   0.912   2.603
 4987SOL    HW115860   0.715   0.969   2.539
 4987SOL    HW215861   0.784   0.964   2.687
 4988SOL     OW15862   5.816   6.806   3.745
 4988SOL    HW115863   5.823   6.905   3.752
 4988SOL    HW215864   5.906   6.767   3.730
 4989SOL     OW15865   4.247   0.309   2.594
 4989SOL    HW115866   4.254   0.227   2.651
 4989SOL    HW215867   4.334   0.324   2.547
 4990SOL     OW15868   4.782   2.187   5.401
 4990SOL    HW115869   4.712   2.256   5.419
 4990SOL    HW215870   4.755   2.100   5.443
 4991SOL     OW15871   1.305   5.375   4.800
 4991SOL    HW115872   1.362   5.414   4.727
 4991SOL    HW215873   1.301   5.275   4.788
 4992SOL     OW15874   0.396   1.938   3.347
 4992SOL    HW115875   0.489   1.909   3.324
 4992SOL    HW215876   0.343   1.948   3.263
 4993SOL     OW15877   3.922   6.432   4.393
 4993SOL    HW115878   3.944   6.399   4.301
 4993SOL    HW215879   3.824   6.422   4.410
 4994SOL     OW15880   3.013   4.613   5.580
 4994SOL    HW115881   3.012   4.519   5.613
 4994SOL    HW215882   2.921   4.641   5.555
 4995SOL     OW15883   0.382   0.308   5.424
 4995SOL    HW115884   0.466   0.291   5.476
 4995SOL    HW215885   0.305   0.317   5.487
 4996SOL     OW15886   0.045   0.997   4.767
 4996SOL    HW115887   0.100   0.929   4.718
 4996SOL    HW215888   7.019   1.053   4.702
 4997SOL     OW15889   3.867   2.223   1.105
 4997SOL    HW115890   3.843   2.136   1.063
 4997SOL    HW215891   3.807   2.240   1.184
 4998SOL     OW15892   0.955   3.432   3.990
 4998SOL    HW115893   0.978   3.402   3.898
 4998SOL    HW215894   0.958   3.353   4.052
 4999SOL     OW15895   0.789   4.206   4.373
 4999SOL    HW115896   0.778   4.188   4.275
 4999SOL    HW215897   0.881   4.179   4.401
 5000SOL     OW15898   2.724   5.420   3.382
 5000SOL    HW115899   2.754   5.464   3.467
 5000SOL    HW215900   2.798   5.425   3.314
 5001SOL     OW15901   0.672   5.477   2.794
 5001SOL    HW115902   0.736   5.462   2.719
 5001SOL    HW215903   0.715   5.536   2.863
 5002SOL     OW15904   0.568   3.272   3.481
 5002SOL    HW115905   0.563   3.337   3.556
 5002SOL    HW215906   0.500   3.297   3.411
 5003SOL     OW15907   4.017   6.883   4.111
 5003SOL    HW115908   4.036   6.793   4.071
 5003SOL    HW215909   4.102   6.922   4.146
 5004SOL     OW15910   2.379   6.351   6.532
 5004SOL    HW115911   2.342   6.406   6.457
 5004SOL    HW215912   2.322   6.363   6.614
 5005SOL     OW15913   3.328   2.796   6.923
 5005SOL    HW115914   3.290   2.705   6.941
 5005SOL    HW215915   3.421   2.801   6.960
 5006SOL     OW15916   5.482   2.024   2.071
 5006SOL    HW115917   5.530   1.937   2.063
 5006SOL    HW215918   5.389   2.014   2.035
 5007SOL     OW15919   6.027   6.686   1.835
 5007SOL    HW115920   6.096   6.614   1.824
 5007SOL    HW215921   5.971   6.667   1.916
 5008SOL     OW15922   5.448   6.694   2.112
 5008SOL    HW115923   5.463   6.613   2.168
 5008SOL    HW215924   5.361   6.684   2.063
 5009SOL     OW15925   0.337   2.226   0.671
 5009SOL    HW115926   0.267   2.248   0.603
 5009SOL    HW215927   0.367   2.310   0.717
 5010SOL     OW15928   3.934   3.610   0.220
 5010SOL    HW115929   3.866   3.542   0.192
 5010SOL    HW215930   3.915   3.697   0.175
 5011SOL     OW15931   2.272   3.791   6.727
 5011SOL    HW115932   2.193   3.730   6.715
 5011SOL    HW215933   2.258   3.874   6.673
 5012SOL     OW15934   6.294   1.692   5.260
 5012SOL    HW115935   6.232   1.620   5.293
 5012SOL    HW215936   6.379   1.690   5.313
 5013SOL     OW15937   5.699   0.242   5.718
 5013SOL    HW115938   5.636   0.165   5.731
 5013SOL    HW215939   5.726   0.247   5.622
 5014SOL     OW15940   6.702   3.418   1.322
 5014SOL    HW115941   6.790   3.455   1.290
 5014SOL    HW215942   6.710   3.394   1.419
 5015SOL     OW15943   5.763   6.761   4.145
 5015SOL    HW115944   5.719   6.683   4.101
 5015SOL    HW215945   5.751   6.842   4.089
 5016SOL     OW15946   1.547   3.562   5.167
 5016SOL    HW115947   1.453   3.574   5.136
 5016SOL    HW215948   1.600   3.645   5.147
 5017SOL     OW15949   0.771   2.553   1.698
 5017SOL    HW115950   0.825   2.469   1.711
 5017SOL    HW215951   0.676   2.534   1.721
 5018SOL     OW15952   1.036   6.310   1.468
 5018SOL    HW115953   1.016   6.338   1.374
 5018SOL    HW215954   1.135   6.298   1.479
 5019SOL     OW15955   1.412   5.331   5.259
 5019SOL    HW115956   1.463   5.350   5.343
 5019SOL    HW215957   1.314   5.340   5.277
 5020SOL     OW15958   1.334   6.860   4.401
 5020SOL    HW115959   1.272   6.840   4.477
 5020SOL    HW215960   1.291   6.834   4.314
 5021SOL     OW15961   1.689   1.135   1.290
 5021SOL    HW115962   1.702   1.079   1.371
 5021SOL    HW215963   1.724   1.227   1.306
 5022SOL     OW15964   0.564   3.268   1.582
 5022SOL    HW115965   0.636   3.245   1.517
 5022SOL    HW215966   0.605   3.302   1.667
 5023SOL     OW15967   0.052   4.787   2.700
 5023SOL    HW115968   0.049   4.750   2.608
 5023SOL    HW215969   0.120   4.736   2.754
 5024SOL     OW15970   4.564   3.742   1.575
 5024SOL    HW115971   4.527   3.820   1.626
 5024SOL    HW215972   4.582   3.768   1.481
 5025SOL     OW15973   4.117   0.913   3.286
 5025SOL    HW115974   4.061   0.980   3.237
 5025SOL    HW215975   4.192   0.960   3.332
 5026SOL     OW15976   5.158   6.453   5.114
 5026SOL    HW115977   5.190   6.361   5.138
 5026SOL    HW215978   5.198   6.480   5.026
 5027SOL     OW15979   5.084   0.220   6.677
 5027SOL    HW115980   5.014   0.154   6.706
 5027SOL    HW215981   5.044   0.284   6.612
 5028SOL     OW15982   0.551   2.199   2.845
 5028SOL    HW115983   0.641   2.168   2.877
 5028SOL    HW215984   0.490   2.210   2.923
 5029SOL     OW15985   6.319   1.583   2.444
 5029SOL    HW115986   6.287   1.675   2.468
 5029SOL    HW215987   6.304   1.522   2.522
 5030SOL     OW15988   0.076   4.826   0.111
 5030SOL    HW115989   0.055   4.905   0.054
 5030SOL    HW215990   0.050   4.742   0.062
 5031SOL     OW15991   0.165   0.435   5.911
 5031SOL    HW115992   0.108   0.513   5.934
 5031SOL    HW215993   0.116   0.350   5.931
 5032SOL     OW15994   3.223   3.371   5.699
 5032SOL    HW115995   3.249   3.416   5.613
 5032SOL    HW215996   3.181   3.283   5.678
 5033SOL     OW15997   1.926   1.284   0.084
 5033SOL    HW115998   1.888   1.192   0.073
 5033SOL    HW215999   2.020   1.284   0.049
 5034SOL     OW16000   4.288   6.271   4.308
 5034SOL    HW116001   4.306   6.175   4.330
 5034SOL    HW216002   4.244   6.277   4.218
 5035SOL     OW16003   0.989   5.000   4.195
 5035SOL    HW116004   1.055   4.955   4.256
 5035SOL    HW216005   0.897   4.968   4.217
 5036SOL     OW16006   6.967   2.790   4.947
 5036SOL    HW116007   6.956   2.756   4.854
 5036SOL    HW216008   6.894   2.855   4.968
 5037SOL     OW16009   4.496   4.137   1.064
 5037SOL    HW116010   4.511   4.224   1.019
 5037SOL    HW216011   4.572   4.118   1.127
 5038SOL     OW16012   3.289   3.470   3.656
 5038SOL    HW116013   3.251   3.559   3.635
 5038SOL    HW216014   3.265   3.405   3.584
 5039SOL     OW16015   0.820   3.437   6.989
 5039SOL    HW116016   0.722   3.418   6.992
 5039SOL    HW216017   0.871   3.352   6.985
 5040SOL     OW16018   1.328   5.365   6.258
 5040SOL    HW116019   1.388   5.285   6.260
 5040SOL    HW216020   1.256   5.354   6.327
 5041SOL     OW16021   0.242   3.029   2.225
 5041SOL    HW116022   0.145   3.028   2.202
 5041SOL    HW216023   0.257   3.086   2.306
 5042SOL     OW16024   0.187   3.566   6.132
 5042SOL    HW116025   0.138   3.507   6.069
 5042SOL    HW216026   0.282   3.536   6.138
 5043SOL     OW16027   3.842   0.480   0.593
 5043SOL    HW116028   3.882   0.459   0.504
 5043SOL    HW216029   3.828   0.579   0.601
 5044SOL     OW16030   6.144   5.370   0.914
 5044SOL    HW116031   6.163   5.445   0.849
 5044SOL    HW216032   6.166   5.400   1.006
 5045SOL     OW16033   6.076   3.582   6.098
 5045SOL    HW116034   6.043   3.669   6.133
 5045SOL    HW216035   6.107   3.524   6.174
 5046SOL     OW16036   3.218   3.290   3.477
 5046SOL    HW116037   3.298   3.269   3.421
 5046SOL    HW216038   3.140   3.238   3.444
 5047SOL     OW16039   2.042   3.818   3.329
 5047SOL    HW116040   2.035   3.732   3.278
 5047SOL    HW216041   2.024   3.801   3.426
 5048SOL     OW16042   1.043   0.866   5.849
 5048SOL    HW116043   1.028   0.773   5.816
 5048SOL    HW216044   1.012   0.932   5.780
 5049SOL     OW16045   5.971   0.527   6.059
 5049SOL    HW116046   5.983   0.520   6.158
 5049SOL    HW216047   5.904   0.460   6.029
 5050SOL     OW16048   1.949   1.194   0.666
 5050SOL    HW116049   1.858   1.154   0.679
 5050SOL    HW216050   1.946   1.292   0.683
 5051SOL     OW16051   3.543   4.720   1.417
 5051SOL    HW116052   3.477   4.664   1.467
 5051SOL    HW216053   3.598   4.772   1.482
 5052SOL     OW16054   3.685   1.475   5.111
 5052SOL    HW116055   3.710   1.436   5.022
 5052SOL    HW216056   3.768   1.500   5.161
 5053SOL     OW16057   0.909   6.308   2.331
 5053SOL    HW116058   0.855   6.392   2.329
 5053SOL    HW216059   0.849   6.230   2.316
 5054SOL     OW16060   4.467   4.723   4.311
 5054SOL    HW116061   4.491   4.637   4.267
 5054SOL    HW216062   4.393   4.708   4.377
 5055SOL     OW16063   6.408   2.944   6.489
 5055SOL    HW116064   6.360   2.890   6.559
 5055SOL    HW216065   6.402   3.041   6.511
 5056SOL     OW16066   5.171   3.692   5.054
 5056SOL    HW116067   5.098   3.705   4.988
 5056SOL    HW216068   5.143   3.626   5.123
 5057SOL     OW16069   1.141   6.626   3.021
 5057SOL    HW116070   1.043   6.630   3.001
 5057SOL    HW216071   1.161   6.684   3.100
 5058SOL     OW16072   3.087   4.600   6.342
 5058SOL    HW116073   3.060   4.685   6.298
 5058SOL    HW216074   3.020   4.529   6.320
 5059SOL     OW16075   0.518   0.487   2.872
 5059SOL    HW116076   0.506   0.415   2.941
 5059SOL    HW216077   0.462   0.465   2.792
 5060SOL     OW16078   6.159   1.941   6.207
 5060SOL    HW116079   6.244   1.932   6.155
 5060SOL    HW216080   6.081   1.944   6.144
 5061SOL     OW16081   4.853   3.318   0.182
 5061SOL    HW116082   4.823   3.223   0.174
 5061SOL    HW216083   4.931   3.323   0.244
 5062SOL     OW16084   0.318   0.245   1.429
 5062SOL    HW116085   0.339   0.341   1.448
 5062SOL    HW216086   0.399   0.189   1.442
 5063SOL     OW16087   1.097   6.879   2.126
 5063SOL    HW116088   1.070   6.975   2.126
 5063SOL    HW216089   1.180   6.868   2.180
 5064SOL     OW16090   4.694   3.521   0.184
 5064SOL    HW116091   4.747   3.437   0.191
 5064SOL    HW216092   4.691   3.567   0.273
 5065SOL     OW16093   2.825   6.753   5.454
 5065SOL    HW116094   2.775   6.829   5.412
 5065SOL    HW216095   2.921   6.780   5.466
 5066SOL     OW16096   5.881   4.719   1.251
 5066SOL    HW116097   5.898   4.813   1.223
 5066SOL    HW216098   5.904   4.708   1.348
 5067SOL     OW16099   4.946   0.835   0.355
 5067SOL    HW116100   4.877   0.787   0.302
 5067SOL    HW216101   4.904   0.874   0.437
 5068SOL     OW16102   2.720   5.174   0.207
 5068SOL    HW116103   2.642   5.216   0.253
 5068SOL    HW216104   2.689   5.092   0.158
 5069SOL     OW16105   0.669   4.432   2.597
 5069SOL    HW116106   0.692   4.433   2.694
 5069SOL    HW216107   0.569   4.429   2.586
 5070SOL     OW16108   4.885   3.227   3.763
 5070SOL    HW116109   4.946   3.192   3.834
 5070SOL    HW216110   4.790   3.208   3.789
 5071SOL     OW16111   4.691   2.190   6.325
 5071SOL    HW116112   4.780   2.159   6.291
 5071SOL    HW216113   4.628   2.202   6.249
 5072SOL     OW16114   0.412   4.296   1.498
 5072SOL    HW116115   0.435   4.296   1.401
 5072SOL    HW216116   0.331   4.353   1.513
 5073SOL     OW16117   5.344   0.268   2.616
 5073SOL    HW116118   5.432   0.283   2.571
 5073SOL    HW216119   5.291   0.353   2.614
 5074SOL     OW16120   2.523   4.075   6.522
 5074SOL    HW116121   2.544   4.069   6.424
 5074SOL    HW216122   2.477   4.161   6.541
 5075SOL     OW16123   0.210   5.664   4.911
 5075SOL    HW116124   0.259   5.603   4.974
 5075SOL    HW216125   0.154   5.728   4.964
 5076SOL     OW16126   3.699   0.851   0.791
 5076SOL    HW116127   3.676   0.859   0.694
 5076SOL    HW216128   3.759   0.772   0.806
 5077SOL     OW16129   0.428   2.406   3.454
 5077SOL    HW116130   0.328   2.413   3.458
 5077SOL    HW216131   0.469   2.478   3.511
 5078SOL     OW16132   1.866   2.092   4.496
 5078SOL    HW116133   1.954   2.095   4.449
 5078SOL    HW216134   1.802   2.036   4.444
 5079SOL     OW16135   3.556   4.860   5.802
 5079SOL    HW116136   3.547   4.951   5.842
 5079SOL    HW216137   3.469   4.812   5.808
 5080SOL     OW16138   5.617   7.010   5.684
 5080SOL    HW116139   5.688   6.940   5.685
 5080SOL    HW216140   5.593   0.006   5.589
 5081SOL     OW16141   3.520   3.504   3.372
 5081SOL    HW116142   3.612   3.517   3.334
 5081SOL    HW216143   3.456   3.480   3.299
 5082SOL     OW16144   5.276   5.949   5.024
 5082SOL    HW116145   5.310   5.861   5.055
 5082SOL    HW216146   5.185   5.965   5.062
 5083SOL     OW16147   1.443   6.376   1.993
 5083SOL    HW116148   1.484   6.357   1.904
 5083SOL    HW216149   1.348   6.405   1.981
 5084SOL     OW16150   1.500   5.863   4.166
 5084SOL    HW116151   1.508   5.959   4.194
 5084SOL    HW216152   1.545   5.851   4.077
 5085SOL     OW16153   5.836   1.800   6.615
 5085SOL    HW116154   5.865   1.837   6.704
 5085SOL    HW216155   5.896   1.835   6.543
 5086SOL     OW16156   6.425   5.199   3.674
 5086SOL    HW116157   6.361   5.123   3.668
 5086SOL    HW216158   6.411   5.248   3.760
 5087SOL     OW16159   6.957   5.367   5.503
 5087SOL    HW116160   6.883   5.426   5.536
 5087SOL    HW216161   7.004   5.412   5.427
 5088SOL     OW16162   5.554   0.413   6.103
 5088SOL    HW116163   5.644   0.370   6.110
 5088SOL    HW216164   5.523   0.411   6.007
 5089SOL     OW16165   5.647   3.736   3.010
 5089SOL    HW116166   5.644   3.639   3.034
 5089SOL    HW216167   5.559   3.764   2.972
 5090SOL     OW16168   1.980   5.362   1.374
 5090SOL    HW116169   2.073   5.358   1.411
 5090SOL    HW216170   1.957   5.456   1.351
 5091SOL     OW16171   1.382   6.248   2.749
 5091SOL    HW116172   1.348   6.206   2.665
 5091SOL    HW216173   1.365   6.186   2.826
 5092SOL     OW16174   4.076   2.242   1.290
 5092SOL    HW116175   4.139   2.165   1.299
 5092SOL    HW216176   4.001   2.216   1.229
 5093SOL     OW16177   1.041   2.130   2.102
 5093SOL    HW116178   0.984   2.112   2.182
 5093SOL    HW216179   1.036   2.227   2.078
 5094SOL     OW16180   0.805   6.037   4.872
 5094SOL    HW116181   0.835   6.130   4.891
 5094SOL    HW216182   0.883   5.975   4.881
 5095SOL     OW16183   3.045   0.381   4.890
 5095SOL    HW116184   2.950   0.411   4.901
 5095SOL    HW216185   3.047   0.282   4.877
 5096SOL     OW16186   4.705   3.934   0.671
 5096SOL    HW116187   4.637   3.911   0.602
 5096SOL    HW216188   4.660   3.977   0.750
 5097SOL     OW16189   1.386   6.236   6.122
 5097SOL    HW116190   1.318   6.308   6.108
 5097SOL    HW216191   1.354   6.174   6.194
 5098SOL     OW16192   0.164   1.536   2.952
 5098SOL    HW116193   0.147   1.448   2.997
 5098SOL    HW216194   0.258   1.537   2.917
 5099SOL     OW16195   1.741   0.600   5.451
 5099SOL    HW116196   1.672   0.588   5.380
 5099SOL    HW216197   1.707   0.665   5.519
 5100SOL     OW16198   5.742   6.581   6.990
 5100SOL    HW116199   5.714   6.586   0.061
 5100SOL    HW216200   5.660   6.574   6.933
 5101SOL     OW16201   4.159   6.306   0.204
 5101SOL    HW116202   4.189   6.224   0.253
 5101SOL    HW216203   4.075   6.286   0.154
 5102SOL     OW16204   3.798   6.095   5.323
 5102SOL    HW116205   3.878   6.152   5.301
 5102SOL    HW216206   3.723   6.153   5.353
 5103SOL     OW16207   0.337   0.035   4.097
 5103SOL    HW116208   0.329   7.017   4.007
 5103SOL    HW216209   0.256   0.014   4.152
 5104SOL     OW16210   1.482   0.585   1.702
 5104SOL    HW116211   1.435   0.596   1.790
 5104SOL    HW216212   1.475   0.489   1.673
 5105SOL     OW16213   3.260   3.954   6.425
 5105SOL    HW116214   3.311   4.038   6.404
 5105SOL    HW216215   3.169   3.960   6.385
 5106SOL     OW16216   3.669   0.628   2.019
 5106SOL    HW116217   3.673   0.568   1.939
 5106SOL    HW216218   3.624   0.579   2.094
 5107SOL     OW16219   2.161   6.870   5.824
 5107SOL    HW116220   2.108   6.950   5.852
 5107SOL    HW216221   2.168   6.868   5.725
 5108SOL     OW16222   3.317   3.697   4.283
 5108SOL    HW116223   3.296   3.620   4.223
 5108SOL    HW216224   3.387   3.755   4.240
 5109SOL     OW16225   0.204   1.236   1.381
 5109SOL    HW116226   0.129   1.266   1.322
 5109SOL    HW216227   0.230   1.311   1.442
 5110SOL     OW16228   1.843   5.548   5.721
 5110SOL    HW116229   1.852   5.461   5.672
 5110SOL    HW216230   1.776   5.537   5.795
 5111SOL     OW16231   1.346   1.323   0.446
 5111SOL    HW116232   1.282   1.251   0.475
 5111SOL    HW216233   1.382   1.300   0.356
 5112SOL     OW16234   0.404   6.046   4.020
 5112SOL    HW116235   0.432   6.044   4.117
 5112SOL    HW216236   0.443   5.967   3.973
 5113SOL     OW16237   1.338   0.385   0.036
 5113SOL    HW116238   1.337   0.289   0.064
 5113SOL    HW216239   1.277   0.438   0.095
 5114SOL     OW16240   3.552   5.039   6.676
 5114SOL    HW116241   3.576   4.978   6.600
 5114SOL    HW216242   3.513   5.123   6.639
 5115SOL     OW16243   1.451   3.337   5.328
 5115SOL    HW116244   1.497   3.403   5.268
 5115SOL    HW216245   1.408   3.267   5.272
 5116SOL     OW16246   6.475   4.611   0.847
 5116SOL    HW116247   6.450   4.622   0.751
 5116SOL    HW216248   6.568   4.644   0.862
 5117SOL     OW16249   2.307   4.435   4.507
 5117SOL    HW116250   2.218   4.482   4.505
 5117SOL    HW216251   2.355   4.459   4.591
 5118SOL     OW16252   4.329   6.287   0.580
 5118SOL    HW116253   4.291   6.276   0.672
 5118SOL    HW216254   4.408   6.348   0.585
 5119SOL     OW16255   5.881   0.107   2.125
 5119SOL    HW116256   5.933   0.052   2.059
 5119SOL    HW216257   5.807   0.052   2.163
 5120SOL     OW16258   4.991   1.949   2.619
 5120SOL    HW116259   4.917   1.920   2.558
 5120SOL    HW216260   5.069   1.887   2.608
 5121SOL     OW16261   0.397   3.345   5.039
 5121SOL    HW116262   0.439   3.429   5.073
 5121SOL    HW216263   0.327   3.367   4.971
 5122SOL     OW16264   2.313   6.750   3.627
 5122SOL    HW116265   2.365   6.796   3.555
 5122SOL    HW216266   2.351   6.658   3.642
 5123SOL     OW16267   5.315   4.842   1.851
 5123SOL    HW116268   5.222   4.877   1.867
 5123SOL    HW216269   5.311   4.744   1.832
 5124SOL     OW16270   2.570   6.642   6.832
 5124SOL    HW116271   2.614   6.724   6.796
 5124SOL    HW216272   2.630   6.563   6.821
 5125SOL     OW16273   0.046   2.817   4.420
 5125SOL    HW116274   6.976   2.784   4.418
 5125SOL    HW216275   0.067   2.865   4.335
 5126SOL     OW16276   5.818   3.990   6.503
 5126SOL    HW116277   5.740   3.963   6.560
 5126SOL    HW216278   5.879   3.912   6.491
 5127SOL     OW16279   5.803   2.863   6.517
 5127SOL    HW116280   5.760   2.953   6.522
 5127SOL    HW216281   5.894   2.873   6.477
 5128SOL     OW16282   0.288   0.647   6.832
 5128SOL    HW116283   0.326   0.556   6.849
 5128SOL    HW216284   0.190   0.640   6.815
 5129SOL     OW16285   4.488   1.965   2.425
 5129SOL    HW116286   4.438   2.023   2.488
 5129SOL    HW216287   4.472   1.869   2.447
 5130SOL     OW16288   0.962   6.017   3.958
 5130SOL    HW116289   1.002   6.033   4.048
 5130SOL    HW216290   0.884   5.954   3.967
 5131SOL     OW16291   3.148   4.890   3.674
 5131SOL    HW116292   3.121   4.795   3.656
 5131SOL    HW216293   3.239   4.891   3.717
 5132SOL     OW16294   3.439   1.520   6.765
 5132SOL    HW116295   3.503   1.596   6.776
 5132SOL    HW216296   3.489   1.438   6.738
 5133SOL     OW16297   4.477   4.485   6.236
 5133SOL    HW116298   4.401   4.520   6.291
 5133SOL    HW216299   4.562   4.528   6.265
 5134SOL     OW16300   6.787   5.970   1.151
 5134SOL    HW116301   6.785   6.056   1.203
 5134SOL    HW216302   6.737   5.900   1.202
 5135SOL     OW16303   6.469   3.125   2.207
 5135SOL    HW116304   6.512   3.174   2.132
 5135SOL    HW216305   6.429   3.191   2.271
 5136SOL     OW16306   1.085   0.772   6.332
 5136SOL    HW116307   1.075   0.853   6.275
 5136SOL    HW216308   1.032   0.782   6.416
 5137SOL     OW16309   5.770   1.073   4.413
 5137SOL    HW116310   5.837   1.084   4.339
 5137SOL    HW216311   5.817   1.045   4.497
 5138SOL     OW16312   2.973   3.197   3.489
 5138SOL    HW116313   2.945   3.272   3.429
 5138SOL    HW216314   2.894   3.137   3.506
 5139SOL     OW16315   2.549   0.179   4.653
 5139SOL    HW116316   2.513   0.192   4.561
 5139SOL    HW216317   2.581   0.267   4.689
 5140SOL     OW16318   4.076   2.382   6.512
 5140SOL    HW116319   4.130   2.457   6.551
 5140SOL    HW216320   4.127   2.339   6.437
 5141SOL     OW16321   6.502   2.827   1.872
 5141SOL    HW116322   6.427   2.837   1.937
 5141SOL    HW216323   6.585   2.867   1.911
 5142SOL     OW16324   0.002   0.111   2.907
 5142SOL    HW116325   0.030   0.070   2.820
 5142SOL    HW216326   6.938   0.155   2.896
 5143SOL     OW16327   0.245   6.353   3.005
 5143SOL    HW116328   0.206   6.442   3.030
 5143SOL    HW216329   0.294   6.315   3.083
 5144SOL     OW16330   2.544   2.726   5.518
 5144SOL    HW116331   2.609   2.762   5.451
 5144SOL    HW216332   2.591   2.715   5.606
 5145SOL     OW16333   2.624   6.183   0.020
 5145SOL    HW116334   2.611   6.201   6.947
 5145SOL    HW216335   2.616   6.085   0.037
 5146SOL     OW16336   4.859   4.818   6.173
 5146SOL    HW116337   4.951   4.781   6.191
 5146SOL    HW216338   4.843   4.820   6.075
 5147SOL     OW16339   4.641   2.695   3.641
 5147SOL    HW116340   4.670   2.780   3.685
 5147SOL    HW216341   4.668   2.617   3.698
 5148SOL     OW16342   0.961   0.098   7.004
 5148SOL    HW116343   1.019   0.170   6.965
 5148SOL    HW216344   0.899   0.063   6.933
 5149SOL     OW16345   4.903   5.105   3.500
 5149SOL    HW116346   4.981   5.057   3.539
 5149SOL    HW216347   4.920   5.204   3.503
 5150SOL     OW16348   0.171   6.085   3.899
 5150SOL    HW116349   0.148   6.006   3.841
 5150SOL    HW216350   0.256   6.066   3.948
 5151SOL     OW16351   5.883   5.175   1.684
 5151SOL    HW116352   5.928   5.199   1.769
 5151SOL    HW216353   5.949   5.132   1.622
 5152SOL     OW16354   1.027   1.414   0.341
 5152SOL    HW116355   1.013   1.459   0.253
 5152SOL    HW216356   1.021   1.315   0.330
 5153SOL     OW16357   1.019   1.548   1.089
 5153SOL    HW116358   1.002   1.463   1.040
 5153SOL    HW216359   1.109   1.544   1.133
 5154SOL     OW16360   6.985   3.212   7.022
 5154SOL    HW116361   0.001   3.297   6.990
 5154SOL    HW216362   6.965   3.219   0.095
 5155SOL     OW16363   1.638   1.546   0.758
 5155SOL    HW116364   1.606   1.620   0.818
 5155SOL    HW216365   1.559   1.503   0.715
 5156SOL     OW16366   5.285   5.934   5.615
 5156SOL    HW116367   5.287   6.026   5.575
 5156SOL    HW216368   5.224   5.876   5.561
 5157SOL     OW16369   3.104   0.300   1.109
 5157SOL    HW116370   3.097   0.201   1.114
 5157SOL    HW216371   3.150   0.326   1.024
 5158SOL     OW16372   2.483   2.030   2.125
 5158SOL    HW116373   2.432   2.116   2.115
 5158SOL    HW216374   2.450   1.965   2.057
 5159SOL     OW16375   6.674   2.859   5.512
 5159SOL    HW116376   6.715   2.792   5.574
 5159SOL    HW216377   6.579   2.875   5.538
 5160SOL     OW16378   6.603   6.358   3.373
 5160SOL    HW116379   6.658   6.291   3.422
 5160SOL    HW216380   6.588   6.438   3.431
 5161SOL     OW16381   0.694   3.847   0.416
 5161SOL    HW116382   0.765   3.915   0.393
 5161SOL    HW216383   0.605   3.892   0.418
 5162SOL     OW16384   0.418   6.919   3.371
 5162SOL    HW116385   0.475   6.952   3.296
 5162SOL    HW216386   0.338   6.872   3.335
 5163SOL     OW16387   2.981   6.776   2.103
 5163SOL    HW116388   2.906   6.771   2.037
 5163SOL    HW216389   3.067   6.751   2.058
 5164SOL     OW16390   3.210   3.703   0.436
 5164SOL    HW116391   3.157   3.761   0.375
 5164SOL    HW216392   3.301   3.743   0.448
 5165SOL     OW16393   1.723   4.258   6.364
 5165SOL    HW116394   1.766   4.279   6.452
 5165SOL    HW216395   1.747   4.330   6.298
 5166SOL     OW16396   1.554   5.693   1.142
 5166SOL    HW116397   1.608   5.777   1.139
 5166SOL    HW216398   1.527   5.674   1.237
 5167SOL     OW16399   5.302   2.997   5.356
 5167SOL    HW116400   5.244   2.997   5.437
 5167SOL    HW216401   5.253   3.041   5.280
 5168SOL     OW16402   4.348   2.390   2.852
 5168SOL    HW116403   4.284   2.338   2.908
 5168SOL    HW216404   4.414   2.437   2.911
 5169SOL     OW16405   3.928   6.168   3.996
 5169SOL    HW116406   3.856   6.143   3.932
 5169SOL    HW216407   3.912   6.123   4.084
 5170SOL     OW16408   1.323   3.357   6.350
 5170SOL    HW116409   1.374   3.418   6.410
 5170SOL    HW216410   1.276   3.288   6.405
 5171SOL     OW16411   2.170   6.048   5.210
 5171SOL    HW116412   2.173   5.974   5.143
 5171SOL    HW216413   2.137   6.014   5.297
 5172SOL     OW16414   6.596   5.090   4.687
 5172SOL    HW116415   6.514   5.050   4.647
 5172SOL    HW216416   6.572   5.137   4.772
 5173SOL     OW16417   4.357   3.875   5.773
 5173SOL    HW116418   4.352   3.805   5.844
 5173SOL    HW216419   4.452   3.887   5.746
 5174SOL     OW16420   2.564   6.435   3.451
 5174SOL    HW116421   2.573   6.392   3.362
 5174SOL    HW216422   2.469   6.431   3.481
 5175SOL     OW16423   3.340   3.681   7.023
 5175SOL    HW116424   3.274   3.616   6.986
 5175SOL    HW216425   3.421   3.631   0.029
 5176SOL     OW16426   6.024   6.166   6.927
 5176SOL    HW116427   6.099   6.121   6.878
 5176SOL    HW216428   6.062   6.231   6.993
 5177SOL     OW16429   6.176   0.200   0.368
 5177SOL    HW116430   6.133   0.220   0.457
 5177SOL    HW216431   6.274   0.184   0.382
 5178SOL     OW16432   0.616   4.826   2.181
 5178SOL    HW116433   0.589   4.730   2.172
 5178SOL    HW216434   0.596   4.858   2.274
 5179SOL     OW16435   5.462   5.719   2.711
 5179SOL    HW116436   5.471   5.756   2.803
 5179SOL    HW216437   5.412   5.784   2.654
 5180SOL     OW16438   2.511   6.691   2.481
 5180SOL    HW116439   2.471   6.783   2.484
 5180SOL    HW216440   2.449   6.626   2.524
 5181SOL     OW16441   0.422   0.176   6.109
 5181SOL    HW116442   0.395   0.139   6.020
 5181SOL    HW216443   0.447   0.100   6.170
 5182SOL     OW16444   3.021   5.542   3.632
 5182SOL    HW116445   3.047   5.451   3.598
 5182SOL    HW216446   2.934   5.568   3.591
 5183SOL     OW16447   3.955   1.819   3.521
 5183SOL    HW116448   3.919   1.755   3.589
 5183SOL    HW216449   3.880   1.872   3.481
 5184SOL     OW16450   2.863   0.924   3.862
 5184SOL    HW116451   2.862   0.860   3.938
 5184SOL    HW216452   2.777   0.975   3.860
 5185SOL     OW16453   6.237   0.658   1.820
 5185SOL    HW116454   6.152   0.696   1.855
 5185SOL    HW216455   6.256   0.571   1.865
 5186SOL     OW16456   6.767   3.233   6.674
 5186SOL    HW116457   6.789   3.176   6.595
 5186SOL    HW216458   6.753   3.176   6.754
 5187SOL     OW16459   1.771   4.843   5.315
 5187SOL    HW116460   1.744   4.825   5.410
 5187SOL    HW216461   1.689   4.858   5.260
 5188SOL     OW16462   6.147   6.510   2.126
 5188SOL    HW116463   6.205   6.449   2.072
 5188SOL    HW216464   6.176   6.605   2.110
 5189SOL     OW16465   5.468   6.820   6.186
 5189SOL    HW116466   5.391   6.883   6.173
 5189SOL    HW216467   5.458   6.773   6.273
 5190SOL     OW16468   1.478   4.085   0.642
 5190SOL    HW116469   1.555   4.118   0.587
 5190SOL    HW216470   1.405   4.154   0.642
 5191SOL     OW16471   3.430   5.005   2.595
 5191SOL    HW116472   3.343   4.966   2.625
 5191SOL    HW216473   3.501   4.935   2.600
 5192SOL     OW16474   1.963   4.774   2.297
 5192SOL    HW116475   1.937   4.842   2.228
 5192SOL    HW216476   2.007   4.696   2.253
 5193SOL     OW16477   5.300   0.114   5.745
 5193SOL    HW116478   5.300   0.018   5.771
 5193SOL    HW216479   5.302   0.121   5.645
 5194SOL     OW16480   5.528   2.211   6.535
 5194SOL    HW116481   5.555   2.135   6.595
 5194SOL    HW216482   5.536   2.297   6.585
 5195SOL     OW16483   6.946   0.110   4.579
 5195SOL    HW116484   7.015   0.072   4.641
 5195SOL    HW216485   6.976   0.200   4.548
 5196SOL     OW16486   5.457   6.399   2.640
 5196SOL    HW116487   5.471   6.421   2.544
 5196SOL    HW216488   5.538   6.425   2.692
 5197SOL     OW16489   1.299   3.670   5.424
 5197SOL    HW116490   1.207   3.659   5.462
 5197SOL    HW216491   1.358   3.598   5.459
 5198SOL     OW16492   6.029   5.615   2.776
 5198SOL    HW116493   6.126   5.626   2.753
 5198SOL    HW216494   6.018   5.537   2.838
 5199SOL     OW16495   0.091   4.647   1.470
 5199SOL    HW116496   0.167   4.612   1.416
 5199SOL    HW216497   0.036   4.709   1.414
 5200SOL     OW16498   0.268   3.986   4.968
 5200SOL    HW116499   0.321   4.039   5.034
 5200SOL    HW216500   0.277   3.888   4.990
 5201SOL     OW16501   1.846   5.202   4.001
 5201SOL    HW116502   1.807   5.198   3.909
 5201SOL    HW216503   1.942   5.230   3.995
 5202SOL     OW16504   0.454   4.937   1.188
 5202SOL    HW116505   0.357   4.937   1.165
 5202SOL    HW216506   0.507   4.902   1.111
 5203SOL     OW16507   0.935   2.454   0.369
 5203SOL    HW116508   1.012   2.404   0.329
 5203SOL    HW216509   0.868   2.474   0.297
 5204SOL     OW16510   4.805   4.779   7.010
 5204SOL    HW116511   4.759   4.736   6.933
 5204SOL    HW216512   4.787   4.878   7.009
 5205SOL     OW16513   1.587   0.355   2.029
 5205SOL    HW116514   1.489   0.356   2.010
 5205SOL    HW216515   1.603   0.361   2.127
 5206SOL     OW16516   0.392   4.491   5.880
 5206SOL    HW116517   0.382   4.545   5.797
 5206SOL    HW216518   0.397   4.394   5.857
 5207SOL     OW16519   1.843   4.385   4.169
 5207SOL    HW116520   1.782   4.362   4.245
 5207SOL    HW216521   1.919   4.320   4.166
 5208SOL     OW16522   3.966   1.685   6.539
 5208SOL    HW116523   3.910   1.666   6.458
 5208SOL    HW216524   4.061   1.664   6.519
 5209SOL     OW16525   5.504   6.382   3.059
 5209SOL    HW116526   5.420   6.348   3.103
 5209SOL    HW216527   5.479   6.433   2.977
 5210SOL     OW16528   4.843   5.096   3.794
 5210SOL    HW116529   4.876   5.104   3.700
 5210SOL    HW216530   4.884   5.167   3.850
 5211SOL     OW16531   4.118   3.386   3.187
 5211SOL    HW116532   4.101   3.332   3.105
 5211SOL    HW216533   4.200   3.351   3.234
 5212SOL     OW16534   0.794   2.295   0.526
 5212SOL    HW116535   0.838   2.359   0.463
 5212SOL    HW216536   0.695   2.299   0.514
 5213SOL     OW16537   4.456   2.124   6.142
 5213SOL    HW116538   4.449   2.037   6.094
 5213SOL    HW216539   4.376   2.137   6.200
 5214SOL     OW16540   5.581   1.345   5.431
 5214SOL    HW116541   5.541   1.362   5.521
 5214SOL    HW216542   5.681   1.343   5.439
 5215SOL     OW16543   4.872   5.022   2.847
 5215SOL    HW116544   4.805   5.083   2.806
 5215SOL    HW216545   4.825   4.941   2.884
 5216SOL     OW16546   5.067   4.867   0.783
 5216SOL    HW116547   5.042   4.822   0.869
 5216SOL    HW216548   5.150   4.921   0.796
 5217SOL     OW16549   2.416   4.838   4.134
 5217SOL    HW116550   2.491   4.780   4.105
 5217SOL    HW216551   2.371   4.798   4.214
 5218SOL     OW16552   1.796   6.708   3.834
 5218SOL    HW116553   1.891   6.714   3.802
 5218SOL    HW216554   1.781   6.775   3.906
 5219SOL     OW16555   3.451   6.580   6.918
 5219SOL    HW116556   3.397   6.502   6.887
 5219SOL    HW216557   3.399   6.632   6.986
 5220SOL     OW16558   0.822   6.613   3.042
 5220SOL    HW116559   0.770   6.696   3.062
 5220SOL    HW216560   0.816   6.551   3.121
 5221SOL     OW16561   5.009   1.391   4.634
 5221SOL    HW116562   5.007   1.291   4.643
 5221SOL    HW216563   5.023   1.415   4.538
 5222SOL     OW16564   1.766   0.628   3.257
 5222SOL    HW116565   1.691   0.563   3.259
 5222SOL    HW216566   1.803   0.641   3.349
 5223SOL     OW16567   4.573   0.232   1.718
 5223SOL    HW116568   4.518   0.237   1.801
 5223SOL    HW216569   4.587   0.325   1.682
 5224SOL     OW16570   5.726   1.937   2.401
 5224SOL    HW116571   5.713   1.847   2.358
 5224SOL    HW216572   5.820   1.946   2.432
 5225SOL     OW16573   5.525   6.004   4.549
 5225SOL    HW116574   5.536   5.906   4.533
 5225SOL    HW216575   5.494   6.020   4.642
 5226SOL     OW16576   1.627   6.318   3.957
 5226SOL    HW116577   1.611   6.221   3.971
 5226SOL    HW216578   1.713   6.331   3.908
 5227SOL     OW16579   6.058   4.595   3.117
 5227SOL    HW116580   6.038   4.624   3.023
 5227SOL    HW216581   6.009   4.654   3.181
 5228SOL     OW16582   5.359   1.257   0.812
 5228SOL    HW116583   5.348   1.325   0.885
 5228SOL    HW216584   5.324   1.169   0.844
 5229SOL     OW16585   1.193   3.924   5.406
 5229SOL    HW116586   1.246   3.840   5.408
 5229SOL    HW216587   1.108   3.911   5.458
 5230SOL     OW16588   0.139   0.180   0.100
 5230SOL    HW116589   0.234   0.161   0.076
 5230SOL    HW216590   0.083   0.182   0.018
 5231SOL     OW16591   3.978   3.021   3.448
 5231SOL    HW116592   4.006   3.105   3.495
 5231SOL    HW216593   3.969   3.039   3.350
 5232SOL     OW16594   4.575   2.655   6.638
 5232SOL    HW116595   4.534   2.717   6.705
 5232SOL    HW216596   4.649   2.603   6.680
 5233SOL     OW16597   1.199   0.040   2.442
 5233SOL    HW116598   1.271   0.102   2.411
 5233SOL    HW216599   1.240   6.991   2.495
 5234SOL     OW16600   3.970   6.892   0.821
 5234SOL    HW116601   4.050   6.944   0.853
 5234SOL    HW216602   3.913   6.866   0.899
 5235SOL     OW16603   0.894   2.836   1.030
 5235SOL    HW116604   0.847   2.751   1.054
 5235SOL    HW216605   0.837   2.890   0.968
 5236SOL     OW16606   5.348   3.587   1.027
 5236SOL    HW116607   5.293   3.542   1.097
 5236SOL    HW216608   5.334   3.542   0.939
 5237SOL     OW16609   2.609   2.135   5.308
 5237SOL    HW116610   2.556   2.135   5.223
 5237SOL    HW216611   2.641   2.228   5.327
 5238SOL     OW16612   2.084   4.658   0.915
 5238SOL    HW116613   2.175   4.653   0.874
 5238SOL    HW216614   2.079   4.737   0.976
 5239SOL     OW16615   3.025   3.160   3.931
 5239SOL    HW116616   3.007   3.070   3.972
 5239SOL    HW216617   3.047   3.226   4.004
 5240SOL     OW16618   3.318   2.073   5.107
 5240SOL    HW116619   3.308   2.062   5.206
 5240SOL    HW216620   3.270   2.156   5.078
 5241SOL     OW16621   1.835   6.345   6.994
 5241SOL    HW116622   1.761   6.372   0.031
 5241SOL    HW216623   1.835   6.245   6.984
 5242SOL     OW16624   6.285   1.480   5.715
 5242SOL    HW116625   6.351   1.517   5.781
 5242SOL    HW216626   6.322   1.490   5.622
 5243SOL     OW16627   1.615   4.843   1.472
 5243SOL    HW116628   1.658   4.927   1.438
 5243SOL    HW216629   1.582   4.789   1.395
 5244SOL     OW16630   4.955   4.016   5.618
 5244SOL    HW116631   4.960   4.112   5.644
 5244SOL    HW216632   5.002   3.960   5.687
 5245SOL     OW16633   4.949   4.007   6.756
 5245SOL    HW116634   4.929   3.995   6.854
 5245SOL    HW216635   4.940   3.919   6.709
 5246SOL     OW16636   1.355   3.256   2.771
 5246SOL    HW116637   1.371   3.158   2.764
 5246SOL    HW216638   1.285   3.274   2.841
 5247SOL     OW16639   0.793   5.130   0.898
 5247SOL    HW116640   0.817   5.034   0.882
 5247SOL    HW216641   0.856   5.169   0.965
 5248SOL     OW16642   5.209   0.990   5.866
 5248SOL    HW116643   5.231   0.952   5.776
 5248SOL    HW216644   5.294   1.013   5.914
 5249SOL     OW16645   1.086   5.099   4.832
 5249SOL    HW116646   1.040   5.112   4.744
 5249SOL    HW216647   1.166   5.041   4.819
 5250SOL     OW16648   0.686   1.415   6.485
 5250SOL    HW116649   0.715   1.374   6.572
 5250SOL    HW216650   0.738   1.373   6.410
 5251SOL     OW16651   6.480   2.907   1.579
 5251SOL    HW116652   6.382   2.924   1.575
 5251SOL    HW216653   6.502   2.859   1.664
 5252SOL     OW16654   4.050   5.830   0.634
 5252SOL    HW116655   4.113   5.865   0.704
 5252SOL    HW216656   3.997   5.906   0.596
 5253SOL     OW16657   5.769   3.739   3.973
 5253SOL    HW116658   5.717   3.672   3.920
 5253SOL    HW216659   5.707   3.811   4.005
 5254SOL     OW16660   4.866   0.840   3.872
 5254SOL    HW116661   4.841   0.775   3.800
 5254SOL    HW216662   4.783   0.871   3.918
 5255SOL     OW16663   3.052   6.584   4.932
 5255SOL    HW116664   3.131   6.523   4.943
 5255SOL    HW216665   2.986   6.566   5.004
 5256SOL     OW16666   5.591   6.571   4.055
 5256SOL    HW116667   5.534   6.603   4.130
 5256SOL    HW216668   5.551   6.600   3.968
 5257SOL     OW16669   3.818   0.235   0.965
 5257SOL    HW116670   3.906   0.209   0.923
 5257SOL    HW216671   3.797   0.330   0.941
 5258SOL     OW16672   5.264   4.050   2.282
 5258SOL    HW116673   5.175   4.041   2.326
 5258SOL    HW216674   5.327   3.984   2.322
 5259SOL     OW16675   4.651   5.100   2.681
 5259SOL    HW116676   4.592   5.062   2.610
 5259SOL    HW216677   4.595   5.150   2.747
 5260SOL     OW16678   5.559   3.576   1.206
 5260SOL    HW116679   5.500   3.552   1.128
 5260SOL    HW216680   5.503   3.593   1.286
 5261SOL     OW16681   1.130   2.496   4.730
 5261SOL    HW116682   1.217   2.499   4.682
 5261SOL    HW216683   1.111   2.585   4.772
 5262SOL     OW16684   2.784   6.713   1.906
 5262SOL    HW116685   2.723   6.792   1.897
 5262SOL    HW216686   2.864   6.726   1.849
 5263SOL     OW16687   1.428   6.756   6.376
 5263SOL    HW116688   1.441   6.708   6.463
 5263SOL    HW216689   1.473   6.704   6.303
 5264SOL     OW16690   0.361   2.477   0.762
 5264SOL    HW116691   0.278   2.524   0.734
 5264SOL    HW216692   0.416   2.538   0.819
 5265SOL     OW16693   5.310   4.578   1.777
 5265SOL    HW116694   5.328   4.481   1.793
 5265SOL    HW216695   5.293   4.594   1.680
 5266SOL     OW16696   1.427   6.792   1.495
 5266SOL    HW116697   1.426   6.814   1.398
 5266SOL    HW216698   1.487   6.856   1.544
 5267SOL     OW16699   4.859   4.721   5.064
 5267SOL    HW116700   4.896   4.808   5.031
 5267SOL    HW216701   4.841   4.661   4.987
 5268SOL     OW16702   5.865   5.447   5.188
 5268SOL    HW116703   5.808   5.485   5.261
 5268SOL    HW216704   5.935   5.388   5.227
 5269SOL     OW16705   2.141   5.555   4.004
 5269SOL    HW116706   2.083   5.476   3.986
 5269SOL    HW216707   2.136   5.580   4.101
 5270SOL     OW16708   6.179   2.601   1.674
 5270SOL    HW116709   6.171   2.684   1.729
 5270SOL    HW216710   6.090   2.555   1.671
 5271SOL     OW16711   5.088   4.409   4.826
 5271SOL    HW116712   5.172   4.411   4.881
 5271SOL    HW216713   5.036   4.326   4.848
 5272SOL     OW16714   0.857   0.521   4.869
 5272SOL    HW116715   0.872   0.619   4.881
 5272SOL    HW216716   0.873   0.473   4.955
 5273SOL     OW16717   0.549   1.670   3.946
 5273SOL    HW116718   0.605   1.711   4.018
 5273SOL    HW216719   0.600   1.597   3.901
 5274SOL     OW16720   6.539   5.174   3.965
 5274SOL    HW116721   6.581   5.104   3.908
 5274SOL    HW216722   6.572   5.165   4.059
 5275SOL     OW16723   2.203   0.299   6.599
 5275SOL    HW116724   2.161   0.218   6.640
 5275SOL    HW216725   2.136   0.374   6.598
 5276SOL     OW16726   0.072   6.786   1.442
 5276SOL    HW116727   0.119   6.872   1.458
 5276SOL    HW216728   0.011   6.796   1.363
 5277SOL     OW16729   0.985   1.764   3.551
 5277SOL    HW116730   0.913   1.815   3.504
 5277SOL    HW216731   0.974   1.666   3.532
 5278SOL     OW16732   0.771   5.288   5.465
 5278SOL    HW116733   0.807   5.364   5.519
 5278SOL    HW216734   0.812   5.202   5.498
 5279SOL     OW16735   1.694   5.781   6.559
 5279SOL    HW116736   1.793   5.775   6.556
 5279SOL    HW216737   1.655   5.725   6.485
 5280SOL     OW16738   4.202   5.579   4.616
 5280SOL    HW116739   4.295   5.594   4.648
 5280SOL    HW216740   4.197   5.598   4.518
 5281SOL     OW16741   2.064   0.586   4.934
 5281SOL    HW116742   2.006   0.553   5.008
 5281SOL    HW216743   2.152   0.538   4.938
 5282SOL     OW16744   1.295   0.794   2.378
 5282SOL    HW116745   1.312   0.775   2.281
 5282SOL    HW216746   1.204   0.835   2.388
 5283SOL     OW16747   0.001   1.109   4.173
 5283SOL    HW116748   6.929   1.121   4.152
 5283SOL    HW216749   0.046   1.198   4.174
 5284SOL     OW16750   5.031   2.334   1.844
 5284SOL    HW116751   5.049   2.386   1.761
 5284SOL    HW216752   4.945   2.284   1.835
 5285SOL     OW16753   0.609   2.812   3.894
 5285SOL    HW116754   0.641   2.745   3.962
 5285SOL    HW216755   0.516   2.789   3.866
 5286SOL     OW16756   6.026   2.804   1.417
 5286SOL    HW116757   5.965   2.839   1.488
 5286SOL    HW216758   5.987   2.721   1.377
 5287SOL     OW16759   2.886   4.958   1.273
 5287SOL    HW116760   2.829   4.937   1.193
 5287SOL    HW216761   2.883   4.882   1.337
 5288SOL     OW16762   5.133   0.493   2.486
 5288SOL    HW116763   5.073   0.469   2.409
 5288SOL    HW216764   5.089   0.563   2.542
 5289SOL     OW16765   1.871   4.800   6.540
 5289SOL    HW116766   1.971   4.789   6.531
 5289SOL    HW216767   1.830   4.711   6.559
 5290SOL     OW16768   1.457   2.768   5.627
 5290SOL    HW116769   1.476   2.674   5.654
 5290SOL    HW216770   1.515   2.793   5.549
 5291SOL     OW16771   2.552   4.603   4.896
 5291SOL    HW116772   2.649   4.590   4.916
 5291SOL    HW216773   2.513   4.669   4.961
 5292SOL     OW16774   6.746   4.115   6.517
 5292SOL    HW116775   6.824   4.053   6.523
 5292SOL    HW216776   6.738   4.167   6.603
 5293SOL     OW16777   2.305   5.779   4.619
 5293SOL    HW116778   2.332   5.787   4.523
 5293SOL    HW216779   2.206   5.768   4.625
 5294SOL     OW16780   4.013   0.634   4.938
 5294SOL    HW116781   4.061   0.618   4.851
 5294SOL    HW216782   3.959   0.552   4.962
 5295SOL     OW16783   3.368   0.805   1.929
 5295SOL    HW116784   3.426   0.736   1.971
 5295SOL    HW216785   3.369   0.794   1.829
 5296SOL     OW16786   3.940   4.196   0.840
 5296SOL    HW116787   3.955   4.103   0.805
 5296SOL    HW216788   3.953   4.196   0.940
 5297SOL     OW16789   2.199   4.355   0.596
 5297SOL    HW116790   2.129   4.316   0.537
 5297SOL    HW216791   2.288   4.353   0.550
 5298SOL     OW16792   2.245   6.980   0.278
 5298SOL    HW116793   2.168   7.012   0.333
 5298SOL    HW216794   2.290   0.034   0.235
 5299SOL     OW16795   2.979   2.198   0.452
 5299SOL    HW116796   3.020   2.254   0.523
 5299SOL    HW216797   2.883   2.179   0.476
 5300SOL     OW16798   2.126   4.639   0.155
 5300SOL    HW116799   2.183   4.569   0.197
 5300SOL    HW216800   2.034   4.602   0.139
 5301SOL     OW16801   4.735   0.393   6.364
 5301SOL    HW116802   4.812   0.456   6.351
 5301SOL    HW216803   4.650   0.438   6.338
 5302SOL     OW16804   5.362   5.676   3.629
 5302SOL    HW116805   5.408   5.598   3.587
 5302SOL    HW216806   5.424   5.722   3.692
 5303SOL     OW16807   6.710   5.205   6.478
 5303SOL    HW116808   6.758   5.118   6.467
 5303SOL    HW216809   6.729   5.242   6.569
 5304SOL     OW16810   6.383   1.169   1.334
 5304SOL    HW116811   6.358   1.186   1.238
 5304SOL    HW216812   6.301   1.148   1.387
 5305SOL     OW16813   1.299   5.584   2.547
 5305SOL    HW116814   1.286   5.623   2.638
 5305SOL    HW216815   1.338   5.493   2.555
 5306SOL     OW16816   6.871   3.798   5.720
 5306SOL    HW116817   6.812   3.875   5.746
 5306SOL    HW216818   6.942   3.830   5.658
 5307SOL     OW16819   4.778   2.427   0.524
 5307SOL    HW116820   4.827   2.350   0.564
 5307SOL    HW216821   4.721   2.471   0.594
 5308SOL     OW16822   1.336   4.922   2.957
 5308SOL    HW116823   1.386   4.851   2.907
 5308SOL    HW216824   1.280   4.879   3.028
 5309SOL     OW16825   4.464   6.035   3.355
 5309SOL    HW116826   4.552   6.041   3.308
 5309SOL    HW216827   4.426   6.126   3.367
 5310SOL     OW16828   6.170   3.098   2.774
 5310SOL    HW116829   6.104   3.024   2.792
 5310SOL    HW216830   6.194   3.143   2.860
 5311SOL     OW16831   6.202   7.025   0.677
 5311SOL    HW116832   6.116   0.008   0.728
 5311SOL    HW216833   6.268   0.065   0.714
 5312SOL     OW16834   0.433   6.313   1.553
 5312SOL    HW116835   0.529   6.287   1.544
 5312SOL    HW216836   0.426   6.394   1.612
 5313SOL     OW16837   6.347   5.202   5.231
 5313SOL    HW116838   6.318   5.162   5.318
 5313SOL    HW216839   6.417   5.271   5.247
 5314SOL     OW16840   6.017   6.939   1.147
 5314SOL    HW116841   5.943   6.878   1.177
 5314SOL    HW216842   6.099   6.886   1.129
 5315SOL     OW16843   4.250   1.710   3.328
 5315SOL    HW116844   4.227   1.789   3.386
 5315SOL    HW216845   4.292   1.639   3.384
 5316SOL     OW16846   0.547   2.862   5.244
 5316SOL    HW116847   0.483   2.834   5.172
 5316SOL    HW216848   0.568   2.783   5.302
 5317SOL     OW16849   6.436   1.617   5.933
 5317SOL    HW116850   6.493   1.541   5.964
 5317SOL    HW216851   6.359   1.628   5.995
 5318SOL     OW16852   6.457   3.536   6.994
 5318SOL    HW116853   6.418   3.528   6.902
 5318SOL    HW216854   6.443   3.629   0.003
 5319SOL     OW16855   4.262   6.786   1.055
 5319SOL    HW116856   4.286   6.796   1.151
 5319SOL    HW216857   4.271   6.875   1.009
 5320SOL     OW16858   3.469   6.181   1.410
 5320SOL    HW116859   3.434   6.149   1.498
 5320SOL    HW216860   3.500   6.276   1.419
 5321SOL     OW16861   1.552   4.680   5.060
 5321SOL    HW116862   1.511   4.711   5.145
 5321SOL    HW216863   1.482   4.677   4.988
 5322SOL     OW16864   5.496   7.023   1.774
 5322SOL    HW116865   5.464   0.033   1.862
 5322SOL    HW216866   5.501   6.923   1.777
 5323SOL     OW16867   4.543   1.885   5.228
 5323SOL    HW116868   4.507   1.967   5.184
 5323SOL    HW216869   4.471   1.816   5.233
 5324SOL     OW16870   2.606   2.472   6.997
 5324SOL    HW116871   2.514   2.456   6.961
 5324SOL    HW216872   2.603   2.473   0.072
 5325SOL     OW16873   2.750   1.903   5.209
 5325SOL    HW116874   2.837   1.924   5.165
 5325SOL    HW216875   2.714   1.986   5.252
 5326SOL     OW16876   6.528   5.914   2.543
 5326SOL    HW116877   6.469   5.875   2.472
 5326SOL    HW216878   6.472   5.955   2.614
 5327SOL     OW16879   5.549   2.536   4.890
 5327SOL    HW116880   5.491   2.554   4.969
 5327SOL    HW216881   5.643   2.566   4.910
 5328SOL     OW16882   3.697   4.065   6.319
 5328SOL    HW116883   3.666   3.983   6.367
 5328SOL    HW216884   3.628   4.093   6.253
 5329SOL     OW16885   1.361   5.641   6.356
 5329SOL    HW116886   1.321   5.573   6.294
 5329SOL    HW216887   1.456   5.660   6.328
 5330SOL     OW16888   3.584   3.335   0.568
 5330SOL    HW116889   3.649   3.262   0.546
 5330SOL    HW216890   3.634   3.417   0.596
 5331SOL     OW16891   6.505   1.638   6.377
 5331SOL    HW116892   6.596   1.664   6.343
 5331SOL    HW216893   6.514   1.563   6.443
 5332SOL     OW16894   1.566   4.767   1.729
 5332SOL    HW116895   1.599   4.779   1.636
 5332SOL    HW216896   1.511   4.684   1.735
 5333SOL     OW16897   1.412   6.969   3.767
 5333SOL    HW116898   1.490   0.004   3.786
 5333SOL    HW216899   1.397   6.908   3.845
 5334SOL     OW16900   3.123   0.129   4.853
 5334SOL    HW116901   3.073   0.087   4.778
 5334SOL    HW216902   3.218   0.145   4.826
 5335SOL     OW16903   0.135   5.379   0.941
 5335SOL    HW116904   0.062   5.311   0.931
 5335SOL    HW216905   0.100   5.459   0.990
 5336SOL     OW16906   1.688   3.526   2.244
 5336SOL    HW116907   1.613   3.473   2.203
 5336SOL    HW216908   1.726   3.475   2.321
 5337SOL     OW16909   4.912   3.953   0.965
 5337SOL    HW116910   4.974   4.031   0.956
 5337SOL    HW216911   4.906   3.927   1.061
 5338SOL     OW16912   6.487   2.167   0.354
 5338SOL    HW116913   6.557   2.149   0.284
 5338SOL    HW216914   6.398   2.136   0.321
 5339SOL     OW16915   6.856   1.613   3.533
 5339SOL    HW116916   6.906   1.593   3.449
 5339SOL    HW216917   6.857   1.712   3.549
 5340SOL     OW16918   5.525   3.023   0.156
 5340SOL    HW116919   5.624   3.033   0.143
 5340SOL    HW216920   5.479   3.031   0.068
 5341SOL     OW16921   3.870   1.936   5.517
 5341SOL    HW116922   3.956   1.903   5.554
 5341SOL    HW216923   3.812   1.858   5.494
 5342SOL     OW16924   4.303   0.324   5.070
 5342SOL    HW116925   4.289   0.342   4.973
 5342SOL    HW216926   4.216   0.334   5.119
 5343SOL     OW16927   3.757   3.278   2.321
 5343SOL    HW116928   3.723   3.361   2.277
 5343SOL    HW216929   3.680   3.227   2.360
 5344SOL     OW16930   1.600   2.859   3.391
 5344SOL    HW116931   1.672   2.794   3.367
 5344SOL    HW216932   1.632   2.919   3.465
 5345SOL     OW16933   4.686   6.601   1.122
 5345SOL    HW116934   4.666   6.697   1.142
 5345SOL    HW216935   4.783   6.592   1.097
 5346SOL     OW16936   3.205   6.193   3.462
 5346SOL    HW116937   3.214   6.280   3.413
 5346SOL    HW216938   3.108   6.168   3.468
 5347SOL     OW16939   0.260   1.660   1.679
 5347SOL    HW116940   0.287   1.754   1.699
 5347SOL    HW216941   0.181   1.635   1.736
 5348SOL     OW16942   0.947   1.147   0.304
 5348SOL    HW116943   0.895   1.104   0.378
 5348SOL    HW216944   1.044   1.124   0.314
 5349SOL     OW16945   6.959   1.606   0.591
 5349SOL    HW116946   6.877   1.591   0.536
 5349SOL    HW216947   6.951   1.554   0.676
 5350SOL     OW16948   2.431   0.835   6.285
 5350SOL    HW116949   2.479   0.803   6.367
 5350SOL    HW216950   2.467   0.787   6.205
 5351SOL     OW16951   5.276   6.157   1.269
 5351SOL    HW116952   5.276   6.115   1.360
 5351SOL    HW216953   5.190   6.207   1.256
 5352SOL     OW16954   2.349   5.594   3.668
 5352SOL    HW116955   2.437   5.548   3.678
 5352SOL    HW216956   2.332   5.652   3.747
 5353SOL     OW16957   4.450   5.817   4.891
 5353SOL    HW116958   4.475   5.909   4.859
 5353SOL    HW216959   4.466   5.811   4.990
 5354SOL     OW16960   1.975   4.950   2.034
 5354SOL    HW116961   1.904   4.924   1.969
 5354SOL    HW216962   2.051   4.991   1.986
 5355SOL     OW16963   4.537   1.659   3.661
 5355SOL    HW116964   4.455   1.628   3.613
 5355SOL    HW216965   4.532   1.758   3.676
 5356SOL     OW16966   5.948   3.907   1.436
 5356SOL    HW116967   5.963   3.809   1.443
 5356SOL    HW216968   6.019   3.956   1.487
 5357SOL     OW16969   3.721   0.065   0.240
 5357SOL    HW116970   3.688   0.075   0.146
 5357SOL    HW216971   3.722   0.154   0.285
 5358SOL     OW16972   4.308   2.490   0.674
 5358SOL    HW116973   4.275   2.462   0.765
 5358SOL    HW216974   4.240   2.550   0.632
 5359SOL     OW16975   2.425   1.889   0.921
 5359SOL    HW116976   2.376   1.803   0.929
 5359SOL    HW216977   2.524   1.872   0.921
 5360SOL     OW16978   3.884   6.497   5.785
 5360SOL    HW116979   3.924   6.431   5.721
 5360SOL    HW216980   3.872   6.454   5.874
 5361SOL     OW16981   2.085   1.370   5.138
 5361SOL    HW116982   2.134   1.386   5.053
 5361SOL    HW216983   2.146   1.327   5.205
 5362SOL     OW16984   4.537   4.816   3.112
 5362SOL    HW116985   4.562   4.876   3.187
 5362SOL    HW216986   4.467   4.860   3.055
 5363SOL     OW16987   0.980   5.496   6.144
 5363SOL    HW116988   1.051   5.438   6.183
 5363SOL    HW216989   1.021   5.560   6.078
 5364SOL     OW16990   6.461   5.984   0.882
 5364SOL    HW116991   6.493   6.062   0.937
 5364SOL    HW216992   6.420   5.916   0.943
 5365SOL     OW16993   4.400   2.665   6.124
 5365SOL    HW116994   4.380   2.742   6.063
 5365SOL    HW216995   4.405   2.581   6.070
 5366SOL     OW16996   3.954   4.416   0.506
 5366SOL    HW116997   4.013   4.346   0.545
 5366SOL    HW216998   3.920   4.476   0.579
 5367SOL     OW16999   0.503   4.850   0.931
 5367SOL    HW117000   0.494   4.881   0.837
 5367SOL    HW217001   0.420   4.802   0.959
 5368SOL     OW17002   5.461   2.262   2.850
 5368SOL    HW117003   5.417   2.341   2.892
 5368SOL    HW217004   5.451   2.267   2.750
 5369SOL     OW17005   2.481   4.680   3.121
 5369SOL    HW117006   2.462   4.587   3.153
 5369SOL    HW217007   2.476   4.683   3.022
 5370SOL     OW17008   3.800   3.252   1.507
 5370SOL    HW117009   3.867   3.204   1.564
 5370SOL    HW217010   3.708   3.223   1.532
 5371SOL     OW17011   1.815   4.557   4.631
 5371SOL    HW117012   1.831   4.642   4.681
 5371SOL    HW217013   1.731   4.515   4.665
 5372SOL     OW17014   2.913   4.841   2.718
 5372SOL    HW117015   2.886   4.915   2.657
 5372SOL    HW217016   2.836   4.778   2.731
 5373SOL     OW17017   3.203   4.906   4.523
 5373SOL    HW117018   3.236   4.886   4.615
 5373SOL    HW217019   3.113   4.866   4.510
 5374SOL     OW17020   2.162   2.830   6.600
 5374SOL    HW117021   2.116   2.820   6.512
 5374SOL    HW217022   2.097   2.811   6.674
 5375SOL     OW17023   1.608   4.343   4.995
 5375SOL    HW117024   1.524   4.298   5.026
 5375SOL    HW217025   1.684   4.278   5.002
 5376SOL     OW17026   1.585   3.473   1.715
 5376SOL    HW117027   1.685   3.477   1.726
 5376SOL    HW217028   1.544   3.431   1.796
 5377SOL     OW17029   0.181   0.027   1.500
 5377SOL    HW117030   0.244   0.099   1.470
 5377SOL    HW217031   0.092   0.068   1.520
 5378SOL     OW17032   6.320   0.495   6.946
 5378SOL    HW117033   6.381   0.539   6.881
 5378SOL    HW217034   6.321   0.545   0.007
 5379SOL     OW17035   0.259   5.368   3.471
 5379SOL    HW117036   0.316   5.404   3.545
 5379SOL    HW217037   0.249   5.269   3.482
 5380SOL     OW17038   2.179   0.120   3.888
 5380SOL    HW117039   2.261   0.160   3.847
 5380SOL    HW217040   2.149   0.042   3.833
 5381SOL     OW17041   6.203   4.200   1.045
 5381SOL    HW117042   6.227   4.103   1.040
 5381SOL    HW217043   6.163   4.228   0.957
 5382SOL     OW17044   3.236   0.881   1.072
 5382SOL    HW117045   3.245   0.969   1.117
 5382SOL    HW217046   3.322   0.856   1.029
 5383SOL     OW17047   2.804   2.182   5.608
 5383SOL    HW117048   2.755   2.258   5.566
 5383SOL    HW217049   2.899   2.208   5.623
 5384SOL     OW17050   6.452   6.534   4.705
 5384SOL    HW117051   6.509   6.508   4.627
 5384SOL    HW217052   6.483   6.623   4.741
 5385SOL     OW17053   2.938   3.776   2.616
 5385SOL    HW117054   2.919   3.753   2.521
 5385SOL    HW217055   2.976   3.869   2.622
 5386SOL     OW17056   4.679   6.381   4.212
 5386SOL    HW117057   4.778   6.387   4.210
 5386SOL    HW217058   4.640   6.429   4.133
 5387SOL     OW17059   2.948   5.239   2.153
 5387SOL    HW117060   2.899   5.274   2.073
 5387SOL    HW217061   2.893   5.253   2.235
 5388SOL     OW17062   5.508   6.447   2.189
 5388SOL    HW117063   5.443   6.399   2.247
 5388SOL    HW217064   5.579   6.489   2.245
 5389SOL     OW17065   4.427   1.157   1.847
 5389SOL    HW117066   4.508   1.211   1.871
 5389SOL    HW217067   4.380   1.127   1.930
 5390SOL     OW17068   5.500   4.893   4.768
 5390SOL    HW117069   5.514   4.878   4.866
 5390SOL    HW217070   5.579   4.941   4.731
 5391SOL     OW17071   2.716   3.584   0.306
 5391SOL    HW117072   2.750   3.524   0.234
 5391SOL    HW217073   2.779   3.584   0.383
 5392SOL     OW17074   5.650   2.788   1.389
 5392SOL    HW117075   5.593   2.746   1.318
 5392SOL    HW217076   5.612   2.768   1.479
 5393SOL     OW17077   7.009   6.867   6.862
 5393SOL    HW117078   7.006   6.917   6.949
 5393SOL    HW217079   0.077   6.836   6.844
 5394SOL     OW17080   0.765   3.958   6.474
 5394SOL    HW117081   0.701   3.895   6.431
 5394SOL    HW217082   0.808   4.015   6.405
 5395SOL     OW17083   4.568   0.429   0.707
 5395SOL    HW117084   4.649   0.437   0.649
 5395SOL    HW217085   4.526   0.519   0.719
 5396SOL     OW17086   4.904   3.795   2.102
 5396SOL    HW117087   4.838   3.848   2.155
 5396SOL    HW217088   4.918   3.706   2.146
 5397SOL     OW17089   6.687   3.401   1.614
 5397SOL    HW117090   6.763   3.455   1.650
 5397SOL    HW217091   6.605   3.459   1.608
 5398SOL     OW17092   3.311   2.534   1.664
 5398SOL    HW117093   3.403   2.500   1.683
 5398SOL    HW217094   3.243   2.471   1.703
 5399SOL     OW17095   2.637   6.195   0.877
 5399SOL    HW117096   2.574   6.242   0.815
 5399SOL    HW217097   2.726   6.242   0.874
 5400SOL     OW17098   2.750   4.518   0.520
 5400SOL    HW117099   2.727   4.447   0.453
 5400SOL    HW217100   2.815   4.481   0.586
 5401SOL     OW17101   5.863   3.409   1.905
 5401SOL    HW117102   5.800   3.337   1.873
 5401SOL    HW217103   5.906   3.453   1.827
 5402SOL     OW17104   2.520   6.029   1.813
 5402SOL    HW117105   2.466   6.040   1.896
 5402SOL    HW217106   2.577   6.110   1.799
 5403SOL     OW17107   7.016   3.362   6.550
 5403SOL    HW117108   6.956   3.395   6.624
 5403SOL    HW217109   6.966   3.295   6.495
 5404SOL     OW17110   1.302   2.717   3.709
 5404SOL    HW117111   1.304   2.686   3.804
 5404SOL    HW217112   1.347   2.806   3.703
 5405SOL     OW17113   0.102   5.210   6.217
 5405SOL    HW117114   0.041   5.131   6.213
 5405SOL    HW217115   0.183   5.187   6.271
 5406SOL     OW17116   1.805   2.020   0.267
 5406SOL    HW117117   1.826   1.924   0.285
 5406SOL    HW217118   1.890   2.073   0.261
 5407SOL     OW17119   4.224   3.616   0.231
 5407SOL    HW117120   4.254   3.648   0.321
 5407SOL    HW217121   4.124   3.617   0.226
 5408SOL     OW17122   2.434   0.754   5.400
 5408SOL    HW117123   2.340   0.747   5.434
 5408SOL    HW217124   2.433   0.793   5.308
 5409SOL     OW17125   5.366   0.673   3.085
 5409SOL    HW117126   5.377   0.676   2.986
 5409SOL    HW217127   5.452   0.643   3.128
 5410SOL     OW17128   3.376   2.138   1.888
 5410SOL    HW117129   3.284   2.167   1.916
 5410SOL    HW217130   3.440   2.151   1.964
 5411SOL     OW17131   6.463   4.856   6.227
 5411SOL    HW117132   6.510   4.896   6.148
 5411SOL    HW217133   6.510   4.772   6.255
 5412SOL     OW17134   5.351   3.205   0.722
 5412SOL    HW117135   5.259   3.168   0.723
 5412SOL    HW217136   5.394   3.190   0.812
 5413SOL     OW17137   2.981   2.171   1.467
 5413SOL    HW117138   3.006   2.264   1.490
 5413SOL    HW217139   3.028   2.107   1.528
 5414SOL     OW17140   4.505   1.270   4.695
 5414SOL    HW117141   4.566   1.349   4.705
 5414SOL    HW217142   4.411   1.302   4.691
 5415SOL     OW17143   0.299   6.048   1.098
 5415SOL    HW117144   0.277   6.017   1.005
 5415SOL    HW217145   0.371   5.990   1.136
 5416SOL     OW17146   4.063   4.824   4.913
 5416SOL    HW117147   4.136   4.769   4.871
 5416SOL    HW217148   4.035   4.782   4.999
 5417SOL     OW17149   3.671   6.852   5.282
 5417SOL    HW117150   3.740   6.871   5.353
 5417SOL    HW217151   3.580   6.864   5.321
 5418SOL     OW17152   3.524   0.189   2.470
 5418SOL    HW117153   3.607   0.217   2.421
 5418SOL    HW217154   3.492   0.102   2.432
 5419SOL     OW17155   3.435   4.838   6.991
 5419SOL    HW117156   3.410   4.918   6.936
 5419SOL    HW217157   3.526   4.806   6.965
 5420SOL     OW17158   1.849   2.717   3.546
 5420SOL    HW117159   1.903   2.637   3.572
 5420SOL    HW217160   1.884   2.755   3.461
 5421SOL     OW17161   1.581   3.897   1.118
 5421SOL    HW117162   1.497   3.851   1.144
 5421SOL    HW217163   1.660   3.842   1.146
 5422SOL     OW17164   1.358   4.531   1.395
 5422SOL    HW117165   1.294   4.586   1.448
 5422SOL    HW217166   1.309   4.456   1.351
 5423SOL     OW17167   6.050   2.920   6.372
 5423SOL    HW117168   6.040   2.896   6.275
 5423SOL    HW217169   6.138   2.887   6.405
 5424SOL     OW17170   4.953   3.483   4.490
 5424SOL    HW117171   5.050   3.506   4.482
 5424SOL    HW217172   4.939   3.425   4.571
 5425SOL     OW17173   3.997   1.154   5.001
 5425SOL    HW117174   3.991   1.244   4.958
 5425SOL    HW217175   4.029   1.087   4.935
 5426SOL     OW17176   5.715   6.355   4.820
 5426SOL    HW117177   5.714   6.451   4.848
 5426SOL    HW217178   5.722   6.350   4.720
 5427SOL     OW17179   4.550   5.723   6.113
 5427SOL    HW117180   4.609   5.653   6.151
 5427SOL    HW217181   4.515   5.693   6.024
 5428SOL     OW17182   0.548   0.547   1.009
 5428SOL    HW117183   0.590   0.504   0.929
 5428SOL    HW217184   0.457   0.507   1.024
 5429SOL     OW17185   1.722   1.696   0.020
 5429SOL    HW117186   1.669   1.687   6.961
 5429SOL    HW217187   1.660   1.693   0.099
 5430SOL     OW17188   0.533   2.305   6.238
 5430SOL    HW117189   0.526   2.342   6.331
 5430SOL    HW217190   0.580   2.371   6.180
 5431SOL     OW17191   3.241   6.735   6.633
 5431SOL    HW117192   3.167   6.722   6.699
 5431SOL    HW217193   3.291   6.650   6.621
 5432SOL     OW17194   5.329   6.879   0.085
 5432SOL    HW117195   5.364   6.810   0.023
 5432SOL    HW217196   5.402   6.943   0.109
 5433SOL     OW17197   0.024   1.504   4.680
 5433SOL    HW117198   0.018   1.455   4.594
 5433SOL    HW217199   0.097   1.572   4.675
 5434SOL     OW17200   2.888   7.008   5.989
 5434SOL    HW117201   2.801   6.976   6.026
 5434SOL    HW217202   2.873   0.068   5.939
 5435SOL     OW17203   4.278   6.749   1.876
 5435SOL    HW117204   4.267   6.785   1.783
 5435SOL    HW217205   4.350   6.799   1.923
 5436SOL     OW17206   4.377   4.589   3.232
 5436SOL    HW117207   4.322   4.612   3.152
 5436SOL    HW217208   4.474   4.591   3.207
 5437SOL     OW17209   3.007   4.422   0.132
 5437SOL    HW117210   2.922   4.409   0.080
 5437SOL    HW217211   3.065   4.487   0.083
 5438SOL     OW17212   6.460   2.394   1.469
 5438SOL    HW117213   6.381   2.454   1.454
 5438SOL    HW217214   6.516   2.431   1.542
 5439SOL     OW17215   1.585   2.161   1.415
 5439SOL    HW117216   1.601   2.258   1.395
 5439SOL    HW217217   1.517   2.124   1.351
 5440SOL     OW17218   1.419   1.666   1.364
 5440SOL    HW117219   1.403   1.748   1.309
 5440SOL    HW217220   1.389   1.585   1.313
 5441SOL     OW17221   3.780   2.167   4.012
 5441SOL    HW117222   3.683   2.144   4.013
 5441SOL    HW217223   3.825   2.127   4.091
 5442SOL     OW17224   4.110   6.459   2.164
 5442SOL    HW117225   4.017   6.425   2.151
 5442SOL    HW217226   4.155   6.469   2.075
 5443SOL     OW17227   3.154   6.938   5.064
 5443SOL    HW117228   3.097   6.919   4.984
 5443SOL    HW217229   3.164   0.012   5.075
 5444SOL     OW17230   0.886   0.011   3.973
 5444SOL    HW117231   0.980   7.022   4.003
 5444SOL    HW217232   0.881   0.093   3.915
 5445SOL     OW17233   6.405   3.992   3.012
 5445SOL    HW117234   6.329   3.958   2.957
 5445SOL    HW217235   6.478   3.924   3.014
 5446SOL     OW17236   5.854   5.965   4.984
 5446SOL    HW117237   5.872   5.900   4.911
 5446SOL    HW217238   5.937   6.019   5.001
 5447SOL     OW17239   3.675   2.668   0.392
 5447SOL    HW117240   3.727   2.751   0.411
 5447SOL    HW217241   3.603   2.688   0.324
 5448SOL     OW17242   5.054   2.242   5.534
 5448SOL    HW117243   5.044   2.336   5.567
 5448SOL    HW217244   4.974   2.217   5.479
 5449SOL     OW17245   1.179   3.083   0.115
 5449SOL    HW117246   1.197   2.998   0.164
 5449SOL    HW217247   1.134   3.063   0.028
 5450SOL     OW17248   2.048   1.055   1.748
 5450SOL    HW117249   1.978   1.099   1.692
 5450SOL    HW217250   2.138   1.091   1.724
 5451SOL     OW17251   0.662   5.931   3.226
 5451SOL    HW117252   0.583   5.873   3.244
 5451SOL    HW217253   0.660   6.011   3.285
 5452SOL     OW17254   1.834   4.268   0.242
 5452SOL    HW117255   1.800   4.194   0.183
 5452SOL    HW217256   1.929   4.289   0.217
 5453SOL     OW17257   6.093   3.938   0.500
 5453SOL    HW117258   6.140   4.022   0.474
 5453SOL    HW217259   6.138   3.860   0.457
 5454SOL     OW17260   6.864   4.940   6.433
 5454SOL    HW117261   6.799   4.864   6.431
 5454SOL    HW217262   6.900   4.955   6.341
 5455SOL     OW17263   0.262   3.136   1.357
 5455SOL    HW117264   0.321   3.197   1.410
 5455SOL    HW217265   0.306   3.046   1.350
 5456SOL     OW17266   2.904   0.779   6.709
 5456SOL    HW117267   2.985   0.830   6.738
 5456SOL    HW217268   2.872   0.722   6.785
 5457SOL     OW17269   5.537   2.664   0.682
 5457SOL    HW117270   5.623   2.613   0.673
 5457SOL    HW217271   5.557   2.761   0.694
 5458SOL     OW17272   0.803   4.537   6.919
 5458SOL    HW117273   0.838   4.448   6.950
 5458SOL    HW217274   0.724   4.563   6.974
 5459SOL     OW17275   2.183   5.222   0.218
 5459SOL    HW117276   2.092   5.185   0.201
 5459SOL    HW217277   2.176   5.316   0.250
 5460SOL     OW17278   3.022   0.664   1.258
 5460SOL    HW117279   2.993   0.751   1.218
 5460SOL    HW217280   3.013   0.668   1.357
 5461SOL     OW17281   4.909   6.547   5.031
 5461SOL    HW117282   4.838   6.546   5.101
 5461SOL    HW217283   4.998   6.532   5.074
 5462SOL     OW17284   1.779   0.551   0.700
 5462SOL    HW117285   1.780   0.645   0.735
 5462SOL    HW217286   1.694   0.506   0.728
 5463SOL     OW17287   5.809   2.553   0.682
 5463SOL    HW117288   5.792   2.559   0.781
 5463SOL    HW217289   5.897   2.595   0.661
 5464SOL     OW17290   1.600   0.920   4.051
 5464SOL    HW117291   1.596   0.872   4.138
 5464SOL    HW217292   1.524   0.890   3.993
 5465SOL     OW17293   3.578   0.217   4.558
 5465SOL    HW117294   3.637   0.150   4.603
 5465SOL    HW217295   3.620   0.245   4.472
 5466SOL     OW17296   4.987   4.152   4.452
 5466SOL    HW117297   5.046   4.111   4.382
 5466SOL    HW217298   4.894   4.161   4.414
 5467SOL     OW17299   5.561   1.155   2.863
 5467SOL    HW117300   5.483   1.130   2.806
 5467SOL    HW217301   5.551   1.115   2.954
 5468SOL     OW17302   4.630   1.892   4.508
 5468SOL    HW117303   4.672   1.930   4.591
 5468SOL    HW217304   4.690   1.908   4.430
 5469SOL     OW17305   3.877   4.694   6.277
 5469SOL    HW117306   3.807   4.761   6.250
 5469SOL    HW217307   3.890   4.628   6.204
 5470SOL     OW17308   2.073   4.935   3.620
 5470SOL    HW117309   2.025   4.862   3.570
 5470SOL    HW217310   2.066   4.918   3.718
 5471SOL     OW17311   6.074   5.788   1.140
 5471SOL    HW117312   6.115   5.747   1.220
 5471SOL    HW217313   6.005   5.726   1.101
 5472SOL     OW17314   3.851   3.804   6.210
 5472SOL    HW117315   3.858   3.903   6.194
 5472SOL    HW217316   3.803   3.788   6.295
 5473SOL     OW17317   1.336   3.487   3.601
 5473SOL    HW117318   1.246   3.514   3.564
 5473SOL    HW217319   1.324   3.411   3.665
 5474SOL     OW17320   2.118   4.963   4.186
 5474SOL    HW117321   2.162   5.046   4.151
 5474SOL    HW217322   2.132   4.958   4.285
 5475SOL     OW17323   3.230   2.074   1.037
 5475SOL    HW117324   3.241   2.103   0.942
 5475SOL    HW217325   3.249   2.151   1.098
 5476SOL     OW17326   1.223   3.068   6.187
 5476SOL    HW117327   1.141   3.011   6.180
 5476SOL    HW217328   1.234   3.121   6.103
 5477SOL     OW17329   2.160   3.020   3.426
 5477SOL    HW117330   2.180   3.060   3.515
 5477SOL    HW217331   2.206   2.931   3.418
 5478SOL     OW17332   5.088   6.099   5.816
 5478SOL    HW117333   5.109   6.036   5.742
 5478SOL    HW217334   5.119   6.191   5.792
 5479SOL     OW17335   5.006   0.185   4.504
 5479SOL    HW117336   4.925   0.126   4.506
 5479SOL    HW217337   5.007   0.235   4.417
 5480SOL     OW17338   1.019   4.199   4.702
 5480SOL    HW117339   1.041   4.217   4.606
 5480SOL    HW217340   1.029   4.283   4.755
 5481SOL     OW17341   3.316   6.962   4.623
 5481SOL    HW117342   3.376   6.950   4.702
 5481SOL    HW217343   3.332   0.026   4.582
 5482SOL     OW17344   3.671   4.351   1.702
 5482SOL    HW117345   3.651   4.443   1.734
 5482SOL    HW217346   3.588   4.310   1.663
 5483SOL     OW17347   0.410   2.506   5.929
 5483SOL    HW117348   0.440   2.543   5.842
 5483SOL    HW217349   0.316   2.474   5.922
 5484SOL     OW17350   4.432   0.651   4.191
 5484SOL    HW117351   4.365   0.709   4.238
 5484SOL    HW217352   4.415   0.654   4.093
 5485SOL     OW17353   2.969   6.412   5.584
 5485SOL    HW117354   2.883   6.462   5.584
 5485SOL    HW217355   3.004   6.405   5.490
 5486SOL     OW17356   2.914   5.820   4.663
 5486SOL    HW117357   2.905   5.881   4.741
 5486SOL    HW217358   2.900   5.871   4.579
 5487SOL     OW17359   2.342   4.696   5.876
 5487SOL    HW117360   2.416   4.642   5.837
 5487SOL    HW217361   2.371   4.734   5.964
 5488SOL     OW17362   6.029   0.976   0.615
 5488SOL    HW117363   5.999   0.990   0.709
 5488SOL    HW217364   6.030   0.878   0.595
 5489SOL     OW17365   6.807   3.170   2.185
 5489SOL    HW117366   6.830   3.247   2.244
 5489SOL    HW217367   6.728   3.194   2.129
 5490SOL     OW17368   0.941   6.852   2.779
 5490SOL    HW117369   1.023   6.830   2.725
 5490SOL    HW217370   0.872   6.780   2.766
 5491SOL     OW17371   6.753   3.633   0.723
 5491SOL    HW117372   6.685   3.698   0.691
 5491SOL    HW217373   6.748   3.623   0.822
 5492SOL     OW17374   0.761   1.137   5.467
 5492SOL    HW117375   0.712   1.078   5.403
 5492SOL    HW217376   0.821   1.199   5.415
 5493SOL     OW17377   4.232   3.794   1.759
 5493SOL    HW117378   4.169   3.790   1.682
 5493SOL    HW217379   4.186   3.761   1.842
 5494SOL     OW17380   6.137   3.820   5.163
 5494SOL    HW117381   6.055   3.783   5.207
 5494SOL    HW217382   6.120   3.833   5.066
 5495SOL     OW17383   6.083   0.351   0.552
 5495SOL    HW117384   5.984   0.338   0.541
 5495SOL    HW217385   6.104   0.367   0.649
 5496SOL     OW17386   4.245   0.801   4.336
 5496SOL    HW117387   4.235   0.888   4.287
 5496SOL    HW217388   4.159   0.750   4.330
 5497SOL     OW17389   1.048   1.078   6.371
 5497SOL    HW117390   0.948   1.073   6.359
 5497SOL    HW217391   1.071   1.061   6.467
 5498SOL     OW17392   0.883   4.929   2.235
 5498SOL    HW117393   0.784   4.932   2.226
 5498SOL    HW217394   0.919   4.849   2.187
 5499SOL     OW17395   0.984   0.338   5.155
 5499SOL    HW117396   0.902   0.319   5.208
 5499SOL    HW217397   1.015   0.254   5.109
 5500SOL     OW17398   2.400   0.695   0.391
 5500SOL    HW117399   2.320   0.639   0.413
 5500SOL    HW217400   2.413   0.764   0.463
 5501SOL     OW17401   3.781   2.573   6.755
 5501SOL    HW117402   3.837   2.653   6.779
 5501SOL    HW217403   3.794   2.551   6.659
 5502SOL     OW17404   4.545   1.851   0.195
 5502SOL    HW117405   4.541   1.892   0.286
 5502SOL    HW217406   4.609   1.901   0.138
 5503SOL     OW17407   0.240   3.700   0.485
 5503SOL    HW117408   0.146   3.686   0.517
 5503SOL    HW217409   0.290   3.614   0.487
 5504SOL     OW17410   3.887   0.999   6.344
 5504SOL    HW117411   3.863   0.902   6.351
 5504SOL    HW217412   3.959   1.020   6.410
 5505SOL     OW17413   2.436   4.377   4.291
 5505SOL    HW117414   2.520   4.331   4.317
 5505SOL    HW217415   2.388   4.409   4.372
 5506SOL     OW17416   0.313   3.843   6.263
 5506SOL    HW117417   0.355   3.934   6.262
 5506SOL    HW217418   0.249   3.834   6.187
 5507SOL     OW17419   2.934   0.182   6.687
 5507SOL    HW117420   2.856   0.149   6.740
 5507SOL    HW217421   2.965   0.109   6.625
 5508SOL     OW17422   0.316   0.917   6.739
 5508SOL    HW117423   0.369   0.898   6.656
 5508SOL    HW217424   0.314   0.836   6.796
 5509SOL     OW17425   0.041   5.539   0.168
 5509SOL    HW117426   7.012   5.623   0.170
 5509SOL    HW217427   0.073   5.519   0.260
 5510SOL     OW17428   3.940   5.254   6.832
 5510SOL    HW117429   3.906   5.181   6.891
 5510SOL    HW217430   4.031   5.230   6.798
 5511SOL     OW17431   0.556   1.245   5.581
 5511SOL    HW117432   0.629   1.197   5.531
 5511SOL    HW217433   0.490   1.283   5.516
 5512SOL     OW17434   3.763   0.927   2.434
 5512SOL    HW117435   3.726   0.975   2.354
 5512SOL    HW217436   3.803   0.840   2.405
 5513SOL     OW17437   4.111   5.115   6.575
 5513SOL    HW117438   4.013   5.109   6.560
 5513SOL    HW217439   4.160   5.063   6.505
 5514SOL     OW17440   2.818   0.205   6.167
 5514SOL    HW117441   2.868   0.286   6.197
 5514SOL    HW217442   2.765   0.167   6.243
 5515SOL     OW17443   2.495   5.966   2.287
 5515SOL    HW117444   2.495   5.878   2.239
 5515SOL    HW217445   2.534   5.954   2.378
 5516SOL     OW17446   2.438   2.720   5.139
 5516SOL    HW117447   2.408   2.813   5.117
 5516SOL    HW217448   2.501   2.723   5.216
 5517SOL     OW17449   1.856   3.542   2.850
 5517SOL    HW117450   1.819   3.451   2.831
 5517SOL    HW217451   1.785   3.611   2.836
 5518SOL     OW17452   4.550   4.136   5.748
 5518SOL    HW117453   4.627   4.118   5.810
 5518SOL    HW217454   4.543   4.061   5.682
 5519SOL     OW17455   4.754   2.271   3.732
 5519SOL    HW117456   4.838   2.229   3.697
 5519SOL    HW217457   4.675   2.229   3.689
 5520SOL     OW17458   5.164   6.710   1.955
 5520SOL    HW117459   5.093   6.644   1.984
 5520SOL    HW217460   5.199   6.683   1.865
 5521SOL     OW17461   6.040   6.098   1.548
 5521SOL    HW117462   6.024   6.073   1.453
 5521SOL    HW217463   5.954   6.124   1.591
 5522SOL     OW17464   5.961   5.765   0.681
 5522SOL    HW117465   5.898   5.842   0.691
 5522SOL    HW217466   5.998   5.764   0.588
 5523SOL     OW17467   5.283   0.929   2.376
 5523SOL    HW117468   5.293   0.905   2.473
 5523SOL    HW217469   5.350   0.879   2.322
 5524SOL     OW17470   2.757   0.968   4.337
 5524SOL    HW117471   2.783   0.992   4.430
 5524SOL    HW217472   2.698   1.040   4.299
 5525SOL     OW17473   6.182   1.751   1.153
 5525SOL    HW117474   6.253   1.688   1.184
 5525SOL    HW217475   6.100   1.699   1.128
 5526SOL     OW17476   4.503   5.146   3.234
 5526SOL    HW117477   4.584   5.204   3.225
 5526SOL    HW217478   4.427   5.185   3.182
 5527SOL     OW17479   5.822   1.889   3.976
 5527SOL    HW117480   5.728   1.923   3.967
 5527SOL    HW217481   5.863   1.880   3.886
 5528SOL     OW17482   0.875   1.459   1.305
 5528SOL    HW117483   0.927   1.478   1.222
 5528SOL    HW217484   0.929   1.486   1.385
 5529SOL     OW17485   3.798   0.834   1.917
 5529SOL    HW117486   3.742   0.756   1.944
 5529SOL    HW217487   3.753   0.919   1.945
 5530SOL     OW17488   6.600   2.300   1.238
 5530SOL    HW117489   6.630   2.343   1.153
 5530SOL    HW217490   6.548   2.366   1.292
 5531SOL     OW17491   2.813   4.094   1.258
 5531SOL    HW117492   2.815   4.175   1.317
 5531SOL    HW217493   2.732   4.097   1.200
 5532SOL     OW17494   1.775   3.131   1.593
 5532SOL    HW117495   1.849   3.143   1.527
 5532SOL    HW217496   1.687   3.135   1.546
 5533SOL     OW17497   4.479   1.898   3.809
 5533SOL    HW117498   4.499   1.959   3.886
 5533SOL    HW217499   4.421   1.823   3.840
 5534SOL     OW17500   0.771   1.077   4.766
 5534SOL    HW117501   0.830   1.053   4.689
 5534SOL    HW217502   0.808   1.156   4.814
 5535SOL     OW17503   0.717   2.052   3.239
 5535SOL    HW117504   0.811   2.071   3.210
 5535SOL    HW217505   0.664   2.137   3.239
 5536SOL     OW17506   3.701   0.313   4.329
 5536SOL    HW117507   3.739   0.383   4.390
 5536SOL    HW217508   3.735   0.328   4.236
 5537SOL     OW17509   3.502   1.023   3.018
 5537SOL    HW117510   3.565   0.982   2.952
 5537SOL    HW217511   3.550   1.093   3.071
 5538SOL     OW17512   4.529   5.795   4.450
 5538SOL    HW117513   4.616   5.832   4.417
 5538SOL    HW217514   4.546   5.734   4.527
 5539SOL     OW17515   2.229   3.693   0.330
 5539SOL    HW117516   2.228   3.608   0.383
 5539SOL    HW217517   2.142   3.702   0.281
 5540SOL     OW17518   5.548   4.612   2.258
 5540SOL    HW117519   5.524   4.650   2.169
 5540SOL    HW217520   5.504   4.665   2.331
 5541SOL     OW17521   4.414   1.619   5.272
 5541SOL    HW117522   4.474   1.540   5.284
 5541SOL    HW217523   4.342   1.596   5.207
 5542SOL     OW17524   4.997   4.275   5.661
 5542SOL    HW117525   4.965   4.361   5.702
 5542SOL    HW217526   5.033   4.293   5.569
 5543SOL     OW17527   6.646   2.354   5.852
 5543SOL    HW117528   6.719   2.369   5.918
 5543SOL    HW217529   6.575   2.424   5.864
 5544SOL     OW17530   6.010   1.239   5.958
 5544SOL    HW117531   6.047   1.160   5.909
 5544SOL    HW217532   5.995   1.314   5.894
 5545SOL     OW17533   3.114   2.132   1.973
 5545SOL    HW117534   3.034   2.191   1.960
 5545SOL    HW217535   3.104   2.080   2.058
 5546SOL     OW17536   1.852   5.187   5.888
 5546SOL    HW117537   1.934   5.205   5.942
 5546SOL    HW217538   1.855   5.093   5.853
 5547SOL     OW17539   3.995   5.596   5.042
 5547SOL    HW117540   4.003   5.660   4.966
 5547SOL    HW217541   3.982   5.503   5.006
 5548SOL     OW17542   6.861   3.331   5.456
 5548SOL    HW117543   6.851   3.405   5.522
 5548SOL    HW217544   6.815   3.249   5.490
 5549SOL     OW17545   2.823   4.656   6.552
 5549SOL    HW117546   2.818   4.674   6.454
 5549SOL    HW217547   2.892   4.715   6.593
 5550SOL     OW17548   3.842   6.620   1.433
 5550SOL    HW117549   3.919   6.621   1.369
 5550SOL    HW217550   3.859   6.554   1.505
 5551SOL     OW17551   0.705   1.240   3.380
 5551SOL    HW117552   0.654   1.202   3.303
 5551SOL    HW217553   0.757   1.167   3.424
 5552SOL     OW17554   0.256   2.776   2.081
 5552SOL    HW117555   0.329   2.717   2.116
 5552SOL    HW217556   0.244   2.854   2.142
 5553SOL     OW17557   4.824   6.008   0.083
 5553SOL    HW117558   4.840   6.015   0.181
 5553SOL    HW217559   4.850   6.095   0.039
 5554SOL     OW17560   2.893   1.704   4.659
 5554SOL    HW117561   2.867   1.759   4.579
 5554SOL    HW217562   2.993   1.706   4.669
 5555SOL     OW17563   0.166   5.767   2.639
 5555SOL    HW117564   0.226   5.803   2.567
 5555SOL    HW217565   0.220   5.714   2.704
 5556SOL     OW17566   0.370   0.988   4.811
 5556SOL    HW117567   0.313   0.926   4.757
 5556SOL    HW217568   0.378   0.952   4.904
 5557SOL     OW17569   2.648   0.248   3.615
 5557SOL    HW117570   2.692   0.169   3.573
 5557SOL    HW217571   2.670   0.330   3.562
 5558SOL     OW17572   5.152   2.846   4.797
 5558SOL    HW117573   5.206   2.930   4.798
 5558SOL    HW217574   5.210   2.769   4.771
 5559SOL     OW17575   1.593   0.828   1.298
 5559SOL    HW117576   1.685   0.856   1.273
 5559SOL    HW217577   1.574   0.855   1.392
 5560SOL     OW17578   6.994   0.858   4.032
 5560SOL    HW117579   6.995   0.925   4.105
 5560SOL    HW217580   0.061   0.849   3.993
 5561SOL     OW17581   1.383   3.809   3.727
 5561SOL    HW117582   1.345   3.800   3.635
 5561SOL    HW217583   1.483   3.802   3.723
 5562SOL     OW17584   2.293   2.582   5.608
 5562SOL    HW117585   2.286   2.608   5.512
 5562SOL    HW217586   2.388   2.592   5.638
 5563SOL     OW17587   4.247   5.011   1.051
 5563SOL    HW117588   4.229   5.074   0.975
 5563SOL    HW217589   4.160   4.986   1.094
 5564SOL     OW17590   6.154   4.523   1.757
 5564SOL    HW117591   6.063   4.540   1.794
 5564SOL    HW217592   6.221   4.525   1.831
 5565SOL     OW17593   2.893   3.351   5.462
 5565SOL    HW117594   2.936   3.435   5.495
 5565SOL    HW217595   2.821   3.373   5.396
 5566SOL     OW17596   1.969   4.462   1.064
 5566SOL    HW117597   1.875   4.493   1.081
 5566SOL    HW217598   2.013   4.522   0.998
 5567SOL     OW17599   1.770   5.983   2.202
 5567SOL    HW117600   1.673   5.962   2.188
 5567SOL    HW217601   1.823   5.898   2.205
 5568SOL     OW17602   3.593   2.082   1.352
 5568SOL    HW117603   3.522   2.073   1.422
 5568SOL    HW217604   3.555   2.058   1.263
 5569SOL     OW17605   5.715   1.790   0.228
 5569SOL    HW117606   5.678   1.740   0.306
 5569SOL    HW217607   5.733   1.726   0.153
 5570SOL     OW17608   6.465   3.943   5.967
 5570SOL    HW117609   6.461   4.038   5.997
 5570SOL    HW217610   6.403   3.929   5.890
 5571SOL     OW17611   6.589   4.588   5.962
 5571SOL    HW117612   6.531   4.567   6.041
 5571SOL    HW217613   6.604   4.686   5.957
 5572SOL     OW17614   4.909   2.731   5.858
 5572SOL    HW117615   4.975   2.749   5.931
 5572SOL    HW217616   4.953   2.742   5.769
 5573SOL     OW17617   0.941   4.073   0.744
 5573SOL    HW117618   1.021   4.048   0.798
 5573SOL    HW217619   0.966   4.145   0.679
 5574SOL     OW17620   0.252   6.059   4.767
 5574SOL    HW117621   0.255   6.118   4.848
 5574SOL    HW217622   0.165   6.010   4.766
 5575SOL     OW17623   1.682   1.106   0.992
 5575SOL    HW117624   1.690   1.126   1.090
 5575SOL    HW217625   1.649   1.012   0.980
 5576SOL     OW17626   6.702   6.312   6.655
 5576SOL    HW117627   6.658   6.381   6.598
 5576SOL    HW217628   6.638   6.237   6.671
 5577SOL     OW17629   2.190   3.881   5.241
 5577SOL    HW117630   2.259   3.952   5.228
 5577SOL    HW217631   2.147   3.861   5.153
 5578SOL     OW17632   3.993   2.082   6.037
 5578SOL    HW117633   3.955   2.125   6.120
 5578SOL    HW217634   3.960   2.131   5.956
 5579SOL     OW17635   5.200   4.706   0.568
 5579SOL    HW117636   5.131   4.775   0.588
 5579SOL    HW217637   5.276   4.716   0.632
 5580SOL     OW17638   5.011   1.129   1.303
 5580SOL    HW117639   5.093   1.127   1.246
 5580SOL    HW217640   4.982   1.223   1.317
 5581SOL     OW17641   2.776   2.604   0.254
 5581SOL    HW117642   2.794   2.661   0.334
 5581SOL    HW217643   2.714   2.529   0.280
 5582SOL     OW17644   3.776   3.253   3.649
 5582SOL    HW117645   3.684   3.218   3.668
 5582SOL    HW217646   3.839   3.222   3.720
 5583SOL     OW17647   3.548   0.644   0.327
 5583SOL    HW117648   3.527   0.550   0.353
 5583SOL    HW217649   3.463   0.695   0.312
 5584SOL     OW17650   5.979   2.877   2.838
 5584SOL    HW117651   5.894   2.928   2.825
 5584SOL    HW217652   6.003   2.830   2.753
 5585SOL     OW17653   6.572   7.004   4.460
 5585SOL    HW117654   6.499   6.936   4.454
 5585SOL    HW217655   6.628   6.987   4.541
 5586SOL     OW17656   2.225   1.194   6.504
 5586SOL    HW117657   2.221   1.227   6.598
 5586SOL    HW217658   2.206   1.270   6.442
 5587SOL     OW17659   3.388   0.490   3.795
 5587SOL    HW117660   3.428   0.460   3.882
 5587SOL    HW217661   3.460   0.521   3.734
 5588SOL     OW17662   4.418   0.202   5.981
 5588SOL    HW117663   4.370   0.135   5.925
 5588SOL    HW217664   4.353   0.257   6.032
 5589SOL     OW17665   3.677   2.999   6.372
 5589SOL    HW117666   3.738   2.989   6.451
 5589SOL    HW217667   3.671   2.913   6.323
 5590SOL     OW17668   6.994   6.825   3.515
 5590SOL    HW117669   7.002   6.725   3.513
 5590SOL    HW217670   6.927   6.854   3.446
 5591SOL     OW17671   4.826   0.645   0.097
 5591SOL    HW117672   4.754   0.576   0.084
 5591SOL    HW217673   4.910   0.601   0.128
 5592SOL     OW17674   2.626   2.101   3.048
 5592SOL    HW117675   2.645   2.047   2.965
 5592SOL    HW217676   2.642   2.044   3.129
 5593SOL     OW17677   1.105   3.120   5.171
 5593SOL    HW117678   1.141   3.078   5.254
 5593SOL    HW217679   1.146   3.210   5.157
 5594SOL     OW17680   2.534   0.677   6.487
 5594SOL    HW117681   2.526   0.616   6.409
 5594SOL    HW217682   2.630   0.696   6.506
 5595SOL     OW17683   0.293   1.252   5.476
 5595SOL    HW117684   0.234   1.175   5.500
 5595SOL    HW217685   0.287   1.323   5.547
 5596SOL     OW17686   4.843   1.601   2.823
 5596SOL    HW117687   4.775   1.550   2.876
 5596SOL    HW217688   4.837   1.698   2.847
 5597SOL     OW17689   0.328   1.117   6.220
 5597SOL    HW117690   0.331   1.034   6.276
 5597SOL    HW217691   0.368   1.193   6.270
 5598SOL     OW17692   6.891   2.332   4.037
 5598SOL    HW117693   6.922   2.241   4.011
 5598SOL    HW217694   6.791   2.336   4.033
 5599SOL     OW17695   4.859   2.771   3.465
 5599SOL    HW117696   4.879   2.869   3.468
 5599SOL    HW217697   4.799   2.748   3.542
 5600SOL     OW17698   2.459   1.221   2.282
 5600SOL    HW117699   2.423   1.291   2.344
 5600SOL    HW217700   2.537   1.258   2.232
 5601SOL     OW17701   6.247   2.793   5.272
 5601SOL    HW117702   6.159   2.786   5.224
 5601SOL    HW217703   6.321   2.787   5.205
 5602SOL     OW17704   6.532   2.488   2.305
 5602SOL    HW117705   6.527   2.437   2.219
 5602SOL    HW217706   6.585   2.435   2.372
 5603SOL     OW17707   4.303   0.917   5.654
 5603SOL    HW117708   4.286   0.859   5.734
 5603SOL    HW217709   4.221   0.919   5.597
 5604SOL     OW17710   1.063   0.254   3.470
 5604SOL    HW117711   1.100   0.256   3.563
 5604SOL    HW217712   1.124   0.306   3.410
 5605SOL     OW17713   4.213   6.516   4.185
 5605SOL    HW117714   4.117   6.503   4.161
 5605SOL    HW217715   4.236   6.459   4.264
 5606SOL     OW17716   4.600   2.715   0.436
 5606SOL    HW117717   4.536   2.792   0.434
 5606SOL    HW217718   4.677   2.734   0.376
 5607SOL     OW17719   6.420   2.378   2.782
 5607SOL    HW117720   6.404   2.281   2.797
 5607SOL    HW217721   6.332   2.425   2.771
 5608SOL     OW17722   5.083   0.873   3.408
 5608SOL    HW117723   5.155   0.832   3.463
 5608SOL    HW217724   4.996   0.828   3.427
 5609SOL     OW17725   0.066   0.410   0.818
 5609SOL    HW117726   0.039   0.433   0.912
 5609SOL    HW217727   0.112   0.488   0.776
 5610SOL     OW17728   5.037   5.460   1.140
 5610SOL    HW117729   5.074   5.536   1.087
 5610SOL    HW217730   5.027   5.488   1.235
 5611SOL     OW17731   6.116   5.200   1.827
 5611SOL    HW117732   6.123   5.299   1.812
 5611SOL    HW217733   6.196   5.154   1.789
 5612SOL     OW17734   3.752   2.167   0.393
 5612SOL    HW117735   3.719   2.183   0.486
 5612SOL    HW217736   3.692   2.214   0.328
 5613SOL     OW17737   5.900   4.409   6.317
 5613SOL    HW117738   5.864   4.492   6.359
 5613SOL    HW217739   5.824   4.355   6.281
 5614SOL     OW17740   4.937   3.514   3.784
 5614SOL    HW117741   4.932   3.414   3.785
 5614SOL    HW217742   4.934   3.547   3.690
 5615SOL     OW17743   0.154   2.338   3.082
 5615SOL    HW117744   0.165   2.256   3.025
 5615SOL    HW217745   0.057   2.350   3.105
 5616SOL     OW17746   1.811   3.129   2.540
 5616SOL    HW117747   1.774   3.098   2.628
 5616SOL    HW217748   1.781   3.066   2.468
 5617SOL     OW17749   1.662   5.333   6.048
 5617SOL    HW117750   1.709   5.421   6.036
 5617SOL    HW217751   1.719   5.259   6.012
 5618SOL     OW17752   5.196   6.937   2.104
 5618SOL    HW117753   5.188   6.858   2.044
 5618SOL    HW217754   5.114   6.995   2.094
 5619SOL     OW17755   3.264   2.949   3.534
 5619SOL    HW117756   3.353   2.904   3.541
 5619SOL    HW217757   3.232   2.976   3.625
 5620SOL     OW17758   4.614   4.414   4.572
 5620SOL    HW117759   4.612   4.356   4.491
 5620SOL    HW217760   4.644   4.506   4.546
 5621SOL     OW17761   0.326   2.638   6.487
 5621SOL    HW117762   0.264   2.560   6.478
 5621SOL    HW217763   0.360   2.664   6.397
 5622SOL     OW17764   4.848   5.921   3.730
 5622SOL    HW117765   4.805   5.840   3.771
 5622SOL    HW217766   4.890   5.895   3.643
 5623SOL     OW17767   4.909   5.181   4.548
 5623SOL    HW117768   4.837   5.248   4.529
 5623SOL    HW217769   4.868   5.090   4.555
 5624SOL     OW17770   5.547   5.305   3.235
 5624SOL    HW117771   5.624   5.321   3.172
 5624SOL    HW217772   5.465   5.285   3.182
 5625SOL     OW17773   1.813   5.783   5.589
 5625SOL    HW117774   1.845   5.693   5.616
 5625SOL    HW217775   1.810   5.842   5.670
 5626SOL     OW17776   0.903   4.728   6.507
 5626SOL    HW117777   0.869   4.738   6.413
 5626SOL    HW217778   0.999   4.700   6.505
 5627SOL     OW17779   1.073   5.721   6.669
 5627SOL    HW117780   1.031   5.753   6.754
 5627SOL    HW217781   1.165   5.688   6.688
 5628SOL     OW17782   2.703   3.345   0.580
 5628SOL    HW117783   2.640   3.270   0.562
 5628SOL    HW217784   2.797   3.310   0.576
 5629SOL     OW17785   5.858   3.495   2.610
 5629SOL    HW117786   5.766   3.475   2.642
 5629SOL    HW217787   5.918   3.417   2.630
 5630SOL     OW17788   1.114   4.273   6.650
 5630SOL    HW117789   1.117   4.176   6.674
 5630SOL    HW217790   1.123   4.328   6.732
 5631SOL     OW17791   3.671   1.834   1.837
 5631SOL    HW117792   3.602   1.782   1.788
 5631SOL    HW217793   3.691   1.919   1.788
 5632SOL     OW17794   5.003   6.734   5.928
 5632SOL    HW117795   5.035   6.682   5.849
 5632SOL    HW217796   4.941   6.806   5.897
 5633SOL     OW17797   0.989   5.167   5.223
 5633SOL    HW117798   1.071   5.194   5.173
 5633SOL    HW217799   0.963   5.239   5.288
 5634SOL     OW17800   2.164   0.693   1.310
 5634SOL    HW117801   2.113   0.620   1.265
 5634SOL    HW217802   2.139   0.781   1.269
 5635SOL     OW17803   2.950   0.719   0.950
 5635SOL    HW117804   2.914   0.810   0.932
 5635SOL    HW217805   3.048   0.717   0.931
 5636SOL     OW17806   5.424   1.560   5.964
 5636SOL    HW117807   5.492   1.495   5.999
 5636SOL    HW217808   5.456   1.653   5.983
 5637SOL     OW17809   5.243   6.655   4.684
 5637SOL    HW117810   5.237   6.697   4.594
 5637SOL    HW217811   5.232   6.725   4.754
 5638SOL     OW17812   6.243   4.954   1.295
 5638SOL    HW117813   6.154   4.976   1.253
 5638SOL    HW217814   6.256   4.855   1.297
 5639SOL     OW17815   2.261   0.565   1.901
 5639SOL    HW117816   2.329   0.555   1.829
 5639SOL    HW217817   2.209   0.480   1.910
 5640SOL     OW17818   3.260   6.884   2.649
 5640SOL    HW117819   3.210   6.881   2.735
 5640SOL    HW217820   3.204   6.930   2.580
 5641SOL     OW17821   6.554   4.359   3.596
 5641SOL    HW117822   6.566   4.359   3.497
 5641SOL    HW217823   6.457   4.360   3.618
 5642SOL     OW17824   1.872   3.641   6.892
 5642SOL    HW117825   1.966   3.607   6.887
 5642SOL    HW217826   1.822   3.614   6.809
 5643SOL     OW17827   4.876   2.224   4.888
 5643SOL    HW117828   4.909   2.232   4.982
 5643SOL    HW217829   4.811   2.298   4.869
 5644SOL     OW17830   4.420   1.107   4.927
 5644SOL    HW117831   4.462   1.027   4.884
 5644SOL    HW217832   4.386   1.169   4.856
 5645SOL     OW17833   6.360   5.587   4.146
 5645SOL    HW117834   6.411   5.515   4.193
 5645SOL    HW217835   6.285   5.618   4.205
 5646SOL     OW17836   0.621   5.896   4.279
 5646SOL    HW117837   0.641   5.985   4.320
 5646SOL    HW217838   0.532   5.864   4.310
 5647SOL     OW17839   5.953   4.913   6.268
 5647SOL    HW117840   6.030   4.929   6.206
 5647SOL    HW217841   5.896   4.839   6.231
 5648SOL     OW17842   1.881   1.489   5.272
 5648SOL    HW117843   1.946   1.419   5.243
 5648SOL    HW217844   1.851   1.542   5.193
 5649SOL     OW17845   1.179   0.593   5.188
 5649SOL    HW117846   1.238   0.513   5.193
 5649SOL    HW217847   1.142   0.601   5.095
 5650SOL     OW17848   6.492   5.068   0.133
 5650SOL    HW117849   6.488   5.052   0.232
 5650SOL    HW217850   6.520   4.984   0.087
 5651SOL     OW17851   6.543   1.297   2.983
 5651SOL    HW117852   6.543   1.285   2.884
 5651SOL    HW217853   6.504   1.216   3.026
 5652SOL     OW17854   5.344   4.621   0.355
 5652SOL    HW117855   5.290   4.661   0.428
 5652SOL    HW217856   5.286   4.601   0.276
 5653SOL     OW17857   1.886   6.404   6.027
 5653SOL    HW117858   1.968   6.461   6.028
 5653SOL    HW217859   1.851   6.394   6.120
 5654SOL     OW17860   0.915   5.768   5.585
 5654SOL    HW117861   0.838   5.797   5.642
 5654SOL    HW217862   1.000   5.805   5.622
 5655SOL     OW17863   0.113   3.655   4.005
 5655SOL    HW117864   0.199   3.649   3.954
 5655SOL    HW217865   0.056   3.726   3.964
 5656SOL     OW17866   3.022   4.766   6.706
 5656SOL    HW117867   3.047   4.675   6.739
 5656SOL    HW217868   3.104   4.823   6.700
 5657SOL     OW17869   4.373   6.125   1.822
 5657SOL    HW117870   4.358   6.223   1.836
 5657SOL    HW217871   4.347   6.101   1.729
 5658SOL     OW17872   4.703   6.550   5.215
 5658SOL    HW117873   4.751   6.502   5.288
 5658SOL    HW217874   4.696   6.647   5.238
 5659SOL     OW17875   3.698   3.296   2.852
 5659SOL    HW117876   3.735   3.362   2.917
 5659SOL    HW217877   3.773   3.248   2.807
 5660SOL     OW17878   5.920   6.994   0.791
 5660SOL    HW117879   5.866   0.015   0.720
 5660SOL    HW217880   5.892   0.002   0.881
 5661SOL     OW17881   6.864   5.705   4.929
 5661SOL    HW117882   6.808   5.763   4.988
 5661SOL    HW217883   6.894   5.625   4.981
 5662SOL     OW17884   2.267   4.093   4.303
 5662SOL    HW117885   2.365   4.076   4.300
 5662SOL    HW217886   2.233   4.105   4.209
 5663SOL     OW17887   1.281   3.872   0.242
 5663SOL    HW117888   1.252   3.963   0.215
 5663SOL    HW217889   1.241   3.804   0.181
 5664SOL     OW17890   0.420   4.935   3.112
 5664SOL    HW117891   0.481   4.866   3.150
 5664SOL    HW217892   0.473   5.001   3.059
 5665SOL     OW17893   2.242   2.117   6.307
 5665SOL    HW117894   2.303   2.195   6.297
 5665SOL    HW217895   2.210   2.088   6.216
 5666SOL     OW17896   6.151   5.514   0.243
 5666SOL    HW117897   6.195   5.525   0.154
 5666SOL    HW217898   6.136   5.417   0.261
 5667SOL     OW17899   0.446   5.453   3.651
 5667SOL    HW117900   0.540   5.425   3.671
 5667SOL    HW217901   0.443   5.552   3.640
 5668SOL     OW17902   6.080   2.427   5.374
 5668SOL    HW117903   6.082   2.517   5.417
 5668SOL    HW217904   6.171   2.404   5.339
 5669SOL     OW17905   6.814   3.194   5.761
 5669SOL    HW117906   6.750   3.167   5.689
 5669SOL    HW217907   6.908   3.181   5.730
 5670SOL     OW17908   1.414   4.290   3.727
 5670SOL    HW117909   1.417   4.252   3.635
 5670SOL    HW217910   1.360   4.374   3.727
 5671SOL     OW17911   1.843   1.159   5.669
 5671SOL    HW117912   1.851   1.102   5.751
 5671SOL    HW217913   1.832   1.100   5.589
 5672SOL     OW17914   5.343   4.659   5.565
 5672SOL    HW117915   5.357   4.560   5.556
 5672SOL    HW217916   5.248   4.678   5.588
 5673SOL     OW17917   1.263   0.574   1.927
 5673SOL    HW117918   1.287   0.610   2.017
 5673SOL    HW217919   1.217   0.646   1.874
 5674SOL     OW17920   6.503   3.546   1.167
 5674SOL    HW117921   6.587   3.516   1.212
 5674SOL    HW217922   6.473   3.633   1.206
 5675SOL     OW17923   4.228   2.261   5.509
 5675SOL    HW117924   4.257   2.353   5.483
 5675SOL    HW217925   4.211   2.207   5.427
 5676SOL     OW17926   2.949   0.416   1.522
 5676SOL    HW117927   2.855   0.381   1.525
 5676SOL    HW217928   2.999   0.370   1.448
 5677SOL     OW17929   0.131   0.037   4.317
 5677SOL    HW117930   0.132   7.008   4.401
 5677SOL    HW217931   0.036   0.048   4.286
 5678SOL     OW17932   1.660   5.492   3.165
 5678SOL    HW117933   1.744   5.545   3.162
 5678SOL    HW217934   1.586   5.548   3.203
 5679SOL     OW17935   2.243   6.245   5.051
 5679SOL    HW117936   2.166   6.290   5.006
 5679SOL    HW217937   2.208   6.180   5.118
 5680SOL     OW17938   2.402   6.876   6.354
 5680SOL    HW117939   2.437   6.841   6.441
 5680SOL    HW217940   2.456   6.955   6.325
 5681SOL     OW17941   0.916   3.477   0.885
 5681SOL    HW117942   0.942   3.406   0.951
 5681SOL    HW217943   0.829   3.518   0.912
 5682SOL     OW17944   0.940   4.000   4.126
 5682SOL    HW117945   0.930   3.910   4.083
 5682SOL    HW217946   1.002   3.993   4.204
 5683SOL     OW17947   3.596   2.569   5.352
 5683SOL    HW117948   3.501   2.597   5.362
 5683SOL    HW217949   3.651   2.648   5.325
 5684SOL     OW17950   3.271   3.931   3.333
 5684SOL    HW117951   3.315   3.943   3.244
 5684SOL    HW217952   3.305   3.847   3.376
 5685SOL     OW17953   6.992   5.055   1.915
 5685SOL    HW117954   6.925   5.017   1.980
 5685SOL    HW217955   6.956   5.139   1.875
 5686SOL     OW17956   3.270   6.352   6.845
 5686SOL    HW117957   3.219   6.352   6.931
 5686SOL    HW217958   3.210   6.321   6.771
 5687SOL     OW17959   5.235   5.303   6.001
 5687SOL    HW117960   5.243   5.330   5.904
 5687SOL    HW217961   5.215   5.205   6.007
 5688SOL     OW17962   5.864   1.684   1.951
 5688SOL    HW117963   5.783   1.734   1.981
 5688SOL    HW217964   5.866   1.680   1.851
 5689SOL     OW17965   3.617   2.762   0.728
 5689SOL    HW117966   3.557   2.800   0.798
 5689SOL    HW217967   3.661   2.836   0.678
 5690SOL     OW17968   5.123   6.728   1.446
 5690SOL    HW117969   5.215   6.755   1.471
 5690SOL    HW217970   5.105   6.750   1.351
 5691SOL     OW17971   1.673   0.300   2.301
 5691SOL    HW117972   1.710   0.312   2.393
 5691SOL    HW217973   1.594   0.238   2.304
 5692SOL     OW17974   5.371   2.934   6.646
 5692SOL    HW117975   5.378   2.845   6.601
 5692SOL    HW217976   5.340   3.003   6.580
 5693SOL     OW17977   4.768   2.668   3.213
 5693SOL    HW117978   4.693   2.603   3.227
 5693SOL    HW217979   4.782   2.721   3.298
 5694SOL     OW17980   0.269   1.979   4.135
 5694SOL    HW117981   0.306   1.924   4.209
 5694SOL    HW217982   0.264   1.924   4.051
 5695SOL     OW17983   1.893   3.607   3.154
 5695SOL    HW117984   1.917   3.523   3.106
 5695SOL    HW217985   1.890   3.683   3.089
 5696SOL     OW17986   3.141   0.084   5.475
 5696SOL    HW117987   3.222   0.127   5.434
 5696SOL    HW217988   3.122   0.128   5.563
 5697SOL     OW17989   6.358   3.321   0.113
 5697SOL    HW117990   6.364   3.413   0.072
 5697SOL    HW217991   6.409   3.256   0.056
 5698SOL     OW17992   0.306   3.915   2.090
 5698SOL    HW117993   0.336   3.856   2.015
 5698SOL    HW217994   0.210   3.940   2.077
 5699SOL     OW17995   6.023   0.978   5.264
 5699SOL    HW117996   5.957   0.997   5.191
 5699SOL    HW217997   6.097   1.045   5.260
 5700SOL     OW17998   1.451   5.641   3.312
 5700SOL    HW117999   1.415   5.732   3.331
 5700SOL    HW218000   1.482   5.599   3.398
 5701SOL     OW18001   6.074   5.095   1.500
 5701SOL    HW118002   6.129   5.023   1.457
 5701SOL    HW218003   6.073   5.176   1.442
 5702SOL     OW18004   1.782   0.623   6.599
 5702SOL    HW118005   1.834   0.538   6.593
 5702SOL    HW218006   1.843   0.698   6.627
 5703SOL     OW18007   4.107   4.208   0.627
 5703SOL    HW118008   4.048   4.225   0.706
 5703SOL    HW218009   4.202   4.200   0.656
 5704SOL     OW18010   3.606   5.489   3.597
 5704SOL    HW118011   3.660   5.471   3.679
 5704SOL    HW218012   3.573   5.584   3.600
 5705SOL     OW18013   6.147   0.980   1.910
 5705SOL    HW118014   6.165   0.933   1.824
 5705SOL    HW218015   6.197   0.935   1.984
 5706SOL     OW18016   1.792   1.448   6.790
 5706SOL    HW118017   1.765   1.518   6.855
 5706SOL    HW218018   1.712   1.417   6.739
 5707SOL     OW18019   3.330   2.419   0.201
 5707SOL    HW118020   3.271   2.388   0.126
 5707SOL    HW218021   3.279   2.418   0.286
 5708SOL     OW18022   5.388   6.816   1.516
 5708SOL    HW118023   5.455   6.842   1.447
 5708SOL    HW218024   5.433   6.765   1.589
 5709SOL     OW18025   1.788   0.768   2.902
 5709SOL    HW118026   1.741   0.690   2.861
 5709SOL    HW218027   1.749   0.853   2.867
 5710SOL     OW18028   3.085   3.284   6.595
 5710SOL    HW118029   3.002   3.293   6.542
 5710SOL    HW218030   3.103   3.188   6.616
 5711SOL     OW18031   3.767   1.070   3.952
 5711SOL    HW118032   3.717   1.144   3.908
 5711SOL    HW218033   3.826   1.025   3.884
 5712SOL     OW18034   7.021   6.196   6.381
 5712SOL    HW118035   7.025   6.136   6.301
 5712SOL    HW218036   7.005   6.142   6.463
 5713SOL     OW18037   6.372   2.115   2.787
 5713SOL    HW118038   6.417   2.070   2.864
 5713SOL    HW218039   6.427   2.103   2.704
 5714SOL     OW18040   1.637   1.044   6.927
 5714SOL    HW118041   1.638   0.947   6.950
 5714SOL    HW218042   1.730   1.081   6.929
 5715SOL     OW18043   1.337   6.440   3.582
 5715SOL    HW118044   1.426   6.395   3.574
 5715SOL    HW218045   1.265   6.371   3.584
 5716SOL     OW18046   2.440   3.262   6.091
 5716SOL    HW118047   2.373   3.306   6.030
 5716SOL    HW218048   2.462   3.171   6.057
 5717SOL     OW18049   0.666   3.973   0.805
 5717SOL    HW118050   0.759   3.977   0.770
 5717SOL    HW218051   0.602   3.998   0.733
 5718SOL     OW18052   2.460   4.292   5.640
 5718SOL    HW118053   2.448   4.389   5.619
 5718SOL    HW218054   2.512   4.249   5.566
 5719SOL     OW18055   3.460   0.898   6.417
 5719SOL    HW118056   3.457   0.984   6.367
 5719SOL    HW218057   3.486   0.824   6.354
 5720SOL     OW18058   1.477   4.793   4.301
 5720SOL    HW118059   1.562   4.776   4.350
 5720SOL    HW218060   1.483   4.880   4.251
 5721SOL     OW18061   0.901   4.419   1.413
 5721SOL    HW118062   0.904   4.322   1.436
 5721SOL    HW218063   0.900   4.473   1.496
 5722SOL     OW18064   5.501   0.392   4.478
 5722SOL    HW118065   5.530   0.473   4.528
 5722SOL    HW218066   5.424   0.349   4.526
 5723SOL     OW18067   2.201   5.149   0.900
 5723SOL    HW118068   2.250   5.065   0.924
 5723SOL    HW218069   2.264   5.213   0.854
 5724SOL     OW18070   5.133   1.813   6.961
 5724SOL    HW118071   5.161   1.871   6.884
 5724SOL    HW218072   5.137   1.717   6.933
 5725SOL     OW18073   5.041   5.239   6.250
 5725SOL    HW118074   5.005   5.297   6.177
 5725SOL    HW218075   4.971   5.175   6.280
 5726SOL     OW18076   5.648   3.438   6.115
 5726SOL    HW118077   5.672   3.525   6.158
 5726SOL    HW218078   5.731   3.392   6.084
 5727SOL     OW18079   6.486   1.833   3.858
 5727SOL    HW118080   6.492   1.806   3.954
 5727SOL    HW218081   6.390   1.837   3.830
 5728SOL     OW18082   6.240   0.595   5.976
 5728SOL    HW118083   6.142   0.574   5.970
 5728SOL    HW218084   6.251   0.685   6.020
 5729SOL     OW18085   0.418   2.106   5.824
 5729SOL    HW118086   0.513   2.135   5.822
 5729SOL    HW218087   0.408   2.027   5.885
 5730SOL     OW18088   5.273   4.492   5.938
 5730SOL    HW118089   5.314   4.473   6.027
 5730SOL    HW218090   5.339   4.472   5.866
 5731SOL     OW18091   3.391   0.890   4.016
 5731SOL    HW118092   3.431   0.960   3.957
 5731SOL    HW218093   3.335   0.828   3.961
 5732SOL     OW18094   5.644   4.137   4.625
 5732SOL    HW118095   5.602   4.222   4.594
 5732SOL    HW218096   5.575   4.065   4.627
 5733SOL     OW18097   2.969   1.254   0.393
 5733SOL    HW118098   3.031   1.318   0.438
 5733SOL    HW218099   2.925   1.195   0.461
 5734SOL     OW18100   2.356   6.157   5.714
 5734SOL    HW118101   2.416   6.230   5.749
 5734SOL    HW218102   2.399   6.115   5.634
 5735SOL     OW18103   4.080   0.844   1.985
 5735SOL    HW118104   4.107   0.862   2.079
 5735SOL    HW218105   3.980   0.839   1.979
 5736SOL     OW18106   5.022   4.320   6.504
 5736SOL    HW118107   5.111   4.362   6.521
 5736SOL    HW218108   4.949   4.381   6.533
 5737SOL     OW18109   3.761   5.434   1.080
 5737SOL    HW118110   3.713   5.521   1.069
 5737SOL    HW218111   3.695   5.359   1.075
 5738SOL     OW18112   3.210   1.439   6.916
 5738SOL    HW118113   3.168   1.507   6.976
 5738SOL    HW218114   3.299   1.473   6.884
 5739SOL     OW18115   2.196   0.654   5.668
 5739SOL    HW118116   2.210   0.593   5.746
 5739SOL    HW218117   2.265   0.726   5.669
 5740SOL     OW18118   5.516   3.065   2.345
 5740SOL    HW118119   5.585   3.106   2.403
 5740SOL    HW218120   5.447   3.133   2.321
 5741SOL     OW18121   0.134   3.503   4.503
 5741SOL    HW118122   0.215   3.543   4.460
 5741SOL    HW218123   0.072   3.575   4.531
 5742SOL     OW18124   5.177   0.420   3.971
 5742SOL    HW118125   5.181   0.510   4.014
 5742SOL    HW218126   5.224   0.353   4.030
 5743SOL     OW18127   4.261   3.600   6.110
 5743SOL    HW118128   4.334   3.661   6.143
 5743SOL    HW218129   4.302   3.516   6.074
 5744SOL     OW18130   5.981   6.869   2.419
 5744SOL    HW118131   5.887   6.893   2.441
 5744SOL    HW218132   6.015   6.804   2.487
 5745SOL     OW18133   1.986   1.876   2.415
 5745SOL    HW118134   2.063   1.936   2.391
 5745SOL    HW218135   1.916   1.882   2.344
 5746SOL     OW18136   4.342   0.696   3.644
 5746SOL    HW118137   4.441   0.681   3.650
 5746SOL    HW218138   4.314   0.695   3.548
 5747SOL     OW18139   0.718   6.200   0.870
 5747SOL    HW118140   0.655   6.265   0.914
 5747SOL    HW218141   0.735   6.123   0.932
 5748SOL     OW18142   0.715   5.710   0.451
 5748SOL    HW118143   0.650   5.786   0.457
 5748SOL    HW218144   0.802   5.736   0.493
 5749SOL     OW18145   1.775   6.019   5.753
 5749SOL    HW118146   1.747   6.064   5.668
 5749SOL    HW218147   1.836   6.081   5.804
 5750SOL     OW18148   6.222   4.558   4.331
 5750SOL    HW118149   6.236   4.547   4.233
 5750SOL    HW218150   6.154   4.630   4.348
 5751SOL     OW18151   1.856   3.661   4.414
 5751SOL    HW118152   1.876   3.752   4.450
 5751SOL    HW218153   1.931   3.632   4.354
 5752SOL     OW18154   5.255   0.529   0.521
 5752SOL    HW118155   5.201   0.490   0.446
 5752SOL    HW218156   5.209   0.512   0.608
 5753SOL     OW18157   3.462   4.116   5.114
 5753SOL    HW118158   3.447   4.023   5.079
 5753SOL    HW218159   3.380   4.170   5.099
 5754SOL     OW18160   0.968   5.947   1.198
 5754SOL    HW118161   0.972   6.046   1.182
 5754SOL    HW218162   1.014   5.925   1.284
 5755SOL     OW18163   1.399   2.670   6.672
 5755SOL    HW118164   1.361   2.631   6.757
 5755SOL    HW218165   1.497   2.652   6.669
 5756SOL     OW18166   5.957   5.998   1.297
 5756SOL    HW118167   5.991   5.949   1.217
 5756SOL    HW218168   5.859   6.013   1.287
 5757SOL     OW18169   6.240   6.864   4.205
 5757SOL    HW118170   6.146   6.833   4.217
 5757SOL    HW218171   6.293   6.793   4.158
 5758SOL     OW18172   6.977   0.342   2.543
 5758SOL    HW118173   6.909   0.269   2.551
 5758SOL    HW218174   7.012   0.345   2.449
 5759SOL     OW18175   4.156   0.237   0.937
 5759SOL    HW118176   4.105   0.235   1.023
 5759SOL    HW218177   4.158   0.330   0.901
 5760SOL     OW18178   0.945   3.023   1.234
 5760SOL    HW118179   0.914   2.984   1.320
 5760SOL    HW218180   0.929   2.958   1.160
 5761SOL     OW18181   5.773   6.225   4.551
 5761SOL    HW118182   5.869   6.223   4.580
 5761SOL    HW218183   5.735   6.133   4.559
 5762SOL     OW18184   5.939   5.031   6.993
 5762SOL    HW118185   5.888   4.949   7.018
 5762SOL    HW218186   6.022   5.037   0.024
 5763SOL     OW18187   5.360   0.122   0.372
 5763SOL    HW118188   5.434   0.074   0.325
 5763SOL    HW218189   5.283   0.060   0.385
 5764SOL     OW18190   4.206   6.232   4.055
 5764SOL    HW118191   4.120   6.182   4.044
 5764SOL    HW218192   4.228   6.280   3.971
 5765SOL     OW18193   6.468   5.706   1.513
 5765SOL    HW118194   6.399   5.647   1.553
 5765SOL    HW218195   6.519   5.752   1.586
 5766SOL     OW18196   0.379   2.219   4.605
 5766SOL    HW118197   0.284   2.196   4.584
 5766SOL    HW218198   0.434   2.211   4.523
 5767SOL     OW18199   2.639   0.444   0.358
 5767SOL    HW118200   2.616   0.500   0.438
 5767SOL    HW218201   2.555   0.405   0.320
 5768SOL     OW18202   0.819   6.604   4.942
 5768SOL    HW118203   0.746   6.640   4.884
 5768SOL    HW218204   0.780   6.542   5.010
 5769SOL     OW18205   1.407   4.750   6.279
 5769SOL    HW118206   1.422   4.652   6.292
 5769SOL    HW218207   1.318   4.765   6.236
 5770SOL     OW18208   2.262   4.930   1.645
 5770SOL    HW118209   2.186   4.885   1.599
 5770SOL    HW218210   2.337   4.864   1.656
 5771SOL     OW18211   2.231   5.325   3.703
 5771SOL    HW118212   2.241   5.423   3.685
 5771SOL    HW218213   2.302   5.275   3.654
 5772SOL     OW18214   3.912   0.626   2.146
 5772SOL    HW118215   3.974   0.652   2.071
 5772SOL    HW218216   3.819   0.616   2.109
 5773SOL     OW18217   4.076   2.214   2.957
 5773SOL    HW118218   4.151   2.149   2.952
 5773SOL    HW218219   4.048   2.242   2.865
 5774SOL     OW18220   0.168   6.255   2.773
 5774SOL    HW118221   0.091   6.193   2.789
 5774SOL    HW218222   0.216   6.271   2.860
 5775SOL     OW18223   0.110   5.735   1.791
 5775SOL    HW118224   0.099   5.662   1.724
 5775SOL    HW218225   0.038   5.728   1.860
 5776SOL     OW18226   2.253   0.285   4.099
 5776SOL    HW118227   2.210   0.221   4.035
 5776SOL    HW218228   2.306   0.352   4.047
 5777SOL     OW18229   2.124   6.784   3.408
 5777SOL    HW118230   2.170   6.841   3.340
 5777SOL    HW218231   2.025   6.793   3.398
 5778SOL     OW18232   0.702   1.389   0.513
 5778SOL    HW118233   0.626   1.453   0.501
 5778SOL    HW218234   0.772   1.431   0.570
 5779SOL     OW18235   5.563   2.502   6.974
 5779SOL    HW118236   5.622   2.581   6.989
 5779SOL    HW218237   5.469   2.527   6.996
 5780SOL     OW18238   5.670   5.527   3.781
 5780SOL    HW118239   5.589   5.487   3.825
 5780SOL    HW218240   5.720   5.455   3.732
 5781SOL     OW18241   0.853   4.037   5.734
 5781SOL    HW118242   0.879   3.996   5.647
 5781SOL    HW218243   0.799   4.120   5.717
 5782SOL     OW18244   6.978   1.058   0.535
 5782SOL    HW118245   0.025   1.019   0.592
 5782SOL    HW218246   7.003   1.048   0.439
 5783SOL     OW18247   2.001   1.756   1.622
 5783SOL    HW118248   2.044   1.690   1.683
 5783SOL    HW218249   1.932   1.808   1.672
 5784SOL     OW18250   0.524   6.250   6.421
 5784SOL    HW118251   0.509   6.194   6.339
 5784SOL    HW218252   0.554   6.192   6.496
 5785SOL     OW18253   1.625   1.550   1.111
 5785SOL    HW118254   1.699   1.539   1.044
 5785SOL    HW218255   1.637   1.637   1.160
 5786SOL     OW18256   6.341   3.886   0.809
 5786SOL    HW118257   6.306   3.967   0.764
 5786SOL    HW218258   6.309   3.884   0.904
 5787SOL     OW18259   2.976   1.763   5.767
 5787SOL    HW118260   3.049   1.745   5.702
 5787SOL    HW218261   2.968   1.687   5.830
 5788SOL     OW18262   3.258   0.909   2.762
 5788SOL    HW118263   3.343   0.957   2.781
 5788SOL    HW218264   3.239   0.911   2.664
 5789SOL     OW18265   4.105   5.061   5.960
 5789SOL    HW118266   4.158   4.981   5.932
 5789SOL    HW218267   4.008   5.045   5.939
 5790SOL     OW18268   0.859   2.729   4.129
 5790SOL    HW118269   0.792   2.794   4.166
 5790SOL    HW218270   0.919   2.777   4.065
 5791SOL     OW18271   2.874   0.419   2.576
 5791SOL    HW118272   2.845   0.329   2.545
 5791SOL    HW218273   2.962   0.412   2.622
 5792SOL     OW18274   6.746   2.230   3.286
 5792SOL    HW118275   6.811   2.271   3.222
 5792SOL    HW218276   6.653   2.245   3.253
 5793SOL     OW18277   6.161   1.044   3.843
 5793SOL    HW118278   6.242   1.090   3.809
 5793SOL    HW218279   6.179   1.006   3.934
 5794SOL     OW18280   3.575   3.547   6.904
 5794SOL    HW118281   3.577   3.552   7.004
 5794SOL    HW218282   3.637   3.615   6.866
 5795SOL     OW18283   5.984   4.243   5.501
 5795SOL    HW118284   5.980   4.338   5.530
 5795SOL    HW218285   6.063   4.198   5.542
 5796SOL     OW18286   3.707   2.175   6.882
 5796SOL    HW118287   3.773   2.112   6.922
 5796SOL    HW218288   3.628   2.124   6.849
 5797SOL     OW18289   3.385   2.074   4.838
 5797SOL    HW118290   3.345   2.079   4.930
 5797SOL    HW218291   3.316   2.099   4.770
 5798SOL     OW18292   6.611   4.415   5.101
 5798SOL    HW118293   6.560   4.501   5.108
 5798SOL    HW218294   6.579   4.352   5.172
 5799SOL     OW18295   5.685   6.767   3.325
 5799SOL    HW118296   5.598   6.736   3.363
 5799SOL    HW218297   5.760   6.713   3.363
 5800SOL     OW18298   5.733   4.608   0.677
 5800SOL    HW118299   5.749   4.558   0.592
 5800SOL    HW218300   5.717   4.705   0.656
 5801SOL     OW18301   0.850   1.042   3.739
 5801SOL    HW118302   0.811   1.053   3.831
 5801SOL    HW218303   0.777   1.033   3.672
 5802SOL     OW18304   0.236   4.086   5.990
 5802SOL    HW118305   0.227   3.987   5.983
 5802SOL    HW218306   0.324   4.115   5.952
 5803SOL     OW18307   1.439   4.487   0.780
 5803SOL    HW118308   1.381   4.565   0.756
 5803SOL    HW218309   1.530   4.500   0.741
 5804SOL     OW18310   5.973   4.260   4.312
 5804SOL    HW118311   5.986   4.345   4.364
 5804SOL    HW218312   6.038   4.191   4.344
 5805SOL     OW18313   5.049   3.681   6.259
 5805SOL    HW118314   4.964   3.668   6.310
 5805SOL    HW218315   5.070   3.598   6.208
 5806SOL     OW18316   0.371   6.406   0.281
 5806SOL    HW118317   0.412   6.448   0.200
 5806SOL    HW218318   0.386   6.463   0.361
 5807SOL     OW18319   1.442   3.502   1.029
 5807SOL    HW118320   1.468   3.512   0.933
 5807SOL    HW218321   1.354   3.548   1.045
 5808SOL     OW18322   5.790   4.585   2.394
 5808SOL    HW118323   5.722   4.621   2.331
 5808SOL    HW218324   5.786   4.485   2.395
 5809SOL     OW18325   0.039   3.206   4.404
 5809SOL    HW118326   6.976   3.166   4.378
 5809SOL    HW218327   0.025   3.302   4.432
 5810SOL     OW18328   3.161   1.547   3.465
 5810SOL    HW118329   3.230   1.616   3.485
 5810SOL    HW218330   3.122   1.513   3.551
 5811SOL     OW18331   2.803   0.273   4.339
 5811SOL    HW118332   2.842   0.351   4.387
 5811SOL    HW218333   2.710   0.296   4.308
 5812SOL     OW18334   4.842   0.230   3.321
 5812SOL    HW118335   4.907   0.187   3.259
 5812SOL    HW218336   4.826   0.325   3.292
 5813SOL     OW18337   1.687   1.132   5.207
 5813SOL    HW118338   1.703   1.211   5.267
 5813SOL    HW218339   1.718   1.049   5.253
 5814SOL     OW18340   6.980   4.784   1.287
 5814SOL    HW118341   6.972   4.867   1.232
 5814SOL    HW218342   6.890   4.757   1.320
 5815SOL     OW18343   3.641   1.882   2.996
 5815SOL    HW118344   3.584   1.910   3.073
 5815SOL    HW218345   3.690   1.962   2.960
 5816SOL     OW18346   4.654   0.833   0.214
 5816SOL    HW118347   4.669   0.922   0.171
 5816SOL    HW218348   4.709   0.764   0.168
 5817SOL     OW18349   4.945   3.377   5.891
 5817SOL    HW118350   4.918   3.394   5.796
 5817SOL    HW218351   4.974   3.282   5.901
 5818SOL     OW18352   5.503   0.125   5.952
 5818SOL    HW118353   5.420   0.149   5.901
 5818SOL    HW218354   5.560   0.065   5.895
 5819SOL     OW18355   5.526   0.513   1.089
 5819SOL    HW118356   5.586   0.538   1.164
 5819SOL    HW218357   5.451   0.578   1.082
 5820SOL     OW18358   5.377   6.704   3.425
 5820SOL    HW118359   5.333   6.663   3.346
 5820SOL    HW218360   5.399   6.633   3.492
 5821SOL     OW18361   3.073   0.630   1.681
 5821SOL    HW118362   3.071   0.579   1.767
 5821SOL    HW218363   3.030   0.576   1.609
 5822SOL     OW18364   0.617   1.789   2.580
 5822SOL    HW118365   0.567   1.786   2.666
 5822SOL    HW218366   0.573   1.854   2.518
 5823SOL     OW18367   1.506   1.756   4.583
 5823SOL    HW118368   1.522   1.754   4.484
 5823SOL    HW218369   1.419   1.710   4.604
 5824SOL     OW18370   6.022   6.610   3.250
 5824SOL    HW118371   5.949   6.559   3.296
 5824SOL    HW218372   6.110   6.582   3.287
 5825SOL     OW18373   2.571   0.712   0.162
 5825SOL    HW118374   2.660   0.668   0.176
 5825SOL    HW218375   2.516   0.702   0.246
 5826SOL     OW18376   6.691   6.117   4.721
 5826SOL    HW118377   6.661   6.056   4.793
 5826SOL    HW218378   6.747   6.067   4.655
 5827SOL     OW18379   0.558   5.762   4.946
 5827SOL    HW118380   0.575   5.821   4.867
 5827SOL    HW218381   0.461   5.763   4.969
 5828SOL     OW18382   0.409   3.438   2.659
 5828SOL    HW118383   0.330   3.476   2.707
 5828SOL    HW218384   0.411   3.339   2.672
 5829SOL     OW18385   2.718   1.385   1.798
 5829SOL    HW118386   2.668   1.302   1.823
 5829SOL    HW218387   2.811   1.379   1.833
 5830SOL     OW18388   3.393   0.842   5.909
 5830SOL    HW118389   3.431   0.935   5.916
 5830SOL    HW218390   3.327   0.838   5.834
 5831SOL     OW18391   5.734   6.672   2.923
 5831SOL    HW118392   5.771   6.729   2.849
 5831SOL    HW218393   5.655   6.717   2.964
 5832SOL     OW18394   4.143   3.542   5.082
 5832SOL    HW118395   4.114   3.600   5.006
 5832SOL    HW218396   4.090   3.564   5.164
 5833SOL     OW18397   3.105   3.542   3.910
 5833SOL    HW118398   3.077   3.471   3.845
 5833SOL    HW218399   3.031   3.560   3.974
 5834SOL     OW18400   5.773   1.749   0.832
 5834SOL    HW118401   5.805   1.778   0.923
 5834SOL    HW218402   5.702   1.812   0.800
 5835SOL     OW18403   5.044   2.326   3.659
 5835SOL    HW118404   5.037   2.361   3.752
 5835SOL    HW218405   5.136   2.290   3.643
 5836SOL     OW18406   3.639   6.415   1.935
 5836SOL    HW118407   3.555   6.381   1.892
 5836SOL    HW218408   3.615   6.480   2.008
 5837SOL     OW18409   4.828   4.137   0.292
 5837SOL    HW118410   4.887   4.169   0.219
 5837SOL    HW218411   4.732   4.149   0.265
 5838SOL     OW18412   1.306   1.620   5.607
 5838SOL    HW118413   1.291   1.715   5.633
 5838SOL    HW218414   1.402   1.606   5.582
 5839SOL     OW18415   6.796   3.413   3.130
 5839SOL    HW118416   6.780   3.338   3.066
 5839SOL    HW218417   6.731   3.407   3.206
 5840SOL     OW18418   1.749   5.415   6.963
 5840SOL    HW118419   1.743   5.317   6.981
 5840SOL    HW218420   1.671   5.462   7.006
 5841SOL     OW18421   6.302   2.981   3.587
 5841SOL    HW118422   6.383   2.923   3.600
 5841SOL    HW218423   6.286   3.036   3.669
 5842SOL     OW18424   4.200   3.144   0.774
 5842SOL    HW118425   4.267   3.213   0.748
 5842SOL    HW218426   4.142   3.180   0.847
 5843SOL     OW18427   1.663   2.672   2.517
 5843SOL    HW118428   1.705   2.654   2.429
 5843SOL    HW218429   1.565   2.689   2.505
 5844SOL     OW18430   0.573   5.970   6.092
 5844SOL    HW118431   0.523   5.918   6.161
 5844SOL    HW218432   0.661   5.926   6.074
 5845SOL     OW18433   1.224   2.375   3.840
 5845SOL    HW118434   1.141   2.319   3.849
 5845SOL    HW218435   1.209   2.464   3.882
 5846SOL     OW18436   7.020   2.618   5.475
 5846SOL    HW118437   6.999   2.642   5.380
 5846SOL    HW218438   6.945   2.650   5.534
 5847SOL     OW18439   2.032   2.551   2.809
 5847SOL    HW118440   1.991   2.634   2.772
 5847SOL    HW218441   1.971   2.512   2.878
 5848SOL     OW18442   1.601   5.035   3.116
 5848SOL    HW118443   1.591   5.009   3.020
 5848SOL    HW218444   1.606   4.953   3.172
 5849SOL     OW18445   1.811   0.455   5.878
 5849SOL    HW118446   1.883   0.445   5.809
 5849SOL    HW218447   1.756   0.372   5.881
 5850SOL     OW18448   1.022   4.574   2.499
 5850SOL    HW118449   1.091   4.627   2.450
 5850SOL    HW218450   0.946   4.634   2.524
 5851SOL     OW18451   6.018   4.181   2.427
 5851SOL    HW118452   6.062   4.127   2.500
 5851SOL    HW218453   5.920   4.187   2.445
 5852SOL     OW18454   3.801   6.160   2.353
 5852SOL    HW118455   3.760   6.208   2.430
 5852SOL    HW218456   3.900   6.162   2.361
 5853SOL     OW18457   2.890   4.480   5.980
 5853SOL    HW118458   2.934   4.413   5.920
 5853SOL    HW218459   2.792   4.483   5.959
 5854SOL     OW18460   0.010   1.619   5.859
 5854SOL    HW118461   6.936   1.615   5.873
 5854SOL    HW218462   0.030   1.640   5.764
 5855SOL     OW18463   1.488   1.169   4.763
 5855SOL    HW118464   1.398   1.130   4.742
 5855SOL    HW218465   1.511   1.150   4.858
 5856SOL     OW18466   2.123   5.423   3.104
 5856SOL    HW118467   2.126   5.329   3.070
 5856SOL    HW218468   2.200   5.438   3.167
 5857SOL     OW18469   6.711   2.315   4.676
 5857SOL    HW118470   6.678   2.221   4.688
 5857SOL    HW218471   6.659   2.359   4.602
 5858SOL     OW18472   3.470   1.138   2.501
 5858SOL    HW118473   3.405   1.211   2.480
 5858SOL    HW218474   3.516   1.158   2.587
 5859SOL     OW18475   6.745   6.470   1.113
 5859SOL    HW118476   6.714   6.559   1.078
 5859SOL    HW218477   6.810   6.430   1.050
 5860SOL     OW18478   1.678   4.334   1.909
 5860SOL    HW118479   1.748   4.302   1.972
 5860SOL    HW218480   1.614   4.259   1.889
 5861SOL     OW18481   5.392   2.608   4.303
 5861SOL    HW118482   5.476   2.584   4.351
 5861SOL    HW218483   5.414   2.656   4.218
 5862SOL     OW18484   4.022   4.978   2.782
 5862SOL    HW118485   3.924   4.966   2.801
 5862SOL    HW218486   4.067   4.889   2.781
 5863SOL     OW18487   2.167   0.812   6.296
 5863SOL    HW118488   2.117   0.868   6.231
 5863SOL    HW218489   2.262   0.843   6.302
 5864SOL     OW18490   4.339   4.349   1.616
 5864SOL    HW118491   4.265   4.297   1.573
 5864SOL    HW218492   4.415   4.287   1.637
 5865SOL     OW18493   5.267   0.911   3.136
 5865SOL    HW118494   5.195   0.902   3.205
 5865SOL    HW218495   5.306   0.821   3.116
 5866SOL     OW18496   4.003   6.292   5.636
 5866SOL    HW118497   4.100   6.273   5.649
 5866SOL    HW218498   3.956   6.209   5.608
 5867SOL     OW18499   0.738   2.997   1.681
 5867SOL    HW118500   0.668   2.948   1.733
 5867SOL    HW218501   0.796   3.048   1.744
 5868SOL     OW18502   1.526   0.275   5.868
 5868SOL    HW118503   1.484   0.351   5.817
 5868SOL    HW218504   1.477   0.191   5.848
 5869SOL     OW18505   2.450   4.688   4.653
 5869SOL    HW118506   2.357   4.653   4.642
 5869SOL    HW218507   2.478   4.678   4.748
 5870SOL     OW18508   5.041   5.153   4.310
 5870SOL    HW118509   4.993   5.202   4.382
 5870SOL    HW218510   5.092   5.076   4.351
 5871SOL     OW18511   3.841   2.882   0.428
 5871SOL    HW118512   3.820   2.979   0.418
 5871SOL    HW218513   3.866   2.862   0.523
 5872SOL     OW18514   4.080   6.010   5.985
 5872SOL    HW118515   4.145   6.078   6.019
 5872SOL    HW218516   4.034   6.044   5.903
 5873SOL     OW18517   3.202   3.210   0.014
 5873SOL    HW118518   3.151   3.197   6.954
 5873SOL    HW218519   3.199   3.307   0.039
 5874SOL     OW18520   2.410   3.648   1.658
 5874SOL    HW118521   2.423   3.581   1.731
 5874SOL    HW218522   2.318   3.687   1.664
 5875SOL     OW18523   3.466   2.098   0.123
 5875SOL    HW118524   3.511   2.180   0.157
 5875SOL    HW218525   3.374   2.121   0.090
 5876SOL     OW18526   3.256   3.717   6.587
 5876SOL    HW118527   3.282   3.764   6.672
 5876SOL    HW218528   3.224   3.785   6.521
 5877SOL     OW18529   6.594   0.677   1.650
 5877SOL    HW118530   6.501   0.641   1.645
 5877SOL    HW218531   6.594   0.762   1.702
 5878SOL     OW18532   4.455   5.005   1.917
 5878SOL    HW118533   4.421   5.098   1.931
 5878SOL    HW218534   4.414   4.944   1.986
 5879SOL     OW18535   3.442   3.052   6.194
 5879SOL    HW118536   3.538   3.024   6.200
 5879SOL    HW218537   3.414   3.094   6.280
 5880SOL     OW18538   4.940   3.357   5.566
 5880SOL    HW118539   4.875   3.288   5.598
 5880SOL    HW218540   4.890   3.428   5.515
 5881SOL     OW18541   1.246   6.551   1.983
 5881SOL    HW118542   1.195   6.555   2.069
 5881SOL    HW218543   1.248   6.641   1.941
 5882SOL     OW18544   1.366   5.745   5.981
 5882SOL    HW118545   1.380   5.646   5.974
 5882SOL    HW218546   1.414   5.780   6.061
 5883SOL     OW18547   0.273   4.025   0.963
 5883SOL    HW118548   0.223   4.110   0.948
 5883SOL    HW218549   0.212   3.957   1.004
 5884SOL     OW18550   6.129   1.763   3.868
 5884SOL    HW118551   6.076   1.698   3.813
 5884SOL    HW218552   6.087   1.773   3.958
 5885SOL     OW18553   0.233   5.225   6.858
 5885SOL    HW118554   0.164   5.296   6.869
 5885SOL    HW218555   0.293   5.248   6.781
 5886SOL     OW18556   1.476   4.054   3.436
 5886SOL    HW118557   1.504   3.963   3.468
 5886SOL    HW218558   1.555   4.116   3.439
 5887SOL     OW18559   2.072   3.101   0.892
 5887SOL    HW118560   1.982   3.122   0.853
 5887SOL    HW218561   2.072   3.006   0.925
 5888SOL     OW18562   3.122   7.013   1.116
 5888SOL    HW118563   3.075   6.988   1.200
 5888SOL    HW218564   3.219   0.003   1.136
 5889SOL     OW18565   6.797   0.747   1.195
 5889SOL    HW118566   6.791   0.689   1.277
 5889SOL    HW218567   6.873   0.716   1.139
 5890SOL     OW18568   2.808   6.397   2.449
 5890SOL    HW118569   2.721   6.360   2.484
 5890SOL    HW218570   2.807   6.395   2.349
 5891SOL     OW18571   2.580   3.587   0.616
 5891SOL    HW118572   2.635   3.504   0.615
 5891SOL    HW218573   2.497   3.572   0.563
 5892SOL     OW18574   1.012   3.257   1.082
 5892SOL    HW118575   1.100   3.261   1.034
 5892SOL    HW218576   1.003   3.167   1.125
 5893SOL     OW18577   1.063   5.558   1.826
 5893SOL    HW118578   1.113   5.590   1.906
 5893SOL    HW218579   1.092   5.611   1.746
 5894SOL     OW18580   1.935   5.770   5.890
 5894SOL    HW118581   1.913   5.673   5.902
 5894SOL    HW218582   1.851   5.820   5.869
 5895SOL     OW18583   5.661   2.845   4.562
 5895SOL    HW118584   5.580   2.897   4.591
 5895SOL    HW218585   5.633   2.753   4.536
 5896SOL     OW18586   5.910   2.565   1.718
 5896SOL    HW118587   5.916   2.665   1.724
 5896SOL    HW218588   5.893   2.527   1.809
 5897SOL     OW18589   4.469   1.662   0.720
 5897SOL    HW118590   4.469   1.762   0.721
 5897SOL    HW218591   4.517   1.629   0.639
 5898SOL     OW18592   2.181   1.589   5.562
 5898SOL    HW118593   2.166   1.504   5.512
 5898SOL    HW218594   2.228   1.655   5.503
 5899SOL     OW18595   6.710   5.011   5.470
 5899SOL    HW118596   6.697   4.919   5.434
 5899SOL    HW218597   6.787   5.054   5.423
 5900SOL     OW18598   6.296   6.364   3.191
 5900SOL    HW118599   6.338   6.293   3.247
 5900SOL    HW218600   6.288   6.331   3.096
 5901SOL     OW18601   2.042   0.130   5.890
 5901SOL    HW118602   2.024   0.127   5.989
 5901SOL    HW218603   2.134   0.165   5.874
 5902SOL     OW18604   4.980   4.299   5.390
 5902SOL    HW118605   5.011   4.220   5.338
 5902SOL    HW218606   4.884   4.287   5.415
 5903SOL     OW18607   6.105   1.897   6.478
 5903SOL    HW118608   6.112   1.897   6.379
 5903SOL    HW218609   6.165   1.967   6.516
 5904SOL     OW18610   1.940   4.310   2.714
 5904SOL    HW118611   1.853   4.301   2.762
 5904SOL    HW218612   1.934   4.385   2.648
 5905SOL     OW18613   6.072   1.360   4.592
 5905SOL    HW118614   5.985   1.315   4.610
 5905SOL    HW218615   6.080   1.442   4.649
 5906SOL     OW18616   4.959   0.563   5.195
 5906SOL    HW118617   4.862   0.551   5.174
 5906SOL    HW218618   5.003   0.473   5.199
 5907SOL     OW18619   1.681   2.888   6.687
 5907SOL    HW118620   1.593   2.915   6.726
 5907SOL    HW218621   1.668   2.807   6.630
 5908SOL     OW18622   4.380   3.341   6.081
 5908SOL    HW118623   4.427   3.387   6.157
 5908SOL    HW218624   4.409   3.245   6.078
 5909SOL     OW18625   0.015   5.030   4.384
 5909SOL    HW118626   6.953   5.025   4.435
 5909SOL    HW218627   7.021   5.027   4.286
 5910SOL     OW18628   2.299   4.093   1.552
 5910SOL    HW118629   2.266   4.048   1.636
 5910SOL    HW218630   2.387   4.054   1.527
 5911SOL     OW18631   6.624   6.177   6.209
 5911SOL    HW118632   6.571   6.099   6.240
 5911SOL    HW218633   6.711   6.180   6.257
 5912SOL     OW18634   6.571   4.004   6.839
 5912SOL    HW118635   6.629   3.926   6.814
 5912SOL    HW218636   6.626   4.087   6.839
 5913SOL     OW18637   1.910   1.575   5.718
 5913SOL    HW118638   1.961   1.600   5.636
 5913SOL    HW218639   1.871   1.483   5.706
 5914SOL     OW18640   1.810   6.115   0.396
 5914SOL    HW118641   1.825   6.214   0.398
 5914SOL    HW218642   1.831   6.080   0.305
 5915SOL     OW18643   4.915   2.627   2.659
 5915SOL    HW118644   4.917   2.598   2.563
 5915SOL    HW218645   4.885   2.722   2.664
 5916SOL     OW18646   3.749   0.289   5.841
 5916SOL    HW118647   3.756   0.204   5.789
 5916SOL    HW218648   3.690   0.275   5.920
 5917SOL     OW18649   3.211   3.776   3.044
 5917SOL    HW118650   3.254   3.698   3.090
 5917SOL    HW218651   3.117   3.753   3.020
 5918SOL     OW18652   2.104   3.376   4.337
 5918SOL    HW118653   2.138   3.373   4.431
 5918SOL    HW218654   2.140   3.298   4.286
 5919SOL     OW18655   1.858   3.006   6.491
 5919SOL    HW118656   1.923   2.941   6.453
 5919SOL    HW218657   1.778   2.956   6.526
 5920SOL     OW18658   3.655   0.116   6.980
 5920SOL    HW118659   3.653   0.019   6.954
 5920SOL    HW218660   3.562   0.152   6.981
 5921SOL     OW18661   4.006   4.758   5.171
 5921SOL    HW118662   4.069   4.805   5.232
 5921SOL    HW218663   3.960   4.684   5.220
 5922SOL     OW18664   6.149   4.403   2.800
 5922SOL    HW118665   6.103   4.491   2.810
 5922SOL    HW218666   6.091   4.331   2.838
 5923SOL     OW18667   0.281   6.729   3.648
 5923SOL    HW118668   0.208   6.671   3.684
 5923SOL    HW218669   0.291   6.713   3.550
 5924SOL     OW18670   5.172   2.335   4.764
 5924SOL    HW118671   5.236   2.259   4.761
 5924SOL    HW218672   5.136   2.346   4.857
 5925SOL     OW18673   5.662   5.828   1.051
 5925SOL    HW118674   5.620   5.747   1.010
 5925SOL    HW218675   5.598   5.905   1.047
 5926SOL     OW18676   3.610   4.923   1.231
 5926SOL    HW118677   3.588   4.842   1.285
 5926SOL    HW218678   3.529   4.955   1.182
 5927SOL     OW18679   3.040   5.739   2.643
 5927SOL    HW118680   3.067   5.832   2.668
 5927SOL    HW218681   3.118   5.689   2.607
 5928SOL     OW18682   1.666   0.130   2.867
 5928SOL    HW118683   1.740   0.174   2.816
 5928SOL    HW218684   1.679   0.031   2.866
 5929SOL     OW18685   1.400   6.508   6.604
 5929SOL    HW118686   1.316   6.562   6.616
 5929SOL    HW218687   1.465   6.532   6.676
 5930SOL     OW18688   6.790   1.308   4.425
 5930SOL    HW118689   6.745   1.380   4.477
 5930SOL    HW218690   6.863   1.347   4.369
 5931SOL     OW18691   6.588   5.433   1.297
 5931SOL    HW118692   6.682   5.434   1.261
 5931SOL    HW218693   6.588   5.469   1.390
 5932SOL     OW18694   2.771   6.962   0.809
 5932SOL    HW118695   2.775   6.873   0.854
 5932SOL    HW218696   2.856   6.976   0.757
 5933SOL     OW18697   6.661   3.811   3.127
 5933SOL    HW118698   6.696   3.792   3.035
 5933SOL    HW218699   6.726   3.871   3.174
 5934SOL     OW18700   3.834   3.468   3.055
 5934SOL    HW118701   3.920   3.441   3.097
 5934SOL    HW218702   3.803   3.554   3.095
 5935SOL     OW18703   4.005   3.586   4.111
 5935SOL    HW118704   4.014   3.488   4.130
 5935SOL    HW218705   3.936   3.599   4.040
 5936SOL     OW18706   5.362   5.515   6.382
 5936SOL    HW118707   5.410   5.472   6.305
 5936SOL    HW218708   5.406   5.601   6.405
 5937SOL     OW18709   1.948   3.444   1.086
 5937SOL    HW118710   1.862   3.394   1.078
 5937SOL    HW218711   2.012   3.412   1.016
 5938SOL     OW18712   1.511   4.491   2.739
 5938SOL    HW118713   1.531   4.446   2.651
 5938SOL    HW218714   1.468   4.425   2.800
 5939SOL     OW18715   3.804   0.028   2.813
 5939SOL    HW118716   3.869   0.089   2.859
 5939SOL    HW218717   3.854   6.989   2.754
 5940SOL     OW18718   4.174   6.295   2.945
 5940SOL    HW118719   4.238   6.356   2.991
 5940SOL    HW218720   4.087   6.342   2.930
 5941SOL     OW18721   6.140   4.968   2.477
 5941SOL    HW118722   6.200   5.013   2.411
 5941SOL    HW218723   6.092   4.892   2.432
 5942SOL     OW18724   4.159   2.966   6.224
 5942SOL    HW118725   4.084   2.901   6.236
 5942SOL    HW218726   4.232   2.946   6.288
 5943SOL     OW18727   1.275   5.962   0.497
 5943SOL    HW118728   1.327   6.021   0.560
 5943SOL    HW218729   1.240   6.018   0.422
 5944SOL     OW18730   5.063   1.644   2.456
 5944SOL    HW118731   5.011   1.608   2.379
 5944SOL    HW218732   5.139   1.699   2.422
 5945SOL     OW18733   6.367   4.721   5.683
 5945SOL    HW118734   6.384   4.808   5.730
 5945SOL    HW218735   6.429   4.713   5.605
 5946SOL     OW18736   4.699   3.148   5.651
 5946SOL    HW118737   4.658   3.172   5.738
 5946SOL    HW218738   4.639   3.176   5.576
 5947SOL     OW18739   4.364   3.557   1.620
 5947SOL    HW118740   4.434   3.627   1.605
 5947SOL    HW218741   4.303   3.585   1.694
 5948SOL     OW18742   3.666   4.850   2.667
 5948SOL    HW118743   3.723   4.911   2.723
 5948SOL    HW218744   3.636   4.773   2.723
 5949SOL     OW18745   4.667   4.711   1.325
 5949SOL    HW118746   4.574   4.738   1.302
 5949SOL    HW218747   4.685   4.730   1.422
 5950SOL     OW18748   6.470   2.447   4.086
 5950SOL    HW118749   6.547   2.392   4.054
 5950SOL    HW218750   6.494   2.544   4.081
 5951SOL     OW18751   1.951   5.873   3.620
 5951SOL    HW118752   1.887   5.905   3.690
 5951SOL    HW218753   1.992   5.787   3.651
 5952SOL     OW18754   0.184   6.335   4.153
 5952SOL    HW118755   0.107   6.394   4.175
 5952SOL    HW218756   0.182   6.313   4.055
 5953SOL     OW18757   6.869   3.142   6.426
 5953SOL    HW118758   6.815   3.131   6.343
 5953SOL    HW218759   6.924   3.059   6.441
 5954SOL     OW18760   0.341   4.861   0.076
 5954SOL    HW118761   0.243   4.873   0.058
 5954SOL    HW218762   0.394   4.915   0.010
 5955SOL     OW18763   5.013   5.353   1.662
 5955SOL    HW118764   4.941   5.413   1.627
 5955SOL    HW218765   5.101   5.379   1.621
 5956SOL     OW18766   5.645   2.242   7.024
 5956SOL    HW118767   5.591   2.326   7.023
 5956SOL    HW218768   5.676   2.224   0.092
 5957SOL     OW18769   5.817   6.323   6.279
 5957SOL    HW118770   5.901   6.364   6.243
 5957SOL    HW218771   5.800   6.358   6.372
 5958SOL     OW18772   6.718   5.602   2.134
 5958SOL    HW118773   6.667   5.538   2.191
 5958SOL    HW218774   6.797   5.636   2.185
 5959SOL     OW18775   1.973   1.807   6.147
 5959SOL    HW118776   1.903   1.845   6.207
 5959SOL    HW218777   1.930   1.754   6.074
 5960SOL     OW18778   3.332   0.326   3.565
 5960SOL    HW118779   3.349   0.389   3.641
 5960SOL    HW218780   3.338   0.232   3.597
 5961SOL     OW18781   2.893   1.045   5.016
 5961SOL    HW118782   2.890   1.107   4.939
 5961SOL    HW218783   2.836   0.964   4.997
 5962SOL     OW18784   4.980   5.118   2.340
 5962SOL    HW118785   5.021   5.180   2.273
 5962SOL    HW218786   4.902   5.162   2.384
 5963SOL     OW18787   3.791   3.853   2.549
 5963SOL    HW118788   3.821   3.922   2.615
 5963SOL    HW218789   3.822   3.763   2.578
 5964SOL     OW18790   0.344   5.076   5.682
 5964SOL    HW118791   0.403   5.126   5.745
 5964SOL    HW218792   0.251   5.112   5.688
 5965SOL     OW18793   2.569   2.552   5.724
 5965SOL    HW118794   2.650   2.574   5.779
 5965SOL    HW218795   2.521   2.475   5.766
 5966SOL     OW18796   3.048   6.019   4.311
 5966SOL    HW118797   3.081   5.939   4.260
 5966SOL    HW218798   3.118   6.091   4.309
 5967SOL     OW18799   4.795   6.476   2.757
 5967SOL    HW118800   4.820   6.572   2.769
 5967SOL    HW218801   4.874   6.424   2.725
 5968SOL     OW18802   6.442   2.420   3.472
 5968SOL    HW118803   6.366   2.391   3.530
 5968SOL    HW218804   6.517   2.355   3.481
 5969SOL     OW18805   6.027   3.569   3.152
 5969SOL    HW118806   6.016   3.502   3.079
 5969SOL    HW218807   6.035   3.661   3.112
 5970SOL     OW18808   1.692   3.319   2.833
 5970SOL    HW118809   1.694   3.231   2.786
 5970SOL    HW218810   1.597   3.343   2.855
 5971SOL     OW18811   2.140   6.839   2.657
 5971SOL    HW118812   2.216   6.878   2.605
 5971SOL    HW218813   2.055   6.887   2.634
 5972SOL     OW18814   4.855   6.462   0.413
 5972SOL    HW118815   4.823   6.501   0.499
 5972SOL    HW218816   4.816   6.514   0.337
 5973SOL     OW18817   1.235   4.846   3.212
 5973SOL    HW118818   1.251   4.786   3.290
 5973SOL    HW218819   1.141   4.835   3.180
 5974SOL     OW18820   0.119   4.062   0.213
 5974SOL    HW118821   0.123   3.962   0.214
 5974SOL    HW218822   0.188   4.097   0.149
 5975SOL     OW18823   2.658   3.001   0.905
 5975SOL    HW118824   2.586   2.932   0.917
 5975SOL    HW218825   2.621   3.091   0.928
 5976SOL     OW18826   2.930   3.247   4.832
 5976SOL    HW118827   2.896   3.278   4.921
 5976SOL    HW218828   2.881   3.164   4.805
 5977SOL     OW18829   1.280   3.999   2.311
 5977SOL    HW118830   1.204   4.021   2.250
 5977SOL    HW218831   1.259   3.916   2.363
 5978SOL     OW18832   5.541   4.718   2.000
 5978SOL    HW118833   5.623   4.758   1.960
 5978SOL    HW218834   5.461   4.749   1.949
 5979SOL     OW18835   6.516   1.041   3.258
 5979SOL    HW118836   6.510   0.993   3.345
 5979SOL    HW218837   6.611   1.064   3.239
 5980SOL     OW18838   5.931   4.600   0.243
 5980SOL    HW118839   5.870   4.656   0.187
 5980SOL    HW218840   6.023   4.603   0.204
 5981SOL     OW18841   5.219   0.880   2.654
 5981SOL    HW118842   5.120   0.875   2.664
 5981SOL    HW218843   5.256   0.948   2.718
 5982SOL     OW18844   7.022   1.878   6.841
 5982SOL    HW118845   0.082   1.877   6.789
 5982SOL    HW218846   6.993   1.973   6.857
 5983SOL     OW18847   1.664   1.063   4.362
 5983SOL    HW118848   1.747   1.109   4.330
 5983SOL    HW218849   1.673   1.043   4.460
 5984SOL     OW18850   0.319   6.207   5.043
 5984SOL    HW118851   0.398   6.146   5.048
 5984SOL    HW218852   0.235   6.155   5.058
 5985SOL     OW18853   4.446   1.857   4.197
 5985SOL    HW118854   4.382   1.782   4.211
 5985SOL    HW218855   4.532   1.821   4.161
 5986SOL     OW18856   3.311   2.937   2.353
 5986SOL    HW118857   3.334   2.859   2.412
 5986SOL    HW218858   3.315   2.908   2.257
 5987SOL     OW18859   4.186   6.627   4.936
 5987SOL    HW118860   4.181   6.723   4.908
 5987SOL    HW218861   4.208   6.622   5.034
 5988SOL     OW18862   4.240   6.743   4.492
 5988SOL    HW118863   4.144   6.734   4.519
 5988SOL    HW218864   4.279   6.652   4.478
 5989SOL     OW18865   3.023   0.287   6.002
 5989SOL    HW118866   2.950   0.261   6.067
 5989SOL    HW218867   2.988   0.279   5.909
 5990SOL     OW18868   3.064   5.173   1.423
 5990SOL    HW118869   3.087   5.077   1.411
 5990SOL    HW218870   3.114   5.210   1.502
 5991SOL     OW18871   3.017   5.235   4.597
 5991SOL    HW118872   3.039   5.274   4.686
 5991SOL    HW218873   3.048   5.140   4.593
 5992SOL     OW18874   4.566   0.172   4.061
 5992SOL    HW118875   4.650   0.201   4.014
 5992SOL    HW218876   4.487   0.211   4.015
 5993SOL     OW18877   2.832   6.148   5.428
 5993SOL    HW118878   2.867   6.059   5.456
 5993SOL    HW218879   2.737   6.157   5.456
 5994SOL     OW18880   6.313   2.371   2.470
 5994SOL    HW118881   6.254   2.404   2.544
 5994SOL    HW218882   6.386   2.437   2.454
 5995SOL     OW18883   7.020   4.913   0.933
 5995SOL    HW118884   6.975   4.826   0.914
 5995SOL    HW218885   6.999   4.978   0.861
 5996SOL     OW18886   6.918   4.994   5.696
 5996SOL    HW118887   6.955   4.912   5.740
 5996SOL    HW218888   6.846   4.969   5.632
 5997SOL     OW18889   0.769   7.012   2.193
 5997SOL    HW118890   0.700   6.994   2.263
 5997SOL    HW218891   0.859   7.016   2.237
 5998SOL     OW18892   5.512   2.229   2.577
 5998SOL    HW118893   5.597   2.264   2.539
 5998SOL    HW218894   5.442   2.225   2.505
 5999SOL     OW18895   1.777   2.136   2.329
 5999SOL    HW118896   1.872   2.141   2.299
 5999SOL    HW218897   1.773   2.117   2.427
 6000SOL     OW18898   4.545   5.796   2.199
 6000SOL    HW118899   4.467   5.743   2.234
 6000SOL    HW218900   4.527   5.893   2.211
 6001SOL     OW18901   6.958   2.218   6.741
 6001SOL    HW118902   0.024   2.248   6.771
 6001SOL    HW218903   6.937   2.259   6.653
 6002SOL     OW18904   1.845   0.373   2.044
 6002SOL    HW118905   1.881   0.418   2.126
 6002SOL    HW218906   1.751   0.344   2.061
 6003SOL     OW18907   4.721   4.149   5.008
 6003SOL    HW118908   4.655   4.208   4.961
 6003SOL    HW218909   4.811   4.159   4.964
 6004SOL     OW18910   0.239   3.149   2.476
 6004SOL    HW118911   0.152   3.199   2.479
 6004SOL    HW218912   0.265   3.121   2.568
 6005SOL     OW18913   3.215   5.481   3.236
 6005SOL    HW118914   3.125   5.445   3.213
 6005SOL    HW218915   3.209   5.580   3.248
 6006SOL     OW18916   2.881   6.844   6.539
 6006SOL    HW118917   2.958   6.906   6.547
 6006SOL    HW218918   2.899   6.778   6.466
 6007SOL     OW18919   5.976   2.330   4.149
 6007SOL    HW118920   6.033   2.410   4.171
 6007SOL    HW218921   5.953   2.331   4.052
 6008SOL     OW18922   2.777   4.720   6.286
 6008SOL    HW118923   2.825   4.642   6.246
 6008SOL    HW218924   2.760   4.788   6.216
 6009SOL     OW18925   2.612   1.828   4.285
 6009SOL    HW118926   2.582   1.825   4.190
 6009SOL    HW218927   2.553   1.890   4.336
 6010SOL     OW18928   1.503   3.938   2.872
 6010SOL    HW118929   1.555   3.936   2.957
 6010SOL    HW218930   1.405   3.931   2.893
 6011SOL     OW18931   4.862   3.138   2.646
 6011SOL    HW118932   4.782   3.095   2.604
 6011SOL    HW218933   4.909   3.072   2.704
 6012SOL     OW18934   6.597   3.343   0.726
 6012SOL    HW118935   6.677   3.297   0.764
 6012SOL    HW218936   6.557   3.403   0.795
 6013SOL     OW18937   5.573   0.897   2.972
 6013SOL    HW118938   5.493   0.856   2.929
 6013SOL    HW218939   5.655   0.874   2.919
 6014SOL     OW18940   6.296   0.488   0.431
 6014SOL    HW118941   6.215   0.465   0.485
 6014SOL    HW218942   6.269   0.544   0.353
 6015SOL     OW18943   5.787   1.564   4.025
 6015SOL    HW118944   5.694   1.561   3.989
 6015SOL    HW218945   5.851   1.580   3.950
 6016SOL     OW18946   1.936   0.737   5.291
 6016SOL    HW118947   1.996   0.786   5.228
 6016SOL    HW218948   1.842   0.767   5.278
 6017SOL     OW18949   6.543   5.259   2.677
 6017SOL    HW118950   6.633   5.280   2.716
 6017SOL    HW218951   6.496   5.344   2.654
 6018SOL     OW18952   2.481   3.823   0.756
 6018SOL    HW118953   2.525   3.805   0.844
 6018SOL    HW218954   2.504   3.750   0.691
 6019SOL     OW18955   3.643   0.590   4.097
 6019SOL    HW118956   3.679   0.667   4.044
 6019SOL    HW218957   3.682   0.592   4.189
 6020SOL     OW18958   4.035   0.705   2.745
 6020SOL    HW118959   3.967   0.756   2.693
 6020SOL    HW218960   3.996   0.677   2.833
 6021SOL     OW18961   4.434   1.731   2.537
 6021SOL    HW118962   4.384   1.770   2.614
 6021SOL    HW218963   4.369   1.692   2.471
 6022SOL     OW18964   4.358   1.518   3.490
 6022SOL    HW118965   4.388   1.443   3.431
 6022SOL    HW218966   4.270   1.496   3.531
 6023SOL     OW18967   0.286   1.264   2.801
 6023SOL    HW118968   0.294   1.294   2.706
 6023SOL    HW218969   0.205   1.207   2.812
 6024SOL     OW18970   0.493   4.919   1.920
 6024SOL    HW118971   0.514   5.017   1.908
 6024SOL    HW218972   0.530   4.887   2.007
 6025SOL     OW18973   4.581   1.490   0.924
 6025SOL    HW118974   4.571   1.405   0.872
 6025SOL    HW218975   4.570   1.568   0.863
 6026SOL     OW18976   6.772   4.765   5.306
 6026SOL    HW118977   6.836   4.746   5.232
 6026SOL    HW218978   6.818   4.751   5.394
 6027SOL     OW18979   3.040   4.050   6.803
 6027SOL    HW118980   3.040   4.150   6.802
 6027SOL    HW218981   3.133   4.017   6.791
 6028SOL     OW18982   1.290   3.497   0.148
 6028SOL    HW118983   1.324   3.500   0.242
 6028SOL    HW218984   1.337   3.423   0.098
 6029SOL     OW18985   2.247   6.284   1.464
 6029SOL    HW118986   2.250   6.358   1.531
 6029SOL    HW218987   2.317   6.299   1.394
 6030SOL     OW18988   1.673   0.754   1.642
 6030SOL    HW118989   1.641   0.848   1.649
 6030SOL    HW218990   1.603   0.692   1.680
 6031SOL     OW18991   5.081   6.654   5.652
 6031SOL    HW118992   5.068   6.590   5.575
 6031SOL    HW218993   5.139   6.729   5.623
 6032SOL     OW18994   0.849   2.692   2.742
 6032SOL    HW118995   0.869   2.602   2.705
 6032SOL    HW218996   0.751   2.712   2.730
 6033SOL     OW18997   0.493   1.041   3.913
 6033SOL    HW118998   0.397   1.066   3.899
 6033SOL    HW218999   0.526   0.989   3.833
 6034SOL     OW19000   1.941   4.206   4.719
 6034SOL    HW119001   1.966   4.279   4.784
 6034SOL    HW219002   2.019   4.146   4.705
 6035SOL     OW19003   6.260   0.083   4.088
 6035SOL    HW119004   6.271   7.019   4.133
 6035SOL    HW219005   6.177   0.127   4.121
 6036SOL     OW19006   0.732   6.156   5.332
 6036SOL    HW119007   0.817   6.130   5.287
 6036SOL    HW219008   0.723   6.256   5.331
 6037SOL     OW19009   6.094   6.097   4.983
 6037SOL    HW119010   6.138   6.015   4.945
 6037SOL    HW219011   6.111   6.175   4.923
 6038SOL     OW19012   5.941   3.834   6.175
 6038SOL    HW119013   5.957   3.827   6.273
 6038SOL    HW219014   5.948   3.930   6.147
 6039SOL     OW19015   3.409   3.302   2.524
 6039SOL    HW119016   3.310   3.299   2.509
 6039SOL    HW219017   3.437   3.397   2.540
 6040SOL     OW19018   0.164   2.197   0.085
 6040SOL    HW119019   0.082   2.251   0.067
 6040SOL    HW219020   0.160   2.160   0.177
 6041SOL     OW19021   1.198   2.142   7.010
 6041SOL    HW119022   1.233   2.102   0.070
 6041SOL    HW219023   1.271   2.194   6.965
 6042SOL     OW19024   4.747   5.281   3.204
 6042SOL    HW119025   4.798   5.347   3.258
 6042SOL    HW219026   4.739   5.313   3.110
 6043SOL     OW19027   1.015   4.809   4.685
 6043SOL    HW119028   0.937   4.850   4.637
 6043SOL    HW219029   1.100   4.849   4.650
 6044SOL     OW19030   0.360   0.722   1.310
 6044SOL    HW119031   0.284   0.680   1.262
 6044SOL    HW219032   0.334   0.813   1.341
 6045SOL     OW19033   6.791   4.205   1.632
 6045SOL    HW119034   6.883   4.217   1.595
 6045SOL    HW219035   6.768   4.282   1.692
 6046SOL     OW19036   3.014   2.367   0.676
 6046SOL    HW119037   2.964   2.453   0.663
 6046SOL    HW219038   2.959   2.305   0.733
 6047SOL     OW19039   6.506   0.236   4.432
 6047SOL    HW119040   6.441   0.244   4.507
 6047SOL    HW219041   6.557   0.151   4.440
 6048SOL     OW19042   4.243   6.903   4.898
 6048SOL    HW119043   4.283   6.974   4.840
 6048SOL    HW219044   4.316   6.852   4.944
 6049SOL     OW19045   5.668   4.653   6.846
 6049SOL    HW119046   5.736   4.677   6.777
 6049SOL    HW219047   5.577   4.675   6.813
 6050SOL     OW19048   4.287   4.648   5.558
 6050SOL    HW119049   4.230   4.698   5.493
 6050SOL    HW219050   4.231   4.616   5.634
 6051SOL     OW19051   1.856   1.913   3.082
 6051SOL    HW119052   1.835   1.817   3.062
 6051SOL    HW219053   1.942   1.918   3.133
 6052SOL     OW19054   0.066   1.416   0.950
 6052SOL    HW119055   0.137   1.375   1.008
 6052SOL    HW219056   0.109   1.467   0.876
 6053SOL     OW19057   1.946   6.616   6.459
 6053SOL    HW119058   1.960   6.580   6.551
 6053SOL    HW219059   2.016   6.683   6.438
 6054SOL     OW19060   1.791   4.467   0.483
 6054SOL    HW119061   1.853   4.453   0.406
 6054SOL    HW219062   1.785   4.565   0.504
 6055SOL     OW19063   4.919   0.942   5.189
 6055SOL    HW119064   4.950   0.870   5.251
 6055SOL    HW219065   4.958   1.030   5.217
 6056SOL     OW19066   4.664   2.001   6.507
 6056SOL    HW119067   4.682   2.021   6.603
 6056SOL    HW219068   4.676   2.085   6.453
 6057SOL     OW19069   2.942   1.204   4.802
 6057SOL    HW119070   3.033   1.206   4.760
 6057SOL    HW219071   2.913   1.298   4.823
 6058SOL     OW19072   5.600   2.345   4.118
 6058SOL    HW119073   5.615   2.251   4.148
 6058SOL    HW219074   5.506   2.356   4.087
 6059SOL     OW19075   5.454   4.338   6.954
 6059SOL    HW119076   5.400   4.415   6.920
 6059SOL    HW219077   5.524   4.372   7.017
 6060SOL     OW19078   4.194   5.365   5.915
 6060SOL    HW119079   4.154   5.278   5.945
 6060SOL    HW219080   4.169   5.437   5.979
 6061SOL     OW19081   3.262   1.599   6.548
 6061SOL    HW119082   3.189   1.657   6.585
 6061SOL    HW219083   3.321   1.568   6.623
 6062SOL     OW19084   1.752   0.467   4.555
 6062SOL    HW119085   1.729   0.524   4.476
 6062SOL    HW219086   1.762   0.524   4.637
 6063SOL     OW19087   4.475   0.721   6.554
 6063SOL    HW119088   4.428   0.651   6.608
 6063SOL    HW219089   4.558   0.750   6.602
 6064SOL     OW19090   1.279   5.403   3.377
 6064SOL    HW119091   1.330   5.488   3.363
 6064SOL    HW219092   1.192   5.423   3.422
 6065SOL     OW19093   6.873   0.077   0.542
 6065SOL    HW119094   6.939   0.088   0.468
 6065SOL    HW219095   6.841   0.167   0.573
 6066SOL     OW19096   4.093   2.613   0.497
 6066SOL    HW119097   4.017   2.634   0.558
 6066SOL    HW219098   4.064   2.543   0.431
 6067SOL     OW19099   6.127   1.416   6.528
 6067SOL    HW119100   6.185   1.485   6.484
 6067SOL    HW219101   6.151   1.325   6.494
 6068SOL     OW19102   4.443   2.504   4.535
 6068SOL    HW119103   4.504   2.565   4.586
 6068SOL    HW219104   4.360   2.486   4.588
 6069SOL     OW19105   6.790   4.333   4.905
 6069SOL    HW119106   6.730   4.370   4.977
 6069SOL    HW219107   6.804   4.235   4.922
 6070SOL     OW19108   4.045   2.458   5.704
 6070SOL    HW119109   4.069   2.377   5.651
 6070SOL    HW219110   4.127   2.512   5.721
 6071SOL     OW19111   4.057   6.158   5.259
 6071SOL    HW119112   4.038   6.250   5.224
 6071SOL    HW219113   4.101   6.165   5.348
 6072SOL     OW19114   0.374   1.924   1.687
 6072SOL    HW119115   0.367   2.008   1.740
 6072SOL    HW219116   0.350   1.943   1.592
 6073SOL     OW19117   6.510   2.916   0.792
 6073SOL    HW119118   6.454   2.931   0.873
 6073SOL    HW219119   6.460   2.942   0.711
 6074SOL     OW19120   0.579   0.055   5.193
 6074SOL    HW119121   0.582   7.013   5.118
 6074SOL    HW219122   0.506   0.121   5.174
 6075SOL     OW19123   5.652   4.021   0.304
 6075SOL    HW119124   5.640   3.952   0.234
 6075SOL    HW219125   5.693   3.980   0.385
 6076SOL     OW19126   2.211   6.062   4.040
 6076SOL    HW119127   2.156   5.979   4.036
 6076SOL    HW219128   2.299   6.047   3.995
 6077SOL     OW19129   5.973   6.366   2.287
 6077SOL    HW119130   6.022   6.419   2.218
 6077SOL    HW219131   6.038   6.326   2.351
 6078SOL     OW19132   2.660   4.719   4.035
 6078SOL    HW119133   2.724   4.771   3.977
 6078SOL    HW219134   2.629   4.638   3.986
 6079SOL     OW19135   2.535   1.886   6.401
 6079SOL    HW119136   2.624   1.856   6.369
 6079SOL    HW219137   2.516   1.978   6.366
 6080SOL     OW19138   5.710   2.413   1.573
 6080SOL    HW119139   5.780   2.473   1.612
 6080SOL    HW219140   5.620   2.439   1.608
 6081SOL     OW19141   6.604   3.349   3.786
 6081SOL    HW119142   6.557   3.402   3.858
 6081SOL    HW219143   6.537   3.320   3.717
 6082SOL     OW19144   4.071   1.386   3.084
 6082SOL    HW119145   4.054   1.481   3.109
 6082SOL    HW219146   4.153   1.381   3.027
 6083SOL     OW19147   1.687   6.481   6.783
 6083SOL    HW119148   1.648   6.551   6.842
 6083SOL    HW219149   1.763   6.436   6.830
 6084SOL     OW19150   0.073   5.206   5.661
 6084SOL    HW119151   0.023   5.119   5.658
 6084SOL    HW219152   0.025   5.274   5.606
 6085SOL     OW19153   5.576   3.617   0.232
 6085SOL    HW119154   5.543   3.706   0.201
 6085SOL    HW219155   5.669   3.626   0.267
 6086SOL     OW19156   3.328   2.152   4.314
 6086SOL    HW119157   3.426   2.136   4.328
 6086SOL    HW219158   3.277   2.117   4.393
 6087SOL     OW19159   5.464   6.752   6.442
 6087SOL    HW119160   5.535   6.822   6.451
 6087SOL    HW219161   5.388   6.773   6.502
 6088SOL     OW19162   1.218   0.040   5.205
 6088SOL    HW119163   1.126   0.028   5.167
 6088SOL    HW219164   1.232   6.999   5.279
 6089SOL     OW19165   6.791   3.655   1.029
 6089SOL    HW119166   6.833   3.579   1.079
 6089SOL    HW219167   6.774   3.731   1.092
 6090SOL     OW19168   0.876   5.277   4.961
 6090SOL    HW119169   0.927   5.243   5.039
 6090SOL    HW219170   0.794   5.325   4.992
 6091SOL     OW19171   6.216   1.629   1.766
 6091SOL    HW119172   6.201   1.715   1.717
 6091SOL    HW219173   6.152   1.560   1.731
 6092SOL     OW19174   1.844   1.717   2.583
 6092SOL    HW119175   1.884   1.768   2.507
 6092SOL    HW219176   1.895   1.633   2.597
 6093SOL     OW19177   1.268   2.536   1.204
 6093SOL    HW119178   1.312   2.515   1.117
 6093SOL    HW219179   1.299   2.626   1.236
 6094SOL     OW19180   0.731   0.953   1.847
 6094SOL    HW119181   0.669   1.031   1.842
 6094SOL    HW219182   0.715   0.904   1.933
 6095SOL     OW19183   6.416   3.413   6.259
 6095SOL    HW119184   6.323   3.402   6.295
 6095SOL    HW219185   6.431   3.345   6.187
 6096SOL     OW19186   3.803   2.147   3.568
 6096SOL    HW119187   3.799   2.098   3.481
 6096SOL    HW219188   3.720   2.130   3.621
 6097SOL     OW19189   2.528   1.592   2.437
 6097SOL    HW119190   2.547   1.669   2.498
 6097SOL    HW219191   2.605   1.530   2.437
 6098SOL     OW19192   2.127   2.368   5.784
 6098SOL    HW119193   2.105   2.342   5.878
 6098SOL    HW219194   2.201   2.435   5.785
 6099SOL     OW19195   6.265   6.130   5.188
 6099SOL    HW119196   6.199   6.125   5.114
 6099SOL    HW219197   6.222   6.170   5.269
 6100SOL     OW19198   6.233   2.621   0.090
 6100SOL    HW119199   6.257   2.541   0.146
 6100SOL    HW219200   6.158   2.597   0.028
 6101SOL     OW19201   6.668   0.957   5.430
 6101SOL    HW119202   6.611   0.924   5.506
 6101SOL    HW219203   6.688   0.882   5.368
 6102SOL     OW19204   3.124   0.702   4.554
 6102SOL    HW119205   3.160   0.612   4.576
 6102SOL    HW219206   3.114   0.712   4.455
 6103SOL     OW19207   6.273   6.730   5.424
 6103SOL    HW119208   6.185   6.682   5.435
 6103SOL    HW219209   6.255   6.827   5.408
 6104SOL     OW19210   6.488   1.936   6.766
 6104SOL    HW119211   6.516   1.842   6.746
 6104SOL    HW219212   6.537   1.969   6.847
 6105SOL     OW19213   3.470   5.944   5.078
 6105SOL    HW119214   3.418   5.871   5.034
 6105SOL    HW219215   3.527   5.990   5.010
 6106SOL     OW19216   3.303   5.053   6.037
 6106SOL    HW119217   3.234   4.994   6.080
 6106SOL    HW219218   3.266   5.093   5.953
 6107SOL     OW19219   1.923   4.729   5.143
 6107SOL    HW119220   1.859   4.767   5.210
 6107SOL    HW219221   1.887   4.742   5.051
 6108SOL     OW19222   0.685   2.131   4.379
 6108SOL    HW119223   0.734   2.145   4.293
 6108SOL    HW219224   0.750   2.117   4.453
 6109SOL     OW19225   5.592   3.815   1.055
 6109SOL    HW119226   5.625   3.734   1.008
 6109SOL    HW219227   5.492   3.811   1.063
 6110SOL     OW19228   3.154   1.741   4.640
 6110SOL    HW119229   3.139   1.652   4.596
 6110SOL    HW219230   3.239   1.739   4.692
 6111SOL     OW19231   1.235   5.129   3.201
 6111SOL    HW119232   1.279   5.040   3.213
 6111SOL    HW219233   1.281   5.197   3.257
 6112SOL     OW19234   0.643   1.783   2.881
 6112SOL    HW119235   0.711   1.856   2.889
 6112SOL    HW219236   0.577   1.791   2.956
 6113SOL     OW19237   1.872   6.532   5.366
 6113SOL    HW119238   1.848   6.607   5.428
 6113SOL    HW219239   1.810   6.532   5.288
 6114SOL     OW19240   4.498   5.806   0.683
 6114SOL    HW119241   4.426   5.766   0.740
 6114SOL    HW219242   4.549   5.873   0.737
 6115SOL     OW19243   5.375   5.323   2.617
 6115SOL    HW119244   5.454   5.348   2.562
 6115SOL    HW219245   5.401   5.254   2.684
 6116SOL     OW19246   3.747   1.119   1.883
 6116SOL    HW119247   3.755   1.202   1.939
 6116SOL    HW219248   3.807   1.128   1.803
 6117SOL     OW19249   5.849   6.917   5.026
 6117SOL    HW119250   5.848   6.882   5.120
 6117SOL    HW219251   5.778   6.987   5.017
 6118SOL     OW19252   6.141   0.630   3.524
 6118SOL    HW119253   6.216   0.595   3.469
 6118SOL    HW219254   6.170   0.713   3.572
 6119SOL     OW19255   6.925   5.192   4.788
 6119SOL    HW119256   6.931   5.205   4.887
 6119SOL    HW219257   7.015   5.206   4.748
 6120SOL     OW19258   2.899   0.268   3.015
 6120SOL    HW119259   2.959   0.348   3.017
 6120SOL    HW219260   2.804   0.297   3.023
 6121SOL     OW19261   0.256   2.383   4.178
 6121SOL    HW119262   0.237   2.360   4.082
 6121SOL    HW219263   0.313   2.311   4.219
 6122SOL     OW19264   4.128   5.679   3.177
 6122SOL    HW119265   4.071   5.719   3.105
 6122SOL    HW219266   4.202   5.742   3.201
 6123SOL     OW19267   6.126   1.103   2.460
 6123SOL    HW119268   6.100   1.169   2.390
 6123SOL    HW219269   6.205   1.050   2.428
 6124SOL     OW19270   3.562   0.040   5.715
 6124SOL    HW119271   3.507   0.119   5.742
 6124SOL    HW219272   3.506   7.002   5.661
 6125SOL     OW19273   2.340   6.031   2.012
 6125SOL    HW119274   2.350   6.004   2.108
 6125SOL    HW219275   2.291   6.118   2.007
 6126SOL     OW19276   5.035   4.990   3.041
 6126SOL    HW119277   5.041   5.069   3.102
 6126SOL    HW219278   4.985   5.016   2.958
 6127SOL     OW19279   1.955   5.812   1.554
 6127SOL    HW119280   1.961   5.882   1.625
 6127SOL    HW219281   2.047   5.794   1.518
 6128SOL     OW19282   5.536   2.014   0.489
 6128SOL    HW119283   5.496   1.937   0.440
 6128SOL    HW219284   5.529   2.096   0.433
 6129SOL     OW19285   6.241   4.572   3.318
 6129SOL    HW119286   6.246   4.473   3.309
 6129SOL    HW219287   6.194   4.610   3.238
 6130SOL     OW19288   4.967   3.708   2.397
 6130SOL    HW119289   4.979   3.639   2.327
 6130SOL    HW219290   4.934   3.665   2.481
 6131SOL     OW19291   6.147   0.994   5.766
 6131SOL    HW119292   6.077   0.969   5.699
 6131SOL    HW219293   6.190   1.080   5.738
 6132SOL     OW19294   4.234   2.853   0.835
 6132SOL    HW119295   4.280   2.812   0.914
 6132SOL    HW219296   4.235   2.952   0.843
 6133SOL     OW19297   0.859   4.161   1.486
 6133SOL    HW119298   0.907   4.074   1.499
 6133SOL    HW219299   0.799   4.178   1.564
 6134SOL     OW19300   4.577   3.489   6.553
 6134SOL    HW119301   4.620   3.478   6.643
 6134SOL    HW219302   4.484   3.522   6.565
 6135SOL     OW19303   5.834   0.213   1.319
 6135SOL    HW119304   5.920   0.162   1.325
 6135SOL    HW219305   5.775   0.170   1.251
 6136SOL     OW19306   1.107   1.964   1.851
 6136SOL    HW119307   1.180   1.896   1.852
 6136SOL    HW219308   1.091   1.997   1.944
 6137SOL     OW19309   2.940   6.512   5.834
 6137SOL    HW119310   2.990   6.598   5.840
 6137SOL    HW219311   2.971   6.461   5.754
 6138SOL     OW19312   3.938   5.799   3.043
 6138SOL    HW119313   3.848   5.821   3.080
 6138SOL    HW219314   3.928   5.765   2.949
 6139SOL     OW19315   1.460   4.705   4.664
 6139SOL    HW119316   1.502   4.632   4.718
 6139SOL    HW219317   1.528   4.777   4.647
 6140SOL     OW19318   1.800   6.682   1.481
 6140SOL    HW119319   1.753   6.689   1.569
 6140SOL    HW219320   1.766   6.755   1.420
 6141SOL     OW19321   6.394   5.555   6.273
 6141SOL    HW119322   6.452   5.502   6.211
 6141SOL    HW219323   6.351   5.630   6.224
 6142SOL     OW19324   0.237   4.500   1.295
 6142SOL    HW119325   0.190   4.412   1.304
 6142SOL    HW219326   0.270   4.510   1.201
 6143SOL     OW19327   5.578   5.278   6.439
 6143SOL    HW119328   5.511   5.306   6.508
 6143SOL    HW219329   5.531   5.257   6.353
 6144SOL     OW19330   0.402   4.544   4.103
 6144SOL    HW119331   0.331   4.494   4.053
 6144SOL    HW219332   0.481   4.485   4.116
 6145SOL     OW19333   5.221   5.694   3.025
 6145SOL    HW119334   5.136   5.728   2.986
 6145SOL    HW219335   5.262   5.765   3.082
 6146SOL     OW19336   5.669   1.489   3.641
 6146SOL    HW119337   5.702   1.583   3.639
 6146SOL    HW219338   5.739   1.429   3.679
 6147SOL     OW19339   1.811   3.667   2.517
 6147SOL    HW119340   1.808   3.568   2.500
 6147SOL    HW219341   1.770   3.687   2.606
 6148SOL     OW19342   6.383   6.238   4.399
 6148SOL    HW119343   6.469   6.220   4.446
 6148SOL    HW219344   6.329   6.154   4.395
 6149SOL     OW19345   2.950   5.852   3.132
 6149SOL    HW119346   2.876   5.785   3.120
 6149SOL    HW219347   2.991   5.872   3.043
 6150SOL     OW19348   4.795   5.804   5.832
 6150SOL    HW119349   4.813   5.867   5.756
 6150SOL    HW219350   4.704   5.822   5.870
 6151SOL     OW19351   5.006   2.501   5.594
 6151SOL    HW119352   5.012   2.600   5.596
 6151SOL    HW219353   4.971   2.468   5.681
 6152SOL     OW19354   6.395   4.591   6.496
 6152SOL    HW119355   6.445   4.577   6.581
 6152SOL    HW219356   6.335   4.670   6.504
 6153SOL     OW19357   4.085   3.738   1.545
 6153SOL    HW119358   4.005   3.773   1.496
 6153SOL    HW219359   4.087   3.638   1.538
 6154SOL     OW19360   5.306   3.283   2.634
 6154SOL    HW119361   5.222   3.276   2.579
 6154SOL    HW219362   5.283   3.280   2.731
 6155SOL     OW19363   0.260   3.697   5.125
 6155SOL    HW119364   0.347   3.649   5.129
 6155SOL    HW219365   0.197   3.648   5.065
 6156SOL     OW19366   6.230   0.027   3.639
 6156SOL    HW119367   6.254   6.967   3.685
 6156SOL    HW219368   6.190   0.091   3.706
 6157SOL     OW19369   2.417   0.980   3.875
 6157SOL    HW119370   2.325   0.945   3.892
 6157SOL    HW219371   2.478   0.950   3.948
 6158SOL     OW19372   4.715   1.408   5.948
 6158SOL    HW119373   4.695   1.403   5.850
 6158SOL    HW219374   4.815   1.410   5.961
 6159SOL     OW19375   5.271   2.749   6.937
 6159SOL    HW119376   5.263   2.699   7.023
 6159SOL    HW219377   5.333   2.827   6.950
 6160SOL     OW19378   5.677   6.092   2.030
 6160SOL    HW119379   5.722   6.170   1.987
 6160SOL    HW219380   5.578   6.096   2.012
 6161SOL     OW19381   5.509   0.399   5.828
 6161SOL    HW119382   5.423   0.375   5.781
 6161SOL    HW219383   5.582   0.340   5.795
 6162SOL     OW19384   6.399   4.616   5.082
 6162SOL    HW119385   6.359   4.707   5.071
 6162SOL    HW219386   6.358   4.572   5.162
 6163SOL     OW19387   6.636   4.025   2.344
 6163SOL    HW119388   6.731   4.056   2.339
 6163SOL    HW219389   6.592   4.068   2.423
 6164SOL     OW19390   3.838   1.974   0.899
 6164SOL    HW119391   3.741   1.971   0.874
 6164SOL    HW219392   3.867   1.885   0.932
 6165SOL     OW19393   3.448   6.107   6.979
 6165SOL    HW119394   3.518   6.090   6.910
 6165SOL    HW219395   3.383   6.175   6.945
 6166SOL     OW19396   2.911   1.526   5.895
 6166SOL    HW119397   2.888   1.464   5.820
 6166SOL    HW219398   2.828   1.550   5.946
 6167SOL     OW19399   0.531   4.137   3.543
 6167SOL    HW119400   0.589   4.056   3.537
 6167SOL    HW219401   0.525   4.167   3.639
 6168SOL     OW19402   0.175   3.647   2.785
 6168SOL    HW119403   0.139   3.724   2.733
 6168SOL    HW219404   0.099   3.594   2.823
 6169SOL     OW19405   1.904   4.053   2.345
 6169SOL    HW119406   1.968   4.056   2.422
 6169SOL    HW219407   1.819   4.010   2.376
 6170SOL     OW19408   0.361   3.065   5.500
 6170SOL    HW119409   0.296   2.991   5.515
 6170SOL    HW219410   0.395   3.060   5.406
 6171SOL     OW19411   6.902   0.501   6.554
 6171SOL    HW119412   6.835   0.515   6.481
 6171SOL    HW219413   6.944   0.412   6.544
 6172SOL     OW19414   0.407   3.366   3.271
 6172SOL    HW119415   0.317   3.346   3.309
 6172SOL    HW219416   0.402   3.446   3.211
 6173SOL     OW19417   6.811   6.865   3.322
 6173SOL    HW119418   6.878   6.900   3.257
 6173SOL    HW219419   6.754   6.941   3.355
 6174SOL     OW19420   5.486   3.947   2.816
 6174SOL    HW119421   5.498   4.031   2.763
 6174SOL    HW219422   5.507   3.868   2.758
 6175SOL     OW19423   2.515   2.052   5.646
 6175SOL    HW119424   2.594   2.108   5.620
 6175SOL    HW219425   2.477   2.008   5.564
 6176SOL     OW19426   4.194   4.108   5.521
 6176SOL    HW119427   4.267   4.137   5.459
 6176SOL    HW219428   4.116   4.170   5.512
 6177SOL     OW19429   5.816   0.805   1.817
 6177SOL    HW119430   5.892   0.757   1.862
 6177SOL    HW219431   5.829   0.804   1.718
 6178SOL     OW19432   3.993   4.300   1.379
 6178SOL    HW119433   3.975   4.316   1.476
 6178SOL    HW219434   4.061   4.365   1.346
 6179SOL     OW19435   5.459   5.172   2.821
 6179SOL    HW119436   5.535   5.233   2.846
 6179SOL    HW219437   5.452   5.098   2.888
 6180SOL     OW19438   2.636   4.153   0.048
 6180SOL    HW119439   2.573   4.100   0.105
 6180SOL    HW219440   2.714   4.095   0.023
 6181SOL     OW19441   4.853   5.157   5.935
 6181SOL    HW119442   4.909   5.180   5.855
 6181SOL    HW219443   4.869   5.061   5.960
 6182SOL     OW19444   3.440   2.725   0.262
 6182SOL    HW119445   3.375   2.760   0.329
 6182SOL    HW219446   3.397   2.653   0.208
 6183SOL     OW19447   0.607   1.348   1.326
 6183SOL    HW119448   0.684   1.403   1.358
 6183SOL    HW219449   0.545   1.331   1.402
 6184SOL     OW19450   2.583   0.486   5.792
 6184SOL    HW119451   2.500   0.536   5.816
 6184SOL    HW219452   2.663   0.541   5.816
 6185SOL     OW19453   3.283   3.045   5.446
 6185SOL    HW119454   3.214   3.082   5.509
 6185SOL    HW219455   3.259   3.071   5.353
 6186SOL     OW19456   6.405   1.613   1.963
 6186SOL    HW119457   6.404   1.515   1.983
 6186SOL    HW219458   6.370   1.628   1.871
 6187SOL     OW19459   5.737   1.848   5.413
 6187SOL    HW119460   5.637   1.843   5.412
 6187SOL    HW219461   5.769   1.840   5.508
 6188SOL     OW19462   1.385   1.776   5.202
 6188SOL    HW119463   1.397   1.859   5.257
 6188SOL    HW219464   1.435   1.785   5.116
 6189SOL     OW19465   6.346   6.211   1.819
 6189SOL    HW119466   6.329   6.146   1.745
 6189SOL    HW219467   6.442   6.239   1.817
 6190SOL     OW19468   0.309   2.377   5.544
 6190SOL    HW119469   0.405   2.349   5.547
 6190SOL    HW219470   0.303   2.476   5.546
 6191SOL     OW19471   3.859   3.339   6.391
 6191SOL    HW119472   3.907   3.394   6.323
 6191SOL    HW219473   3.924   3.276   6.434
 6192SOL     OW19474   2.737   1.398   0.171
 6192SOL    HW119475   2.782   1.487   0.161
 6192SOL    HW219476   2.805   1.328   0.192
 6193SOL     OW19477   4.531   5.347   6.658
 6193SOL    HW119478   4.569   5.412   6.593
 6193SOL    HW219479   4.433   5.337   6.642
 6194SOL     OW19480   6.042   0.308   5.736
 6194SOL    HW119481   6.094   0.385   5.774
 6194SOL    HW219482   5.975   0.277   5.804
 6195SOL     OW19483   6.600   6.657   6.089
 6195SOL    HW119484   6.574   6.620   6.000
 6195SOL    HW219485   6.679   6.606   6.124
 6196SOL     OW19486   5.794   3.834   3.452
 6196SOL    HW119487   5.711   3.861   3.404
 6196SOL    HW219488   5.770   3.789   3.538
 6197SOL     OW19489   3.324   5.786   1.408
 6197SOL    HW119490   3.378   5.720   1.460
 6197SOL    HW219491   3.379   5.821   1.332
 6198SOL     OW19492   6.242   6.840   6.558
 6198SOL    HW119493   6.315   6.875   6.616
 6198SOL    HW219494   6.176   6.790   6.613
 6199SOL     OW19495   1.500   0.553   0.763
 6199SOL    HW119496   1.456   0.632   0.806
 6199SOL    HW219497   1.493   0.474   0.823
 6200SOL     OW19498   2.263   2.059   2.704
 6200SOL    HW119499   2.239   2.119   2.628
 6200SOL    HW219500   2.225   2.096   2.789
 6201SOL     OW19501   6.784   3.913   3.700
 6201SOL    HW119502   6.699   3.923   3.752
 6201SOL    HW219503   6.860   3.894   3.763
 6202SOL     OW19504   6.693   1.525   2.697
 6202SOL    HW119505   6.706   1.549   2.601
 6202SOL    HW219506   6.772   1.555   2.750
 6203SOL     OW19507   6.741   6.608   1.708
 6203SOL    HW119508   6.786   6.651   1.786
 6203SOL    HW219509   6.800   6.616   1.628
 6204SOL     OW19510   2.206   0.074   5.167
 6204SOL    HW119511   2.208   0.137   5.089
 6204SOL    HW219512   2.238   0.122   5.249
 6205SOL     OW19513   4.910   4.346   3.049
 6205SOL    HW119514   4.848   4.337   3.127
 6205SOL    HW219515   4.955   4.435   3.051
 6206SOL     OW19516   5.178   2.056   3.553
 6206SOL    HW119517   5.226   2.021   3.633
 6206SOL    HW219518   5.228   2.031   3.470
 6207SOL     OW19519   2.346   5.312   4.437
 6207SOL    HW119520   2.429   5.321   4.492
 6207SOL    HW219521   2.371   5.310   4.340
 6208SOL     OW19522   3.722   3.402   5.220
 6208SOL    HW119523   3.658   3.418   5.146
 6208SOL    HW219524   3.682   3.432   5.307
 6209SOL     OW19525   3.475   2.843   0.948
 6209SOL    HW119526   3.490   2.941   0.950
 6209SOL    HW219527   3.394   2.820   1.002
 6210SOL     OW19528   4.690   1.769   4.135
 6210SOL    HW119529   4.689   1.718   4.049
 6210SOL    HW219530   4.727   1.860   4.119
 6211SOL     OW19531   5.634   4.351   5.028
 6211SOL    HW119532   5.618   4.323   5.123
 6211SOL    HW219533   5.700   4.290   4.985
 6212SOL     OW19534   4.288   4.845   5.369
 6212SOL    HW119535   4.332   4.810   5.286
 6212SOL    HW219536   4.228   4.921   5.345
 6213SOL     OW19537   3.979   6.075   0.536
 6213SOL    HW119538   4.056   6.059   0.476
 6213SOL    HW219539   3.980   6.170   0.569
 6214SOL     OW19540   6.013   5.705   6.336
 6214SOL    HW119541   5.995   5.723   6.432
 6214SOL    HW219542   6.028   5.607   6.322
 6215SOL     OW19543   5.780   2.371   5.751
 6215SOL    HW119544   5.780   2.448   5.815
 6215SOL    HW219545   5.794   2.286   5.801
 6216SOL     OW19546   4.734   2.240   2.965
 6216SOL    HW119547   4.806   2.277   2.906
 6216SOL    HW219548   4.777   2.196   3.045
 6217SOL     OW19549   0.363   4.502   2.249
 6217SOL    HW119550   0.347   4.431   2.180
 6217SOL    HW219551   0.447   4.552   2.227
 6218SOL     OW19552   4.555   6.221   6.976
 6218SOL    HW119553   4.565   6.226   0.051
 6218SOL    HW219554   4.646   6.223   6.933
 6219SOL     OW19555   1.213   0.548   6.198
 6219SOL    HW119556   1.171   0.607   6.267
 6219SOL    HW219557   1.310   0.539   6.218
 6220SOL     OW19558   4.296   0.678   1.105
 6220SOL    HW119559   4.249   0.728   1.178
 6220SOL    HW219560   4.363   0.739   1.062
 6221SOL     OW19561   6.175   5.568   6.540
 6221SOL    HW119562   6.218   5.536   6.455
 6221SOL    HW219563   6.221   5.524   6.618
 6222SOL     OW19564   6.255   1.335   2.026
 6222SOL    HW119565   6.268   1.290   2.114
 6222SOL    HW219566   6.159   1.360   2.015
 6223SOL     OW19567   7.009   5.036   3.489
 6223SOL    HW119568   6.917   5.000   3.472
 6223SOL    HW219569   7.024   5.118   3.434
 6224SOL     OW19570   4.100   1.312   6.440
 6224SOL    HW119571   4.091   1.218   6.473
 6224SOL    HW219572   4.010   1.356   6.441
 6225SOL     OW19573   4.591   6.110   6.563
 6225SOL    HW119574   4.534   6.191   6.582
 6225SOL    HW219575   4.589   6.049   6.641
 6226SOL     OW19576   1.588   1.505   4.833
 6226SOL    HW119577   1.574   1.483   4.737
 6226SOL    HW219578   1.517   1.461   4.888
 6227SOL     OW19579   2.786   4.327   5.639
 6227SOL    HW119580   2.739   4.252   5.594
 6227SOL    HW219581   2.734   4.412   5.627
 6228SOL     OW19582   1.511   3.304   4.141
 6228SOL    HW119583   1.541   3.397   4.119
 6228SOL    HW219584   1.584   3.239   4.122
 6229SOL     OW19585   0.665   4.114   4.084
 6229SOL    HW119586   0.745   4.087   4.031
 6229SOL    HW219587   0.629   4.035   4.134
 6230SOL     OW19588   0.206   1.018   2.547
 6230SOL    HW119589   0.275   1.089   2.555
 6230SOL    HW219590   0.244   0.931   2.579
 6231SOL     OW19591   1.511   5.189   6.922
 6231SOL    HW119592   1.505   5.176   6.823
 6231SOL    HW219593   1.560   5.112   6.963
 6232SOL     OW19594   4.223   1.013   6.336
 6232SOL    HW119595   4.145   0.982   6.281
 6232SOL    HW219596   4.259   1.098   6.297
 6233SOL     OW19597   0.106   3.803   1.673
 6233SOL    HW119598   0.087   3.724   1.732
 6233SOL    HW219599   0.020   3.842   1.641
 6234SOL     OW19600   4.494   6.058   4.795
 6234SOL    HW119601   4.493   6.141   4.850
 6234SOL    HW219602   4.527   6.079   4.703
 6235SOL     OW19603   6.384   1.036   2.985
 6235SOL    HW119604   6.287   1.057   2.971
 6235SOL    HW219605   6.398   1.004   3.078
 6236SOL     OW19606   0.999   5.588   0.919
 6236SOL    HW119607   0.937   5.527   0.969
 6236SOL    HW219608   1.071   5.620   0.981
 6237SOL     OW19609   3.678   1.566   0.529
 6237SOL    HW119610   3.761   1.622   0.536
 6237SOL    HW219611   3.671   1.529   0.436
 6238SOL     OW19612   2.255   6.819   4.524
 6238SOL    HW119613   2.232   6.760   4.601
 6238SOL    HW219614   2.265   6.913   4.557
 6239SOL     OW19615   4.506   1.275   3.492
 6239SOL    HW119616   4.488   1.178   3.478
 6239SOL    HW219617   4.585   1.302   3.436
 6240SOL     OW19618   4.094   3.320   4.089
 6240SOL    HW119619   4.147   3.353   4.011
 6240SOL    HW219620   4.036   3.243   4.060
 6241SOL     OW19621   3.780   0.553   2.552
 6241SOL    HW119622   3.683   0.562   2.531
 6241SOL    HW219623   3.832   0.618   2.496
 6242SOL     OW19624   2.907   1.795   3.630
 6242SOL    HW119625   2.971   1.826   3.560
 6242SOL    HW219626   2.827   1.856   3.633
 6243SOL     OW19627   4.940   1.000   5.730
 6243SOL    HW119628   4.945   1.032   5.635
 6243SOL    HW219629   5.031   1.002   5.771
 6244SOL     OW19630   4.570   4.468   2.565
 6244SOL    HW119631   4.669   4.481   2.570
 6244SOL    HW219632   4.546   4.424   2.479
 6245SOL     OW19633   0.408   4.411   2.624
 6245SOL    HW119634   0.385   4.506   2.602
 6245SOL    HW219635   0.325   4.360   2.645
 6246SOL     OW19636   6.790   6.486   4.403
 6246SOL    HW119637   6.715   6.539   4.364
 6246SOL    HW219638   6.756   6.399   4.437
 6247SOL     OW19639   6.302   6.664   2.984
 6247SOL    HW119640   6.236   6.726   2.942
 6247SOL    HW219641   6.269   6.570   2.974
 6248SOL     OW19642   3.310   3.193   6.005
 6248SOL    HW119643   3.359   3.141   6.074
 6248SOL    HW219644   3.362   3.274   5.980
 6249SOL     OW19645   5.968   3.247   1.536
 6249SOL    HW119646   5.992   3.191   1.616
 6249SOL    HW219647   6.047   3.253   1.475
 6250SOL     OW19648   6.400   0.089   0.399
 6250SOL    HW119649   6.494   0.082   0.365
 6250SOL    HW219650   6.365   7.023   0.418
 6251SOL     OW19651   2.568   6.695   4.458
 6251SOL    HW119652   2.543   6.684   4.554
 6251SOL    HW219653   2.647   6.638   4.437
 6252SOL     OW19654   2.887   5.858   6.950
 6252SOL    HW119655   2.871   5.915   6.869
 6252SOL    HW219656   2.845   5.768   6.937
 6253SOL     OW19657   3.714   5.078   4.921
 6253SOL    HW119658   3.737   5.029   4.837
 6253SOL    HW219659   3.769   5.043   4.997
 6254SOL     OW19660   0.651   6.550   1.315
 6254SOL    HW119661   0.729   6.566   1.375
 6254SOL    HW219662   0.675   6.571   1.221
 6255SOL     OW19663   0.354   1.255   2.018
 6255SOL    HW119664   0.291   1.332   2.026
 6255SOL    HW219665   0.310   1.172   2.053
 6256SOL     OW19666   4.865   6.079   2.188
 6256SOL    HW119667   4.916   6.121   2.263
 6256SOL    HW219668   4.842   5.984   2.212
 6257SOL     OW19669   3.289   4.047   1.442
 6257SOL    HW119670   3.204   4.088   1.407
 6257SOL    HW219671   3.269   3.957   1.480
 6258SOL     OW19672   3.933   5.339   4.944
 6258SOL    HW119673   3.955   5.329   4.846
 6258SOL    HW219674   3.834   5.339   4.956
 6259SOL     OW19675   3.175   0.397   4.498
 6259SOL    HW119676   3.102   0.336   4.466
 6259SOL    HW219677   3.225   0.352   4.572
 6260SOL     OW19678   1.568   1.703   0.367
 6260SOL    HW119679   1.558   1.767   0.443
 6260SOL    HW219680   1.660   1.663   0.369
 6261SOL     OW19681   3.467   0.463   0.938
 6261SOL    HW119682   3.421   0.422   0.860
 6261SOL    HW219683   3.406   0.528   0.983
 6262SOL     OW19684   5.776   0.024   2.564
 6262SOL    HW119685   5.801   0.100   2.624
 6262SOL    HW219686   5.756   0.059   2.472
 6263SOL     OW19687   6.084   5.869   6.099
 6263SOL    HW119688   6.051   5.815   6.177
 6263SOL    HW219689   6.183   5.882   6.107
 6264SOL     OW19690   1.805   0.290   0.577
 6264SOL    HW119691   1.894   0.273   0.535
 6264SOL    HW219692   1.808   0.378   0.625
 6265SOL     OW19693   4.589   0.469   0.115
 6265SOL    HW119694   4.547   0.517   0.037
 6265SOL    HW219695   4.652   0.400   0.081
 6266SOL     OW19696   2.259   5.166   2.842
 6266SOL    HW119697   2.260   5.070   2.870
 6266SOL    HW219698   2.172   5.186   2.795
 6267SOL     OW19699   2.014   6.271   4.908
 6267SOL    HW119700   1.948   6.321   4.852
 6267SOL    HW219701   1.976   6.256   4.999
 6268SOL     OW19702   3.261   1.502   1.097
 6268SOL    HW119703   3.348   1.481   1.142
 6268SOL    HW219704   3.276   1.566   1.022
 6269SOL     OW19705   6.215   5.251   0.339
 6269SOL    HW119706   6.233   5.298   0.426
 6269SOL    HW219707   6.270   5.168   0.334
 6270SOL     OW19708   2.239   6.334   0.587
 6270SOL    HW119709   2.261   6.364   0.494
 6270SOL    HW219710   2.322   6.336   0.643
 6271SOL     OW19711   5.794   3.154   6.230
 6271SOL    HW119712   5.874   3.133   6.286
 6271SOL    HW219713   5.823   3.204   6.149
 6272SOL     OW19714   0.696   6.742   0.669
 6272SOL    HW119715   0.598   6.742   0.650
 6272SOL    HW219716   0.724   6.650   0.696
 6273SOL     OW19717   0.521   6.639   1.650
 6273SOL    HW119718   0.512   6.739   1.653
 6273SOL    HW219719   0.616   6.614   1.637
 6274SOL     OW19720   3.205   5.828   4.215
 6274SOL    HW119721   3.279   5.770   4.250
 6274SOL    HW219722   3.141   5.773   4.162
 6275SOL     OW19723   2.028   5.469   7.008
 6275SOL    HW119724   1.928   5.478   7.005
 6275SOL    HW219725   2.061   5.499   0.073
 6276SOL     OW19726   1.312   5.623   2.831
 6276SOL    HW119727   1.285   5.569   2.911
 6276SOL    HW219728   1.411   5.632   2.829
 6277SOL     OW19729   5.076   3.535   0.863
 6277SOL    HW119730   5.064   3.554   0.960
 6277SOL    HW219731   5.006   3.583   0.811
 6278SOL     OW19732   2.470   1.352   6.282
 6278SOL    HW119733   2.461   1.255   6.260
 6278SOL    HW219734   2.384   1.386   6.318
 6279SOL     OW19735   2.504   0.134   1.626
 6279SOL    HW119736   2.516   0.035   1.638
 6279SOL    HW219737   2.411   0.159   1.650
 6280SOL     OW19738   6.111   2.496   0.372
 6280SOL    HW119739   6.059   2.456   0.447
 6280SOL    HW219740   6.081   2.457   0.285
 6281SOL     OW19741   5.694   3.704   6.167
 6281SOL    HW119742   5.789   3.735   6.170
 6281SOL    HW219743   5.643   3.746   6.243
 6282SOL     OW19744   0.133   3.266   6.286
 6282SOL    HW119745   0.056   3.316   6.327
 6282SOL    HW219746   0.219   3.312   6.310
 6283SOL     OW19747   1.150   6.120   4.693
 6283SOL    HW119748   1.108   6.060   4.625
 6283SOL    HW219749   1.146   6.077   4.783
 6284SOL     OW19750   1.752   4.423   6.155
 6284SOL    HW119751   1.783   4.507   6.112
 6284SOL    HW219752   1.747   4.350   6.087
 6285SOL     OW19753   0.879   3.784   3.132
 6285SOL    HW119754   0.958   3.754   3.185
 6285SOL    HW219755   0.874   3.730   3.047
 6286SOL     OW19756   0.715   2.552   0.183
 6286SOL    HW119757   0.648   2.625   0.165
 6286SOL    HW219758   0.689   2.471   0.131
 6287SOL     OW19759   5.402   4.617   4.732
 6287SOL    HW119760   5.419   4.593   4.827
 6287SOL    HW219761   5.468   4.686   4.702
 6288SOL     OW19762   3.401   3.160   6.439
 6288SOL    HW119763   3.305   3.156   6.412
 6288SOL    HW219764   3.407   3.187   6.535
 6289SOL     OW19765   2.616   4.476   5.901
 6289SOL    HW119766   2.622   4.499   5.804
 6289SOL    HW219767   2.564   4.391   5.912
 6290SOL     OW19768   5.309   5.751   3.969
 6290SOL    HW119769   5.252   5.772   4.048
 6290SOL    HW219770   5.406   5.753   3.997
 6291SOL     OW19771   4.067   3.750   2.805
 6291SOL    HW119772   4.122   3.728   2.885
 6291SOL    HW219773   3.994   3.682   2.794
 6292SOL     OW19774   1.267   3.286   4.313
 6292SOL    HW119775   1.350   3.276   4.259
 6292SOL    HW219776   1.290   3.296   4.410
 6293SOL     OW19777   3.674   0.967   6.573
 6293SOL    HW119778   3.705   1.044   6.628
 6293SOL    HW219779   3.715   0.972   6.482
 6294SOL     OW19780   1.607   1.474   2.950
 6294SOL    HW119781   1.512   1.503   2.966
 6294SOL    HW219782   1.614   1.375   2.964
 6295SOL     OW19783   5.446   3.685   5.994
 6295SOL    HW119784   5.546   3.680   5.997
 6295SOL    HW219785   5.407   3.601   6.030
 6296SOL     OW19786   0.783   3.066   0.296
 6296SOL    HW119787   0.711   3.017   0.345
 6296SOL    HW219788   0.773   3.164   0.311
 6297SOL     OW19789   6.012   1.069   4.198
 6297SOL    HW119790   6.019   1.022   4.286
 6297SOL    HW219791   6.074   1.147   4.197
 6298SOL     OW19792   6.373   5.785   0.723
 6298SOL    HW119793   6.382   5.866   0.781
 6298SOL    HW219794   6.455   5.728   0.732
 6299SOL     OW19795   4.286   1.621   2.353
 6299SOL    HW119796   4.261   1.565   2.273
 6299SOL    HW219797   4.206   1.673   2.383
 6300SOL     OW19798   2.561   1.124   5.950
 6300SOL    HW119799   2.582   1.209   5.997
 6300SOL    HW219800   2.501   1.143   5.872
 6301SOL     OW19801   3.664   6.328   6.978
 6301SOL    HW119802   3.681   6.331   6.879
 6301SOL    HW219803   3.596   6.258   6.997
 6302SOL     OW19804   3.064   2.316   6.444
 6302SOL    HW119805   3.130   2.391   6.435
 6302SOL    HW219806   3.075   2.273   6.534
 6303SOL     OW19807   1.087   6.339   5.103
 6303SOL    HW119808   1.069   6.432   5.134
 6303SOL    HW219809   1.114   6.282   5.181
 6304SOL     OW19810   4.254   1.096   3.516
 6304SOL    HW119811   4.166   1.122   3.556
 6304SOL    HW219812   4.325   1.102   3.587
 6305SOL     OW19813   0.845   5.934   6.027
 6305SOL    HW119814   0.865   5.965   6.120
 6305SOL    HW219815   0.922   5.878   5.995
 6306SOL     OW19816   6.965   5.197   4.115
 6306SOL    HW119817   7.011   5.121   4.069
 6306SOL    HW219818   6.918   5.253   4.047
 6307SOL     OW19819   4.068   3.180   2.428
 6307SOL    HW119820   4.075   3.101   2.366
 6307SOL    HW219821   4.140   3.246   2.406
 6308SOL     OW19822   6.991   2.538   0.899
 6308SOL    HW119823   0.029   2.556   0.975
 6308SOL    HW219824   7.004   2.444   0.866
 6309SOL     OW19825   2.645   6.181   4.757
 6309SOL    HW119826   2.573   6.166   4.690
 6309SOL    HW219827   2.718   6.236   4.716
 6310SOL     OW19828   1.549   6.709   3.122
 6310SOL    HW119829   1.471   6.659   3.084
 6310SOL    HW219830   1.526   6.806   3.131
 6311SOL     OW19831   5.608   1.106   6.123
 6311SOL    HW119832   5.694   1.079   6.168
 6311SOL    HW219833   5.553   1.158   6.188
 6312SOL     OW19834   3.735   6.083   6.601
 6312SOL    HW119835   3.829   6.055   6.580
 6312SOL    HW219836   3.733   6.181   6.619
 6313SOL     OW19837   5.655   5.250   4.510
 6313SOL    HW119838   5.580   5.272   4.572
 6313SOL    HW219839   5.621   5.190   4.437
 6314SOL     OW19840   1.947   6.966   2.513
 6314SOL    HW119841   1.996   0.025   2.535
 6314SOL    HW219842   1.886   6.982   2.436
 6315SOL     OW19843   2.069   2.648   4.645
 6315SOL    HW119844   2.075   2.584   4.722
 6315SOL    HW219845   2.160   2.664   4.607
 6316SOL     OW19846   5.050   1.107   4.689
 6316SOL    HW119847   5.075   1.060   4.774
 6316SOL    HW219848   5.065   1.046   4.611
 6317SOL     OW19849   5.375   4.965   1.563
 6317SOL    HW119850   5.416   4.881   1.528
 6317SOL    HW219851   5.368   4.960   1.662
 6318SOL     OW19852   0.119   6.500   6.888
 6318SOL    HW119853   0.056   6.549   6.948
 6318SOL    HW219854   0.069   6.426   6.842
 6319SOL     OW19855   4.969   0.838   4.272
 6319SOL    HW119856   4.956   0.766   4.204
 6319SOL    HW219857   4.905   0.913   4.254
 6320SOL     OW19858   6.385   0.467   5.794
 6320SOL    HW119859   6.331   0.537   5.841
 6320SOL    HW219860   6.482   0.491   5.798
 6321SOL     OW19861   6.162   2.261   6.698
 6321SOL    HW119862   6.214   2.346   6.690
 6321SOL    HW219863   6.202   2.192   6.638
 6322SOL     OW19864   1.245   1.148   2.208
 6322SOL    HW119865   1.326   1.166   2.151
 6322SOL    HW219866   1.163   1.171   2.156
 6323SOL     OW19867   2.463   4.546   1.304
 6323SOL    HW119868   2.476   4.525   1.207
 6323SOL    HW219869   2.421   4.467   1.349
 6324SOL     OW19870   4.336   1.646   1.145
 6324SOL    HW119871   4.427   1.684   1.130
 6324SOL    HW219872   4.269   1.695   1.089
 6325SOL     OW19873   1.728   3.131   4.073
 6325SOL    HW119874   1.788   3.202   4.108
 6325SOL    HW219875   1.740   3.047   4.127
 6326SOL     OW19876   5.517   4.916   6.228
 6326SOL    HW119877   5.477   4.824   6.234
 6326SOL    HW219878   5.568   4.924   6.142
 6327SOL     OW19879   6.976   0.559   3.972
 6327SOL    HW119880   6.932   0.645   3.997
 6327SOL    HW219881   6.948   0.534   3.879
 6328SOL     OW19882   4.377   3.560   5.245
 6328SOL    HW119883   4.465   3.545   5.201
 6328SOL    HW219884   4.303   3.540   5.180
 6329SOL     OW19885   0.809   2.434   6.282
 6329SOL    HW119886   0.891   2.378   6.267
 6329SOL    HW219887   0.753   2.433   6.199
 6330SOL     OW19888   5.351   1.698   3.332
 6330SOL    HW119889   5.303   1.615   3.361
 6330SOL    HW219890   5.341   1.710   3.233
 6331SOL     OW19891   1.009   3.328   3.736
 6331SOL    HW119892   1.008   3.375   3.648
 6331SOL    HW219893   1.063   3.245   3.729
 6332SOL     OW19894   3.368   1.849   7.000
 6332SOL    HW119895   3.405   1.878   0.063
 6332SOL    HW219896   3.434   1.869   6.927
 6333SOL     OW19897   5.086   1.708   0.688
 6333SOL    HW119898   5.005   1.670   0.733
 6333SOL    HW219899   5.143   1.634   0.654
 6334SOL     OW19900   1.550   1.431   2.168
 6334SOL    HW119901   1.529   1.520   2.208
 6334SOL    HW219902   1.577   1.367   2.239
 6335SOL     OW19903   6.357   1.579   0.067
 6335SOL    HW119904   6.383   1.627   0.151
 6335SOL    HW219905   6.297   1.638   0.013
 6336SOL     OW19906   0.933   3.312   5.648
 6336SOL    HW119907   0.927   3.303   5.747
 6336SOL    HW219908   0.877   3.389   5.618
 6337SOL     OW19909   4.930   5.418   5.365
 6337SOL    HW119910   4.970   5.333   5.400
 6337SOL    HW219911   4.832   5.406   5.355
 6338SOL     OW19912   2.261   1.018   3.221
 6338SOL    HW119913   2.249   1.107   3.264
 6338SOL    HW219914   2.258   0.946   3.292
 6339SOL     OW19915   0.367   4.575   3.471
 6339SOL    HW119916   0.352   4.631   3.390
 6339SOL    HW219917   0.284   4.576   3.527
 6340SOL     OW19918   2.229   4.039   0.913
 6340SOL    HW119919   2.239   4.111   0.981
 6340SOL    HW219920   2.316   4.025   0.866
 6341SOL     OW19921   0.422   5.073   3.380
 6341SOL    HW119922   0.510   5.064   3.426
 6341SOL    HW219923   0.435   5.060   3.281
 6342SOL     OW19924   2.373   1.488   1.217
 6342SOL    HW119925   2.276   1.469   1.205
 6342SOL    HW219926   2.423   1.457   1.136
 6343SOL     OW19927   1.373   5.572   0.995
 6343SOL    HW119928   1.457   5.619   1.022
 6343SOL    HW219929   1.297   5.607   1.049
 6344SOL     OW19930   6.779   1.176   4.070
 6344SOL    HW119931   6.739   1.245   4.009
 6344SOL    HW219932   6.706   1.129   4.119
 6345SOL     OW19933   5.592   3.249   1.792
 6345SOL    HW119934   5.611   3.257   1.694
 6345SOL    HW219935   5.600   3.339   1.835
 6346SOL     OW19936   6.695   4.343   5.466
 6346SOL    HW119937   6.746   4.269   5.511
 6346SOL    HW219938   6.657   4.404   5.536
 6347SOL     OW19939   1.689   2.089   3.329
 6347SOL    HW119940   1.775   2.059   3.288
 6347SOL    HW219941   1.693   2.076   3.428
 6348SOL     OW19942   0.740   1.894   6.333
 6348SOL    HW119943   0.807   1.839   6.284
 6348SOL    HW219944   0.649   1.852   6.324
 6349SOL     OW19945   6.784   1.158   0.175
 6349SOL    HW119946   6.788   1.184   0.078
 6349SOL    HW219947   6.872   1.178   0.218
 6350SOL     OW19948   1.074   5.334   2.012
 6350SOL    HW119949   1.170   5.307   2.013
 6350SOL    HW219950   1.056   5.390   1.932
 6351SOL     OW19951   5.675   2.817   1.887
 6351SOL    HW119952   5.707   2.759   1.962
 6351SOL    HW219953   5.706   2.911   1.902
 6352SOL     OW19954   3.144   0.764   4.286
 6352SOL    HW119955   3.154   0.863   4.275
 6352SOL    HW219956   3.165   0.719   4.199
 6353SOL     OW19957   3.269   6.316   5.563
 6353SOL    HW119958   3.286   6.376   5.484
 6353SOL    HW219959   3.175   6.330   5.595
 6354SOL     OW19960   4.752   5.491   1.592
 6354SOL    HW119961   4.737   5.590   1.590
 6354SOL    HW219962   4.673   5.446   1.635
 6355SOL     OW19963   2.446   4.487   1.030
 6355SOL    HW119964   2.460   4.388   1.034
 6355SOL    HW219965   2.496   4.525   0.952
 6356SOL     OW19966   6.468   5.045   6.448
 6356SOL    HW119967   6.553   5.097   6.443
 6356SOL    HW219968   6.482   4.954   6.408
 6357SOL     OW19969   5.808   1.167   1.920
 6357SOL    HW119970   5.850   1.086   1.960
 6357SOL    HW219971   5.867   1.246   1.936
 6358SOL     OW19972   0.965   1.994   6.065
 6358SOL    HW119973   0.908   2.049   6.126
 6358SOL    HW219974   1.043   1.958   6.116
 6359SOL     OW19975   5.584   6.428   0.719
 6359SOL    HW119976   5.562   6.336   0.751
 6359SOL    HW219977   5.676   6.429   0.680
 6360SOL     OW19978   0.578   2.078   2.212
 6360SOL    HW119979   0.497   2.020   2.198
 6360SOL    HW219980   0.655   2.041   2.160
 6361SOL     OW19981   0.023   0.679   6.751
 6361SOL    HW119982   7.014   0.773   6.744
 6361SOL    HW219983   6.990   0.619   6.695
 6362SOL     OW19984   1.416   5.725   0.461
 6362SOL    HW119985   1.392   5.670   0.541
 6362SOL    HW219986   1.376   5.816   0.469
 6363SOL     OW19987   2.428   4.385   3.111
 6363SOL    HW119988   2.449   4.372   3.208
 6363SOL    HW219989   2.358   4.319   3.083
 6364SOL     OW19990   2.328   2.692   4.555
 6364SOL    HW119991   2.402   2.630   4.580
 6364SOL    HW219992   2.337   2.777   4.607
 6365SOL     OW19993   5.655   6.441   2.807
 6365SOL    HW119994   5.676   6.522   2.862
 6365SOL    HW219995   5.641   6.362   2.868
 6366SOL     OW19996   6.066   0.355   4.999
 6366SOL    HW119997   6.069   0.258   4.978
 6366SOL    HW219998   6.036   0.406   4.918
 6367SOL     OW19999   1.804   2.004   2.010
 6367SOL    HW120000   1.776   1.915   2.046
 6367SOL    HW220001   1.903   2.004   1.993
 6368SOL     OW20002   4.864   3.106   4.354
 6368SOL    HW120003   4.833   3.049   4.277
 6368SOL    HW220004   4.836   3.063   4.440
 6369SOL     OW20005   3.997   5.683   6.929
 6369SOL    HW120006   3.912   5.630   6.921
 6369SOL    HW220007   4.067   5.628   6.974
 6370SOL     OW20008   5.205   3.559   4.394
 6370SOL    HW120009   5.285   3.503   4.415
 6370SOL    HW220010   5.210   3.645   4.446
 6371SOL     OW20011   5.093   4.174   1.363
 6371SOL    HW120012   5.186   4.183   1.327
 6371SOL    HW220013   5.033   4.239   1.316
 6372SOL     OW20014   6.752   1.587   2.444
 6372SOL    HW120015   6.682   1.580   2.373
 6372SOL    HW220016   6.830   1.529   2.420
 6373SOL     OW20017   4.425   4.329   1.333
 6373SOL    HW120018   4.349   4.340   1.397
 6373SOL    HW220019   4.400   4.263   1.262
 6374SOL     OW20020   4.675   3.862   6.690
 6374SOL    HW120021   4.705   3.777   6.732
 6374SOL    HW220022   4.576   3.868   6.693
 6375SOL     OW20023   5.293   2.256   1.905
 6375SOL    HW120024   5.194   2.260   1.899
 6375SOL    HW220025   5.321   2.168   1.943
 6376SOL     OW20026   3.363   0.893   6.869
 6376SOL    HW120027   3.326   0.907   6.961
 6376SOL    HW220028   3.438   0.827   6.872
 6377SOL     OW20029   0.077   0.616   0.435
 6377SOL    HW120030   0.044   0.628   0.528
 6377SOL    HW220031   0.177   0.618   0.435
 6378SOL     OW20032   5.304   5.449   1.974
 6378SOL    HW120033   5.340   5.356   1.966
 6378SOL    HW220034   5.267   5.463   2.066
 6379SOL     OW20035   2.093   5.816   6.367
 6379SOL    HW120036   2.123   5.903   6.329
 6379SOL    HW220037   2.163   5.747   6.352
 6380SOL     OW20038   1.461   3.778   4.939
 6380SOL    HW120039   1.517   3.859   4.952
 6380SOL    HW220040   1.401   3.765   5.017
 6381SOL     OW20041   4.206   2.488   6.819
 6381SOL    HW120042   4.296   2.491   6.862
 6381SOL    HW220043   4.167   2.397   6.829
 6382SOL     OW20044   1.672   1.784   0.871
 6382SOL    HW120045   1.726   1.820   0.795
 6382SOL    HW220046   1.713   1.814   0.957
 6383SOL     OW20047   2.621   2.405   2.194
 6383SOL    HW120048   2.553   2.475   2.171
 6383SOL    HW220049   2.707   2.426   2.147
 6384SOL     OW20050   6.480   2.713   2.160
 6384SOL    HW120051   6.516   2.639   2.217
 6384SOL    HW220052   6.554   2.775   2.134
 6385SOL     OW20053   6.972   3.056   1.378
 6385SOL    HW120054   6.891   3.098   1.418
 6385SOL    HW220055   0.029   3.092   1.423
 6386SOL     OW20056   2.492   4.056   0.608
 6386SOL    HW120057   2.510   3.969   0.655
 6386SOL    HW220058   2.577   4.091   0.569
 6387SOL     OW20059   6.980   7.018   6.398
 6387SOL    HW120060   6.966   7.019   6.299
 6387SOL    HW220061   0.051   6.996   6.418
 6388SOL     OW20062   6.476   5.224   2.111
 6388SOL    HW120063   6.542   5.208   2.185
 6388SOL    HW220064   6.434   5.314   2.123
 6389SOL     OW20065   0.400   0.585   0.492
 6389SOL    HW120066   0.392   0.504   0.551
 6389SOL    HW220067   0.441   0.558   0.405
 6390SOL     OW20068   5.508   0.414   6.541
 6390SOL    HW120069   5.525   0.512   6.545
 6390SOL    HW220070   5.508   0.384   6.446
 6391SOL     OW20071   0.842   1.331   5.288
 6391SOL    HW120072   0.925   1.359   5.240
 6391SOL    HW220073   0.763   1.342   5.227
 6392SOL     OW20074   3.930   6.678   3.223
 6392SOL    HW120075   3.887   6.597   3.182
 6392SOL    HW220076   3.985   6.649   3.301
 6393SOL     OW20077   0.975   5.389   0.188
 6393SOL    HW120078   0.891   5.444   0.183
 6393SOL    HW220079   0.971   5.330   0.269
 6394SOL     OW20080   1.364   5.597   1.601
 6394SOL    HW120081   1.403   5.507   1.622
 6394SOL    HW220082   1.421   5.642   1.533
 6395SOL     OW20083   2.085   4.036   3.167
 6395SOL    HW120084   2.119   3.993   3.083
 6395SOL    HW220085   2.046   3.966   3.227
 6396SOL     OW20086   1.110   3.746   6.394
 6396SOL    HW120087   1.043   3.738   6.468
 6396SOL    HW220088   1.192   3.793   6.428
 6397SOL     OW20089   5.540   3.142   4.290
 6397SOL    HW120090   5.614   3.137   4.223
 6397SOL    HW220091   5.466   3.080   4.263
 6398SOL     OW20092   2.228   0.667   0.987
 6398SOL    HW120093   2.236   0.604   1.064
 6398SOL    HW220094   2.182   0.751   1.018
 6399SOL     OW20095   3.122   0.772   6.118
 6399SOL    HW120096   3.142   0.675   6.102
 6399SOL    HW220097   3.202   0.827   6.094
 6400SOL     OW20098   1.841   6.489   3.332
 6400SOL    HW120099   1.763   6.461   3.387
 6400SOL    HW220100   1.923   6.439   3.361
 6401SOL     OW20101   3.838   5.800   3.348
 6401SOL    HW120102   3.865   5.707   3.324
 6401SOL    HW220103   3.810   5.803   3.444
 6402SOL     OW20104   1.774   4.705   4.887
 6402SOL    HW120105   1.739   4.777   4.827
 6402SOL    HW220106   1.713   4.695   4.966
 6403SOL     OW20107   5.007   5.527   5.138
 6403SOL    HW120108   5.105   5.514   5.129
 6403SOL    HW220109   4.979   5.508   5.232
 6404SOL     OW20110   4.498   6.907   1.978
 6404SOL    HW120111   4.476   6.972   2.051
 6404SOL    HW220112   4.587   6.864   1.997
 6405SOL     OW20113   5.469   1.894   2.519
 6405SOL    HW120114   5.448   1.960   2.591
 6405SOL    HW220115   5.559   1.914   2.480
 6406SOL     OW20116   6.747   3.109   3.259
 6406SOL    HW120117   6.673   3.073   3.316
 6406SOL    HW220118   6.805   3.169   3.313
 6407SOL     OW20119   0.680   6.112   2.235
 6407SOL    HW120120   0.616   6.089   2.309
 6407SOL    HW220121   0.680   6.037   2.168
 6408SOL     OW20122   6.824   0.571   1.974
 6408SOL    HW120123   6.821   0.565   1.875
 6408SOL    HW220124   6.801   0.481   2.014
 6409SOL     OW20125   5.647   5.307   3.516
 6409SOL    HW120126   5.709   5.386   3.513
 6409SOL    HW220127   5.616   5.286   3.424
 6410SOL     OW20128   1.735   1.503   6.311
 6410SOL    HW120129   1.682   1.579   6.348
 6410SOL    HW220130   1.725   1.501   6.211
 6411SOL     OW20131   0.529   2.341   2.057
 6411SOL    HW120132   0.512   2.266   2.122
 6411SOL    HW220133   0.445   2.391   2.041
 6412SOL     OW20134   3.514   1.077   0.382
 6412SOL    HW120135   3.503   1.076   0.283
 6412SOL    HW220136   3.607   1.108   0.406
 6413SOL     OW20137   4.679   6.521   3.027
 6413SOL    HW120138   4.598   6.463   3.021
 6413SOL    HW220139   4.746   6.493   2.959
 6414SOL     OW20140   1.558   0.332   0.462
 6414SOL    HW120141   1.527   0.292   0.549
 6414SOL    HW220142   1.657   0.339   0.462
 6415SOL     OW20143   0.218   2.577   3.601
 6415SOL    HW120144   0.207   2.584   3.502
 6415SOL    HW220145   0.130   2.553   3.642
 6416SOL     OW20146   2.517   6.628   0.137
 6416SOL    HW120147   2.614   6.629   0.158
 6416SOL    HW220148   2.503   6.594   0.044
 6417SOL     OW20149   3.949   1.969   0.307
 6417SOL    HW120150   4.008   2.021   0.244
 6417SOL    HW220151   3.875   2.028   0.340
 6418SOL     OW20152   4.358   4.661   0.395
 6418SOL    HW120153   4.377   4.593   0.466
 6418SOL    HW220154   4.366   4.619   0.305
 6419SOL     OW20155   0.888   6.634   6.602
 6419SOL    HW120156   0.793   6.663   6.585
 6419SOL    HW220157   0.909   6.555   6.544
 6420SOL     OW20158   2.129   4.037   4.522
 6420SOL    HW120159   2.189   4.046   4.442
 6420SOL    HW220160   2.175   4.074   4.602
 6421SOL     OW20161   3.907   7.012   2.353
 6421SOL    HW120162   4.006   7.003   2.366
 6421SOL    HW220163   3.872   6.932   2.305
 6422SOL     OW20164   5.808   1.937   4.491
 6422SOL    HW120165   5.768   1.996   4.561
 6422SOL    HW220166   5.734   1.889   4.443
 6423SOL     OW20167   1.697   4.653   4.402
 6423SOL    HW120168   1.773   4.710   4.372
 6423SOL    HW220169   1.726   4.596   4.478
 6424SOL     OW20170   6.289   4.408   5.316
 6424SOL    HW120171   6.242   4.399   5.228
 6424SOL    HW220172   6.362   4.339   5.322
 6425SOL     OW20173   6.426   5.373   4.306
 6425SOL    HW120174   6.348   5.313   4.323
 6425SOL    HW220175   6.499   5.321   4.260
 6426SOL     OW20176   4.594   4.024   5.215
 6426SOL    HW120177   4.656   4.003   5.291
 6426SOL    HW220178   4.647   4.042   5.132
 6427SOL     OW20179   3.890   3.137   3.199
 6427SOL    HW120180   3.820   3.085   3.151
 6427SOL    HW220181   3.846   3.202   3.262
 6428SOL     OW20182   5.567   3.264   0.554
 6428SOL    HW120183   5.642   3.214   0.599
 6428SOL    HW220184   5.484   3.256   0.609
 6429SOL     OW20185   2.204   1.288   5.375
 6429SOL    HW120186   2.189   1.201   5.328
 6429SOL    HW220187   2.163   1.284   5.466
 6430SOL     OW20188   6.582   6.838   5.222
 6430SOL    HW120189   6.512   6.898   5.261
 6430SOL    HW220190   6.601   6.764   5.286
 6431SOL     OW20191   3.789   4.623   1.622
 6431SOL    HW120192   3.709   4.607   1.681
 6431SOL    HW220193   3.787   4.560   1.545
 6432SOL     OW20194   4.824   4.565   6.004
 6432SOL    HW120195   4.863   4.567   6.096
 6432SOL    HW220196   4.756   4.491   5.998
 6433SOL     OW20197   3.062   5.221   6.958
 6433SOL    HW120198   3.083   5.123   6.950
 6433SOL    HW220199   3.138   5.274   6.922
 6434SOL     OW20200   4.151   5.377   6.351
 6434SOL    HW120201   4.248   5.369   6.377
 6434SOL    HW220202   4.112   5.286   6.343
 6435SOL     OW20203   4.942   1.743   1.152
 6435SOL    HW120204   4.974   1.800   1.076
 6435SOL    HW220205   5.021   1.712   1.205
 6436SOL     OW20206   6.829   3.961   4.198
 6436SOL    HW120207   6.859   3.956   4.293
 6436SOL    HW220208   6.732   3.983   4.194
 6437SOL     OW20209   1.011   2.106   5.590
 6437SOL    HW120210   0.950   2.108   5.510
 6437SOL    HW220211   0.970   2.050   5.661
 6438SOL     OW20212   0.781   4.827   0.923
 6438SOL    HW120213   0.820   4.760   0.985
 6438SOL    HW220214   0.682   4.834   0.940
 6439SOL     OW20215   5.451   7.007   2.972
 6439SOL    HW120216   5.416   6.952   3.048
 6439SOL    HW220217   5.548   6.986   2.957
 6440SOL     OW20218   3.273   2.154   6.588
 6440SOL    HW120219   3.206   2.095   6.543
 6440SOL    HW220220   3.325   2.204   6.519
 6441SOL     OW20221   0.775   1.563   2.748
 6441SOL    HW120222   0.711   1.630   2.785
 6441SOL    HW220223   0.854   1.611   2.708
 6442SOL     OW20224   2.782   2.590   5.286
 6442SOL    HW120225   2.737   2.677   5.306
 6442SOL    HW220226   2.881   2.601   5.292
 6443SOL     OW20227   4.576   2.899   0.143
 6443SOL    HW120228   4.530   2.907   0.231
 6443SOL    HW220229   4.536   2.823   0.091
 6444SOL     OW20230   6.327   3.178   4.945
 6444SOL    HW120231   6.303   3.178   5.043
 6444SOL    HW220232   6.280   3.102   4.900
 6445SOL     OW20233   3.023   3.223   3.054
 6445SOL    HW120234   3.123   3.226   3.052
 6445SOL    HW220235   2.994   3.136   3.093
 6446SOL     OW20236   1.790   1.130   6.600
 6446SOL    HW120237   1.838   1.164   6.519
 6446SOL    HW220238   1.723   1.198   6.630
 6447SOL     OW20239   6.041   3.473   1.697
 6447SOL    HW120240   6.120   3.437   1.746
 6447SOL    HW220241   6.028   3.420   1.613
 6448SOL     OW20242   3.625   5.702   1.269
 6448SOL    HW120243   3.551   5.766   1.246
 6448SOL    HW220244   3.589   5.609   1.273
 6449SOL     OW20245   2.363   5.690   1.443
 6449SOL    HW120246   2.326   5.728   1.359
 6449SOL    HW220247   2.416   5.759   1.491
 6450SOL     OW20248   0.704   4.369   1.168
 6450SOL    HW120249   0.698   4.375   1.267
 6450SOL    HW220250   0.754   4.448   1.132
 6451SOL     OW20251   4.740   2.246   1.336
 6451SOL    HW120252   4.649   2.257   1.296
 6451SOL    HW220253   4.732   2.242   1.436
 6452SOL     OW20254   4.738   1.994   3.532
 6452SOL    HW120255   4.742   1.943   3.446
 6452SOL    HW220256   4.643   2.020   3.550
 6453SOL     OW20257   2.453   0.935   1.436
 6453SOL    HW120258   2.393   0.863   1.471
 6453SOL    HW220259   2.544   0.925   1.476
 6454SOL     OW20260   5.329   2.620   3.529
 6454SOL    HW120261   5.230   2.622   3.545
 6454SOL    HW220262   5.354   2.531   3.491
 6455SOL     OW20263   6.548   3.607   3.651
 6455SOL    HW120264   6.492   3.526   3.632
 6455SOL    HW220265   6.545   3.626   3.749
 6456SOL     OW20266   6.085   1.191   2.712
 6456SOL    HW120267   5.986   1.197   2.728
 6456SOL    HW220268   6.102   1.152   2.622
 6457SOL     OW20269   3.511   0.176   1.790
 6457SOL    HW120270   3.522   0.151   1.693
 6457SOL    HW220271   3.541   0.100   1.847
 6458SOL     OW20272   0.004   5.366   3.704
 6458SOL    HW120273   6.944   5.415   3.720
 6458SOL    HW220274   7.021   5.273   3.740
 6459SOL     OW20275   6.789   3.336   2.644
 6459SOL    HW120276   6.782   3.267   2.716
 6459SOL    HW220277   6.698   3.374   2.626
 6460SOL     OW20278   0.533   5.771   6.303
 6460SOL    HW120279   0.587   5.750   6.385
 6460SOL    HW220280   0.550   5.702   6.233
 6461SOL     OW20281   1.898   5.519   1.059
 6461SOL    HW120282   1.871   5.574   1.137
 6461SOL    HW220283   1.985   5.474   1.078
 6462SOL     OW20284   1.483   3.498   5.537
 6462SOL    HW120285   1.461   3.418   5.482
 6462SOL    HW220286   1.574   3.487   5.577
 6463SOL     OW20287   4.827   1.773   1.464
 6463SOL    HW120288   4.820   1.678   1.494
 6463SOL    HW220289   4.749   1.796   1.407
 6464SOL     OW20290   0.917   4.575   4.148
 6464SOL    HW120291   0.992   4.639   4.132
 6464SOL    HW220292   0.917   4.547   4.244
 6465SOL     OW20293   3.863   1.169   3.436
 6465SOL    HW120294   3.897   1.153   3.343
 6465SOL    HW220295   3.763   1.172   3.435
 6466SOL     OW20296   7.024   3.709   0.660
 6466SOL    HW120297   6.931   3.675   0.647
 6466SOL    HW220298   7.020   3.805   0.687
 6467SOL     OW20299   2.733   2.945   0.628
 6467SOL    HW120300   2.663   2.998   0.579
 6467SOL    HW220301   2.740   2.978   0.722
 6468SOL     OW20302   2.318   1.642   0.906
 6468SOL    HW120303   2.239   1.581   0.903
 6468SOL    HW220304   2.387   1.611   0.841
 6469SOL     OW20305   3.420   1.449   2.652
 6469SOL    HW120306   3.473   1.401   2.721
 6469SOL    HW220307   3.467   1.533   2.625
 6470SOL     OW20308   6.691   2.054   0.150
 6470SOL    HW120309   6.743   2.103   0.080
 6470SOL    HW220310   6.636   1.982   0.107
 6471SOL     OW20311   0.929   6.764   6.143
 6471SOL    HW120312   0.906   6.802   6.233
 6471SOL    HW220313   0.848   6.722   6.102
 6472SOL     OW20314   6.533   6.350   2.683
 6472SOL    HW120315   6.521   6.275   2.748
 6472SOL    HW220316   6.458   6.415   2.694
 6473SOL     OW20317   2.565   1.151   3.714
 6473SOL    HW120318   2.516   1.108   3.790
 6473SOL    HW220319   2.644   1.200   3.749
 6474SOL     OW20320   3.656   5.359   4.938
 6474SOL    HW120321   3.662   5.266   4.901
 6474SOL    HW220322   3.606   5.417   4.874
 6475SOL     OW20323   6.010   5.107   2.663
 6475SOL    HW120324   6.064   5.189   2.683
 6475SOL    HW220325   6.054   5.055   2.590
 6476SOL     OW20326   4.026   1.946   6.319
 6476SOL    HW120327   3.944   1.997   6.296
 6476SOL    HW220328   4.045   1.954   6.417
 6477SOL     OW20329   6.585   5.762   1.259
 6477SOL    HW120330   6.556   5.697   1.188
 6477SOL    HW220331   6.545   5.736   1.347
 6478SOL     OW20332   3.464   5.891   1.165
 6478SOL    HW120333   3.398   5.951   1.120
 6478SOL    HW220334   3.548   5.941   1.183
 6479SOL     OW20335   3.340   6.106   3.670
 6479SOL    HW120336   3.430   6.076   3.640
 6479SOL    HW220337   3.286   6.132   3.590
 6480SOL     OW20338   3.852   2.297   6.621
 6480SOL    HW120339   3.944   2.335   6.607
 6480SOL    HW220340   3.852   2.238   6.701
 6481SOL     OW20341   3.615   2.839   1.604
 6481SOL    HW120342   3.526   2.797   1.587
 6481SOL    HW220343   3.687   2.770   1.592
 6482SOL     OW20344   5.743   3.871   5.629
 6482SOL    HW120345   5.703   3.912   5.711
 6482SOL    HW220346   5.842   3.885   5.629
 6483SOL     OW20347   1.530   6.544   4.976
 6483SOL    HW120348   1.504   6.483   4.901
 6483SOL    HW220349   1.473   6.626   4.974
 6484SOL     OW20350   2.530   0.618   3.815
 6484SOL    HW120351   2.538   0.690   3.746
 6484SOL    HW220352   2.620   0.599   3.854
 6485SOL     OW20353   2.344   6.445   4.890
 6485SOL    HW120354   2.315   6.372   4.952
 6485SOL    HW220355   2.268   6.470   4.830
 6486SOL     OW20356   1.648   5.235   3.294
 6486SOL    HW120357   1.657   5.324   3.249
 6486SOL    HW220358   1.622   5.167   3.225
 6487SOL     OW20359   5.771   4.735   3.726
 6487SOL    HW120360   5.815   4.651   3.758
 6487SOL    HW220361   5.840   4.806   3.714
 6488SOL     OW20362   4.525   5.315   4.909
 6488SOL    HW120363   4.558   5.351   4.822
 6488SOL    HW220364   4.516   5.390   4.975
 6489SOL     OW20365   4.630   2.650   5.748
 6489SOL    HW120366   4.634   2.561   5.703
 6489SOL    HW220367   4.724   2.684   5.762
 6490SOL     OW20368   2.114   2.553   6.719
 6490SOL    HW120369   2.043   2.620   6.698
 6490SOL    HW220370   2.102   2.472   6.661
 6491SOL     OW20371   2.608   0.165   1.964
 6491SOL    HW120372   2.571   0.250   2.001
 6491SOL    HW220373   2.546   0.089   1.986
 6492SOL     OW20374   3.489   3.713   4.719
 6492SOL    HW120375   3.503   3.773   4.640
 6492SOL    HW220376   3.420   3.644   4.697
 6493SOL     OW20377   0.686   3.844   5.290
 6493SOL    HW120378   0.742   3.766   5.261
 6493SOL    HW220379   0.604   3.810   5.336
 6494SOL     OW20380   6.307   0.304   1.420
 6494SOL    HW120381   6.218   0.286   1.377
 6494SOL    HW220382   6.303   0.276   1.516
 6495SOL     OW20383   5.833   0.300   3.585
 6495SOL    HW120384   5.825   0.204   3.613
 6495SOL    HW220385   5.888   0.349   3.653
 6496SOL     OW20386   3.516   1.447   1.165
 6496SOL    HW120387   3.551   1.541   1.166
 6496SOL    HW220388   3.593   1.383   1.162
 6497SOL     OW20389   0.315   1.479   0.395
 6497SOL    HW120390   0.373   1.509   0.471
 6497SOL    HW220391   0.372   1.445   0.320
 6498SOL     OW20392   0.747   4.891   4.260
 6498SOL    HW120393   0.653   4.906   4.289
 6498SOL    HW220394   0.748   4.833   4.179
 6499SOL     OW20395   4.950   3.479   3.146
 6499SOL    HW120396   4.978   3.409   3.080
 6499SOL    HW220397   4.962   3.570   3.105
 6500SOL     OW20398   1.147   4.359   2.855
 6500SOL    HW120399   1.164   4.373   2.757
 6500SOL    HW220400   1.065   4.304   2.867
 6501SOL     OW20401   5.833   1.659   1.341
 6501SOL    HW120402   5.734   1.667   1.352
 6501SOL    HW220403   5.879   1.732   1.391
 6502SOL     OW20404   6.871   3.415   2.293
 6502SOL    HW120405   6.916   3.465   2.219
 6502SOL    HW220406   6.774   3.441   2.296
 6503SOL     OW20407   6.689   3.118   5.537
 6503SOL    HW120408   6.595   3.141   5.510
 6503SOL    HW220409   6.713   3.028   5.500
 6504SOL     OW20410   4.897   5.832   6.280
 6504SOL    HW120411   4.934   5.864   6.193
 6504SOL    HW220412   4.812   5.880   6.301
 6505SOL     OW20413   6.961   5.854   0.453
 6505SOL    HW120414   6.966   5.861   0.353
 6505SOL    HW220415   0.008   5.792   0.485
 6506SOL     OW20416   0.018   3.874   2.264
 6506SOL    HW120417   6.997   3.894   2.351
 6506SOL    HW220418   0.031   3.776   2.256
 6507SOL     OW20419   3.512   4.639   6.709
 6507SOL    HW120420   3.428   4.635   6.655
 6507SOL    HW220421   3.591   4.648   6.648
 6508SOL     OW20422   0.771   0.041   2.609
 6508SOL    HW120423   0.832   7.018   2.547
 6508SOL    HW220424   0.728   7.001   2.672
 6509SOL     OW20425   2.966   1.714   6.179
 6509SOL    HW120426   2.978   1.624   6.137
 6509SOL    HW220427   3.043   1.735   6.238
 6510SOL     OW20428   3.863   5.772   5.694
 6510SOL    HW120429   3.907   5.759   5.783
 6510SOL    HW220430   3.769   5.739   5.697
 6511SOL     OW20431   2.865   1.426   1.005
 6511SOL    HW120432   2.842   1.403   1.099
 6511SOL    HW220433   2.829   1.356   0.943
 6512SOL     OW20434   3.659   1.896   0.176
 6512SOL    HW120435   3.597   1.974   0.183
 6512SOL    HW220436   3.750   1.928   0.151
 6513SOL     OW20437   2.087   5.143   3.094
 6513SOL    HW120438   2.029   5.130   3.174
 6513SOL    HW220439   2.180   5.112   3.115
 6514SOL     OW20440   5.301   6.833   5.655
 6514SOL    HW120441   5.258   6.840   5.745
 6514SOL    HW220442   5.385   6.779   5.662
 6515SOL     OW20443   1.446   4.880   2.369
 6515SOL    HW120444   1.452   4.844   2.276
 6515SOL    HW220445   1.523   4.846   2.424
 6516SOL     OW20446   6.865   3.921   1.613
 6516SOL    HW120447   6.842   4.016   1.638
 6516SOL    HW220448   6.883   3.916   1.515
 6517SOL     OW20449   0.200   3.406   0.985
 6517SOL    HW120450   0.144   3.326   1.007
 6517SOL    HW220451   0.142   3.478   0.948
 6518SOL     OW20452   1.243   1.713   2.802
 6518SOL    HW120453   1.275   1.638   2.860
 6518SOL    HW220454   1.257   1.800   2.850
 6519SOL     OW20455   1.315   0.981   3.172
 6519SOL    HW120456   1.373   1.052   3.213
 6519SOL    HW220457   1.372   0.908   3.135
 6520SOL     OW20458   0.498   4.973   6.896
 6520SOL    HW120459   0.457   4.949   6.808
 6520SOL    HW220460   0.598   4.966   6.889
 6521SOL     OW20461   1.118   4.370   3.900
 6521SOL    HW120462   1.168   4.421   3.831
 6521SOL    HW220463   1.145   4.400   3.991
 6522SOL     OW20464   2.531   3.226   5.344
 6522SOL    HW120465   2.519   3.141   5.293
 6522SOL    HW220466   2.446   3.248   5.392
 6523SOL     OW20467   5.790   0.438   0.536
 6523SOL    HW120468   5.783   0.360   0.473
 6523SOL    HW220469   5.698   0.467   0.564
 6524SOL     OW20470   2.486   2.803   0.915
 6524SOL    HW120471   2.452   2.756   0.996
 6524SOL    HW220472   2.460   2.751   0.833
 6525SOL     OW20473   0.782   4.930   3.180
 6525SOL    HW120474   0.879   4.910   3.170
 6525SOL    HW220475   0.748   4.977   3.098
 6526SOL     OW20476   0.784   6.063   6.784
 6526SOL    HW120477   0.799   6.134   6.715
 6526SOL    HW220478   0.866   6.056   6.842
 6527SOL     OW20479   6.991   1.803   0.309
 6527SOL    HW120480   6.939   1.836   0.387
 6527SOL    HW220481   7.007   1.705   0.318
 6528SOL     OW20482   4.616   0.055   0.113
 6528SOL    HW120483   4.646   0.054   0.208
 6528SOL    HW220484   4.546   7.009   0.100
 6529SOL     OW20485   6.319   0.915   2.440
 6529SOL    HW120486   6.270   0.831   2.462
 6529SOL    HW220487   6.383   0.937   2.514
 6530SOL     OW20488   0.914   3.129   2.652
 6530SOL    HW120489   1.012   3.133   2.632
 6530SOL    HW220490   0.874   3.220   2.638
 6531SOL     OW20491   3.752   4.002   4.767
 6531SOL    HW120492   3.741   4.065   4.690
 6531SOL    HW220493   3.810   3.926   4.740
 6532SOL     OW20494   1.105   0.713   0.680
 6532SOL    HW120495   1.049   0.787   0.717
 6532SOL    HW220496   1.200   0.727   0.706
 6533SOL     OW20497   4.591   3.555   0.644
 6533SOL    HW120498   4.596   3.458   0.668
 6533SOL    HW220499   4.553   3.607   0.721
 6534SOL     OW20500   6.519   4.621   3.151
 6534SOL    HW120501   6.453   4.575   3.091
 6534SOL    HW220502   6.490   4.716   3.164
 6535SOL     OW20503   5.755   2.801   5.301
 6535SOL    HW120504   5.778   2.708   5.272
 6535SOL    HW220505   5.735   2.802   5.399
 6536SOL     OW20506   0.666   4.241   5.405
 6536SOL    HW120507   0.754   4.193   5.404
 6536SOL    HW220508   0.677   4.330   5.449
 6537SOL     OW20509   6.097   5.396   4.340
 6537SOL    HW120510   6.062   5.420   4.431
 6537SOL    HW220511   6.119   5.299   4.338
 6538SOL     OW20512   1.970   2.951   5.775
 6538SOL    HW120513   2.047   2.889   5.757
 6538SOL    HW220514   2.001   3.026   5.834
 6539SOL     OW20515   5.517   1.289   5.929
 6539SOL    HW120516   5.505   1.245   5.841
 6539SOL    HW220517   5.582   1.238   5.985
 6540SOL     OW20518   6.230   2.658   5.528
 6540SOL    HW120519   6.327   2.631   5.526
 6540SOL    HW220520   6.217   2.738   5.469
 6541SOL     OW20521   6.331   0.721   4.974
 6541SOL    HW120522   6.301   0.644   5.031
 6541SOL    HW220523   6.380   0.787   5.031
 6542SOL     OW20524   1.393   4.304   2.927
 6542SOL    HW120525   1.387   4.228   2.992
 6542SOL    HW220526   1.301   4.330   2.899
 6543SOL     OW20527   3.812   1.989   4.965
 6543SOL    HW120528   3.836   1.956   5.057
 6543SOL    HW220529   3.890   2.038   4.926
 6544SOL     OW20530   1.412   6.489   1.593
 6544SOL    HW120531   1.328   6.447   1.627
 6544SOL    HW220532   1.397   6.586   1.577
 6545SOL     OW20533   4.417   6.942   0.425
 6545SOL    HW120534   4.469   6.865   0.388
 6545SOL    HW220535   4.472   6.989   0.494
 6546SOL     OW20536   4.511   3.508   6.244
 6546SOL    HW120537   4.573   3.491   6.321
 6546SOL    HW220538   4.491   3.605   6.238
 6547SOL     OW20539   0.049   5.322   6.610
 6547SOL    HW120540   0.034   5.421   6.611
 6547SOL    HW220541   0.033   5.287   6.518
 6548SOL     OW20542   0.409   1.303   5.196
 6548SOL    HW120543   0.351   1.255   5.261
 6548SOL    HW220544   0.434   1.242   5.121
 6549SOL     OW20545   4.839   0.932   2.059
 6549SOL    HW120546   4.873   0.883   1.979
 6549SOL    HW220547   4.878   0.892   2.142
 6550SOL     OW20548   6.129   6.648   3.890
 6550SOL    HW120549   6.207   6.659   3.952
 6550SOL    HW220550   6.047   6.628   3.944
 6551SOL     OW20551   3.115   3.975   0.589
 6551SOL    HW120552   3.132   3.922   0.672
 6551SOL    HW220553   3.093   3.913   0.514
 6552SOL     OW20554   2.074   5.925   0.401
 6552SOL    HW120555   2.144   5.956   0.466
 6552SOL    HW220556   2.079   5.826   0.392
 6553SOL     OW20557   0.326   1.232   4.159
 6553SOL    HW120558   0.254   1.176   4.200
 6553SOL    HW220559   0.414   1.212   4.203
 6554SOL     OW20560   2.177   1.394   4.517
 6554SOL    HW120561   2.195   1.310   4.465
 6554SOL    HW220562   2.110   1.450   4.467
 6555SOL     OW20563   6.495   3.878   3.418
 6555SOL    HW120564   6.595   3.869   3.422
 6555SOL    HW220565   6.459   3.817   3.347
 6556SOL     OW20566   4.802   2.878   2.825
 6556SOL    HW120567   4.902   2.886   2.817
 6556SOL    HW220568   4.763   2.969   2.839
 6557SOL     OW20569   1.996   0.766   1.745
 6557SOL    HW120570   2.034   0.858   1.754
 6557SOL    HW220571   1.898   0.769   1.763
 6558SOL     OW20572   5.465   5.339   6.726
 6558SOL    HW120573   5.373   5.377   6.739
 6558SOL    HW220574   5.513   5.338   6.813
 6559SOL     OW20575   0.324   2.173   6.111
 6559SOL    HW120576   0.398   2.219   6.160
 6559SOL    HW220577   0.330   2.195   6.014
 6560SOL     OW20578   5.625   4.806   0.540
 6560SOL    HW120579   5.572   4.753   0.474
 6560SOL    HW220580   5.602   4.903   0.530
 6561SOL     OW20581   3.855   4.531   0.140
 6561SOL    HW120582   3.774   4.473   0.150
 6561SOL    HW220583   3.861   4.564   0.046
 6562SOL     OW20584   5.201   3.023   1.132
 6562SOL    HW120585   5.286   3.022   1.184
 6562SOL    HW220586   5.181   2.930   1.100
 6563SOL     OW20587   5.381   5.662   5.047
 6563SOL    HW120588   5.428   5.626   4.967
 6563SOL    HW220589   5.315   5.593   5.080
 6564SOL     OW20590   6.212   3.526   2.855
 6564SOL    HW120591   6.217   3.528   2.756
 6564SOL    HW220592   6.303   3.540   2.894
 6565SOL     OW20593   5.547   0.839   3.270
 6565SOL    HW120594   5.560   0.891   3.186
 6565SOL    HW220595   5.567   0.742   3.252
 6566SOL     OW20596   4.907   6.054   2.847
 6566SOL    HW120597   4.972   6.061   2.922
 6566SOL    HW220598   4.846   6.134   2.848
 6567SOL     OW20599   4.502   0.851   1.030
 6567SOL    HW120600   4.536   0.875   0.939
 6567SOL    HW220601   4.441   0.923   1.063
 6568SOL     OW20602   4.287   1.395   1.068
 6568SOL    HW120603   4.242   1.426   0.984
 6568SOL    HW220604   4.324   1.474   1.116
 6569SOL     OW20605   0.012   4.208   5.606
 6569SOL    HW120606   0.044   4.254   5.689
 6569SOL    HW220607   0.021   4.271   5.528
 6570SOL     OW20608   4.159   6.871   2.120
 6570SOL    HW120609   4.074   6.826   2.149
 6570SOL    HW220610   4.194   6.826   2.038
 6571SOL     OW20611   3.278   5.678   2.930
 6571SOL    HW120612   3.192   5.649   2.971
 6571SOL    HW220613   3.266   5.764   2.881
 6572SOL     OW20614   1.149   5.555   4.069
 6572SOL    HW120615   1.133   5.624   3.999
 6572SOL    HW220616   1.095   5.575   4.151
 6573SOL     OW20617   1.441   1.437   3.818
 6573SOL    HW120618   1.453   1.438   3.917
 6573SOL    HW220619   1.526   1.465   3.773
 6574SOL     OW20620   1.973   5.965   1.775
 6574SOL    HW120621   2.073   5.966   1.775
 6574SOL    HW220622   1.940   6.036   1.838
 6575SOL     OW20623   6.773   1.469   3.053
 6575SOL    HW120624   6.687   1.425   3.025
 6575SOL    HW220625   6.798   1.438   3.144
 6576SOL     OW20626   4.372   6.099   0.943
 6576SOL    HW120627   4.357   6.186   0.896
 6576SOL    HW220628   4.320   6.098   1.029
 6577SOL     OW20629   2.761   0.749   3.626
 6577SOL    HW120630   2.677   0.800   3.606
 6577SOL    HW220631   2.798   0.780   3.713
 6578SOL     OW20632   1.152   5.210   1.697
 6578SOL    HW120633   1.092   5.290   1.701
 6578SOL    HW220634   1.246   5.240   1.681
 6579SOL     OW20635   6.250   0.947   4.111
 6579SOL    HW120636   6.263   0.985   4.202
 6579SOL    HW220637   6.233   0.848   4.119
 6580SOL     OW20638   2.052   1.319   6.716
 6580SOL    HW120639   2.052   1.226   6.754
 6580SOL    HW220640   1.974   1.369   6.753
 6581SOL     OW20641   0.525   2.276   0.438
 6581SOL    HW120642   0.489   2.241   0.525
 6581SOL    HW220643   0.460   2.340   0.398
 6582SOL     OW20644   6.500   1.544   3.669
 6582SOL    HW120645   6.564   1.599   3.723
 6582SOL    HW220646   6.551   1.489   3.603
 6583SOL     OW20647   3.751   5.731   6.341
 6583SOL    HW120648   3.722   5.823   6.367
 6583SOL    HW220649   3.804   5.690   6.415
 6584SOL     OW20650   3.585   3.037   0.663
 6584SOL    HW120651   3.581   3.052   0.762
 6584SOL    HW220652   3.510   3.086   0.619
 6585SOL     OW20653   6.038   6.587   0.923
 6585SOL    HW120654   6.125   6.545   0.947
 6585SOL    HW220655   6.005   6.642   1.000
 6586SOL     OW20656   6.657   2.152   6.729
 6586SOL    HW120657   6.604   2.068   6.718
 6586SOL    HW220658   6.742   2.145   6.677
 6587SOL     OW20659   1.692   4.782   5.574
 6587SOL    HW120660   1.661   4.695   5.538
 6587SOL    HW220661   1.753   4.767   5.652
 6588SOL     OW20662   6.468   3.309   0.403
 6588SOL    HW120663   6.417   3.256   0.472
 6588SOL    HW220664   6.413   3.319   0.321
 6589SOL     OW20665   0.210   0.572   2.366
 6589SOL    HW120666   0.227   0.669   2.348
 6589SOL    HW220667   0.112   0.557   2.376
 6590SOL     OW20668   1.686   0.015   3.821
 6590SOL    HW120669   1.698   0.079   3.745
 6590SOL    HW220670   1.771   0.008   3.873
 6591SOL     OW20671   5.645   4.282   4.313
 6591SOL    HW120672   5.743   4.268   4.297
 6591SOL    HW220673   5.632   4.342   4.392
 6592SOL     OW20674   6.145   0.008   2.824
 6592SOL    HW120675   6.069   6.970   2.836
 6592SOL    HW220676   6.122   0.097   2.864
 6593SOL     OW20677   2.747   2.048   2.128
 6593SOL    HW120678   2.781   2.141   2.120
 6593SOL    HW220679   2.651   2.050   2.157
 6594SOL     OW20680   4.889   0.801   6.417
 6594SOL    HW120681   4.842   0.861   6.353
 6594SOL    HW220682   4.916   0.854   6.498
 6595SOL     OW20683   1.274   2.482   5.820
 6595SOL    HW120684   1.270   2.392   5.865
 6595SOL    HW220685   1.352   2.483   5.757
 6596SOL     OW20686   5.832   6.411   2.551
 6596SOL    HW120687   5.794   6.330   2.596
 6596SOL    HW220688   5.864   6.387   2.460
 6597SOL     OW20689   1.236   4.651   2.321
 6597SOL    HW120690   1.260   4.675   2.227
 6597SOL    HW220691   1.212   4.554   2.326
 6598SOL     OW20692   1.932   4.811   4.330
 6598SOL    HW120693   1.990   4.850   4.259
 6598SOL    HW220694   1.989   4.779   4.405
 6599SOL     OW20695   6.258   5.254   6.434
 6599SOL    HW120696   6.322   5.287   6.503
 6599SOL    HW220697   6.201   5.181   6.472
 6600SOL     OW20698   4.721   6.830   5.292
 6600SOL    HW120699   4.790   6.899   5.273
 6600SOL    HW220700   4.630   6.872   5.286
 6601SOL     OW20701   1.311   2.259   1.677
 6601SOL    HW120702   1.343   2.302   1.593
 6601SOL    HW220703   1.370   2.286   1.753
 6602SOL     OW20704   1.836   6.389   1.643
 6602SOL    HW120705   1.864   6.365   1.550
 6602SOL    HW220706   1.914   6.379   1.705
 6603SOL     OW20707   0.432   3.739   2.863
 6603SOL    HW120708   0.344   3.691   2.856
 6603SOL    HW220709   0.439   3.806   2.788
 6604SOL     OW20710   2.664   5.777   2.645
 6604SOL    HW120711   2.702   5.739   2.560
 6604SOL    HW220712   2.674   5.876   2.644
 6605SOL     OW20713   6.655   5.164   1.205
 6605SOL    HW120714   6.684   5.235   1.269
 6605SOL    HW220715   6.580   5.199   1.149
 6606SOL     OW20716   1.910   3.852   3.019
 6606SOL    HW120717   1.991   3.911   3.027
 6606SOL    HW220718   1.870   3.863   2.928
 6607SOL     OW20719   6.095   4.017   3.527
 6607SOL    HW120720   6.040   3.984   3.604
 6607SOL    HW220721   6.192   4.003   3.547
 6608SOL     OW20722   1.136   5.957   6.153
 6608SOL    HW120723   1.133   5.874   6.097
 6608SOL    HW220724   1.231   5.983   6.170
 6609SOL     OW20725   4.755   1.686   5.926
 6609SOL    HW120726   4.692   1.648   5.859
 6609SOL    HW220727   4.816   1.614   5.960
 6610SOL     OW20728   2.858   5.327   0.892
 6610SOL    HW120729   2.797   5.400   0.924
 6610SOL    HW220730   2.890   5.274   0.970
 6611SOL     OW20731   4.300   1.599   4.063
 6611SOL    HW120732   4.233   1.525   4.060
 6611SOL    HW220733   4.299   1.648   3.976
 6612SOL     OW20734   0.226   0.881   6.362
 6612SOL    HW120735   0.128   0.888   6.381
 6612SOL    HW220736   0.241   0.820   6.284
 6613SOL     OW20737   4.703   6.619   0.207
 6613SOL    HW120738   4.754   6.669   0.137
 6613SOL    HW220739   4.626   6.571   0.165
 6614SOL     OW20740   4.422   5.421   0.892
 6614SOL    HW120741   4.491   5.372   0.946
 6614SOL    HW220742   4.426   5.391   0.797
 6615SOL     OW20743   3.117   4.498   6.762
 6615SOL    HW120744   3.126   4.416   6.819
 6615SOL    HW220745   3.136   4.474   6.667
 6616SOL     OW20746   4.176   1.148   5.895
 6616SOL    HW120747   4.088   1.120   5.857
 6616SOL    HW220748   4.250   1.108   5.841
 6617SOL     OW20749   3.773   0.429   3.894
 6617SOL    HW120750   3.698   0.388   3.843
 6617SOL    HW220751   3.738   0.470   3.978
 6618SOL     OW20752   6.897   2.334   3.083
 6618SOL    HW120753   6.848   2.282   3.013
 6618SOL    HW220754   6.887   2.432   3.064
 6619SOL     OW20755   4.972   5.989   3.976
 6619SOL    HW120756   4.892   5.964   4.032
 6619SOL    HW220757   4.945   5.997   3.880
 6620SOL     OW20758   0.555   3.459   3.701
 6620SOL    HW120759   0.642   3.497   3.733
 6620SOL    HW220760   0.496   3.439   3.779
 6621SOL     OW20761   3.878   3.523   4.492
 6621SOL    HW120762   3.924   3.436   4.472
 6621SOL    HW220763   3.919   3.565   4.573
 6622SOL     OW20764   0.796   5.374   0.709
 6622SOL    HW120765   0.761   5.304   0.771
 6622SOL    HW220766   0.721   5.430   0.676
 6623SOL     OW20767   3.623   3.511   5.477
 6623SOL    HW120768   3.530   3.473   5.483
 6623SOL    HW220769   3.668   3.503   5.566
 6624SOL     OW20770   1.711   1.888   3.895
 6624SOL    HW120771   1.689   1.792   3.911
 6624SOL    HW220772   1.628   1.943   3.902
 6625SOL     OW20773   6.170   3.324   5.942
 6625SOL    HW120774   6.265   3.325   5.972
 6625SOL    HW220775   6.113   3.372   6.009
 6626SOL     OW20776   2.506   6.192   5.019
 6626SOL    HW120777   2.552   6.177   4.931
 6626SOL    HW220778   2.408   6.203   5.004
 6627SOL     OW20779   1.701   5.583   4.423
 6627SOL    HW120780   1.758   5.568   4.342
 6627SOL    HW220781   1.620   5.524   4.419
 6628SOL     OW20782   4.032   6.189   4.504
 6628SOL    HW120783   4.128   6.205   4.524
 6628SOL    HW220784   3.988   6.275   4.477
 6629SOL     OW20785   5.141   5.700   6.160
 6629SOL    HW120786   5.109   5.615   6.116
 6629SOL    HW220787   5.084   5.720   6.239
 6630SOL     OW20788   1.879   1.140   1.519
 6630SOL    HW120789   1.960   1.103   1.474
 6630SOL    HW220790   1.859   1.231   1.483
 6631SOL     OW20791   1.842   3.980   6.115
 6631SOL    HW120792   1.798   4.043   6.052
 6631SOL    HW220793   1.863   3.894   6.069
 6632SOL     OW20794   1.047   1.256   1.511
 6632SOL    HW120795   0.969   1.197   1.530
 6632SOL    HW220796   1.075   1.244   1.416
 6633SOL     OW20797   3.187   5.703   6.037
 6633SOL    HW120798   3.174   5.656   5.950
 6633SOL    HW220799   3.264   5.767   6.029
 6634SOL     OW20800   4.365   2.053   4.048
 6634SOL    HW120801   4.414   2.000   4.118
 6634SOL    HW220802   4.296   1.994   4.006
 6635SOL     OW20803   5.172   5.092   3.777
 6635SOL    HW120804   5.141   5.002   3.748
 6635SOL    HW220805   5.152   5.105   3.875
 6636SOL     OW20806   4.102   0.212   0.182
 6636SOL    HW120807   4.051   0.144   0.131
 6636SOL    HW220808   4.188   0.173   0.215
 6637SOL     OW20809   1.332   1.382   1.522
 6637SOL    HW120810   1.430   1.373   1.542
 6637SOL    HW220811   1.279   1.352   1.601
 6638SOL     OW20812   3.001   3.347   3.736
 6638SOL    HW120813   3.018   3.290   3.656
 6638SOL    HW220814   2.976   3.288   3.813
 6639SOL     OW20815   4.862   2.698   1.505
 6639SOL    HW120816   4.843   2.770   1.572
 6639SOL    HW220817   4.931   2.636   1.542
 6640SOL     OW20818   0.990   2.803   5.037
 6640SOL    HW120819   0.950   2.760   5.119
 6640SOL    HW220820   1.016   2.896   5.059
 6641SOL     OW20821   4.903   2.237   0.668
 6641SOL    HW120822   5.003   2.242   0.663
 6641SOL    HW220823   4.876   2.210   0.760
 6642SOL     OW20824   0.930   6.088   0.467
 6642SOL    HW120825   0.961   5.993   0.460
 6642SOL    HW220826   0.967   6.142   0.391
 6643SOL     OW20827   3.971   6.364   6.799
 6643SOL    HW120828   4.039   6.406   6.739
 6643SOL    HW220829   3.917   6.435   6.844
 6644SOL     OW20830   2.054   6.664   3.744
 6644SOL    HW120831   2.077   6.567   3.755
 6644SOL    HW220832   2.087   6.696   3.655
 6645SOL     OW20833   5.699   2.516   0.300
 6645SOL    HW120834   5.682   2.429   0.254
 6645SOL    HW220835   5.612   2.560   0.322
 6646SOL     OW20836   4.616   0.151   6.237
 6646SOL    HW120837   4.649   0.232   6.285
 6646SOL    HW220838   4.614   0.168   6.139
 6647SOL     OW20839   4.527   5.286   1.266
 6647SOL    HW120840   4.523   5.281   1.166
 6647SOL    HW220841   4.618   5.259   1.296
 6648SOL     OW20842   2.927   6.312   6.036
 6648SOL    HW120843   2.931   6.348   5.943
 6648SOL    HW220844   2.985   6.367   6.096
 6649SOL     OW20845   5.364   3.009   6.928
 6649SOL    HW120846   5.352   2.976   6.834
 6649SOL    HW220847   5.341   3.106   6.932
 6650SOL     OW20848   2.354   1.824   5.470
 6650SOL    HW120849   2.446   1.786   5.480
 6650SOL    HW220850   2.344   1.862   5.378
 6651SOL     OW20851   6.896   1.670   6.704
 6651SOL    HW120852   6.931   1.732   6.774
 6651SOL    HW220853   6.796   1.673   6.702
 6652SOL     OW20854   0.207   4.465   0.747
 6652SOL    HW120855   0.152   4.452   0.665
 6652SOL    HW220856   0.281   4.529   0.728
 6653SOL     OW20857   5.808   4.454   0.440
 6653SOL    HW120858   5.727   4.424   0.391
 6653SOL    HW220859   5.877   4.485   0.375
 6654SOL     OW20860   6.834   4.433   3.059
 6654SOL    HW120861   6.835   4.515   3.000
 6654SOL    HW220862   6.789   4.455   3.145
 6655SOL     OW20863   6.261   5.092   2.270
 6655SOL    HW120864   6.337   5.061   2.214
 6655SOL    HW220865   6.201   5.150   2.214
 6656SOL     OW20866   4.166   1.427   2.574
 6656SOL    HW120867   4.225   1.449   2.496
 6656SOL    HW220868   4.085   1.486   2.572
 6657SOL     OW20869   5.654   2.401   3.454
 6657SOL    HW120870   5.698   2.356   3.376
 6657SOL    HW220871   5.557   2.376   3.456
 6658SOL     OW20872   6.418   5.611   5.463
 6658SOL    HW120873   6.467   5.671   5.399
 6658SOL    HW220874   6.337   5.658   5.498
 6659SOL     OW20875   0.993   5.216   2.232
 6659SOL    HW120876   0.948   5.129   2.211
 6659SOL    HW220877   1.022   5.260   2.147
 6660SOL     OW20878   6.884   6.224   3.514
 6660SOL    HW120879   6.847   6.239   3.606
 6660SOL    HW220880   6.917   6.310   3.477
 6661SOL     OW20881   3.921   6.052   4.250
 6661SOL    HW120882   3.969   6.054   4.337
 6661SOL    HW220883   3.834   6.101   4.258
 6662SOL     OW20884   3.701   6.547   2.702
 6662SOL    HW120885   3.638   6.542   2.780
 6662SOL    HW220886   3.687   6.634   2.655
 6663SOL     OW20887   1.291   4.169   6.086
 6663SOL    HW120888   1.292   4.259   6.043
 6663SOL    HW220889   1.201   4.127   6.075
 6664SOL     OW20890   2.623   0.629   1.506
 6664SOL    HW120891   2.624   0.613   1.407
 6664SOL    HW220892   2.667   0.716   1.526
 6665SOL     OW20893   2.216   0.521   5.898
 6665SOL    HW120894   2.233   0.424   5.879
 6665SOL    HW220895   2.221   0.537   5.997
 6666SOL     OW20896   4.269   6.265   5.681
 6666SOL    HW120897   4.244   6.177   5.641
 6666SOL    HW220898   4.358   6.293   5.645
 6667SOL     OW20899   6.922   6.543   6.588
 6667SOL    HW120900   6.838   6.582   6.626
 6667SOL    HW220901   6.980   6.509   6.662
 6668SOL     OW20902   0.465   5.482   0.068
 6668SOL    HW120903   0.404   5.560   0.059
 6668SOL    HW220904   0.497   5.454   7.003
 6669SOL     OW20905   1.716   1.154   3.009
 6669SOL    HW120906   1.801   1.114   3.043
 6669SOL    HW220907   1.677   1.094   2.938
 6670SOL     OW20908   4.144   2.638   1.087
 6670SOL    HW120909   4.082   2.701   1.040
 6670SOL    HW220910   4.230   2.685   1.108
 6671SOL     OW20911   4.293   5.874   0.486
 6671SOL    HW120912   4.206   5.839   0.521
 6671SOL    HW220913   4.369   5.838   0.541
 6672SOL     OW20914   1.387   2.368   1.006
 6672SOL    HW120915   1.467   2.413   0.967
 6672SOL    HW220916   1.338   2.317   0.935
 6673SOL     OW20917   5.527   3.463   3.772
 6673SOL    HW120918   5.530   3.470   3.872
 6673SOL    HW220919   5.435   3.487   3.741
 6674SOL     OW20920   0.027   2.668   0.324
 6674SOL    HW120921   6.987   2.736   0.291
 6674SOL    HW220922   0.119   2.691   0.289
 6675SOL     OW20923   5.373   1.627   0.094
 6675SOL    HW120924   5.465   1.645   0.059
 6675SOL    HW220925   5.311   1.700   0.065
 6676SOL     OW20926   1.708   3.714   3.373
 6676SOL    HW120927   1.625   3.677   3.332
 6676SOL    HW220928   1.786   3.694   3.313
 6677SOL     OW20929   0.031   1.541   0.362
 6677SOL    HW120930   7.010   1.537   0.451
 6677SOL    HW220931   0.130   1.543   0.376
 6678SOL     OW20932   2.065   4.352   0.143
 6678SOL    HW120933   2.061   4.298   0.059
 6678SOL    HW220934   2.158   4.352   0.179
 6679SOL     OW20935   1.648   1.056   3.704
 6679SOL    HW120936   1.571   0.998   3.677
 6679SOL    HW220937   1.630   1.151   3.676
 6680SOL     OW20938   5.814   0.082   1.061
 6680SOL    HW120939   5.900   0.034   1.080
 6680SOL    HW220940   5.834   0.166   1.010
 6681SOL     OW20941   3.324   6.526   1.782
 6681SOL    HW120942   3.382   6.450   1.812
 6681SOL    HW220943   3.228   6.501   1.794
 6682SOL     OW20944   2.772   5.086   6.427
 6682SOL    HW120945   2.788   5.179   6.461
 6682SOL    HW220946   2.848   5.027   6.455
 6683SOL     OW20947   6.633   3.987   6.291
 6683SOL    HW120948   6.641   4.048   6.370
 6683SOL    HW220949   6.716   3.993   6.235
 6684SOL     OW20950   2.802   6.763   0.996
 6684SOL    HW120951   2.901   6.757   0.981
 6684SOL    HW220952   2.760   6.675   0.975
 6685SOL     OW20953   5.234   3.406   6.738
 6685SOL    HW120954   5.233   3.369   6.645
 6685SOL    HW220955   5.244   3.331   6.804
 6686SOL     OW20956   5.116   5.126   4.053
 6686SOL    HW120957   5.102   5.162   4.145
 6686SOL    HW220958   5.196   5.065   4.053
 6687SOL     OW20959   6.378   2.162   1.638
 6687SOL    HW120960   6.418   2.210   1.559
 6687SOL    HW220961   6.437   2.087   1.666
 6688SOL     OW20962   3.865   5.734   0.434
 6688SOL    HW120963   3.914   5.797   0.373
 6688SOL    HW220964   3.932   5.679   0.485
 6689SOL     OW20965   2.025   4.413   5.892
 6689SOL    HW120966   2.042   4.381   5.798
 6689SOL    HW220967   1.992   4.337   5.947
 6690SOL     OW20968   0.984   0.117   6.266
 6690SOL    HW120969   0.997   0.109   6.168
 6690SOL    HW220970   0.928   0.041   6.299
 6691SOL     OW20971   2.563   2.515   3.212
 6691SOL    HW120972   2.615   2.478   3.136
 6691SOL    HW220973   2.590   2.470   3.297
 6692SOL     OW20974   4.778   5.215   1.401
 6692SOL    HW120975   4.748   5.273   1.476
 6692SOL    HW220976   4.878   5.208   1.403
 6693SOL     OW20977   4.363   1.863   4.529
 6693SOL    HW120978   4.457   1.884   4.504
 6693SOL    HW220979   4.350   1.764   4.532
 6694SOL     OW20980   3.388   4.535   1.199
 6694SOL    HW120981   3.391   4.612   1.264
 6694SOL    HW220982   3.426   4.454   1.242
 6695SOL     OW20983   2.855   2.383   6.251
 6695SOL    HW120984   2.843   2.300   6.196
 6695SOL    HW220985   2.905   2.360   6.334
 6696SOL     OW20986   4.117   3.659   4.385
 6696SOL    HW120987   4.044   3.593   4.404
 6696SOL    HW220988   4.169   3.629   4.304
 6697SOL     OW20989   4.432   2.393   2.315
 6697SOL    HW120990   4.397   2.427   2.402
 6697SOL    HW220991   4.357   2.390   2.248
 6698SOL     OW20992   3.240   4.057   1.123
 6698SOL    HW120993   3.204   3.995   1.193
 6698SOL    HW220994   3.277   4.002   1.047
 6699SOL     OW20995   1.556   4.524   5.514
 6699SOL    HW120996   1.596   4.487   5.598
 6699SOL    HW220997   1.611   4.495   5.435
 6700SOL     OW20998   5.819   0.013   0.180
 6700SOL    HW120999   5.792   6.950   0.220
 6700SOL    HW221000   5.894   7.024   0.115
 6701SOL     OW21001   6.095   0.592   1.240
 6701SOL    HW121002   6.019   0.529   1.251
 6701SOL    HW221003   6.173   0.544   1.200
 6702SOL     OW21004   2.858   2.824   1.023
 6702SOL    HW121005   2.809   2.777   1.096
 6702SOL    HW221006   2.796   2.886   0.975
 6703SOL     OW21007   0.324   1.218   0.060
 6703SOL    HW121008   0.380   1.173   7.015
 6703SOL    HW221009   0.346   1.180   0.150
 6704SOL     OW21010   3.369   0.753   4.928
 6704SOL    HW121011   3.282   0.714   4.958
 6704SOL    HW221012   3.358   0.792   4.836
 6705SOL     OW21013   6.599   3.489   2.259
 6705SOL    HW121014   6.595   3.589   2.253
 6705SOL    HW221015   6.526   3.450   2.202
 6706SOL     OW21016   0.419   7.009   1.883
 6706SOL    HW121017   0.403   0.063   1.941
 6706SOL    HW221018   0.335   6.956   1.873
 6707SOL     OW21019   5.675   0.747   2.038
 6707SOL    HW121020   5.725   0.785   1.960
 6707SOL    HW221021   5.678   0.647   2.034
 6708SOL     OW21022   0.720   4.250   1.670
 6708SOL    HW121023   0.788   4.321   1.684
 6708SOL    HW221024   0.648   4.259   1.738
 6709SOL     OW21025   1.854   5.374   2.726
 6709SOL    HW121026   1.891   5.289   2.765
 6709SOL    HW221027   1.928   5.440   2.714
 6710SOL     OW21028   3.959   1.507   0.919
 6710SOL    HW121029   4.042   1.490   0.866
 6710SOL    HW221030   3.967   1.461   1.008
 6711SOL     OW21031   4.136   6.302   6.236
 6711SOL    HW121032   4.055   6.246   6.249
 6711SOL    HW221033   4.214   6.243   6.212
 6712SOL     OW21034   5.921   3.633   1.399
 6712SOL    HW121035   5.861   3.579   1.458
 6712SOL    HW221036   5.870   3.663   1.318
 6713SOL     OW21037   1.350   6.209   4.528
 6713SOL    HW121038   1.286   6.170   4.594
 6713SOL    HW221039   1.301   6.267   4.463
 6714SOL     OW21040   5.000   1.222   0.925
 6714SOL    HW121041   5.014   1.316   0.956
 6714SOL    HW221042   4.921   1.183   0.972
 6715SOL     OW21043   1.174   1.150   0.566
 6715SOL    HW121044   1.088   1.157   0.616
 6715SOL    HW221045   1.179   1.063   0.518
 6716SOL     OW21046   6.820   5.496   3.071
 6716SOL    HW121047   6.819   5.528   3.165
 6716SOL    HW221048   6.879   5.555   3.016
 6717SOL     OW21049   4.343   1.783   5.763
 6717SOL    HW121050   4.412   1.851   5.738
 6717SOL    HW221051   4.321   1.793   5.860
 6718SOL     OW21052   3.527   0.430   1.534
 6718SOL    HW121053   3.560   0.493   1.604
 6718SOL    HW221054   3.544   0.468   1.444
 6719SOL     OW21055   1.628   0.792   6.997
 6719SOL    HW121056   1.546   0.742   6.968
 6719SOL    HW221057   1.662   0.754   0.058
 6720SOL     OW21058   1.693   0.643   6.072
 6720SOL    HW121059   1.723   0.650   6.167
 6720SOL    HW221060   1.732   0.561   6.030
 6721SOL     OW21061   0.472   1.820   0.415
 6721SOL    HW121062   0.408   1.883   0.459
 6721SOL    HW221063   0.514   1.865   0.336
 6722SOL     OW21064   6.378   3.186   0.635
 6722SOL    HW121065   6.337   3.146   0.716
 6722SOL    HW221066   6.458   3.240   0.660
 6723SOL     OW21067   1.711   2.315   6.732
 6723SOL    HW121068   1.623   2.279   6.761
 6723SOL    HW221069   1.785   2.261   6.772
 6724SOL     OW21070   1.779   3.595   5.903
 6724SOL    HW121071   1.806   3.543   5.984
 6724SOL    HW221072   1.766   3.533   5.826
 6725SOL     OW21073   5.409   2.931   3.638
 6725SOL    HW121074   5.486   2.873   3.664
 6725SOL    HW221075   5.338   2.874   3.596
 6726SOL     OW21076   0.063   0.893   5.314
 6726SOL    HW121077   0.059   0.965   5.383
 6726SOL    HW221078   0.095   0.808   5.356
 6727SOL     OW21079   1.133   4.945   5.940
 6727SOL    HW121080   1.165   4.869   5.885
 6727SOL    HW221081   1.202   5.018   5.940
 6728SOL     OW21082   3.982   2.191   3.819
 6728SOL    HW121083   3.921   2.189   3.898
 6728SOL    HW221084   3.928   2.179   3.735
 6729SOL     OW21085   4.842   1.544   1.606
 6729SOL    HW121086   4.801   1.461   1.570
 6729SOL    HW221087   4.772   1.598   1.653
 6730SOL     OW21088   0.905   1.231   1.847
 6730SOL    HW121089   0.919   1.309   1.785
 6730SOL    HW221090   0.856   1.159   1.798
 6731SOL     OW21091   2.906   6.494   6.739
 6731SOL    HW121092   2.951   6.405   6.729
 6731SOL    HW221093   2.830   6.486   6.803
 6732SOL     OW21094   6.336   5.253   4.669
 6732SOL    HW121095   6.242   5.281   4.649
 6732SOL    HW221096   6.399   5.329   4.649
 6733SOL     OW21097   4.283   5.174   6.141
 6733SOL    HW121098   4.346   5.096   6.144
 6733SOL    HW221099   4.202   5.150   6.088
 6734SOL     OW21100   5.863   1.216   4.802
 6734SOL    HW121101   5.788   1.220   4.737
 6734SOL    HW221102   5.850   1.285   4.873
 6735SOL     OW21103   6.111   3.172   3.521
 6735SOL    HW121104   6.144   3.080   3.498
 6735SOL    HW221105   6.063   3.211   3.443
 6736SOL     OW21106   3.318   4.198   0.551
 6736SOL    HW121107   3.253   4.127   0.578
 6736SOL    HW221108   3.278   4.288   0.569
 6737SOL     OW21109   0.627   3.825   1.051
 6737SOL    HW121110   0.660   3.823   0.957
 6737SOL    HW221111   0.586   3.914   1.071
 6738SOL     OW21112   2.058   6.092   3.220
 6738SOL    HW121113   2.132   6.026   3.231
 6738SOL    HW221114   1.995   6.084   3.297
 6739SOL     OW21115   6.637   6.727   4.812
 6739SOL    HW121116   6.641   6.818   4.853
 6739SOL    HW221117   6.703   6.722   4.736
 6740SOL     OW21118   0.870   6.717   3.941
 6740SOL    HW121119   0.891   6.655   3.866
 6740SOL    HW221120   0.874   6.812   3.908
 6741SOL     OW21121   4.959   2.138   5.945
 6741SOL    HW121122   5.034   2.075   5.962
 6741SOL    HW221123   4.873   2.089   5.945
 6742SOL     OW21124   5.629   4.743   3.439
 6742SOL    HW121125   5.579   4.662   3.407
 6742SOL    HW221126   5.681   4.719   3.521
 6743SOL     OW21127   4.202   3.977   1.074
 6743SOL    HW121128   4.262   3.989   1.153
 6743SOL    HW221129   4.255   3.939   0.998
 6744SOL     OW21130   0.260   5.826   5.940
 6744SOL    HW121131   0.202   5.778   5.874
 6744SOL    HW221132   0.228   5.806   6.033
 6745SOL     OW21133   7.018   6.092   4.253
 6745SOL    HW121134   0.054   6.088   4.333
 6745SOL    HW221135   0.048   6.101   4.170
 6746SOL     OW21136   2.042   1.531   2.676
 6746SOL    HW121137   2.031   1.473   2.757
 6746SOL    HW221138   2.052   1.626   2.704
 6747SOL     OW21139   0.964   6.506   6.868
 6747SOL    HW121140   0.919   6.562   6.798
 6747SOL    HW221141   1.019   6.436   6.823
 6748SOL     OW21142   2.339   1.645   4.521
 6748SOL    HW121143   2.435   1.635   4.547
 6748SOL    HW221144   2.290   1.559   4.540
 6749SOL     OW21145   3.627   4.742   0.861
 6749SOL    HW121146   3.702   4.760   0.924
 6749SOL    HW221147   3.572   4.666   0.894
 6750SOL     OW21148   3.130   1.163   4.591
 6750SOL    HW121149   3.216   1.213   4.594
 6750SOL    HW221150   3.111   1.136   4.497
 6751SOL     OW21151   3.960   6.813   3.786
 6751SOL    HW121152   3.954   6.815   3.886
 6751SOL    HW221153   4.025   6.883   3.756
 6752SOL     OW21154   2.228   6.250   2.417
 6752SOL    HW121155   2.316   6.258   2.369
 6752SOL    HW221156   2.244   6.235   2.514
 6753SOL     OW21157   3.839   3.004   5.333
 6753SOL    HW121158   3.903   3.067   5.376
 6753SOL    HW221159   3.747   3.043   5.335
 6754SOL     OW21160   6.254   1.222   1.717
 6754SOL    HW121161   6.335   1.276   1.742
 6754SOL    HW221162   6.202   1.200   1.799
 6755SOL     OW21163   2.279   5.629   6.294
 6755SOL    HW121164   2.312   5.658   6.204
 6755SOL    HW221165   2.335   5.552   6.327
 6756SOL     OW21166   2.708   2.405   5.466
 6756SOL    HW121167   2.727   2.441   5.375
 6756SOL    HW221168   2.682   2.480   5.526
 6757SOL     OW21169   3.634   0.828   0.504
 6757SOL    HW121170   3.676   0.899   0.447
 6757SOL    HW221171   3.617   0.746   0.449
 6758SOL     OW21172   6.075   2.576   2.212
 6758SOL    HW121173   6.150   2.553   2.150
 6758SOL    HW221174   6.007   2.503   2.211
 6759SOL     OW21175   0.733   3.264   3.244
 6759SOL    HW121176   0.683   3.214   3.314
 6759SOL    HW221177   0.716   3.362   3.253
 6760SOL     OW21178   5.449   2.691   2.992
 6760SOL    HW121179   5.349   2.699   2.991
 6760SOL    HW221180   5.482   2.699   3.086
 6761SOL     OW21181   4.907   1.748   4.733
 6761SOL    HW121182   4.889   1.655   4.766
 6761SOL    HW221183   4.836   1.775   4.668
 6762SOL     OW21184   0.006   5.520   4.049
 6762SOL    HW121185   6.939   5.490   4.022
 6762SOL    HW221186   0.073   5.480   3.986
 6763SOL     OW21187   5.199   5.153   5.110
 6763SOL    HW121188   5.117   5.117   5.155
 6763SOL    HW221189   5.200   5.124   5.014
 6764SOL     OW21190   1.524   5.722   1.419
 6764SOL    HW121191   1.478   5.810   1.428
 6764SOL    HW221192   1.603   5.718   1.481
 6765SOL     OW21193   6.170   4.810   2.699
 6765SOL    HW121194   6.267   4.794   2.721
 6765SOL    HW221195   6.162   4.886   2.635
 6766SOL     OW21196   5.006   0.169   0.555
 6766SOL    HW121197   5.026   0.153   0.651
 6766SOL    HW221198   5.032   0.089   0.501
 6767SOL     OW21199   2.818   1.237   0.794
 6767SOL    HW121200   2.772   1.314   0.751
 6767SOL    HW221201   2.837   1.166   0.725
 6768SOL     OW21202   2.036   0.968   0.831
 6768SOL    HW121203   1.967   0.897   0.825
 6768SOL    HW221204   1.998   1.055   0.798
 6769SOL     OW21205   4.166   2.616   1.564
 6769SOL    HW121206   4.204   2.706   1.586
 6769SOL    HW221207   4.148   2.610   1.466
 6770SOL     OW21208   6.685   0.242   2.183
 6770SOL    HW121209   6.599   0.274   2.142
 6770SOL    HW221210   6.669   0.214   2.277
 6771SOL     OW21211   3.811   2.100   2.933
 6771SOL    HW121212   3.800   2.112   3.031
 6771SOL    HW221213   3.897   2.143   2.904
 6772SOL     OW21214   2.929   2.222   2.654
 6772SOL    HW121215   2.858   2.290   2.674
 6772SOL    HW221216   2.888   2.144   2.607
 6773SOL     OW21217   6.802   4.193   2.023
 6773SOL    HW121218   6.724   4.256   2.009
 6773SOL    HW221219   6.887   4.246   2.023
 6774SOL     OW21220   0.663   2.815   6.558
 6774SOL    HW121221   0.640   2.913   6.551
 6774SOL    HW221222   0.613   2.775   6.634
 6775SOL     OW21223   2.773   4.355   1.041
 6775SOL    HW121224   2.751   4.432   1.102
 6775SOL    HW221225   2.807   4.391   0.954
 6776SOL     OW21226   5.798   5.262   0.014
 6776SOL    HW121227   5.855   5.187   7.006
 6776SOL    HW221228   5.702   5.235   0.012
 6777SOL     OW21229   4.444   4.682   5.995
 6777SOL    HW121230   4.473   4.609   6.057
 6777SOL    HW221231   4.499   4.679   5.912
 6778SOL     OW21232   0.585   4.682   3.198
 6778SOL    HW121233   0.602   4.585   3.216
 6778SOL    HW221234   0.666   4.735   3.224
 6779SOL     OW21235   0.396   4.825   0.344
 6779SOL    HW121236   0.365   4.831   0.249
 6779SOL    HW221237   0.415   4.729   0.366
 6780SOL     OW21238   0.489   2.480   2.639
 6780SOL    HW121239   0.492   2.560   2.578
 6780SOL    HW221240   0.395   2.445   2.642
 6781SOL     OW21241   5.184   6.352   5.717
 6781SOL    HW121242   5.251   6.425   5.702
 6781SOL    HW221243   5.108   6.388   5.771
 6782SOL     OW21244   6.790   1.248   2.752
 6782SOL    HW121245   6.821   1.192   2.675
 6782SOL    HW221246   6.743   1.329   2.718
 6783SOL     OW21247   6.822   6.393   6.394
 6783SOL    HW121248   6.881   6.316   6.368
 6783SOL    HW221249   6.855   6.432   6.480
 6784SOL     OW21250   4.085   4.441   6.833
 6784SOL    HW121251   4.137   4.410   6.912
 6784SOL    HW221252   4.080   4.367   6.766
 6785SOL     OW21253   6.117   5.913   1.827
 6785SOL    HW121254   6.090   5.921   1.923
 6785SOL    HW221255   6.035   5.906   1.770
 6786SOL     OW21256   1.701   2.511   6.269
 6786SOL    HW121257   1.696   2.478   6.174
 6786SOL    HW221258   1.667   2.441   6.331
 6787SOL     OW21259   1.699   3.953   1.742
 6787SOL    HW121260   1.656   3.872   1.703
 6787SOL    HW221261   1.739   3.930   1.831
 6788SOL     OW21262   2.789   3.820   1.620
 6788SOL    HW121263   2.839   3.844   1.704
 6788SOL    HW221264   2.691   3.825   1.637
 6789SOL     OW21265   0.865   6.687   2.082
 6789SOL    HW121266   0.925   6.766   2.098
 6789SOL    HW221267   0.843   6.681   1.985
 6790SOL     OW21268   1.831   2.941   0.057
 6790SOL    HW121269   1.833   2.938   0.157
 6790SOL    HW221270   1.925   2.934   0.022
 6791SOL     OW21271   4.089   2.907   6.665
 6791SOL    HW121272   4.041   2.987   6.700
 6791SOL    HW221273   4.066   2.827   6.721
 6792SOL     OW21274   6.417   5.948   0.110
 6792SOL    HW121275   6.467   5.998   0.180
 6792SOL    HW221276   6.480   5.910   0.042
 6793SOL     OW21277   1.587   2.519   0.531
 6793SOL    HW121278   1.494   2.512   0.567
 6793SOL    HW221279   1.647   2.453   0.577
 6794SOL     OW21280   4.817   0.887   4.666
 6794SOL    HW121281   4.864   0.893   4.754
 6794SOL    HW221282   4.862   0.818   4.609
 6795SOL     OW21283   2.770   5.953   0.932
 6795SOL    HW121284   2.698   6.022   0.924
 6795SOL    HW221285   2.811   5.938   0.843
 6796SOL     OW21286   5.229   1.227   2.945
 6796SOL    HW121287   5.303   1.207   3.009
 6796SOL    HW221288   5.234   1.323   2.918
 6797SOL     OW21289   5.758   3.888   2.015
 6797SOL    HW121290   5.770   3.836   1.930
 6797SOL    HW221291   5.666   3.926   2.019
 6798SOL     OW21292   5.338   5.492   2.891
 6798SOL    HW121293   5.390   5.529   2.813
 6798SOL    HW221294   5.299   5.567   2.944
 6799SOL     OW21295   4.744   5.759   0.045
 6799SOL    HW121296   4.738   5.724   0.138
 6799SOL    HW221297   4.762   5.857   0.048
 6800SOL     OW21298   1.656   4.975   0.334
 6800SOL    HW121299   1.618   4.980   0.427
 6800SOL    HW221300   1.700   4.885   0.322
 6801SOL     OW21301   1.787   2.506   2.265
 6801SOL    HW121302   1.813   2.535   2.173
 6801SOL    HW221303   1.868   2.505   2.324
 6802SOL     OW21304   2.087   6.285   0.937
 6802SOL    HW121305   2.016   6.225   0.900
 6802SOL    HW221306   2.174   6.235   0.941
 6803SOL     OW21307   5.130   1.918   6.041
 6803SOL    HW121308   5.185   1.937   6.123
 6803SOL    HW221309   5.080   1.833   6.053
 6804SOL     OW21310   1.750   5.738   3.440
 6804SOL    HW121311   1.702   5.651   3.426
 6804SOL    HW221312   1.755   5.758   3.538
 6805SOL     OW21313   5.958   0.010   4.606
 6805SOL    HW121314   6.007   0.030   4.691
 6805SOL    HW221315   6.021   0.018   4.529
 6806SOL     OW21316   4.494   1.130   4.339
 6806SOL    HW121317   4.536   1.071   4.408
 6806SOL    HW221318   4.548   1.214   4.330
 6807SOL     OW21319   2.822   3.147   0.132
 6807SOL    HW121320   2.747   3.087   0.104
 6807SOL    HW221321   2.894   3.093   0.176
 6808SOL     OW21322   6.997   2.330   4.721
 6808SOL    HW121323   6.897   2.336   4.718
 6808SOL    HW221324   0.011   2.422   4.709
 6809SOL     OW21325   2.357   4.282   6.577
 6809SOL    HW121326   2.304   4.358   6.616
 6809SOL    HW221327   2.357   4.289   6.477
 6810SOL     OW21328   0.061   0.748   2.756
 6810SOL    HW121329   0.047   0.654   2.725
 6810SOL    HW221330   0.158   0.771   2.749
 6811SOL     OW21331   6.220   4.723   0.984
 6811SOL    HW121332   6.234   4.822   0.971
 6811SOL    HW221333   6.300   4.674   0.949
 6812SOL     OW21334   4.130   3.664   3.063
 6812SOL    HW121335   4.087   3.590   3.011
 6812SOL    HW221336   4.117   3.647   3.161
 6813SOL     OW21337   4.478   2.129   1.108
 6813SOL    HW121338   4.508   2.060   1.174
 6813SOL    HW221339   4.442   2.208   1.157
 6814SOL     OW21340   2.801   3.444   0.828
 6814SOL    HW121341   2.760   3.401   0.748
 6814SOL    HW221342   2.861   3.519   0.800
 6815SOL     OW21343   2.730   6.964   2.104
 6815SOL    HW121344   2.703   7.011   2.188
 6815SOL    HW221345   2.737   0.005   2.030
 6816SOL     OW21346   6.514   5.163   6.884
 6816SOL    HW121347   6.421   5.158   6.847
 6816SOL    HW221348   6.515   5.127   6.977
 6817SOL     OW21349   6.777   1.541   5.813
 6817SOL    HW121350   6.723   1.481   5.870
 6817SOL    HW221351   6.757   1.523   5.716
 6818SOL     OW21352   3.438   6.559   2.381
 6818SOL    HW121353   3.498   6.484   2.408
 6818SOL    HW221354   3.377   6.583   2.457
 6819SOL     OW21355   3.091   0.663   3.602
 6819SOL    HW121356   3.042   0.746   3.627
 6819SOL    HW221357   3.179   0.687   3.562
 6820SOL     OW21358   0.976   4.101   3.401
 6820SOL    HW121359   0.939   4.116   3.493
 6820SOL    HW221360   0.963   4.184   3.347
 6821SOL     OW21361   2.433   2.480   5.007
 6821SOL    HW121362   2.361   2.430   5.054
 6821SOL    HW221363   2.436   2.574   5.041
 6822SOL     OW21364   5.452   1.852   5.991
 6822SOL    HW121365   5.536   1.906   5.981
 6822SOL    HW221366   5.402   1.882   6.073
 6823SOL     OW21367   3.448   3.157   3.339
 6823SOL    HW121368   3.405   3.074   3.305
 6823SOL    HW221369   3.487   3.209   3.263
 6824SOL     OW21370   0.405   4.072   6.313
 6824SOL    HW121371   0.431   4.106   6.403
 6824SOL    HW221372   0.311   4.099   6.293
 6825SOL     OW21373   5.454   0.278   2.165
 6825SOL    HW121374   5.432   0.219   2.088
 6825SOL    HW221375   5.473   0.222   2.246
 6826SOL     OW21376   2.099   3.317   2.831
 6826SOL    HW121377   2.113   3.396   2.891
 6826SOL    HW221378   2.083   3.235   2.886
 6827SOL     OW21379   5.284   5.515   6.854
 6827SOL    HW121380   5.190   5.521   6.822
 6827SOL    HW221381   5.303   5.589   6.918
 6828SOL     OW21382   1.341   2.170   1.176
 6828SOL    HW121383   1.373   2.228   1.101
 6828SOL    HW221384   1.248   2.197   1.202
 6829SOL     OW21385   5.006   6.527   3.892
 6829SOL    HW121386   5.088   6.582   3.908
 6829SOL    HW221387   4.979   6.480   3.976
 6830SOL     OW21388   5.247   1.951   3.292
 6830SOL    HW121389   5.310   1.882   3.327
 6830SOL    HW221390   5.157   1.909   3.277
 6831SOL     OW21391   0.777   0.796   6.169
 6831SOL    HW121392   0.807   0.880   6.124
 6831SOL    HW221393   0.835   0.720   6.140
 6832SOL     OW21394   2.895   4.742   2.317
 6832SOL    HW121395   2.863   4.835   2.333
 6832SOL    HW221396   2.850   4.679   2.380
 6833SOL     OW21397   3.628   4.929   6.424
 6833SOL    HW121398   3.716   4.975   6.431
 6833SOL    HW221399   3.643   4.832   6.402
 6834SOL     OW21400   4.727   6.773   2.075
 6834SOL    HW121401   4.692   6.747   2.165
 6834SOL    HW221402   4.794   6.705   2.045
 6835SOL     OW21403   4.110   0.182   4.726
 6835SOL    HW121404   4.131   0.178   4.628
 6835SOL    HW221405   4.191   0.153   4.778
 6836SOL     OW21406   3.319   6.360   0.612
 6836SOL    HW121407   3.270   6.287   0.564
 6836SOL    HW221408   3.379   6.320   0.680
 6837SOL     OW21409   1.886   3.489   1.798
 6837SOL    HW121410   1.909   3.586   1.807
 6837SOL    HW221411   1.968   3.436   1.781
 6838SOL     OW21412   2.217   1.215   0.012
 6838SOL    HW121413   2.237   1.147   6.967
 6838SOL    HW221414   2.281   1.291   0.003
 6839SOL     OW21415   4.011   1.167   0.933
 6839SOL    HW121416   4.016   1.080   0.885
 6839SOL    HW221417   3.919   1.206   0.922
 6840SOL     OW21418   2.578   1.388   6.034
 6840SOL    HW121419   2.509   1.378   6.105
 6840SOL    HW221420   2.605   1.484   6.027
 6841SOL     OW21421   6.355   2.920   6.204
 6841SOL    HW121422   6.359   2.820   6.210
 6841SOL    HW221423   6.391   2.960   6.289
 6842SOL     OW21424   1.870   5.371   1.701
 6842SOL    HW121425   1.896   5.357   1.797
 6842SOL    HW221426   1.948   5.354   1.642
 6843SOL     OW21427   5.469   6.749   6.929
 6843SOL    HW121428   5.452   6.845   6.904
 6843SOL    HW221429   5.486   6.696   6.846
 6844SOL     OW21430   4.693   0.620   4.241
 6844SOL    HW121431   4.605   0.594   4.202
 6844SOL    HW221432   4.756   0.643   4.167
 6845SOL     OW21433   4.911   2.646   3.000
 6845SOL    HW121434   4.844   2.676   2.933
 6845SOL    HW221435   4.881   2.672   3.092
 6846SOL     OW21436   2.737   4.110   0.482
 6846SOL    HW121437   2.734   4.025   0.430
 6846SOL    HW221438   2.800   4.100   0.559
 6847SOL     OW21439   5.937   3.642   4.497
 6847SOL    HW121440   5.867   3.714   4.495
 6847SOL    HW221441   5.933   3.589   4.412
 6848SOL     OW21442   5.249   4.387   3.377
 6848SOL    HW121443   5.194   4.322   3.325
 6848SOL    HW221444   5.311   4.435   3.314
 6849SOL     OW21445   4.017   3.570   6.215
 6849SOL    HW121446   4.113   3.594   6.202
 6849SOL    HW221447   3.962   3.654   6.219
 6850SOL     OW21448   4.028   1.637   3.157
 6850SOL    HW121449   4.068   1.659   3.069
 6850SOL    HW221450   4.086   1.673   3.230
 6851SOL     OW21451   1.941   2.870   3.329
 6851SOL    HW121452   1.967   2.846   3.235
 6851SOL    HW221453   1.987   2.954   3.356
 6852SOL     OW21454   2.788   5.439   0.474
 6852SOL    HW121455   2.864   5.430   0.539
 6852SOL    HW221456   2.709   5.389   0.509
 6853SOL     OW21457   5.265   3.075   6.364
 6853SOL    HW121458   5.202   3.034   6.299
 6853SOL    HW221459   5.358   3.045   6.343
 6854SOL     OW21460   5.445   6.180   5.973
 6854SOL    HW121461   5.395   6.237   6.038
 6854SOL    HW221462   5.397   6.093   5.962
 6855SOL     OW21463   3.740   4.926   3.526
 6855SOL    HW121464   3.827   4.881   3.503
 6855SOL    HW221465   3.745   4.961   3.619
 6856SOL     OW21466   1.028   2.444   6.746
 6856SOL    HW121467   0.988   2.355   6.723
 6856SOL    HW221468   0.977   2.485   6.821
 6857SOL     OW21469   0.788   3.951   5.982
 6857SOL    HW121470   0.861   3.926   6.046
 6857SOL    HW221471   0.828   3.977   5.895
 6858SOL     OW21472   3.016   4.128   1.788
 6858SOL    HW121473   2.981   4.040   1.820
 6858SOL    HW221474   2.989   4.200   1.852
 6859SOL     OW21475   0.887   1.171   2.680
 6859SOL    HW121476   0.936   1.123   2.608
 6859SOL    HW221477   0.816   1.230   2.640
 6860SOL     OW21478   0.430   6.552   1.905
 6860SOL    HW121479   0.507   6.507   1.950
 6860SOL    HW221480   0.446   6.556   1.807
 6861SOL     OW21481   4.823   2.533   5.367
 6861SOL    HW121482   4.821   2.573   5.459
 6861SOL    HW221483   4.912   2.492   5.350
 6862SOL     OW21484   0.553   4.821   5.817
 6862SOL    HW121485   0.484   4.791   5.751
 6862SOL    HW221486   0.574   4.746   5.879
 6863SOL     OW21487   0.005   6.906   5.105
 6863SOL    HW121488   0.029   6.877   5.012
 6863SOL    HW221489   0.068   6.863   5.170
 6864SOL     OW21490   1.821   3.530   5.394
 6864SOL    HW121491   1.736   3.564   5.354
 6864SOL    HW221492   1.845   3.586   5.474
 6865SOL     OW21493   1.733   0.184   4.545
 6865SOL    HW121494   1.775   0.274   4.534
 6865SOL    HW221495   1.636   0.190   4.523
 6866SOL     OW21496   0.257   4.569   1.839
 6866SOL    HW121497   0.352   4.574   1.807
 6866SOL    HW221498   0.232   4.654   1.885
 6867SOL     OW21499   1.987   3.260   0.314
 6867SOL    HW121500   1.951   3.346   0.351
 6867SOL    HW221501   2.020   3.275   0.220
 6868SOL     OW21502   2.254   5.304   4.796
 6868SOL    HW121503   2.346   5.309   4.759
 6868SOL    HW221504   2.223   5.395   4.823
 6869SOL     OW21505   3.562   0.222   6.024
 6869SOL    HW121506   3.610   0.135   6.039
 6869SOL    HW221507   3.466   0.211   6.049
 6870SOL     OW21508   0.165   3.012   0.287
 6870SOL    HW121509   0.114   3.008   0.374
 6870SOL    HW221510   0.206   2.922   0.269
 6871SOL     OW21511   0.162   3.865   2.620
 6871SOL    HW121512   0.234   3.933   2.634
 6871SOL    HW221513   0.082   3.909   2.580
 6872SOL     OW21514   1.807   2.894   1.759
 6872SOL    HW121515   1.785   2.970   1.697
 6872SOL    HW221516   1.730   2.830   1.762
 6873SOL     OW21517   1.272   3.930   4.651
 6873SOL    HW121518   1.324   3.876   4.585
 6873SOL    HW221519   1.276   4.027   4.625
 6874SOL     OW21520   5.741   5.791   2.829
 6874SOL    HW121521   5.709   5.715   2.885
 6874SOL    HW221522   5.841   5.795   2.831
 6875SOL     OW21523   1.368   2.782   1.274
 6875SOL    HW121524   1.288   2.834   1.304
 6875SOL    HW221525   1.451   2.820   1.316
 6876SOL     OW21526   4.577   5.545   3.257
 6876SOL    HW121527   4.485   5.575   3.230
 6876SOL    HW221528   4.645   5.601   3.210
 6877SOL     OW21529   1.816   3.752   2.145
 6877SOL    HW121530   1.780   3.665   2.178
 6877SOL    HW221531   1.796   3.824   2.211
 6878SOL     OW21532   2.034   0.658   3.822
 6878SOL    HW121533   2.006   0.751   3.847
 6878SOL    HW221534   1.954   0.597   3.828
 6879SOL     OW21535   2.048   2.008   1.037
 6879SOL    HW121536   2.075   1.957   1.118
 6879SOL    HW221537   1.948   2.012   1.031
 6880SOL     OW21538   1.721   5.520   6.692
 6880SOL    HW121539   1.742   5.494   6.786
 6880SOL    HW221540   1.709   5.619   6.687
 6881SOL     OW21541   1.096   3.282   0.507
 6881SOL    HW121542   1.195   3.274   0.510
 6881SOL    HW221543   1.063   3.254   0.416
 6882SOL     OW21544   2.903   6.474   0.172
 6882SOL    HW121545   2.939   6.454   0.263
 6882SOL    HW221546   2.883   6.572   0.164
 6883SOL     OW21547   5.120   7.019   6.532
 6883SOL    HW121548   5.066   7.018   6.449
 6883SOL    HW221549   5.127   0.088   6.566
 6884SOL     OW21550   2.168   3.922   2.939
 6884SOL    HW121551   2.123   3.849   2.888
 6884SOL    HW221552   2.240   3.962   2.882
 6885SOL     OW21553   5.541   6.064   3.728
 6885SOL    HW121554   5.625   6.074   3.780
 6885SOL    HW221555   5.508   5.969   3.735
 6886SOL     OW21556   5.001   1.190   6.166
 6886SOL    HW121557   5.017   1.092   6.165
 6886SOL    HW221558   4.934   1.213   6.237
 6887SOL     OW21559   5.209   6.049   6.065
 6887SOL    HW121560   5.214   6.143   6.100
 6887SOL    HW221561   5.169   6.049   5.974
 6888SOL     OW21562   6.073   5.065   6.492
 6888SOL    HW121563   6.019   5.026   6.417
 6888SOL    HW221564   6.045   5.023   6.579
 6889SOL     OW21565   0.991   2.782   6.916
 6889SOL    HW121566   0.940   2.817   6.995
 6889SOL    HW221567   1.055   2.852   6.884
 6890SOL     OW21568   3.778   5.271   2.424
 6890SOL    HW121569   3.824   5.342   2.477
 6890SOL    HW221570   3.772   5.300   2.328
 6891SOL     OW21571   1.950   2.000   1.339
 6891SOL    HW121572   1.955   1.951   1.426
 6891SOL    HW221573   1.855   2.004   1.308
 6892SOL     OW21574   3.525   0.875   4.240
 6892SOL    HW121575   3.490   0.877   4.146
 6892SOL    HW221576   3.576   0.959   4.259
 6893SOL     OW21577   6.476   2.783   7.023
 6893SOL    HW121578   6.568   2.744   7.024
 6893SOL    HW221579   6.410   2.715   0.030
 6894SOL     OW21580   5.615   5.097   0.520
 6894SOL    HW121581   5.541   5.148   0.563
 6894SOL    HW221582   5.703   5.131   0.553
 6895SOL     OW21583   1.588   6.263   1.634
 6895SOL    HW121584   1.682   6.298   1.630
 6895SOL    HW221585   1.524   6.339   1.626
 6896SOL     OW21586   4.391   2.113   4.397
 6896SOL    HW121587   4.324   2.164   4.344
 6896SOL    HW221588   4.352   2.025   4.425
 6897SOL     OW21589   5.161   3.991   4.996
 6897SOL    HW121590   5.260   4.001   4.999
 6897SOL    HW221591   5.137   3.894   4.989
 6898SOL     OW21592   2.361   1.674   1.494
 6898SOL    HW121593   2.353   1.764   1.537
 6898SOL    HW221594   2.363   1.685   1.395
 6899SOL     OW21595   6.255   5.835   3.001
 6899SOL    HW121596   6.249   5.737   3.021
 6899SOL    HW221597   6.238   5.850   2.904
 6900SOL     OW21598   6.175   4.296   5.865
 6900SOL    HW121599   6.239   4.346   5.807
 6900SOL    HW221600   6.216   4.280   5.955
 6901SOL     OW21601   4.623   4.555   6.691
 6901SOL    HW121602   4.598   4.477   6.749
 6901SOL    HW221603   4.543   4.613   6.676
 6902SOL     OW21604   0.123   5.850   6.397
 6902SOL    HW121605   0.115   5.803   6.309
 6902SOL    HW221606   0.211   5.899   6.401
 6903SOL     OW21607   2.644   4.913   4.659
 6903SOL    HW121608   2.687   4.835   4.613
 6903SOL    HW221609   2.545   4.907   4.648
 6904SOL     OW21610   0.072   6.363   4.732
 6904SOL    HW121611   6.999   6.374   4.746
 6904SOL    HW221612   0.122   6.427   4.790
 6905SOL     OW21613   5.351   5.665   5.959
 6905SOL    HW121614   5.302   5.593   5.909
 6905SOL    HW221615   5.291   5.704   6.029
 6906SOL     OW21616   3.716   1.267   3.731
 6906SOL    HW121617   3.720   1.256   3.632
 6906SOL    HW221618   3.651   1.338   3.755
 6907SOL     OW21619   5.921   1.278   1.158
 6907SOL    HW121620   5.997   1.323   1.112
 6907SOL    HW221621   5.834   1.313   1.122
 6908SOL     OW21622   2.636   4.669   0.089
 6908SOL    HW121623   2.729   4.671   0.126
 6908SOL    HW221624   2.571   4.663   0.164
 6909SOL     OW21625   5.619   5.155   1.868
 6909SOL    HW121626   5.658   5.169   1.778
 6909SOL    HW221627   5.519   5.167   1.863
 6910SOL     OW21628   1.404   2.683   3.472
 6910SOL    HW121629   1.471   2.752   3.443
 6910SOL    HW221630   1.363   2.711   3.559
 6911SOL     OW21631   2.677   0.229   5.878
 6911SOL    HW121632   2.692   0.220   5.976
 6911SOL    HW221633   2.637   0.319   5.858
 6912SOL     OW21634   1.964   3.658   6.377
 6912SOL    HW121635   1.968   3.750   6.336
 6912SOL    HW221636   1.923   3.595   6.312
 6913SOL     OW21637   4.387   5.862   5.744
 6913SOL    HW121638   4.417   5.955   5.765
 6913SOL    HW221639   4.319   5.833   5.811
 6914SOL     OW21640   6.532   3.556   1.907
 6914SOL    HW121641   6.596   3.631   1.894
 6914SOL    HW221642   6.467   3.553   1.831
 6915SOL     OW21643   1.162   3.127   2.563
 6915SOL    HW121644   1.146   3.077   2.479
 6915SOL    HW221645   1.250   3.099   2.602
 6916SOL     OW21646   4.388   6.278   6.776
 6916SOL    HW121647   4.410   6.356   6.718
 6916SOL    HW221648   4.453   6.273   6.851
 6917SOL     OW21649   5.940   5.659   1.598
 6917SOL    HW121650   5.915   5.662   1.695
 6917SOL    HW221651   5.936   5.565   1.565
 6918SOL     OW21652   1.513   3.068   1.886
 6918SOL    HW121653   1.462   3.036   1.806
 6918SOL    HW221654   1.609   3.080   1.862
 6919SOL     OW21655   6.738   6.237   2.977
 6919SOL    HW121656   6.649   6.209   2.940
 6919SOL    HW221657   6.726   6.311   3.043
 6920SOL     OW21658   4.946   0.632   5.777
 6920SOL    HW121659   4.938   0.541   5.736
 6920SOL    HW221660   4.910   0.700   5.714
 6921SOL     OW21661   3.386   0.338   4.318
 6921SOL    HW121662   3.297   0.360   4.357
 6921SOL    HW221663   3.457   0.393   4.362
 6922SOL     OW21664   1.083   5.957   5.696
 6922SOL    HW121665   1.036   6.028   5.646
 6922SOL    HW221666   1.151   5.998   5.757
 6923SOL     OW21667   6.206   6.796   2.057
 6923SOL    HW121668   6.134   6.836   2.001
 6923SOL    HW221669   6.233   6.861   2.128
 6924SOL     OW21670   3.609   6.618   0.377
 6924SOL    HW121671   3.683   6.686   0.371
 6924SOL    HW221672   3.632   6.551   0.448
 6925SOL     OW21673   5.813   6.046   6.398
 6925SOL    HW121674   5.801   6.126   6.339
 6925SOL    HW221675   5.768   5.967   6.357
 6926SOL     OW21676   2.713   2.140   0.484
 6926SOL    HW121677   2.686   2.091   0.568
 6926SOL    HW221678   2.633   2.186   0.445
 6927SOL     OW21679   4.170   0.958   0.080
 6927SOL    HW121680   4.257   0.912   0.098
 6927SOL    HW221681   4.176   1.009   7.019
 6928SOL     OW21682   4.561   5.060   0.786
 6928SOL    HW121683   4.514   5.145   0.764
 6928SOL    HW221684   4.604   5.023   0.703
 6929SOL     OW21685   5.855   5.618   1.059
 6929SOL    HW121686   5.857   5.569   0.972
 6929SOL    HW221687   5.800   5.701   1.050
 6930SOL     OW21688   0.210   0.628   0.717
 6930SOL    HW121689   0.267   0.670   0.647
 6930SOL    HW221690   0.223   0.676   0.804
 6931SOL     OW21691   2.554   2.588   1.352
 6931SOL    HW121692   2.519   2.500   1.321
 6931SOL    HW221693   2.548   2.594   1.451
 6932SOL     OW21694   4.443   5.523   0.297
 6932SOL    HW121695   4.457   5.524   0.198
 6932SOL    HW221696   4.402   5.436   0.324
 6933SOL     OW21697   2.798   5.627   6.774
 6933SOL    HW121698   2.725   5.594   6.835
 6933SOL    HW221699   2.760   5.694   6.711
 6934SOL     OW21700   5.035   3.945   6.178
 6934SOL    HW121701   5.122   3.976   6.217
 6934SOL    HW221702   5.023   3.848   6.197
 6935SOL     OW21703   5.725   4.949   1.563
 6935SOL    HW121704   5.758   5.027   1.617
 6935SOL    HW221705   5.792   4.875   1.568
 6936SOL     OW21706   0.936   2.015   5.125
 6936SOL    HW121707   0.852   2.069   5.114
 6936SOL    HW221708   0.957   1.969   5.039
 6937SOL     OW21709   5.349   5.718   0.495
 6937SOL    HW121710   5.274   5.750   0.436
 6937SOL    HW221711   5.424   5.685   0.439
 6938SOL     OW21712   0.518   0.470   4.646
 6938SOL    HW121713   0.551   0.564   4.650
 6938SOL    HW221714   0.588   0.408   4.682
 6939SOL     OW21715   6.305   4.940   3.645
 6939SOL    HW121716   6.259   4.910   3.728
 6939SOL    HW221717   6.354   4.864   3.604
 6940SOL     OW21718   4.014   6.615   0.760
 6940SOL    HW121719   4.031   6.709   0.790
 6940SOL    HW221720   3.957   6.617   0.677
 6941SOL     OW21721   3.522   3.133   2.352
 6941SOL    HW121722   3.487   3.203   2.414
 6941SOL    HW221723   3.453   3.062   2.339
 6942SOL     OW21724   6.061   6.851   1.585
 6942SOL    HW121725   6.033   6.829   1.679
 6942SOL    HW221726   6.085   6.947   1.579
 6943SOL     OW21727   3.976   5.131   6.214
 6943SOL    HW121728   3.939   5.208   6.162
 6943SOL    HW221729   4.011   5.062   6.151
 6944SOL     OW21730   1.052   3.651   5.532
 6944SOL    HW121731   1.001   3.706   5.597
 6944SOL    HW221732   0.988   3.598   5.476
 6945SOL     OW21733   5.492   2.623   0.957
 6945SOL    HW121734   5.591   2.606   0.957
 6945SOL    HW221735   5.461   2.637   0.864
 6946SOL     OW21736   4.475   5.636   2.451
 6946SOL    HW121737   4.412   5.588   2.513
 6946SOL    HW221738   4.566   5.597   2.459
 6947SOL     OW21739   5.148   5.257   5.466
 6947SOL    HW121740   5.145   5.244   5.565
 6947SOL    HW221741   5.159   5.169   5.420
 6948SOL     OW21742   0.769   5.225   6.962
 6948SOL    HW121743   0.798   5.129   6.959
 6948SOL    HW221744   0.677   5.231   7.001
 6949SOL     OW21745   2.809   2.195   3.909
 6949SOL    HW121746   2.787   2.253   3.988
 6949SOL    HW221747   2.823   2.101   3.941
 6950SOL     OW21748   0.970   6.759   5.114
 6950SOL    HW121749   0.912   6.717   5.044
 6950SOL    HW221750   0.959   6.859   5.110
 6951SOL     OW21751   0.055   4.856   6.677
 6951SOL    HW121752   0.015   4.851   6.586
 6951SOL    HW221753   0.081   4.765   6.708
 6952SOL     OW21754   3.508   5.171   3.188
 6952SOL    HW121755   3.413   5.203   3.193
 6952SOL    HW221756   3.540   5.176   3.093
 6953SOL     OW21757   4.780   0.984   1.284
 6953SOL    HW121758   4.875   1.011   1.299
 6953SOL    HW221759   4.719   1.053   1.325
 6954SOL     OW21760   6.160   3.708   0.360
 6954SOL    HW121761   6.162   3.749   0.269
 6954SOL    HW221762   6.129   3.613   0.353
 6955SOL     OW21763   5.303   6.429   2.383
 6955SOL    HW121764   5.253   6.419   2.297
 6955SOL    HW221765   5.238   6.450   2.457
 6956SOL     OW21766   5.209   5.588   2.226
 6956SOL    HW121767   5.123   5.599   2.177
 6956SOL    HW221768   5.197   5.525   2.302
 6957SOL     OW21769   5.324   5.176   6.264
 6957SOL    HW121770   5.331   5.124   6.178
 6957SOL    HW221771   5.236   5.222   6.269
 6958SOL     OW21772   3.099   3.019   3.316
 6958SOL    HW121773   3.037   3.087   3.356
 6958SOL    HW221774   3.168   2.993   3.384
 6959SOL     OW21775   1.031   4.009   3.016
 6959SOL    HW121776   0.975   4.041   2.939
 6959SOL    HW221777   0.991   3.925   3.053
 6960SOL     OW21778   2.775   4.707   0.337
 6960SOL    HW121779   2.796   4.638   0.406
 6960SOL    HW221780   2.827   4.790   0.356
 6961SOL     OW21781   4.396   2.264   5.738
 6961SOL    HW121782   4.454   2.183   5.734
 6961SOL    HW221783   4.326   2.259   5.667
 6962SOL     OW21784   2.738   6.630   5.997
 6962SOL    HW121785   2.815   6.580   5.958
 6962SOL    HW221786   2.663   6.567   6.014
 6963SOL     OW21787   5.262   6.727   0.968
 6963SOL    HW121788   5.358   6.741   0.945
 6963SOL    HW221789   5.236   6.633   0.947
 6964SOL     OW21790   1.591   0.286   6.143
 6964SOL    HW121791   1.548   0.299   6.053
 6964SOL    HW221792   1.552   0.350   6.208
 6965SOL     OW21793   0.489   2.073   6.747
 6965SOL    HW121794   0.588   2.063   6.732
 6965SOL    HW221795   0.441   2.073   6.660
 6966SOL     OW21796   1.036   0.249   1.843
 6966SOL    HW121797   1.136   0.244   1.840
 6966SOL    HW221798   1.008   0.325   1.901
 6967SOL     OW21799   4.401   1.809   6.217
 6967SOL    HW121800   4.406   1.834   6.314
 6967SOL    HW221801   4.463   1.732   6.200
 6968SOL     OW21802   4.044   6.370   2.626
 6968SOL    HW121803   3.983   6.292   2.622
 6968SOL    HW221804   4.006   6.439   2.688
 6969SOL     OW21805   2.210   1.659   1.804
 6969SOL    HW121806   2.274   1.697   1.870
 6969SOL    HW221807   2.257   1.594   1.744
 6970SOL     OW21808   3.564   4.655   6.144
 6970SOL    HW121809   3.468   4.680   6.143
 6970SOL    HW221810   3.575   4.561   6.114
 6971SOL     OW21811   0.061   4.410   0.533
 6971SOL    HW121812   0.094   4.316   0.542
 6971SOL    HW221813   0.064   4.437   0.437
 6972SOL     OW21814   4.937   3.519   2.180
 6972SOL    HW121815   4.928   3.458   2.259
 6972SOL    HW221816   4.931   3.466   2.096
 6973SOL     OW21817   1.024   3.237   3.357
 6973SOL    HW121818   1.069   3.308   3.302
 6973SOL    HW221819   0.925   3.245   3.345
 6974SOL     OW21820   3.685   3.763   2.952
 6974SOL    HW121821   3.688   3.858   2.921
 6974SOL    HW221822   3.752   3.710   2.901
 6975SOL     OW21823   3.272   5.780   4.932
 6975SOL    HW121824   3.247   5.740   4.844
 6975SOL    HW221825   3.212   5.742   5.003
 6976SOL     OW21826   5.188   4.083   5.927
 6976SOL    HW121827   5.284   4.066   5.950
 6976SOL    HW221828   5.152   4.155   5.987
 6977SOL     OW21829   4.261   4.684   1.399
 6977SOL    HW121830   4.310   4.751   1.344
 6977SOL    HW221831   4.326   4.629   1.451
 6978SOL     OW21832   5.258   3.595   1.798
 6978SOL    HW121833   5.165   3.578   1.766
 6978SOL    HW221834   5.281   3.691   1.781
 6979SOL     OW21835   1.313   3.768   1.509
 6979SOL    HW121836   1.265   3.712   1.442
 6979SOL    HW221837   1.329   3.859   1.472
 6980SOL     OW21838   1.529   6.454   3.261
 6980SOL    HW121839   1.431   6.470   3.273
 6980SOL    HW221840   1.571   6.533   3.217
 6981SOL     OW21841   3.573   3.411   6.531
 6981SOL    HW121842   3.476   3.431   6.515
 6981SOL    HW221843   3.591   3.410   6.630
 6982SOL     OW21844   1.357   1.153   4.054
 6982SOL    HW121845   1.331   1.091   3.981
 6982SOL    HW221846   1.321   1.245   4.034
 6983SOL     OW21847   4.936   0.642   4.075
 6983SOL    HW121848   5.027   0.683   4.066
 6983SOL    HW221849   4.900   0.623   3.983
 6984SOL     OW21850   0.796   2.534   3.063
 6984SOL    HW121851   0.756   2.529   2.972
 6984SOL    HW221852   0.773   2.622   3.105
 6985SOL     OW21853   6.101   3.239   0.168
 6985SOL    HW121854   6.051   3.254   0.083
 6985SOL    HW221855   6.198   3.259   0.155
 6986SOL     OW21856   3.624   4.976   5.516
 6986SOL    HW121857   3.586   4.896   5.562
 6986SOL    HW221858   3.591   4.979   5.422
 6987SOL     OW21859   0.828   1.642   6.571
 6987SOL    HW121860   0.756   1.583   6.534
 6987SOL    HW221861   0.793   1.735   6.582
 6988SOL     OW21862   2.958   1.189   6.321
 6988SOL    HW121863   2.888   1.233   6.265
 6988SOL    HW221864   3.043   1.240   6.314
 6989SOL     OW21865   6.804   5.133   2.942
 6989SOL    HW121866   6.807   5.059   2.875
 6989SOL    HW221867   6.821   5.221   2.897
 6990SOL     OW21868   3.413   2.673   1.357
 6990SOL    HW121869   3.489   2.738   1.353
 6990SOL    HW221870   3.446   2.584   1.387
 6991SOL     OW21871   5.427   3.796   2.389
 6991SOL    HW121872   5.366   3.728   2.348
 6991SOL    HW221873   5.511   3.801   2.337
 6992SOL     OW21874   0.811   6.840   0.115
 6992SOL    HW121875   0.885   6.822   0.180
 6992SOL    HW221876   0.732   6.878   0.163
 6993SOL     OW21877   4.756   1.176   1.749
 6993SOL    HW121878   4.705   1.225   1.820
 6993SOL    HW221879   4.849   1.160   1.781
 6994SOL     OW21880   2.211   6.952   4.273
 6994SOL    HW121881   2.236   6.903   4.356
 6994SOL    HW221882   2.229   6.894   4.194
 6995SOL     OW21883   0.123   3.838   1.093
 6995SOL    HW121884   0.158   3.823   1.185
 6995SOL    HW221885   0.099   3.750   1.052
 6996SOL     OW21886   0.960   1.568   0.110
 6996SOL    HW121887   0.896   1.633   0.152
 6996SOL    HW221888   1.048   1.614   0.094
 6997SOL     OW21889   6.218   5.491   5.251
 6997SOL    HW121890   6.233   5.572   5.309
 6997SOL    HW221891   6.184   5.416   5.308
 6998SOL     OW21892   6.770   1.574   0.434
 6998SOL    HW121893   6.742   1.659   0.391
 6998SOL    HW221894   6.732   1.497   0.383
 6999SOL     OW21895   0.673   3.571   0.519
 6999SOL    HW121896   0.767   3.551   0.547
 6999SOL    HW221897   0.667   3.665   0.484
 7000SOL     OW21898   6.849   0.095   2.528
 7000SOL    HW121899   6.916   0.053   2.590
 7000SOL    HW221900   6.766   0.117   2.579
 7001SOL     OW21901   1.046   1.452   4.646
 7001SOL    HW121902   1.118   1.520   4.634
 7001SOL    HW221903   0.980   1.484   4.713
 7002SOL     OW21904   0.098   5.835   3.027
 7002SOL    HW121905   0.088   5.896   2.948
 7002SOL    HW221906   0.011   5.789   3.044
 7003SOL     OW21907   6.214   4.670   1.266
 7003SOL    HW121908   6.244   4.710   1.180
 7003SOL    HW221909   6.180   4.578   1.250
 7004SOL     OW21910   1.765   5.676   0.475
 7004SOL    HW121911   1.825   5.741   0.520
 7004SOL    HW221912   1.772   5.687   0.375
 7005SOL     OW21913   1.318   0.133   0.164
 7005SOL    HW121914   1.299   0.039   0.134
 7005SOL    HW221915   1.240   0.168   0.216
 7006SOL     OW21916   0.769   0.198   4.535
 7006SOL    HW121917   0.746   0.229   4.443
 7006SOL    HW221918   0.717   0.251   4.602
 7007SOL     OW21919   3.623   0.299   5.461
 7007SOL    HW121920   3.530   0.301   5.497
 7007SOL    HW221921   3.647   0.390   5.426
 7008SOL     OW21922   6.270   4.386   3.671
 7008SOL    HW121923   6.299   4.327   3.747
 7008SOL    HW221924   6.171   4.399   3.675
 7009SOL     OW21925   4.512   5.860   1.563
 7009SOL    HW121926   4.601   5.843   1.606
 7009SOL    HW221927   4.456   5.778   1.570
 7010SOL     OW21928   5.353   3.870   1.816
 7010SOL    HW121929   5.253   3.872   1.814
 7010SOL    HW221930   5.389   3.915   1.734
 7011SOL     OW21931   3.176   6.376   0.125
 7011SOL    HW121932   3.104   6.442   0.109
 7011SOL    HW221933   3.220   6.396   0.213
 7012SOL     OW21934   0.196   2.046   0.323
 7012SOL    HW121935   0.113   1.995   0.301
 7012SOL    HW221936   0.221   2.027   0.418
 7013SOL     OW21937   2.650   1.620   6.827
 7013SOL    HW121938   2.583   1.616   6.754
 7013SOL    HW221939   2.656   1.531   6.872
 7014SOL     OW21940   6.480   3.556   1.545
 7014SOL    HW121941   6.410   3.523   1.482
 7014SOL    HW221942   6.449   3.641   1.587
 7015SOL     OW21943   4.813   5.506   0.864
 7015SOL    HW121944   4.891   5.482   0.921
 7015SOL    HW221945   4.746   5.557   0.918
 7016SOL     OW21946   3.294   5.149   0.465
 7016SOL    HW121947   3.293   5.116   0.370
 7016SOL    HW221948   3.200   5.152   0.500
 7017SOL     OW21949   4.651   5.306   4.143
 7017SOL    HW121950   4.562   5.311   4.097
 7017SOL    HW221951   4.689   5.214   4.131
 7018SOL     OW21952   4.932   3.390   4.220
 7018SOL    HW121953   4.909   3.424   4.312
 7018SOL    HW221954   4.869   3.317   4.195
 7019SOL     OW21955   5.031   4.883   1.901
 7019SOL    HW121956   4.949   4.837   1.936
 7019SOL    HW221957   5.007   4.939   1.822
 7020SOL     OW21958   0.476   3.083   6.351
 7020SOL    HW121959   0.396   3.028   6.377
 7020SOL    HW221960   0.523   3.115   6.433
 7021SOL     OW21961   1.098   2.232   5.205
 7021SOL    HW121962   1.141   2.231   5.295
 7021SOL    HW221963   1.028   2.161   5.201
 7022SOL     OW21964   3.806   1.336   0.743
 7022SOL    HW121965   3.879   1.367   0.803
 7022SOL    HW221966   3.718   1.345   0.789
 7023SOL     OW21967   0.548   2.038   1.359
 7023SOL    HW121968   0.563   2.108   1.428
 7023SOL    HW221969   0.595   1.954   1.385
 7024SOL     OW21970   3.781   3.386   4.031
 7024SOL    HW121971   3.797   3.302   3.980
 7024SOL    HW221972   3.784   3.366   4.129
 7025SOL     OW21973   3.779   6.837   0.325
 7025SOL    HW121974   3.868   6.808   0.289
 7025SOL    HW221975   3.767   6.935   0.309
 7026SOL     OW21976   3.538   2.082   1.084
 7026SOL    HW121977   3.520   1.998   1.033
 7026SOL    HW221978   3.547   2.159   1.021
 7027SOL     OW21979   2.132   5.313   1.601
 7027SOL    HW121980   2.225   5.349   1.596
 7027SOL    HW221981   2.129   5.235   1.662
 7028SOL     OW21982   3.507   0.067   3.188
 7028SOL    HW121983   3.582   0.002   3.204
 7028SOL    HW221984   3.464   0.046   3.099
 7029SOL     OW21985   3.451   3.432   5.149
 7029SOL    HW121986   3.480   3.524   5.123
 7029SOL    HW221987   3.476   3.367   5.077
 7030SOL     OW21988   6.414   1.714   4.954
 7030SOL    HW121989   6.468   1.796   4.975
 7030SOL    HW221990   6.433   1.685   4.859
 7031SOL     OW21991   4.539   6.496   0.638
 7031SOL    HW121992   4.492   6.546   0.711
 7031SOL    HW221993   4.574   6.561   0.570
 7032SOL     OW21994   3.787   0.082   4.613
 7032SOL    HW121995   3.808   7.012   4.591
 7032SOL    HW221996   3.855   0.118   4.676
 7033SOL     OW21997   1.564   2.056   5.612
 7033SOL    HW121998   1.496   2.005   5.666
 7033SOL    HW221999   1.535   2.059   5.517
 7034SOL     OW22000   6.288   1.515   3.033
 7034SOL    HW122001   6.256   1.551   3.120
 7034SOL    HW222002   6.220   1.453   2.995
 7035SOL     OW22003   2.114   0.911   1.088
 7035SOL    HW122004   2.148   0.998   1.123
 7035SOL    HW222005   2.116   0.912   0.988
 7036SOL     OW22006   0.108   1.178   2.156
 7036SOL    HW122007   0.036   1.185   2.225
 7036SOL    HW222008   0.093   1.096   2.101
 7037SOL     OW22009   0.859   0.375   6.561
 7037SOL    HW122010   0.768   0.414   6.551
 7037SOL    HW222011   0.907   0.381   6.473
 7038SOL     OW22012   1.837   2.604   6.486
 7038SOL    HW122013   1.780   2.592   6.404
 7038SOL    HW222014   1.784   2.580   6.567
 7039SOL     OW22015   0.353   5.972   2.869
 7039SOL    HW122016   0.444   6.012   2.860
 7039SOL    HW222017   0.284   6.040   2.843
 7040SOL     OW22018   4.559   2.415   5.378
 7040SOL    HW122019   4.530   2.362   5.298
 7040SOL    HW222020   4.640   2.468   5.355
 7041SOL     OW22021   1.445   0.400   3.637
 7041SOL    HW122022   1.472   0.477   3.696
 7041SOL    HW222023   1.356   0.366   3.666
 7042SOL     OW22024   4.344   6.258   5.150
 7042SOL    HW122025   4.363   6.355   5.130
 7042SOL    HW222026   4.257   6.250   5.197
 7043SOL     OW22027   2.216   4.651   2.730
 7043SOL    HW122028   2.215   4.597   2.646
 7043SOL    HW222029   2.203   4.591   2.808
 7044SOL     OW22030   5.111   6.183   4.104
 7044SOL    HW122031   5.052   6.108   4.075
 7044SOL    HW222032   5.180   6.200   4.034
 7045SOL     OW22033   6.235   5.777   2.662
 7045SOL    HW122034   6.156   5.778   2.600
 7045SOL    HW222035   6.281   5.866   2.658
 7046SOL     OW22036   3.155   2.009   4.508
 7046SOL    HW122037   3.174   1.913   4.530
 7046SOL    HW222038   3.111   2.052   4.587
 7047SOL     OW22039   0.821   6.805   0.415
 7047SOL    HW122040   0.796   6.801   0.512
 7047SOL    HW222041   0.742   6.835   0.362
 7048SOL     OW22042   6.559   5.433   4.933
 7048SOL    HW122043   6.563   5.336   4.957
 7048SOL    HW222044   6.625   5.452   4.861
 7049SOL     OW22045   3.713   1.059   2.201
 7049SOL    HW122046   3.802   1.085   2.165
 7049SOL    HW222047   3.654   1.029   2.127
 7050SOL     OW22048   4.017   3.905   0.824
 7050SOL    HW122049   4.110   3.871   0.815
 7050SOL    HW222050   3.979   3.877   0.912
 7051SOL     OW22051   0.530   0.222   1.174
 7051SOL    HW122052   0.472   0.264   1.104
 7051SOL    HW222053   0.478   0.213   1.259
 7052SOL     OW22054   5.721   0.458   2.179
 7052SOL    HW122055   5.811   0.437   2.140
 7052SOL    HW222056   5.656   0.387   2.153
 7053SOL     OW22057   1.647   2.620   3.754
 7053SOL    HW122058   1.726   2.658   3.803
 7053SOL    HW222059   1.593   2.694   3.715
 7054SOL     OW22060   6.890   0.343   0.629
 7054SOL    HW122061   6.835   0.425   0.613
 7054SOL    HW222062   6.966   0.367   0.690
 7055SOL     OW22063   2.571   0.963   6.813
 7055SOL    HW122064   2.614   0.907   6.742
 7055SOL    HW222065   2.619   1.051   6.820
 7056SOL     OW22066   6.925   5.536   1.558
 7056SOL    HW122067   6.982   5.466   1.601
 7056SOL    HW222068   6.830   5.523   1.586
 7057SOL     OW22069   3.092   4.909   5.040
 7057SOL    HW122070   3.082   4.827   5.096
 7057SOL    HW222071   3.078   4.990   5.097
 7058SOL     OW22072   5.232   2.732   5.946
 7058SOL    HW122073   5.217   2.640   5.912
 7058SOL    HW222074   5.220   2.733   6.045
 7059SOL     OW22075   1.970   0.686   4.702
 7059SOL    HW122076   2.024   0.641   4.773
 7059SOL    HW222077   1.873   0.678   4.724
 7060SOL     OW22078   3.440   0.333   2.074
 7060SOL    HW122079   3.383   0.368   2.149
 7060SOL    HW222080   3.396   0.352   1.987
 7061SOL     OW22081   1.050   2.680   2.934
 7061SOL    HW122082   0.963   2.668   2.886
 7061SOL    HW222083   1.039   2.657   3.030
 7062SOL     OW22084   3.777   1.719   3.205
 7062SOL    HW122085   3.851   1.655   3.187
 7062SOL    HW222086   3.751   1.765   3.120
 7063SOL     OW22087   0.903   0.958   2.080
 7063SOL    HW122088   0.926   0.967   1.983
 7063SOL    HW222089   0.848   1.036   2.110
 7064SOL     OW22090   4.774   1.801   5.349
 7064SOL    HW122091   4.696   1.844   5.304
 7064SOL    HW222092   4.851   1.795   5.285
 7065SOL     OW22093   3.592   4.134   5.595
 7065SOL    HW122094   3.605   4.181   5.508
 7065SOL    HW222095   3.633   4.043   5.591
 7066SOL     OW22096   4.003   0.382   0.005
 7066SOL    HW122097   4.067   0.408   6.957
 7066SOL    HW222098   4.055   0.348   0.083
 7067SOL     OW22099   2.087   3.275   6.785
 7067SOL    HW122100   1.989   3.274   6.805
 7067SOL    HW222101   2.104   3.228   6.698
 7068SOL     OW22102   5.111   4.122   4.218
 7068SOL    HW122103   5.178   4.192   4.194
 7068SOL    HW222104   5.147   4.032   4.192
 7069SOL     OW22105   5.632   6.976   6.486
 7069SOL    HW122106   5.613   0.010   6.407
 7069SOL    HW222107   5.610   0.001   6.570
 7070SOL     OW22108   0.486   6.360   4.892
 7070SOL    HW122109   0.405   6.322   4.939
 7070SOL    HW222110   0.549   6.396   4.961
 7071SOL     OW22111   5.344   5.920   6.292
 7071SOL    HW122112   5.399   5.837   6.296
 7071SOL    HW222113   5.294   5.922   6.205
 7072SOL     OW22114   0.134   3.731   6.783
 7072SOL    HW122115   0.145   3.685   6.695
 7072SOL    HW222116   0.062   3.687   6.836
 7073SOL     OW22117   5.686   1.404   2.904
 7073SOL    HW122118   5.630   1.322   2.905
 7073SOL    HW222119   5.708   1.431   2.998
 7074SOL     OW22120   5.960   4.189   2.905
 7074SOL    HW122121   5.894   4.264   2.908
 7074SOL    HW222122   5.950   4.132   2.986
 7075SOL     OW22123   3.436   5.516   4.201
 7075SOL    HW122124   3.435   5.606   4.245
 7075SOL    HW222125   3.494   5.454   4.254
 7076SOL     OW22126   6.085   2.779   2.552
 7076SOL    HW122127   6.024   2.772   2.473
 7076SOL    HW222128   6.173   2.737   2.531
 7077SOL     OW22129   3.262   5.592   1.233
 7077SOL    HW122130   3.274   5.686   1.264
 7077SOL    HW222131   3.346   5.541   1.252
 7078SOL     OW22132   5.122   6.984   0.447
 7078SOL    HW122133   5.161   6.941   0.529
 7078SOL    HW222134   5.087   6.913   0.386
 7079SOL     OW22135   1.146   0.066   4.258
 7079SOL    HW122136   1.238   0.102   4.241
 7079SOL    HW222137   1.139   6.998   4.222
 7080SOL     OW22138   4.107   1.625   4.978
 7080SOL    HW122139   4.037   1.652   5.043
 7080SOL    HW222140   4.142   1.707   4.931
 7081SOL     OW22141   1.389   1.280   0.150
 7081SOL    HW122142   1.474   1.230   0.135
 7081SOL    HW222143   1.392   1.367   0.101
 7082SOL     OW22144   6.353   4.465   3.017
 7082SOL    HW122145   6.308   4.462   2.928
 7082SOL    HW222146   6.410   4.384   3.029
 7083SOL     OW22147   6.985   3.247   2.474
 7083SOL    HW122148   6.909   3.282   2.529
 7083SOL    HW222149   6.994   3.301   2.391
 7084SOL     OW22150   0.937   5.671   6.959
 7084SOL    HW122151   0.868   5.743   6.952
 7084SOL    HW222152   0.893   5.587   6.993
 7085SOL     OW22153   0.854   3.162   2.268
 7085SOL    HW122154   0.866   3.070   2.305
 7085SOL    HW222155   0.926   3.181   2.201
 7086SOL     OW22156   5.614   1.190   4.637
 7086SOL    HW122157   5.643   1.165   4.545
 7086SOL    HW222158   5.627   1.112   4.699
 7087SOL     OW22159   5.371   2.985   3.191
 7087SOL    HW122160   5.439   2.937   3.246
 7087SOL    HW222161   5.409   3.002   3.100
 7088SOL     OW22162   6.136   1.730   4.990
 7088SOL    HW122163   6.108   1.825   4.992
 7088SOL    HW222164   6.234   1.724   5.008
 7089SOL     OW22165   3.255   5.591   1.760
 7089SOL    HW122166   3.295   5.590   1.851
 7089SOL    HW222167   3.157   5.569   1.767
 7090SOL     OW22168   4.217   2.009   1.331
 7090SOL    HW122169   4.157   1.936   1.299
 7090SOL    HW222170   4.313   1.981   1.319
 7091SOL     OW22171   6.986   6.723   5.998
 7091SOL    HW122172   7.002   6.632   5.959
 7091SOL    HW222173   6.984   6.717   6.098
 7092SOL     OW22174   4.621   1.899   6.897
 7092SOL    HW122175   4.522   1.895   6.883
 7092SOL    HW222176   4.654   1.809   6.925
 7093SOL     OW22177   3.446   3.752   1.093
 7093SOL    HW122178   3.529   3.708   1.126
 7093SOL    HW222179   3.366   3.698   1.120
 7094SOL     OW22180   2.907   0.191   5.245
 7094SOL    HW122181   3.005   0.213   5.236
 7094SOL    HW222182   2.894   0.129   5.323
 7095SOL     OW22183   2.658   4.436   5.255
 7095SOL    HW122184   2.610   4.521   5.276
 7095SOL    HW222185   2.754   4.456   5.233
 7096SOL     OW22186   7.007   0.950   1.209
 7096SOL    HW122187   6.907   0.945   1.213
 7096SOL    HW222188   0.013   0.933   1.115
 7097SOL     OW22189   4.690   0.724   1.922
 7097SOL    HW122190   4.622   0.773   1.976
 7097SOL    HW222191   4.720   0.781   1.845
 7098SOL     OW22192   1.002   6.417   4.207
 7098SOL    HW122193   0.905   6.440   4.202
 7098SOL    HW222194   1.028   6.365   4.125
 7099SOL     OW22195   3.139   2.211   4.148
 7099SOL    HW122196   3.213   2.192   4.212
 7099SOL    HW222197   3.064   2.257   4.195
 7100SOL     OW22198   6.016   4.165   1.310
 7100SOL    HW122199   6.003   4.066   1.311
 7100SOL    HW222200   6.111   4.186   1.332
 7101SOL     OW22201   2.301   6.419   5.255
 7101SOL    HW122202   2.271   6.359   5.181
 7101SOL    HW222203   2.290   6.373   5.343
 7102SOL     OW22204   5.927   0.790   1.547
 7102SOL    HW122205   5.996   0.851   1.585
 7102SOL    HW222206   5.909   0.813   1.452
 7103SOL     OW22207   4.759   4.128   2.949
 7103SOL    HW122208   4.715   4.138   2.860
 7103SOL    HW222209   4.788   4.217   2.983
 7104SOL     OW22210   4.945   3.310   3.378
 7104SOL    HW122211   5.031   3.333   3.425
 7104SOL    HW222212   4.943   3.355   3.289
 7105SOL     OW22213   3.133   3.966   4.027
 7105SOL    HW122214   3.045   3.940   3.987
 7105SOL    HW222215   3.199   3.891   4.014
 7106SOL     OW22216   2.926   3.139   1.066
 7106SOL    HW122217   2.837   3.159   1.026
 7106SOL    HW222218   2.982   3.089   1.000
 7107SOL     OW22219   3.509   0.672   6.269
 7107SOL    HW122220   3.478   0.600   6.208
 7107SOL    HW222221   3.584   0.638   6.326
 7108SOL     OW22222   3.678   0.200   2.087
 7108SOL    HW122223   3.605   0.267   2.076
 7108SOL    HW222224   3.726   0.217   2.174
 7109SOL     OW22225   1.894   6.821   5.516
 7109SOL    HW122226   1.938   6.885   5.454
 7109SOL    HW222227   1.957   6.747   5.538
 7110SOL     OW22228   3.648   6.504   4.454
 7110SOL    HW122229   3.552   6.501   4.425
 7110SOL    HW222230   3.664   6.589   4.505
 7111SOL     OW22231   0.073   0.617   4.698
 7111SOL    HW122232   7.006   0.643   4.725
 7111SOL    HW222233   0.080   0.517   4.694
 7112SOL     OW22234   1.869   5.154   4.592
 7112SOL    HW122235   1.806   5.110   4.528
 7112SOL    HW222236   1.857   5.253   4.589
 7113SOL     OW22237   3.329   5.125   5.685
 7113SOL    HW122238   3.339   5.141   5.587
 7113SOL    HW222239   3.396   5.180   5.735
 7114SOL     OW22240   4.918   5.077   0.657
 7114SOL    HW122241   4.995   5.091   0.593
 7114SOL    HW222242   4.936   4.996   0.713
 7115SOL     OW22243   6.374   4.287   0.134
 7115SOL    HW122244   6.319   4.229   0.073
 7115SOL    HW222245   6.470   4.259   0.130
 7116SOL     OW22246   6.510   3.966   4.220
 7116SOL    HW122247   6.499   4.056   4.264
 7116SOL    HW222248   6.437   3.905   4.251
 7117SOL     OW22249   5.901   0.228   3.190
 7117SOL    HW122250   5.854   0.148   3.228
 7117SOL    HW222251   5.999   0.215   3.196
 7118SOL     OW22252   4.071   4.348   5.281
 7118SOL    HW122253   4.031   4.269   5.234
 7118SOL    HW222254   4.160   4.370   5.241
 7119SOL     OW22255   3.634   6.347   4.993
 7119SOL    HW122256   3.727   6.319   4.970
 7119SOL    HW222257   3.617   6.439   4.956
 7120SOL     OW22258   4.794   0.856   0.610
 7120SOL    HW122259   4.791   0.756   0.612
 7120SOL    HW222260   4.855   0.888   0.683
 7121SOL     OW22261   1.766   6.505   2.770
 7121SOL    HW122262   1.798   6.570   2.840
 7121SOL    HW222263   1.845   6.459   2.729
 7122SOL     OW22264   2.552   0.740   6.022
 7122SOL    HW122265   2.541   0.792   5.937
 7122SOL    HW222266   2.642   0.698   6.024
 7123SOL     OW22267   5.224   5.044   6.004
 7123SOL    HW122268   5.211   5.003   5.913
 7123SOL    HW222269   5.251   4.973   6.069
 7124SOL     OW22270   1.589   2.433   1.342
 7124SOL    HW122271   1.671   2.452   1.397
 7124SOL    HW222272   1.598   2.478   1.253
 7125SOL     OW22273   1.070   6.737   0.992
 7125SOL    HW122274   1.024   6.750   0.904
 7125SOL    HW222275   1.163   6.705   0.976
 7126SOL     OW22276   3.861   5.822   1.226
 7126SOL    HW122277   3.780   5.765   1.219
 7126SOL    HW222278   3.868   5.880   1.145
 7127SOL     OW22279   2.461   6.980   4.998
 7127SOL    HW122280   2.484   6.884   4.983
 7127SOL    HW222281   2.544   0.007   5.017
 7128SOL     OW22282   4.044   4.271   6.626
 7128SOL    HW122283   3.994   4.185   6.613
 7128SOL    HW222284   4.029   4.331   6.547
 7129SOL     OW22285   0.519   0.119   0.442
 7129SOL    HW122286   0.556   0.188   0.503
 7129SOL    HW222287   0.421   0.109   0.458
 7130SOL     OW22288   3.345   6.816   4.230
 7130SOL    HW122289   3.259   6.866   4.238
 7130SOL    HW222290   3.371   6.779   4.319
 7131SOL     OW22291   3.857   0.939   2.675
 7131SOL    HW122292   3.822   0.935   2.582
 7131SOL    HW222293   3.949   0.978   2.674
 7132SOL     OW22294   5.537   4.468   0.798
 7132SOL    HW122295   5.545   4.446   0.895
 7132SOL    HW222296   5.622   4.509   0.766
 7133SOL     OW22297   3.934   5.374   3.012
 7133SOL    HW122298   3.899   5.293   3.060
 7133SOL    HW222299   3.945   5.353   2.915
 7134SOL     OW22300   5.665   5.008   1.276
 7134SOL    HW122301   5.573   4.984   1.245
 7134SOL    HW222302   5.676   4.981   1.372
 7135SOL     OW22303   1.999   3.206   1.426
 7135SOL    HW122304   1.998   3.305   1.444
 7135SOL    HW222305   2.091   3.178   1.399
 7136SOL     OW22306   2.008   1.653   1.992
 7136SOL    HW122307   2.040   1.605   2.075
 7136SOL    HW222308   2.074   1.639   1.918
 7137SOL     OW22309   2.414   2.234   1.565
 7137SOL    HW122310   2.496   2.208   1.615
 7137SOL    HW222311   2.433   2.233   1.467
 7138SOL     OW22312   0.990   2.291   0.700
 7138SOL    HW122313   0.924   2.280   0.625
 7138SOL    HW222314   1.058   2.217   0.696
 7139SOL     OW22315   6.440   6.008   1.322
 7139SOL    HW122316   6.481   5.931   1.273
 7139SOL    HW222317   6.403   5.976   1.409
 7140SOL     OW22318   6.866   3.148   0.306
 7140SOL    HW122319   6.801   3.128   0.380
 7140SOL    HW222320   6.938   3.208   0.342
 7141SOL     OW22321   3.689   0.711   1.094
 7141SOL    HW122322   3.776   0.728   1.140
 7141SOL    HW222323   3.705   0.668   1.005
 7142SOL     OW22324   3.191   0.248   5.170
 7142SOL    HW122325   3.189   0.284   5.076
 7142SOL    HW222326   3.286   0.248   5.203
 7143SOL     OW22327   2.834   4.828   6.946
 7143SOL    HW122328   2.874   4.857   0.008
 7143SOL    HW222329   2.734   4.836   6.951
 7144SOL     OW22330   6.701   0.216   5.360
 7144SOL    HW122331   6.692   0.223   5.459
 7144SOL    HW222332   6.711   0.120   5.334
 7145SOL     OW22333   5.037   2.338   6.411
 7145SOL    HW122334   5.133   2.360   6.394
 7145SOL    HW222335   5.020   2.336   6.510
 7146SOL     OW22336   1.896   1.784   5.449
 7146SOL    HW122337   1.856   1.827   5.368
 7146SOL    HW222338   1.928   1.693   5.426
 7147SOL     OW22339   6.073   6.245   1.945
 7147SOL    HW122340   6.093   6.204   2.033
 7147SOL    HW222341   6.158   6.271   1.899
 7148SOL     OW22342   6.642   6.691   1.008
 7148SOL    HW122343   6.553   6.704   0.966
 7148SOL    HW222344   6.714   6.716   0.943
 7149SOL     OW22345   6.052   4.559   5.187
 7149SOL    HW122346   6.057   4.460   5.203
 7149SOL    HW222347   5.961   4.581   5.152
 7150SOL     OW22348   3.860   3.351   6.887
 7150SOL    HW122349   3.776   3.382   6.841
 7150SOL    HW222350   3.932   3.418   6.872
 7151SOL     OW22351   3.709   1.143   0.938
 7151SOL    HW122352   3.656   1.166   0.857
 7151SOL    HW222353   3.742   1.049   0.931
 7152SOL     OW22354   6.360   1.410   6.320
 7152SOL    HW122355   6.296   1.384   6.248
 7152SOL    HW222356   6.401   1.499   6.298
 7153SOL     OW22357   3.784   6.348   1.270
 7153SOL    HW122358   3.879   6.326   1.252
 7153SOL    HW222359   3.770   6.357   1.369
 7154SOL     OW22360   4.254   2.147   1.923
 7154SOL    HW122361   4.162   2.168   1.889
 7154SOL    HW222362   4.277   2.209   1.998
 7155SOL     OW22363   3.133   1.506   2.128
 7155SOL    HW122364   3.101   1.460   2.046
 7155SOL    HW222365   3.174   1.439   2.190
 7156SOL     OW22366   6.112   3.767   6.670
 7156SOL    HW122367   6.211   3.783   6.680
 7156SOL    HW222368   6.063   3.813   6.744
 7157SOL     OW22369   6.355   4.946   6.688
 7157SOL    HW122370   6.392   4.854   6.700
 7157SOL    HW222371   6.403   4.992   6.613
 7158SOL     OW22372   4.432   6.692   4.205
 7158SOL    HW122373   4.361   6.621   4.213
 7158SOL    HW222374   4.488   6.692   4.287
 7159SOL     OW22375   0.811   6.189   3.127
 7159SOL    HW122376   0.802   6.222   3.034
 7159SOL    HW222377   0.775   6.096   3.134
 7160SOL     OW22378   6.617   0.045   3.370
 7160SOL    HW122379   6.560   0.099   3.432
 7160SOL    HW222380   6.577   0.046   3.278
 7161SOL     OW22381   4.147   3.585   3.617
 7161SOL    HW122382   4.055   3.614   3.643
 7161SOL    HW222383   4.209   3.600   3.694
 7162SOL     OW22384   0.264   5.855   1.594
 7162SOL    HW122385   0.230   5.812   1.678
 7162SOL    HW222386   0.278   5.784   1.525
 7163SOL     OW22387   0.693   1.575   2.396
 7163SOL    HW122388   0.769   1.579   2.331
 7163SOL    HW222389   0.693   1.658   2.452
 7164SOL     OW22390   1.902   0.895   6.687
 7164SOL    HW122391   2.000   0.910   6.677
 7164SOL    HW222392   1.853   0.980   6.667
 7165SOL     OW22393   5.951   1.189   0.175
 7165SOL    HW122394   5.945   1.103   0.125
 7165SOL    HW222395   5.966   1.171   0.272
 7166SOL     OW22396   5.837   6.503   5.946
 7166SOL    HW122397   5.899   6.484   6.022
 7166SOL    HW222398   5.762   6.436   5.948
 7167SOL     OW22399   5.742   2.034   4.751
 7167SOL    HW122400   5.793   2.119   4.737
 7167SOL    HW222401   5.649   2.055   4.783
 7168SOL     OW22402   2.733   1.264   2.097
 7168SOL    HW122403   2.680   1.196   2.046
 7168SOL    HW222404   2.799   1.308   2.036
 7169SOL     OW22405   1.407   3.911   6.624
 7169SOL    HW122406   1.470   3.916   6.547
 7169SOL    HW222407   1.455   3.875   6.704
 7170SOL     OW22408   3.945   1.385   0.523
 7170SOL    HW122409   3.891   1.368   0.605
 7170SOL    HW222410   3.930   1.479   0.491
 7171SOL     OW22411   6.769   4.424   0.576
 7171SOL    HW122412   6.754   4.380   0.665
 7171SOL    HW222413   6.855   4.475   0.579
 7172SOL     OW22414   1.695   1.137   3.953
 7172SOL    HW122415   1.672   1.137   3.856
 7172SOL    HW222416   1.642   1.067   4.000
 7173SOL     OW22417   4.999   5.458   6.028
 7173SOL    HW122418   4.939   5.484   5.953
 7173SOL    HW222419   5.068   5.394   5.996
 7174SOL     OW22420   6.547   4.317   1.973
 7174SOL    HW122421   6.608   4.346   1.900
 7174SOL    HW222422   6.457   4.298   1.936
 7175SOL     OW22423   5.528   3.483   6.443
 7175SOL    HW122424   5.468   3.537   6.384
 7175SOL    HW222425   5.547   3.395   6.400
 7176SOL     OW22426   0.869   0.528   5.981
 7176SOL    HW122427   0.790   0.513   5.920
 7176SOL    HW222428   0.938   0.458   5.963
 7177SOL     OW22429   1.742   5.156   3.746
 7177SOL    HW122430   1.826   5.191   3.704
 7177SOL    HW222431   1.676   5.133   3.675
 7178SOL     OW22432   1.684   0.849   5.284
 7178SOL    HW122433   1.651   0.809   5.369
 7178SOL    HW222434   1.608   0.859   5.220
 7179SOL     OW22435   3.415   5.866   6.005
 7179SOL    HW122436   3.427   5.846   6.103
 7179SOL    HW222437   3.449   5.958   5.986
 7180SOL     OW22438   1.511   4.237   1.505
 7180SOL    HW122439   1.608   4.226   1.523
 7180SOL    HW222440   1.497   4.317   1.446
 7181SOL     OW22441   2.648   1.644   6.005
 7181SOL    HW122442   2.640   1.690   6.094
 7181SOL    HW222443   2.565   1.661   5.952
 7182SOL     OW22444   1.527   2.015   4.666
 7182SOL    HW122445   1.532   1.925   4.624
 7182SOL    HW222446   1.450   2.066   4.627
 7183SOL     OW22447   0.974   6.655   1.799
 7183SOL    HW122448   1.049   6.712   1.832
 7183SOL    HW222449   0.920   6.707   1.733
 7184SOL     OW22450   6.086   0.171   3.825
 7184SOL    HW122451   6.167   0.168   3.884
 7184SOL    HW222452   6.072   0.265   3.793
 7185SOL     OW22453   4.229   1.048   4.219
 7185SOL    HW122454   4.228   1.065   4.121
 7185SOL    HW222455   4.307   1.094   4.260
 7186SOL     OW22456   0.468   6.883   6.796
 7186SOL    HW122457   0.556   6.836   6.803
 7186SOL    HW222458   0.483   6.980   6.776
 7187SOL     OW22459   3.207   2.954   4.076
 7187SOL    HW122460   3.173   3.039   4.116
 7187SOL    HW222461   3.284   2.921   4.129
 7188SOL     OW22462   3.758   4.224   6.836
 7188SOL    HW122463   3.854   4.215   6.807
 7188SOL    HW222464   3.708   4.141   6.811
 7189SOL     OW22465   6.306   2.707   5.780
 7189SOL    HW122466   6.255   2.778   5.830
 7189SOL    HW222467   6.268   2.697   5.688
 7190SOL     OW22468   6.153   5.676   1.370
 7190SOL    HW122469   6.246   5.676   1.405
 7190SOL    HW222470   6.089   5.699   1.443
 7191SOL     OW22471   0.179   4.740   3.943
 7191SOL    HW122472   0.203   4.655   3.988
 7191SOL    HW222473   0.217   4.741   3.850
 7192SOL     OW22474   2.115   4.371   6.739
 7192SOL    HW122475   2.037   4.330   6.692
 7192SOL    HW222476   2.122   4.333   6.831
 7193SOL     OW22477   2.678   2.379   2.453
 7193SOL    HW122478   2.605   2.318   2.484
 7193SOL    HW222479   2.661   2.406   2.358
 7194SOL     OW22480   2.770   2.786   6.376
 7194SOL    HW122481   2.866   2.813   6.371
 7194SOL    HW222482   2.722   2.815   6.293
 7195SOL     OW22483   0.065   3.892   5.570
 7195SOL    HW122484   0.044   3.856   5.479
 7195SOL    HW222485   0.118   3.976   5.561
 7196SOL     OW22486   3.330   4.067   1.925
 7196SOL    HW122487   3.269   4.098   1.853
 7196SOL    HW222488   3.422   4.056   1.889
 7197SOL     OW22489   2.314   3.775   5.624
 7197SOL    HW122490   2.387   3.844   5.622
 7197SOL    HW222491   2.231   3.814   5.584
 7198SOL     OW22492   0.366   0.399   1.844
 7198SOL    HW122493   0.385   0.495   1.866
 7198SOL    HW222494   0.348   0.390   1.746
 7199SOL     OW22495   0.473   1.113   2.613
 7199SOL    HW122496   0.501   1.207   2.636
 7199SOL    HW222497   0.470   1.058   2.696
 7200SOL     OW22498   0.847   2.310   0.996
 7200SOL    HW122499   0.759   2.263   0.997
 7200SOL    HW222500   0.904   2.274   0.922
 7201SOL     OW22501   5.618   5.150   3.965
 7201SOL    HW122502   5.638   5.126   3.870
 7201SOL    HW222503   5.544   5.218   3.967
 7202SOL     OW22504   4.947   0.395   5.640
 7202SOL    HW122505   4.932   0.341   5.557
 7202SOL    HW222506   4.982   0.335   5.712
 7203SOL     OW22507   0.639   1.450   1.750
 7203SOL    HW122508   0.656   1.404   1.837
 7203SOL    HW222509   0.724   1.456   1.698
 7204SOL     OW22510   6.510   6.951   1.165
 7204SOL    HW122511   6.432   6.901   1.126
 7204SOL    HW222512   6.581   6.885   1.192
 7205SOL     OW22513   2.827   1.974   4.732
 7205SOL    HW122514   2.840   1.879   4.703
 7205SOL    HW222515   2.911   2.008   4.775
 7206SOL     OW22516   1.818   3.163   0.788
 7206SOL    HW122517   1.799   3.259   0.808
 7206SOL    HW222518   1.830   3.150   0.690
 7207SOL     OW22519   1.843   1.448   4.558
 7207SOL    HW122520   1.896   1.370   4.592
 7207SOL    HW222521   1.879   1.532   4.599
 7208SOL     OW22522   2.905   0.273   4.046
 7208SOL    HW122523   2.884   0.266   4.144
 7208SOL    HW222524   3.003   0.281   4.033
 7209SOL     OW22525   2.808   2.033   2.457
 7209SOL    HW122526   2.857   2.113   2.422
 7209SOL    HW222527   2.719   2.026   2.413
 7210SOL     OW22528   2.868   1.106   3.131
 7210SOL    HW122529   2.951   1.062   3.164
 7210SOL    HW222530   2.793   1.040   3.128
 7211SOL     OW22531   3.376   5.505   5.128
 7211SOL    HW122532   3.426   5.545   5.205
 7211SOL    HW222533   3.279   5.500   5.150
 7212SOL     OW22534   6.349   4.276   6.073
 7212SOL    HW122535   6.430   4.256   6.129
 7212SOL    HW222536   6.283   4.327   6.127
 7213SOL     OW22537   4.086   1.745   0.176
 7213SOL    HW122538   4.155   1.799   0.127
 7213SOL    HW222539   4.077   1.778   0.270
 7214SOL     OW22540   0.062   0.967   6.621
 7214SOL    HW122541   0.022   1.050   6.583
 7214SOL    HW222542   0.128   0.991   6.691
 7215SOL     OW22543   6.956   2.807   2.386
 7215SOL    HW122544   7.003   2.839   2.303
 7215SOL    HW222545   6.957   2.880   2.455
 7216SOL     OW22546   3.527   6.078   2.758
 7216SOL    HW122547   3.495   6.165   2.719
 7216SOL    HW222548   3.565   6.095   2.849
 7217SOL     OW22549   1.129   3.912   3.690
 7217SOL    HW122550   1.117   4.007   3.661
 7217SOL    HW222551   1.225   3.897   3.715
 7218SOL     OW22552   6.387   3.957   4.742
 7218SOL    HW122553   6.337   3.881   4.785
 7218SOL    HW222554   6.454   3.919   4.678
 7219SOL     OW22555   3.735   5.831   2.236
 7219SOL    HW122556   3.680   5.826   2.153
 7219SOL    HW222557   3.698   5.902   2.296
 7220SOL     OW22558   5.810   4.654   4.712
 7220SOL    HW122559   5.892   4.705   4.684
 7220SOL    HW222560   5.742   4.657   4.638
 7221SOL     OW22561   3.757   5.671   4.660
 7221SOL    HW122562   3.670   5.716   4.638
 7221SOL    HW222563   3.742   5.572   4.665
 7222SOL     OW22564   0.513   6.659   4.098
 7222SOL    HW122565   0.611   6.662   4.116
 7222SOL    HW222566   0.465   6.628   4.180
 7223SOL     OW22567   0.601   2.662   1.266
 7223SOL    HW122568   0.644   2.641   1.178
 7223SOL    HW222569   0.660   2.634   1.341
 7224SOL     OW22570   3.761   2.117   3.236
 7224SOL    HW122571   3.786   2.037   3.290
 7224SOL    HW222572   3.664   2.138   3.250
 7225SOL     OW22573   1.443   0.313   0.897
 7225SOL    HW122574   1.457   0.317   0.996
 7225SOL    HW222575   1.345   0.307   0.878
 7226SOL     OW22576   6.400   6.455   0.777
 7226SOL    HW122577   6.398   6.399   0.694
 7226SOL    HW222578   6.335   6.419   0.843
 7227SOL     OW22579   2.654   1.110   1.890
 7227SOL    HW122580   2.563   1.071   1.877
 7227SOL    HW222581   2.723   1.043   1.862
 7228SOL     OW22582   0.270   3.608   1.966
 7228SOL    HW122583   0.320   3.531   2.006
 7228SOL    HW222584   0.329   3.655   1.900
 7229SOL     OW22585   0.232   7.018   4.585
 7229SOL    HW122586   0.264   7.013   4.679
 7229SOL    HW222587   0.286   0.062   4.536
 7230SOL     OW22588   2.118   5.065   4.450
 7230SOL    HW122589   2.189   5.067   4.521
 7230SOL    HW222590   2.043   5.125   4.478
 7231SOL     OW22591   4.791   1.244   6.345
 7231SOL    HW122592   4.766   1.334   6.379
 7231SOL    HW222593   4.770   1.175   6.414
 7232SOL     OW22594   5.863   0.056   2.921
 7232SOL    HW122595   5.843   0.087   3.013
 7232SOL    HW222596   5.786   0.002   2.886
 7233SOL     OW22597   6.518   1.237   5.149
 7233SOL    HW122598   6.485   1.309   5.088
 7233SOL    HW222599   6.584   1.181   5.101
 7234SOL     OW22600   5.191   3.977   2.756
 7234SOL    HW122601   5.264   3.910   2.768
 7234SOL    HW222602   5.159   3.975   2.662
 7235SOL     OW22603   0.673   6.104   1.358
 7235SOL    HW122604   0.595   6.110   1.296
 7235SOL    HW222605   0.696   6.008   1.373
 7236SOL     OW22606   2.284   2.505   3.574
 7236SOL    HW122607   2.314   2.463   3.659
 7236SOL    HW222608   2.308   2.602   3.574
 7237SOL     OW22609   5.102   0.592   0.143
 7237SOL    HW122610   5.160   0.650   0.199
 7237SOL    HW222611   5.130   0.496   0.153
 7238SOL     OW22612   4.390   3.155   0.222
 7238SOL    HW122613   4.464   3.129   0.160
 7238SOL    HW222614   4.387   3.254   0.233
 7239SOL     OW22615   0.582   3.179   2.305
 7239SOL    HW122616   0.679   3.155   2.301
 7239SOL    HW222617   0.543   3.176   2.213
 7240SOL     OW22618   6.791   1.893   5.650
 7240SOL    HW122619   6.877   1.911   5.698
 7240SOL    HW222620   6.804   1.903   5.552
 7241SOL     OW22621   2.806   1.763   2.033
 7241SOL    HW122622   2.708   1.766   2.053
 7241SOL    HW222623   2.845   1.854   2.042
 7242SOL     OW22624   6.530   5.421   4.577
 7242SOL    HW122625   6.620   5.387   4.603
 7242SOL    HW222626   6.514   5.402   4.480
 7243SOL     OW22627   6.358   3.980   6.394
 7243SOL    HW122628   6.355   3.919   6.473
 7243SOL    HW222629   6.445   3.967   6.346
 7244SOL     OW22630   0.041   6.640   6.388
 7244SOL    HW122631   0.105   6.699   6.437
 7244SOL    HW222632   7.001   6.601   6.453
 7245SOL     OW22633   1.572   2.725   6.398
 7245SOL    HW122634   1.525   2.655   6.452
 7245SOL    HW222635   1.635   2.681   6.334
 7246SOL     OW22636   3.176   0.333   3.969
 7246SOL    HW122637   3.197   0.237   3.950
 7246SOL    HW222638   3.255   0.377   4.010
 7247SOL     OW22639   2.219   2.639   5.340
 7247SOL    HW122640   2.194   2.599   5.252
 7247SOL    HW222641   2.240   2.736   5.328
 7248SOL     OW22642   3.530   0.950   4.554
 7248SOL    HW122643   3.464   0.891   4.507
 7248SOL    HW222644   3.515   0.946   4.653
 7249SOL     OW22645   3.933   5.199   1.554
 7249SOL    HW122646   3.883   5.173   1.637
 7249SOL    HW222647   3.901   5.144   1.477
 7250SOL     OW22648   5.181   5.751   5.396
 7250SOL    HW122649   5.119   5.686   5.440
 7250SOL    HW222650   5.130   5.805   5.328
 7251SOL     OW22651   0.518   5.820   5.529
 7251SOL    HW122652   0.488   5.757   5.601
 7251SOL    HW222653   0.484   5.912   5.549
 7252SOL     OW22654   2.937   3.706   2.325
 7252SOL    HW122655   2.965   3.619   2.285
 7252SOL    HW222656   2.859   3.743   2.275
 7253SOL     OW22657   1.354   5.625   5.386
 7253SOL    HW122658   1.428   5.568   5.420
 7253SOL    HW222659   1.372   5.651   5.291
 7254SOL     OW22660   5.034   4.095   3.842
 7254SOL    HW122661   4.982   4.075   3.925
 7254SOL    HW222662   4.990   4.051   3.764
 7255SOL     OW22663   5.031   3.076   6.776
 7255SOL    HW122664   5.001   2.981   6.785
 7255SOL    HW222665   5.008   3.110   6.685
 7256SOL     OW22666   3.354   6.513   6.445
 7256SOL    HW122667   3.421   6.548   6.510
 7256SOL    HW222668   3.379   6.421   6.417
 7257SOL     OW22669   0.551   1.041   4.616
 7257SOL    HW122670   0.487   1.034   4.693
 7257SOL    HW222671   0.638   1.076   4.648
 7258SOL     OW22672   5.739   1.915   2.854
 7258SOL    HW122673   5.723   1.864   2.939
 7258SOL    HW222674   5.804   1.865   2.797
 7259SOL     OW22675   0.693   3.969   3.215
 7259SOL    HW122676   0.782   3.926   3.202
 7259SOL    HW222677   0.647   3.976   3.126
 7260SOL     OW22678   5.443   2.625   0.377
 7260SOL    HW122679   5.496   2.705   0.406
 7260SOL    HW222680   5.394   2.586   0.454
 7261SOL     OW22681   0.168   4.144   0.497
 7261SOL    HW122682   0.135   4.107   0.410
 7261SOL    HW222683   0.166   4.073   0.567
 7262SOL     OW22684   5.977   2.141   5.872
 7262SOL    HW122685   6.039   2.191   5.811
 7262SOL    HW222686   5.995   2.168   5.966
 7263SOL     OW22687   0.727   5.561   0.203
 7263SOL    HW122688   0.718   5.619   0.284
 7263SOL    HW222689   0.636   5.538   0.168
 7264SOL     OW22690   5.639   1.116   0.317
 7264SOL    HW122691   5.670   1.023   0.296
 7264SOL    HW222692   5.666   1.140   0.410
 7265SOL     OW22693   4.347   5.697   5.467
 7265SOL    HW122694   4.273   5.629   5.472
 7265SOL    HW222695   4.361   5.737   5.558
 7266SOL     OW22696   6.906   0.285   4.104
 7266SOL    HW122697   6.819   0.327   4.079
 7266SOL    HW222698   6.981   0.342   4.070
 7267SOL     OW22699   6.327   5.557   4.995
 7267SOL    HW122700   6.275   5.527   5.075
 7267SOL    HW222701   6.403   5.495   4.979
 7268SOL     OW22702   6.629   6.257   4.499
 7268SOL    HW122703   6.633   6.225   4.593
 7268SOL    HW222704   6.665   6.186   4.438
 7269SOL     OW22705   2.482   5.294   5.664
 7269SOL    HW122706   2.562   5.243   5.696
 7269SOL    HW222707   2.415   5.300   5.738
 7270SOL     OW22708   0.816   1.615   4.218
 7270SOL    HW122709   0.828   1.542   4.285
 7270SOL    HW222710   0.758   1.687   4.257
 7271SOL     OW22711   0.685   4.430   3.668
 7271SOL    HW122712   0.648   4.423   3.575
 7271SOL    HW222713   0.647   4.357   3.725
 7272SOL     OW22714   6.085   5.703   2.254
 7272SOL    HW122715   6.143   5.683   2.333
 7272SOL    HW222716   5.989   5.705   2.283
 7273SOL     OW22717   6.902   2.754   5.691
 7273SOL    HW122718   6.941   2.841   5.661
 7273SOL    HW222719   6.904   2.750   5.791
 7274SOL     OW22720   0.413   4.559   0.373
 7274SOL    HW122721   0.362   4.543   0.288
 7274SOL    HW222722   0.380   4.496   0.444
 7275SOL     OW22723   6.441   0.525   2.786
 7275SOL    HW122724   6.529   0.554   2.825
 7275SOL    HW222725   6.453   0.510   2.687
 7276SOL     OW22726   4.647   6.640   3.638
 7276SOL    HW122727   4.673   6.654   3.733
 7276SOL    HW222728   4.596   6.719   3.605
 7277SOL     OW22729   4.170   0.579   5.797
 7277SOL    HW122730   4.123   0.495   5.771
 7277SOL    HW222731   4.254   0.588   5.743
 7278SOL     OW22732   3.086   3.978   2.065
 7278SOL    HW122733   3.096   3.966   2.164
 7278SOL    HW222734   3.173   4.006   2.025
 7279SOL     OW22735   3.722   6.100   0.299
 7279SOL    HW122736   3.778   6.109   0.217
 7279SOL    HW222737   3.761   6.156   0.372
 7280SOL     OW22738   4.551   6.822   5.553
 7280SOL    HW122739   4.568   6.810   5.651
 7280SOL    HW222740   4.627   6.783   5.501
 7281SOL     OW22741   3.834   2.149   6.254
 7281SOL    HW122742   3.741   2.137   6.218
 7281SOL    HW222743   3.859   2.246   6.248
 7282SOL     OW22744   5.838   5.593   1.851
 7282SOL    HW122745   5.819   5.688   1.878
 7282SOL    HW222746   5.753   5.541   1.852
 7283SOL     OW22747   2.786   0.985   2.796
 7283SOL    HW122748   2.729   1.009   2.874
 7283SOL    HW222749   2.881   0.976   2.825
 7284SOL     OW22750   6.863   3.554   5.105
 7284SOL    HW122751   6.770   3.556   5.143
 7284SOL    HW222752   6.917   3.485   5.153
 7285SOL     OW22753   4.538   5.363   1.730
 7285SOL    HW122754   4.555   5.266   1.714
 7285SOL    HW222755   4.476   5.374   1.807
 7286SOL     OW22756   2.360   2.690   1.132
 7286SOL    HW122757   2.271   2.656   1.162
 7286SOL    HW222758   2.429   2.672   1.202
 7287SOL     OW22759   6.142   1.147   6.471
 7287SOL    HW122760   6.075   1.093   6.522
 7287SOL    HW222761   6.233   1.130   6.508
 7288SOL     OW22762   4.026   0.251   6.333
 7288SOL    HW122763   3.988   0.269   6.242
 7288SOL    HW222764   3.951   0.238   6.398
 7289SOL     OW22765   5.759   1.730   3.170
 7289SOL    HW122766   5.680   1.720   3.231
 7289SOL    HW222767   5.805   1.642   3.161
 7290SOL     OW22768   2.579   5.019   5.248
 7290SOL    HW122769   2.630   5.021   5.163
 7290SOL    HW222770   2.529   5.106   5.259
 7291SOL     OW22771   2.093   0.062   1.631
 7291SOL    HW122772   2.177   0.011   1.612
 7291SOL    HW222773   2.105   0.157   1.604
 7292SOL     OW22774   3.053   6.748   3.290
 7292SOL    HW122775   2.977   6.814   3.293
 7292SOL    HW222776   3.083   6.737   3.196
 7293SOL     OW22777   1.743   1.645   5.072
 7293SOL    HW122778   1.675   1.571   5.073
 7293SOL    HW222779   1.778   1.657   4.979
 7294SOL     OW22780   2.852   5.408   6.986
 7294SOL    HW122781   2.867   5.407   0.060
 7294SOL    HW222782   2.924   5.355   6.941
 7295SOL     OW22783   0.711   2.149   0.262
 7295SOL    HW122784   0.735   2.071   0.320
 7295SOL    HW222785   0.658   2.215   0.315
 7296SOL     OW22786   2.923   4.977   0.933
 7296SOL    HW122787   2.902   4.990   0.836
 7296SOL    HW222788   2.986   4.900   0.943
 7297SOL     OW22789   3.955   6.349   0.667
 7297SOL    HW122790   3.889   6.318   0.736
 7297SOL    HW222791   4.019   6.414   0.709
 7298SOL     OW22792   5.397   3.818   4.326
 7298SOL    HW122793   5.480   3.846   4.277
 7298SOL    HW222794   5.370   3.891   4.389
 7299SOL     OW22795   6.572   2.640   0.810
 7299SOL    HW122796   6.662   2.623   0.771
 7299SOL    HW222797   6.555   2.739   0.814
 7300SOL     OW22798   5.208   5.978   0.910
 7300SOL    HW122799   5.155   5.933   0.982
 7300SOL    HW222800   5.146   6.029   0.850
 7301SOL     OW22801   0.005   0.226   5.962
 7301SOL    HW122802   6.999   0.276   6.043
 7301SOL    HW222803   6.960   0.231   5.890
 7302SOL     OW22804   0.054   1.204   0.067
 7302SOL    HW122805   0.011   1.293   0.086
 7302SOL    HW222806   0.153   1.216   0.057
 7303SOL     OW22807   3.968   0.150   6.722
 7303SOL    HW122808   3.993   0.065   6.768
 7303SOL    HW222809   4.031   0.223   6.751
 7304SOL     OW22810   4.454   3.781   6.197
 7304SOL    HW122811   4.381   3.838   6.234
 7304SOL    HW222812   4.518   3.838   6.145
 7305SOL     OW22813   4.742   2.048   0.195
 7305SOL    HW122814   4.696   2.075   0.280
 7305SOL    HW222815   4.816   1.984   0.217
 7306SOL     OW22816   4.886   4.013   1.476
 7306SOL    HW122817   4.840   4.025   1.564
 7306SOL    HW222818   4.965   4.074   1.471
 7307SOL     OW22819   2.932   6.794   1.610
 7307SOL    HW122820   2.981   6.821   1.693
 7307SOL    HW222821   2.945   6.696   1.594
 7308SOL     OW22822   6.699   3.534   4.451
 7308SOL    HW122823   6.718   3.538   4.352
 7308SOL    HW222824   6.764   3.593   4.499
 7309SOL     OW22825   5.026   6.085   0.702
 7309SOL    HW122826   5.007   6.023   0.625
 7309SOL    HW222827   5.092   6.155   0.673
 7310SOL     OW22828   2.115   5.369   1.094
 7310SOL    HW122829   2.149   5.435   1.026
 7310SOL    HW222830   2.165   5.283   1.084
 7311SOL     OW22831   2.837   2.054   1.858
 7311SOL    HW122832   2.827   2.006   1.945
 7311SOL    HW222833   2.802   2.148   1.868
 7312SOL     OW22834   7.023   1.769   5.445
 7312SOL    HW122835   7.010   1.781   5.347
 7312SOL    HW222836   0.045   1.849   5.483
 7313SOL     OW22837   4.184   2.642   6.321
 7313SOL    HW122838   4.208   2.632   6.417
 7313SOL    HW222839   4.268   2.656   6.267
 7314SOL     OW22840   6.618   3.626   5.210
 7314SOL    HW122841   6.594   3.723   5.204
 7314SOL    HW222842   6.563   3.573   5.145
 7315SOL     OW22843   5.844   0.040   3.832
 7315SOL    HW122844   5.782   0.115   3.856
 7315SOL    HW222845   5.938   0.070   3.846
 7316SOL     OW22846   3.597   3.146   5.265
 7316SOL    HW122847   3.514   3.131   5.211
 7316SOL    HW222848   3.645   3.226   5.230
 7317SOL     OW22849   4.193   0.938   2.287
 7317SOL    HW122850   4.226   0.881   2.362
 7317SOL    HW222851   4.116   0.993   2.319
 7318SOL     OW22852   0.947   1.465   1.729
 7318SOL    HW122853   0.980   1.465   1.635
 7318SOL    HW222854   0.959   1.556   1.769
 7319SOL     OW22855   6.412   4.507   6.981
 7319SOL    HW122856   6.329   4.559   6.962
 7319SOL    HW222857   6.397   4.449   0.037
 7320SOL     OW22858   0.091   3.614   2.172
 7320SOL    HW122859   0.173   3.617   2.115
 7320SOL    HW222860   0.113   3.568   2.258
 7321SOL     OW22861   2.314   1.203   4.965
 7321SOL    HW122862   2.332   1.176   4.870
 7321SOL    HW222863   2.304   1.302   4.970
 7322SOL     OW22864   1.359   3.819   3.321
 7322SOL    HW122865   1.401   3.902   3.282
 7322SOL    HW222866   1.268   3.807   3.282
 7323SOL     OW22867   1.378   2.614   3.203
 7323SOL    HW122868   1.375   2.700   3.153
 7323SOL    HW222869   1.383   2.632   3.301
 7324SOL     OW22870   5.425   0.536   3.451
 7324SOL    HW122871   5.371   0.617   3.473
 7324SOL    HW222872   5.410   0.510   3.356
 7325SOL     OW22873   4.426   6.548   6.253
 7325SOL    HW122874   4.508   6.509   6.210
 7325SOL    HW222875   4.348   6.537   6.191
 7326SOL     OW22876   2.558   6.226   5.330
 7326SOL    HW122877   2.538   6.321   5.353
 7326SOL    HW222878   2.540   6.212   5.232
 7327SOL     OW22879   0.495   3.143   5.720
 7327SOL    HW122880   0.431   3.106   5.653
 7327SOL    HW222881   0.587   3.106   5.703
 7328SOL     OW22882   3.056   0.333   0.046
 7328SOL    HW122883   3.015   0.244   0.026
 7328SOL    HW222884   3.022   0.401   7.004
 7329SOL     OW22885   4.330   3.538   0.957
 7329SOL    HW122886   4.284   3.561   1.043
 7329SOL    HW222887   4.426   3.565   0.962
 7330SOL     OW22888   3.097   1.808   6.932
 7330SOL    HW122889   3.192   1.804   6.964
 7330SOL    HW222890   3.042   1.742   6.984
 7331SOL     OW22891   5.280   1.219   1.941
 7331SOL    HW122892   5.283   1.300   2.000
 7331SOL    HW222893   5.311   1.139   1.991
 7332SOL     OW22894   2.703   6.316   0.262
 7332SOL    HW122895   2.664   6.261   0.187
 7332SOL    HW222896   2.800   6.330   0.246
 7333SOL     OW22897   0.686   4.691   3.691
 7333SOL    HW122898   0.716   4.719   3.600
 7333SOL    HW222899   0.703   4.593   3.703
 7334SOL     OW22900   3.833   5.529   5.495
 7334SOL    HW122901   3.841   5.604   5.561
 7334SOL    HW222902   3.808   5.566   5.406
 7335SOL     OW22903   1.444   2.568   2.747
 7335SOL    HW122904   1.407   2.521   2.667
 7335SOL    HW222905   1.529   2.524   2.776
 7336SOL     OW22906   1.771   6.007   3.774
 7336SOL    HW122907   1.699   6.036   3.712
 7336SOL    HW222908   1.834   6.082   3.790
 7337SOL     OW22909   1.558   2.743   2.222
 7337SOL    HW122910   1.525   2.688   2.145
 7337SOL    HW222911   1.639   2.795   2.193
 7338SOL     OW22912   6.603   2.598   1.728
 7338SOL    HW122913   6.548   2.676   1.756
 7338SOL    HW222914   6.688   2.631   1.687
 7339SOL     OW22915   6.270   6.030   4.087
 7339SOL    HW122916   6.266   6.043   4.186
 7339SOL    HW222917   6.299   5.937   4.067
 7340SOL     OW22918   2.157   0.511   0.272
 7340SOL    HW122919   2.159   0.603   0.232
 7340SOL    HW222920   2.083   0.458   0.231
 7341SOL     OW22921   6.294   2.271   0.549
 7341SOL    HW122922   6.333   2.335   0.615
 7341SOL    HW222923   6.361   2.250   0.478
 7342SOL     OW22924   6.290   6.940   2.585
 7342SOL    HW122925   6.259   6.981   2.671
 7342SOL    HW222926   6.389   6.925   2.589
 7343SOL     OW22927   4.612   2.329   0.042
 7343SOL    HW122928   4.662   2.290   6.989
 7343SOL    HW222929   4.677   2.356   0.113
 7344SOL     OW22930   1.087   6.201   6.032
 7344SOL    HW122931   1.108   6.103   6.025
 7344SOL    HW222932   1.161   6.254   5.992
 7345SOL     OW22933   3.784   3.142   5.619
 7345SOL    HW122934   3.802   3.198   5.538
 7345SOL    HW222935   3.869   3.129   5.670
 7346SOL     OW22936   3.470   5.918   2.557
 7346SOL    HW122937   3.373   5.935   2.540
 7346SOL    HW222938   3.502   5.976   2.632
 7347SOL     OW22939   6.633   2.042   0.578
 7347SOL    HW122940   6.561   2.105   0.548
 7347SOL    HW222941   6.659   2.063   0.672
 7348SOL     OW22942   1.701   4.379   3.201
 7348SOL    HW122943   1.772   4.312   3.179
 7348SOL    HW222944   1.720   4.419   3.291
 7349SOL     OW22945   4.226   0.490   1.314
 7349SOL    HW122946   4.147   0.551   1.315
 7349SOL    HW222947   4.294   0.523   1.248
 7350SOL     OW22948   2.649   0.488   5.007
 7350SOL    HW122949   2.688   0.455   4.921
 7350SOL    HW222950   2.722   0.506   5.073
 7351SOL     OW22951   4.624   4.912   3.915
 7351SOL    HW122952   4.684   4.977   3.869
 7351SOL    HW222953   4.604   4.944   4.007
 7352SOL     OW22954   0.618   2.345   3.265
 7352SOL    HW122955   0.560   2.385   3.336
 7352SOL    HW222956   0.657   2.418   3.209
 7353SOL     OW22957   5.970   0.265   6.777
 7353SOL    HW122958   5.884   0.296   6.735
 7353SOL    HW222959   6.028   0.224   6.706
 7354SOL     OW22960   1.446   1.353   3.357
 7354SOL    HW122961   1.469   1.266   3.400
 7354SOL    HW222962   1.350   1.353   3.331
 7355SOL     OW22963   0.238   1.903   6.667
 7355SOL    HW122964   0.311   1.862   6.722
 7355SOL    HW222965   0.270   1.988   6.626
 7356SOL     OW22966   3.730   3.534   5.717
 7356SOL    HW122967   3.783   3.464   5.766
 7356SOL    HW222968   3.718   3.614   5.776
 7357SOL     OW22969   4.994   5.839   1.509
 7357SOL    HW122970   5.073   5.858   1.566
 7357SOL    HW222971   4.997   5.896   1.427
 7358SOL     OW22972   6.271   2.561   2.018
 7358SOL    HW122973   6.313   2.495   1.955
 7358SOL    HW222974   6.343   2.606   2.071
 7359SOL     OW22975   4.305   0.599   6.097
 7359SOL    HW122976   4.231   0.582   6.032
 7359SOL    HW222977   4.316   0.697   6.111
 7360SOL     OW22978   2.672   3.440   5.309
 7360SOL    HW122979   2.608   3.515   5.325
 7360SOL    HW222980   2.624   3.353   5.316
 7361SOL     OW22981   4.783   0.115   2.453
 7361SOL    HW122982   4.792   0.131   2.551
 7361SOL    HW222983   4.869   0.138   2.407
 7362SOL     OW22984   4.111   5.551   6.103
 7362SOL    HW122985   4.134   5.499   6.185
 7362SOL    HW222986   4.019   5.588   6.111
 7363SOL     OW22987   4.089   1.121   1.183
 7363SOL    HW122988   4.071   1.154   1.090
 7363SOL    HW222989   4.039   1.177   1.249
 7364SOL     OW22990   4.198   0.016   1.512
 7364SOL    HW122991   4.167   6.958   1.559
 7364SOL    HW222992   4.246   0.074   1.577
 7365SOL     OW22993   6.284   4.571   2.526
 7365SOL    HW122994   6.382   4.580   2.545
 7365SOL    HW222995   6.246   4.499   2.583
 7366SOL     OW22996   2.556   0.906   4.089
 7366SOL    HW122997   2.581   0.989   4.139
 7366SOL    HW222998   2.599   0.827   4.131
 7367SOL     OW22999   4.847   1.491   6.451
 7367SOL    HW123000   4.932   1.506   6.401
 7367SOL    HW223001   4.866   1.462   6.544
 7368SOL     OW23002   3.860   3.395   2.593
 7368SOL    HW123003   3.842   3.424   2.499
 7368SOL    HW223004   3.912   3.309   2.593
 7369SOL     OW23005   4.302   2.736   0.247
 7369SOL    HW123006   4.278   2.828   0.276
 7369SOL    HW223007   4.246   2.669   0.296
 7370SOL     OW23008   2.360   1.676   5.168
 7370SOL    HW123009   2.457   1.689   5.148
 7370SOL    HW223010   2.312   1.763   5.159
 7371SOL     OW23011   4.254   6.980   3.328
 7371SOL    HW123012   4.261   0.032   3.391
 7371SOL    HW223013   4.162   6.977   3.289
 7372SOL     OW23014   4.037   0.445   4.610
 7372SOL    HW123015   4.072   0.357   4.644
 7372SOL    HW223016   4.086   0.520   4.655
 7373SOL     OW23017   4.945   2.410   4.609
 7373SOL    HW123018   4.865   2.407   4.670
 7373SOL    HW223019   5.026   2.381   4.659
 7374SOL     OW23020   0.897   1.199   4.993
 7374SOL    HW123021   0.814   1.239   5.032
 7374SOL    HW223022   0.971   1.266   4.996
 7375SOL     OW23023   2.140   3.116   2.253
 7375SOL    HW123024   2.114   3.186   2.186
 7375SOL    HW223025   2.136   3.155   2.345
 7376SOL     OW23026   0.545   3.545   1.113
 7376SOL    HW123027   0.572   3.639   1.093
 7376SOL    HW223028   0.447   3.542   1.133
 7377SOL     OW23029   3.180   5.905   0.537
 7377SOL    HW123030   3.187   5.863   0.447
 7377SOL    HW223031   3.138   5.841   0.602
 7378SOL     OW23032   1.807   6.419   4.424
 7378SOL    HW123033   1.882   6.353   4.423
 7378SOL    HW223034   1.759   6.417   4.337
 7379SOL     OW23035   4.237   0.766   1.561
 7379SOL    HW123036   4.271   0.780   1.654
 7379SOL    HW223037   4.167   0.835   1.540
 7380SOL     OW23038   6.021   4.334   3.233
 7380SOL    HW123039   6.087   4.335   3.309
 7380SOL    HW223040   6.044   4.406   3.168
 7381SOL     OW23041   4.054   1.281   6.999
 7381SOL    HW123042   4.034   1.370   0.014
 7381SOL    HW223043   4.070   1.291   6.901
 7382SOL     OW23044   0.423   1.879   6.017
 7382SOL    HW123045   0.521   1.862   6.027
 7382SOL    HW223046   0.388   1.828   5.939
 7383SOL     OW23047   1.610   6.934   1.629
 7383SOL    HW123048   1.683   6.992   1.592
 7383SOL    HW223049   1.639   6.896   1.717
 7384SOL     OW23050   0.891   0.019   0.913
 7384SOL    HW123051   0.904   6.971   0.845
 7384SOL    HW223052   0.799   0.011   0.952
 7385SOL     OW23053   3.963   5.284   2.750
 7385SOL    HW123054   4.050   5.288   2.702
 7385SOL    HW223055   3.930   5.190   2.751
 7386SOL     OW23056   6.247   3.126   0.886
 7386SOL    HW123057   6.220   3.097   0.977
 7386SOL    HW223058   6.223   3.054   0.820
 7387SOL     OW23059   6.642   4.497   5.701
 7387SOL    HW123060   6.547   4.486   5.672
 7387SOL    HW223061   6.645   4.551   5.786
 7388SOL     OW23062   1.742   6.481   2.339
 7388SOL    HW123063   1.762   6.387   2.369
 7388SOL    HW223064   1.670   6.520   2.398
 7389SOL     OW23065   6.678   3.125   0.500
 7389SOL    HW123066   6.613   3.197   0.477
 7389SOL    HW223067   6.738   3.156   0.573
 7390SOL     OW23068   2.310   1.823   3.187
 7390SOL    HW123069   2.387   1.832   3.124
 7390SOL    HW223070   2.226   1.807   3.135
 7391SOL     OW23071   3.777   2.993   2.727
 7391SOL    HW123072   3.779   3.001   2.628
 7391SOL    HW223073   3.715   2.919   2.754
 7392SOL     OW23074   4.254   5.348   6.678
 7392SOL    HW123075   4.249   5.307   6.769
 7392SOL    HW223076   4.204   5.291   6.613
 7393SOL     OW23077   6.087   4.684   4.608
 7393SOL    HW123078   6.106   4.626   4.687
 7393SOL    HW223079   6.135   4.771   4.619
 7394SOL     OW23080   2.494   2.223   6.089
 7394SOL    HW123081   2.528   2.137   6.050
 7394SOL    HW223082   2.394   2.226   6.080
 7395SOL     OW23083   2.648   4.109   1.028
 7395SOL    HW123084   2.711   4.044   0.984
 7395SOL    HW223085   2.690   4.199   1.032
 7396SOL     OW23086   2.927   5.171   1.699
 7396SOL    HW123087   2.868   5.226   1.640
 7396SOL    HW223088   3.023   5.189   1.675
 7397SOL     OW23089   5.629   3.555   4.460
 7397SOL    HW123090   5.607   3.640   4.509
 7397SOL    HW223091   5.706   3.571   4.399
 7398SOL     OW23092   2.148   4.520   2.992
 7398SOL    HW123093   2.050   4.528   3.007
 7398SOL    HW223094   2.179   4.430   3.024
 7399SOL     OW23095   5.295   2.040   4.731
 7399SOL    HW123096   5.227   2.062   4.801
 7399SOL    HW223097   5.284   1.945   4.704
 7400SOL     OW23098   5.520   2.187   5.464
 7400SOL    HW123099   5.458   2.184   5.542
 7400SOL    HW223100   5.615   2.193   5.497
 7401SOL     OW23101   1.469   2.904   3.673
 7401SOL    HW123102   1.436   2.984   3.622
 7401SOL    HW223103   1.561   2.923   3.707
 7402SOL     OW23104   2.871   5.756   5.051
 7402SOL    HW123105   2.840   5.848   5.077
 7402SOL    HW223106   2.949   5.730   5.108
 7403SOL     OW23107   1.208   2.644   3.955
 7403SOL    HW123108   1.209   2.579   4.031
 7403SOL    HW223109   1.137   2.713   3.971
 7404SOL     OW23110   2.920   3.648   1.055
 7404SOL    HW123111   2.946   3.580   0.986
 7404SOL    HW223112   2.880   3.601   1.134
 7405SOL     OW23113   3.201   5.938   5.456
 7405SOL    HW123114   3.255   6.009   5.412
 7405SOL    HW223115   3.246   5.910   5.541
 7406SOL     OW23116   0.612   0.639   5.047
 7406SOL    HW123117   0.632   0.717   4.987
 7406SOL    HW223118   0.515   0.641   5.072
 7407SOL     OW23119   0.379   6.000   6.384
 7407SOL    HW123120   0.409   6.043   6.469
 7407SOL    HW223121   0.427   5.913   6.372
 7408SOL     OW23122   3.550   3.783   5.434
 7408SOL    HW123123   3.607   3.824   5.363
 7408SOL    HW223124   3.574   3.687   5.445
 7409SOL     OW23125   6.283   4.123   0.688
 7409SOL    HW123126   6.330   4.200   0.731
 7409SOL    HW223127   6.276   4.138   0.590
 7410SOL     OW23128   6.994   0.019   1.264
 7410SOL    HW123129   6.981   6.949   1.238
 7410SOL    HW223130   6.919   0.048   1.324
 7411SOL     OW23131   0.727   2.131   5.837
 7411SOL    HW123132   0.800   2.063   5.836
 7411SOL    HW223133   0.767   2.223   5.827
 7412SOL     OW23134   3.962   0.019   0.033
 7412SOL    HW123135   3.962   6.953   0.075
 7412SOL    HW223136   3.868   0.051   0.021
 7413SOL     OW23137   4.066   6.068   3.539
 7413SOL    HW123138   4.071   5.971   3.563
 7413SOL    HW223139   4.049   6.076   3.440
 7414SOL     OW23140   2.476   2.079   4.452
 7414SOL    HW123141   2.448   2.175   4.454
 7414SOL    HW223142   2.436   2.031   4.530
 7415SOL     OW23143   4.184   6.514   6.634
 7415SOL    HW123144   4.195   6.613   6.647
 7415SOL    HW223145   4.270   6.474   6.603
 7416SOL     OW23146   0.856   1.928   2.648
 7416SOL    HW123147   0.774   1.874   2.630
 7416SOL    HW223148   0.937   1.876   2.620
 7417SOL     OW23149   1.105   2.026   3.780
 7417SOL    HW123150   1.112   2.082   3.863
 7417SOL    HW223151   1.009   2.001   3.766
 7418SOL     OW23152   1.588   3.546   6.292
 7418SOL    HW123153   1.568   3.450   6.269
 7418SOL    HW223154   1.516   3.604   6.255
 7419SOL     OW23155   6.351   4.205   3.949
 7419SOL    HW123156   6.360   4.238   4.043
 7419SOL    HW223157   6.432   4.152   3.924
 7420SOL     OW23158   6.985   0.123   1.879
 7420SOL    HW123159   6.889   0.107   1.901
 7420SOL    HW223160   0.011   0.142   1.963
 7421SOL     OW23161   4.755   4.033   1.703
 7421SOL    HW123162   4.662   4.016   1.671
 7421SOL    HW223163   4.785   3.956   1.760
 7422SOL     OW23164   5.884   2.873   1.669
 7422SOL    HW123165   5.793   2.905   1.644
 7422SOL    HW223166   5.929   2.944   1.724
 7423SOL     OW23167   5.576   1.745   5.663
 7423SOL    HW123168   5.485   1.784   5.673
 7423SOL    HW223169   5.570   1.646   5.658
 7424SOL     OW23170   0.198   0.660   5.005
 7424SOL    HW123171   0.136   0.647   4.928
 7424SOL    HW223172   0.220   0.757   5.014
 7425SOL     OW23173   5.680   6.790   0.619
 7425SOL    HW123174   5.764   6.736   0.620
 7425SOL    HW223175   5.702   6.888   0.620
 7426SOL     OW23176   3.614   2.885   5.875
 7426SOL    HW123177   3.584   2.975   5.845
 7426SOL    HW223178   3.632   2.827   5.796
 7427SOL     OW23179   3.925   1.627   3.757
 7427SOL    HW123180   4.011   1.584   3.729
 7427SOL    HW223181   3.848   1.579   3.716
 7428SOL     OW23182   4.543   6.275   5.602
 7428SOL    HW123183   4.621   6.253   5.543
 7428SOL    HW223184   4.553   6.227   5.689
 7429SOL     OW23185   1.873   0.211   2.678
 7429SOL    HW123186   1.788   0.248   2.641
 7429SOL    HW223187   1.948   0.230   2.614
 7430SOL     OW23188   6.622   5.183   3.143
 7430SOL    HW123189   6.613   5.110   3.211
 7430SOL    HW223190   6.677   5.150   3.066
 7431SOL     OW23191   1.986   2.196   5.009
 7431SOL    HW123192   1.908   2.245   5.047
 7431SOL    HW223193   2.070   2.243   5.035
 7432SOL     OW23194   1.650   0.227   3.273
 7432SOL    HW123195   1.738   0.209   3.317
 7432SOL    HW223196   1.583   0.160   3.304
 7433SOL     OW23197   2.754   6.838   6.765
 7433SOL    HW123198   2.784   6.836   6.670
 7433SOL    HW223199   2.760   6.931   6.801
 7434SOL     OW23200   4.190   6.057   5.519
 7434SOL    HW123201   4.097   6.044   5.554
 7434SOL    HW223202   4.239   5.970   5.522
 7435SOL     OW23203   5.034   6.408   3.110
 7435SOL    HW123204   5.033   6.501   3.071
 7435SOL    HW223205   4.967   6.403   3.185
 7436SOL     OW23206   5.314   3.292   5.942
 7436SOL    HW123207   5.407   3.264   5.919
 7436SOL    HW223208   5.288   3.371   5.886
 7437SOL     OW23209   4.340   6.360   1.291
 7437SOL    HW123210   4.414   6.301   1.323
 7437SOL    HW223211   4.379   6.433   1.234
 7438SOL     OW23212   2.382   0.775   7.003
 7438SOL    HW123213   2.456   0.737   0.034
 7438SOL    HW223214   2.401   0.872   6.984
 7439SOL     OW23215   1.109   4.471   6.111
 7439SOL    HW123216   1.124   4.441   6.016
 7439SOL    HW223217   1.157   4.558   6.125
 7440SOL     OW23218   4.988   3.052   3.930
 7440SOL    HW123219   5.067   3.028   3.874
 7440SOL    HW223220   4.999   3.015   4.022
 7441SOL     OW23221   6.264   6.485   1.753
 7441SOL    HW123222   6.207   6.424   1.698
 7441SOL    HW223223   6.340   6.519   1.696
 7442SOL     OW23224   5.281   0.403   5.651
 7442SOL    HW123225   5.227   0.352   5.583
 7442SOL    HW223226   5.233   0.487   5.675
 7443SOL     OW23227   0.131   6.930   1.817
 7443SOL    HW123228   0.104   0.001   1.817
 7443SOL    HW223229   0.132   6.896   1.723
 7444SOL     OW23230   0.511   6.972   6.301
 7444SOL    HW123231   0.456   6.892   6.276
 7444SOL    HW223232   0.503   6.988   6.400
 7445SOL     OW23233   4.606   6.050   1.977
 7445SOL    HW123234   4.649   6.091   2.058
 7445SOL    HW223235   4.518   6.094   1.960
 7446SOL     OW23236   5.457   3.374   0.157
 7446SOL    HW123237   5.428   3.320   0.237
 7446SOL    HW223238   5.496   3.460   0.188
 7447SOL     OW23239   0.770   4.783   1.286
 7447SOL    HW123240   0.759   4.879   1.309
 7447SOL    HW223241   0.700   4.729   1.333
 7448SOL     OW23242   4.724   5.211   6.150
 7448SOL    HW123243   4.643   5.267   6.133
 7448SOL    HW223244   4.765   5.184   6.062
 7449SOL     OW23245   0.497   4.611   6.858
 7449SOL    HW123246   0.547   4.658   6.930
 7449SOL    HW223247   0.514   4.656   6.770
 7450SOL     OW23248   5.425   1.473   5.668
 7450SOL    HW123249   5.327   1.481   5.656
 7450SOL    HW223250   5.447   1.473   5.766
 7451SOL     OW23251   5.442   5.040   2.320
 7451SOL    HW123252   5.466   5.062   2.415
 7451SOL    HW223253   5.484   4.954   2.294
 7452SOL     OW23254   5.420   5.961   4.784
 7452SOL    HW123255   5.494   5.898   4.809
 7452SOL    HW223256   5.347   5.957   4.852
 7453SOL     OW23257   4.369   5.675   6.352
 7453SOL    HW123258   4.346   5.588   6.308
 7453SOL    HW223259   4.441   5.720   6.300
 7454SOL     OW23260   3.748   2.480   0.721
 7454SOL    HW123261   3.781   2.469   0.628
 7454SOL    HW223262   3.680   2.553   0.724
 7455SOL     OW23263   6.835   2.757   2.691
 7455SOL    HW123264   6.754   2.801   2.653
 7455SOL    HW223265   6.903   2.743   2.619
 7456SOL     OW23266   3.058   2.233   5.622
 7456SOL    HW123267   3.101   2.188   5.700
 7456SOL    HW223268   3.127   2.287   5.573
 7457SOL     OW23269   2.971   0.149   2.769
 7457SOL    HW123270   3.020   0.064   2.790
 7457SOL    HW223271   2.931   0.186   2.853
 7458SOL     OW23272   1.163   6.157   5.345
 7458SOL    HW123273   1.254   6.146   5.305
 7458SOL    HW223274   1.102   6.087   5.309
 7459SOL     OW23275   6.111   1.089   2.960
 7459SOL    HW123276   6.087   1.168   3.016
 7459SOL    HW223277   6.117   1.116   2.864
 7460SOL     OW23278   1.380   0.245   1.420
 7460SOL    HW123279   1.291   0.286   1.443
 7460SOL    HW223280   1.367   0.175   1.350
 7461SOL     OW23281   0.766   5.463   5.926
 7461SOL    HW123282   0.822   5.545   5.933
 7461SOL    HW223283   0.823   5.385   5.904
 7462SOL     OW23284   1.469   5.097   1.158
 7462SOL    HW123285   1.418   5.182   1.173
 7462SOL    HW223286   1.416   5.020   1.193
 7463SOL     OW23287   4.176   4.862   6.963
 7463SOL    HW123288   4.200   4.794   0.007
 7463SOL    HW223289   4.124   4.820   6.890
 7464SOL     OW23290   6.697   6.129   5.438
 7464SOL    HW123291   6.758   6.163   5.509
 7464SOL    HW223292   6.625   6.196   5.421
 7465SOL     OW23293   2.489   5.264   0.323
 7465SOL    HW123294   2.505   5.294   0.418
 7465SOL    HW223295   2.484   5.344   0.264
 7466SOL     OW23296   0.679   6.618   4.431
 7466SOL    HW123297   0.582   6.643   4.423
 7466SOL    HW223298   0.711   6.581   4.344
 7467SOL     OW23299   0.473   3.686   5.830
 7467SOL    HW123300   0.487   3.658   5.924
 7467SOL    HW223301   0.379   3.721   5.819
 7468SOL     OW23302   5.894   3.086   5.795
 7468SOL    HW123303   5.971   3.061   5.736
 7468SOL    HW223304   5.813   3.102   5.740
 7469SOL     OW23305   6.785   2.588   0.664
 7469SOL    HW123306   6.824   2.545   0.583
 7469SOL    HW223307   6.846   2.574   0.742
 7470SOL     OW23308   5.774   3.629   4.238
 7470SOL    HW123309   5.793   3.704   4.174
 7470SOL    HW223310   5.731   3.553   4.189
 7471SOL     OW23311   5.740   5.480   6.340
 7471SOL    HW123312   5.669   5.421   6.377
 7471SOL    HW223313   5.718   5.505   6.246
 7472SOL     OW23314   6.142   5.965   5.684
 7472SOL    HW123315   6.142   6.002   5.776
 7472SOL    HW223316   6.128   6.038   5.618
 7473SOL     OW23317   4.106   6.574   3.721
 7473SOL    HW123318   4.177   6.511   3.754
 7473SOL    HW223319   4.086   6.642   3.792
 7474SOL     OW23320   6.387   1.995   6.050
 7474SOL    HW123321   6.367   1.960   5.959
 7474SOL    HW223322   6.479   2.036   6.051
 7475SOL     OW23323   4.636   2.657   0.944
 7475SOL    HW123324   4.607   2.622   0.855
 7475SOL    HW223325   4.720   2.611   0.972
 7476SOL     OW23326   2.367   1.107   2.984
 7476SOL    HW123327   2.336   1.071   3.072
 7476SOL    HW223328   2.317   1.060   2.910
 7477SOL     OW23329   0.880   3.969   5.467
 7477SOL    HW123330   0.794   3.921   5.451
 7477SOL    HW223331   0.905   4.021   5.386
 7478SOL     OW23332   0.430   1.764   5.156
 7478SOL    HW123333   0.458   1.673   5.188
 7478SOL    HW223334   0.493   1.796   5.086
 7479SOL     OW23335   6.350   3.222   6.839
 7479SOL    HW123336   6.365   3.124   6.823
 7479SOL    HW223337   6.253   3.237   6.861
 7480SOL     OW23338   3.646   4.900   2.087
 7480SOL    HW123339   3.599   4.841   2.022
 7480SOL    HW223340   3.581   4.931   2.157
 7481SOL     OW23341   0.114   4.225   6.692
 7481SOL    HW123342   0.145   4.145   6.639
 7481SOL    HW223343   0.163   4.306   6.661
 7482SOL     OW23344   4.173   2.217   2.479
 7482SOL    HW123345   4.176   2.204   2.380
 7482SOL    HW223346   4.266   2.214   2.516
 7483SOL     OW23347   4.365   2.475   5.905
 7483SOL    HW123348   4.387   2.412   5.831
 7483SOL    HW223349   4.311   2.551   5.869
 7484SOL     OW23350   3.138   6.523   4.602
 7484SOL    HW123351   3.097   6.599   4.552
 7484SOL    HW223352   3.131   6.540   4.701
 7485SOL     OW23353   2.824   6.969   4.168
 7485SOL    HW123354   2.800   6.934   4.078
 7485SOL    HW223355   2.741   6.978   4.224
 7486SOL     OW23356   1.843   6.367   0.377
 7486SOL    HW123357   1.930   6.335   0.340
 7486SOL    HW223358   1.827   6.462   0.350
 7487SOL     OW23359   3.931   6.675   3.537
 7487SOL    HW123360   3.859   6.609   3.515
 7487SOL    HW223361   3.978   6.646   3.620
 7488SOL     OW23362   0.847   5.635   3.901
 7488SOL    HW123363   0.945   5.654   3.902
 7488SOL    HW223364   0.797   5.718   3.926
 7489SOL     OW23365   6.387   3.868   6.647
 7489SOL    HW123366   6.428   3.921   6.722
 7489SOL    HW223367   6.457   3.807   6.609
 7490SOL     OW23368   1.204   2.006   2.535
 7490SOL    HW123369   1.299   1.979   2.546
 7490SOL    HW223370   1.182   2.078   2.601
 7491SOL     OW23371   4.243   3.332   6.988
 7491SOL    HW123372   4.193   3.269   0.021
 7491SOL    HW223373   4.289   3.400   0.020
 7492SOL     OW23374   1.460   0.228   4.449
 7492SOL    HW123375   1.481   0.141   4.404
 7492SOL    HW223376   1.361   0.234   4.466
 7493SOL     OW23377   6.361   3.774   5.308
 7493SOL    HW123378   6.361   3.857   5.364
 7493SOL    HW223379   6.288   3.779   5.240
 7494SOL     OW23380   5.924   1.581   2.867
 7494SOL    HW123381   5.840   1.537   2.897
 7494SOL    HW223382   5.905   1.637   2.786
 7495SOL     OW23383   2.032   3.700   4.719
 7495SOL    HW123384   2.056   3.626   4.781
 7495SOL    HW223385   1.932   3.706   4.711
 7496SOL     OW23386   5.712   4.047   2.480
 7496SOL    HW123387   5.714   3.991   2.397
 7496SOL    HW223388   5.758   3.998   2.554
 7497SOL     OW23389   0.444   6.638   0.625
 7497SOL    HW123390   0.351   6.661   0.656
 7497SOL    HW223391   0.464   6.543   0.650
 7498SOL     OW23392   3.372   0.055   2.958
 7498SOL    HW123393   3.446   0.066   2.892
 7498SOL    HW223394   3.329   0.144   2.975
 7499SOL     OW23395   3.537   2.104   3.694
 7499SOL    HW123396   3.482   2.029   3.732
 7499SOL    HW223397   3.541   2.179   3.760
 7500SOL     OW23398   4.431   6.550   2.814
 7500SOL    HW123399   4.414   6.632   2.869
 7500SOL    HW223400   4.429   6.469   2.873
 7501SOL     OW23401   6.051   2.176   4.858
 7501SOL    HW123402   5.992   2.180   4.778
 7501SOL    HW223403   6.010   2.229   4.933
 7502SOL     OW23404   3.868   0.099   4.157
 7502SOL    HW123405   3.911   0.009   4.154
 7502SOL    HW223406   3.926   0.162   4.208
 7503SOL     OW23407   1.744   6.154   1.348
 7503SOL    HW123408   1.791   6.219   1.408
 7503SOL    HW223409   1.666   6.115   1.398
 7504SOL     OW23410   6.517   6.564   3.546
 7504SOL    HW123411   6.564   6.547   3.633
 7504SOL    HW223412   6.507   6.663   3.533
 7505SOL     OW23413   0.824   6.793   5.662
 7505SOL    HW123414   0.868   6.809   5.574
 7505SOL    HW223415   0.851   6.703   5.696
 7506SOL     OW23416   2.366   1.281   3.299
 7506SOL    HW123417   2.378   1.357   3.362
 7506SOL    HW223418   2.438   1.213   3.315
 7507SOL     OW23419   6.640   3.711   4.861
 7507SOL    HW123420   6.734   3.722   4.895
 7507SOL    HW223421   6.576   3.749   4.928
 7508SOL     OW23422   1.889   6.083   6.928
 7508SOL    HW123423   1.943   6.073   6.844
 7508SOL    HW223424   1.909   6.007   6.990
 7509SOL     OW23425   4.761   3.862   0.301
 7509SOL    HW123426   4.843   3.844   0.355
 7509SOL    HW223427   4.776   3.944   0.245
 7510SOL     OW23428   3.740   4.086   3.923
 7510SOL    HW123429   3.759   4.170   3.872
 7510SOL    HW223430   3.729   4.108   4.020
 7511SOL     OW23431   3.602   5.517   2.895
 7511SOL    HW123432   3.687   5.567   2.879
 7511SOL    HW223433   3.577   5.525   2.992
 7512SOL     OW23434   3.428   6.445   6.108
 7512SOL    HW123435   3.410   6.538   6.140
 7512SOL    HW223436   3.417   6.440   6.009
 7513SOL     OW23437   1.463   2.134   3.152
 7513SOL    HW123438   1.495   2.094   3.066
 7513SOL    HW223439   1.526   2.109   3.225
 7514SOL     OW23440   2.225   4.237   3.042
 7514SOL    HW123441   2.215   4.204   2.948
 7514SOL    HW223442   2.175   4.177   3.104
 7515SOL     OW23443   0.163   4.367   4.596
 7515SOL    HW123444   0.244   4.309   4.587
 7515SOL    HW223445   0.184   4.444   4.657
 7516SOL     OW23446   0.928   5.453   5.292
 7516SOL    HW123447   0.831   5.442   5.313
 7516SOL    HW223448   0.939   5.521   5.219
 7517SOL     OW23449   0.377   2.007   7.016
 7517SOL    HW123450   0.388   2.037   6.921
 7517SOL    HW223451   0.296   2.051   0.030
 7518SOL     OW23452   4.767   2.898   3.802
 7518SOL    HW123453   4.734   2.874   3.894
 7518SOL    HW223454   4.854   2.946   3.809
 7519SOL     OW23455   3.757   6.613   5.110
 7519SOL    HW123456   3.777   6.654   5.021
 7519SOL    HW223457   3.710   6.680   5.167
 7520SOL     OW23458   2.016   2.344   1.401
 7520SOL    HW123459   2.108   2.306   1.399
 7520SOL    HW223460   1.955   2.280   1.448
 7521SOL     OW23461   4.169   1.167   5.226
 7521SOL    HW123462   4.111   1.153   5.145
 7521SOL    HW223463   4.253   1.212   5.198
 7522SOL     OW23464   1.790   6.673   2.970
 7522SOL    HW123465   1.734   6.639   3.046
 7522SOL    HW223466   1.886   6.654   2.988
 7523SOL     OW23467   5.617   1.669   6.527
 7523SOL    HW123468   5.635   1.571   6.516
 7523SOL    HW223469   5.699   1.716   6.558
 7524SOL     OW23470   7.001   3.028   4.602
 7524SOL    HW123471   0.020   3.104   4.555
 7524SOL    HW223472   0.012   2.941   4.566
 7525SOL     OW23473   4.556   5.993   6.134
 7525SOL    HW123474   4.634   6.015   6.192
 7525SOL    HW223475   4.548   5.894   6.125
 7526SOL     OW23476   2.125   3.403   1.711
 7526SOL    HW123477   2.191   3.452   1.768
 7526SOL    HW223478   2.166   3.318   1.677
 7527SOL     OW23479   3.896   5.447   3.722
 7527SOL    HW123480   3.987   5.412   3.700
 7527SOL    HW223481   3.855   5.487   3.640
 7528SOL     OW23482   6.677   2.910   6.419
 7528SOL    HW123483   6.611   2.984   6.433
 7528SOL    HW223484   6.749   2.917   6.489
 7529SOL     OW23485   6.235   2.424   3.895
 7529SOL    HW123486   6.300   2.398   3.967
 7529SOL    HW223487   6.168   2.351   3.883
 7530SOL     OW23488   6.464   1.866   2.059
 7530SOL    HW123489   6.381   1.921   2.073
 7530SOL    HW223490   6.439   1.778   2.020
 7531SOL     OW23491   4.195   1.945   3.506
 7531SOL    HW123492   4.163   2.040   3.504
 7531SOL    HW223493   4.116   1.883   3.504
 7532SOL     OW23494   4.322   5.613   6.638
 7532SOL    HW123495   4.348   5.638   6.545
 7532SOL    HW223496   4.288   5.519   6.639
 7533SOL     OW23497   4.742   3.517   1.638
 7533SOL    HW123498   4.685   3.597   1.618
 7533SOL    HW223499   4.683   3.439   1.661
 7534SOL     OW23500   4.714   6.944   4.218
 7534SOL    HW123501   4.662   6.870   4.260
 7534SOL    HW223502   4.664   6.980   4.140
 7535SOL     OW23503   0.617   5.423   4.049
 7535SOL    HW123504   0.652   5.486   4.118
 7535SOL    HW223505   0.615   5.469   3.960
 7536SOL     OW23506   4.810   5.561   4.112
 7536SOL    HW123507   4.755   5.478   4.110
 7536SOL    HW223508   4.905   5.537   4.132
 7537SOL     OW23509   3.080   6.015   2.669
 7537SOL    HW123510   3.022   6.090   2.701
 7537SOL    HW223511   3.113   6.036   2.577
 7538SOL     OW23512   1.061   3.920   1.413
 7538SOL    HW123513   1.115   3.836   1.408
 7538SOL    HW223514   1.069   3.969   1.326
 7539SOL     OW23515   0.459   6.004   3.593
 7539SOL    HW123516   0.469   6.067   3.670
 7539SOL    HW223517   0.375   6.025   3.543
 7540SOL     OW23518   5.762   4.996   4.173
 7540SOL    HW123519   5.702   4.918   4.190
 7540SOL    HW223520   5.721   5.054   4.103
 7541SOL     OW23521   0.865   4.245   6.947
 7541SOL    HW123522   0.822   4.209   6.864
 7541SOL    HW223523   0.810   4.217   0.001
 7542SOL     OW23524   5.743   5.133   6.247
 7542SOL    HW123525   5.801   5.053   6.266
 7542SOL    HW223526   5.688   5.153   6.327
 7543SOL     OW23527   2.997   1.030   5.673
 7543SOL    HW123528   2.902   1.023   5.706
 7543SOL    HW223529   3.013   1.121   5.635
 7544SOL     OW23530   6.791   2.818   3.477
 7544SOL    HW123531   6.884   2.797   3.449
 7544SOL    HW223532   6.730   2.744   3.449
 7545SOL     OW23533   1.156   4.991   0.067
 7545SOL    HW123534   1.229   5.053   0.097
 7545SOL    HW223535   1.068   5.022   0.104
 7546SOL     OW23536   3.299   3.093   1.559
 7546SOL    HW123537   3.398   3.094   1.563
 7546SOL    HW223538   3.265   3.000   1.570
 7547SOL     OW23539   4.315   0.357   2.150
 7547SOL    HW123540   4.307   0.449   2.187
 7547SOL    HW223541   4.262   0.294   2.206
 7548SOL     OW23542   4.296   2.576   6.555
 7548SOL    HW123543   4.285   2.556   6.652
 7548SOL    HW223544   4.379   2.531   6.522
 7549SOL     OW23545   4.218   2.782   5.356
 7549SOL    HW123546   4.164   2.824   5.429
 7549SOL    HW223547   4.162   2.713   5.309
 7550SOL     OW23548   1.770   3.900   4.202
 7550SOL    HW123549   1.835   3.846   4.149
 7550SOL    HW223550   1.802   3.906   4.297
 7551SOL     OW23551   5.771   2.199   5.563
 7551SOL    HW123552   5.792   2.270   5.629
 7551SOL    HW223553   5.856   2.168   5.520
 7552SOL     OW23554   2.806   6.013   4.936
 7552SOL    HW123555   2.765   6.060   4.858
 7552SOL    HW223556   2.751   6.030   5.018
 7553SOL     OW23557   5.692   5.940   5.992
 7553SOL    HW123558   5.610   5.965   5.940
 7553SOL    HW223559   5.768   5.925   5.929
 7554SOL     OW23560   5.213   1.076   0.955
 7554SOL    HW123561   5.138   1.143   0.952
 7554SOL    HW223562   5.249   1.071   1.048
 7555SOL     OW23563   3.524   5.550   5.933
 7555SOL    HW123564   3.428   5.552   5.905
 7555SOL    HW223565   3.567   5.637   5.912
 7556SOL     OW23566   0.168   6.998   0.971
 7556SOL    HW123567   0.215   0.014   1.049
 7556SOL    HW223568   0.074   6.974   0.997
 7557SOL     OW23569   4.914   0.365   0.394
 7557SOL    HW123570   4.958   0.297   0.453
 7557SOL    HW223571   4.944   0.351   0.299
 7558SOL     OW23572   1.688   1.996   4.312
 7558SOL    HW123573   1.750   1.949   4.248
 7558SOL    HW223574   1.639   2.069   4.263
 7559SOL     OW23575   4.267   2.300   4.740
 7559SOL    HW123576   4.340   2.255   4.689
 7559SOL    HW223577   4.302   2.331   4.829
 7560SOL     OW23578   0.116   0.558   6.295
 7560SOL    HW123579   0.181   0.618   6.248
 7560SOL    HW223580   0.030   0.607   6.309
 7561SOL     OW23581   5.514   2.074   4.907
 7561SOL    HW123582   5.488   2.019   4.986
 7561SOL    HW223583   5.445   2.065   4.835
 7562SOL     OW23584   1.832   4.754   3.723
 7562SOL    HW123585   1.785   4.809   3.653
 7562SOL    HW223586   1.861   4.814   3.797
 7563SOL     OW23587   3.427   5.545   2.263
 7563SOL    HW123588   3.371   5.462   2.271
 7563SOL    HW223589   3.518   5.529   2.300
 7564SOL     OW23590   4.802   1.069   4.293
 7564SOL    HW123591   4.770   1.090   4.385
 7564SOL    HW223592   4.733   1.099   4.226
 7565SOL     OW23593   5.579   3.221   6.340
 7565SOL    HW123594   5.510   3.218   6.268
 7565SOL    HW223595   5.670   3.211   6.299
 7566SOL     OW23596   3.880   4.051   1.483
 7566SOL    HW123597   3.891   4.141   1.439
 7566SOL    HW223598   3.966   4.023   1.525
 7567SOL     OW23599   0.706   0.322   4.767
 7567SOL    HW123600   0.785   0.373   4.802
 7567SOL    HW223601   0.649   0.292   4.843
 7568SOL     OW23602   5.871   5.384   1.232
 7568SOL    HW123603   5.876   5.461   1.169
 7568SOL    HW223604   5.775   5.361   1.249
 7569SOL     OW23605   4.401   3.872   6.658
 7569SOL    HW123606   4.363   3.935   6.591
 7569SOL    HW223607   4.379   3.778   6.632
 7570SOL     OW23608   6.500   3.052   2.828
 7570SOL    HW123609   6.423   2.989   2.832
 7570SOL    HW223610   6.555   3.043   2.911
 7571SOL     OW23611   4.408   2.465   2.595
 7571SOL    HW123612   4.439   2.560   2.599
 7571SOL    HW223613   4.374   2.437   2.685
 7572SOL     OW23614   4.837   5.809   2.514
 7572SOL    HW123615   4.875   5.828   2.424
 7572SOL    HW223616   4.743   5.843   2.519
 7573SOL     OW23617   5.507   6.382   5.761
 7573SOL    HW123618   5.564   6.332   5.694
 7573SOL    HW223619   5.483   6.320   5.836
 7574SOL     OW23620   0.009   1.455   4.373
 7574SOL    HW123621   0.092   1.496   4.413
 7574SOL    HW223622   0.015   1.460   4.273
 7575SOL     OW23623   0.062   6.369   1.550
 7575SOL    HW123624   0.104   6.280   1.537
 7575SOL    HW223625   0.092   6.407   1.638
 7576SOL     OW23626   5.559   2.943   0.663
 7576SOL    HW123627   5.585   3.037   0.687
 7576SOL    HW223628   5.593   2.922   0.571
 7577SOL     OW23629   0.907   0.314   0.801
 7577SOL    HW123630   0.929   0.400   0.848
 7577SOL    HW223631   0.915   0.238   0.866
 7578SOL     OW23632   6.911   5.949   3.374
 7578SOL    HW123633   6.901   6.036   3.422
 7578SOL    HW223634   6.995   5.904   3.404
 7579SOL     OW23635   6.519   1.228   7.003
 7579SOL    HW123636   6.613   1.252   0.003
 7579SOL    HW223637   6.455   1.267   0.045
 7580SOL     OW23638   2.359   4.984   3.196
 7580SOL    HW123639   2.455   5.005   3.182
 7580SOL    HW223640   2.335   4.997   3.292
 7581SOL     OW23641   6.834   0.998   2.331
 7581SOL    HW123642   6.763   0.943   2.374
 7581SOL    HW223643   6.870   0.950   2.251
 7582SOL     OW23644   3.690   1.582   4.320
 7582SOL    HW123645   3.696   1.555   4.417
 7582SOL    HW223646   3.714   1.678   4.311
 7583SOL     OW23647   4.898   3.556   3.502
 7583SOL    HW123648   4.882   3.466   3.461
 7583SOL    HW223649   4.947   3.614   3.437
 7584SOL     OW23650   0.059   0.458   2.742
 7584SOL    HW123651   0.001   0.404   2.681
 7584SOL    HW223652   0.134   0.401   2.776
 7585SOL     OW23653   0.596   2.325   6.506
 7585SOL    HW123654   0.555   2.322   6.597
 7585SOL    HW223655   0.685   2.371   6.510
 7586SOL     OW23656   1.325   1.510   2.963
 7586SOL    HW123657   1.306   1.418   2.928
 7586SOL    HW223658   1.269   1.527   3.044
 7587SOL     OW23659   3.094   1.396   0.595
 7587SOL    HW123660   3.088   1.336   0.675
 7587SOL    HW223661   3.188   1.427   0.584
 7588SOL     OW23662   1.576   2.668   4.625
 7588SOL    HW123663   1.540   2.759   4.647
 7588SOL    HW223664   1.649   2.677   4.557
 7589SOL     OW23665   6.781   1.084   3.193
 7589SOL    HW123666   6.836   1.130   3.123
 7589SOL    HW223667   6.839   1.022   3.245
 7590SOL     OW23668   7.000   1.461   0.093
 7590SOL    HW123669   7.012   1.492   0.187
 7590SOL    HW223670   0.031   1.516   0.032
 7591SOL     OW23671   4.274   3.307   5.418
 7591SOL    HW123672   4.268   3.392   5.469
 7591SOL    HW223673   4.239   3.321   5.325
 7592SOL     OW23674   0.029   6.193   5.245
 7592SOL    HW123675   0.055   6.281   5.206
 7592SOL    HW223676   0.044   6.121   5.178
 7593SOL     OW23677   0.372   1.410   5.920
 7593SOL    HW123678   0.393   1.408   6.017
 7593SOL    HW223679   0.376   1.317   5.883
 7594SOL     OW23680   0.650   4.534   0.808
 7594SOL    HW123681   0.737   4.575   0.783
 7594SOL    HW223682   0.664   4.436   0.827
 7595SOL     OW23683   6.461   2.552   5.923
 7595SOL    HW123684   6.420   2.613   5.855
 7595SOL    HW223685   6.391   2.490   5.959
 7596SOL     OW23686   2.704   0.829   4.948
 7596SOL    HW123687   2.640   0.853   4.874
 7596SOL    HW223688   2.760   0.752   4.918
 7597SOL     OW23689   1.362   4.619   2.024
 7597SOL    HW123690   1.280   4.676   2.015
 7597SOL    HW223691   1.388   4.584   1.934
 7598SOL     OW23692   6.038   1.239   3.260
 7598SOL    HW123693   6.006   1.148   3.234
 7598SOL    HW223694   6.135   1.234   3.281
 7599SOL     OW23695   4.080   3.003   1.130
 7599SOL    HW123696   4.168   2.957   1.146
 7599SOL    HW223697   4.045   3.038   1.217
 7600SOL     OW23698   1.103   1.131   4.363
 7600SOL    HW123699   1.091   1.129   4.462
 7600SOL    HW223700   1.201   1.126   4.342
 7601SOL     OW23701   4.019   5.831   1.912
 7601SOL    HW123702   4.107   5.837   1.960
 7601SOL    HW223703   3.956   5.899   1.951
 7602SOL     OW23704   0.203   1.549   0.758
 7602SOL    HW123705   0.294   1.515   0.736
 7602SOL    HW223706   0.178   1.621   0.694
 7603SOL     OW23707   2.263   0.367   5.283
 7603SOL    HW123708   2.303   0.423   5.210
 7603SOL    HW223709   2.208   0.425   5.343
 7604SOL     OW23710   0.833   2.620   4.884
 7604SOL    HW123711   0.831   2.523   4.908
 7604SOL    HW223712   0.889   2.669   4.950
 7605SOL     OW23713   2.623   6.916   0.253
 7605SOL    HW123714   2.655   6.951   0.341
 7605SOL    HW223715   2.583   6.991   0.200
 7606SOL     OW23716   6.493   1.925   3.571
 7606SOL    HW123717   6.437   1.847   3.542
 7606SOL    HW223718   6.522   1.911   3.666
 7607SOL     OW23719   2.607   5.599   5.637
 7607SOL    HW123720   2.638   5.561   5.724
 7607SOL    HW223721   2.583   5.524   5.575
 7608SOL     OW23722   5.956   2.906   6.078
 7608SOL    HW123723   5.877   2.846   6.083
 7608SOL    HW223724   5.934   2.986   6.022
 7609SOL     OW23725   0.717   1.661   5.174
 7609SOL    HW123726   0.684   1.722   5.101
 7609SOL    HW223727   0.805   1.695   5.207
 7610SOL     OW23728   3.270   4.659   5.661
 7610SOL    HW123729   3.307   4.696   5.576
 7610SOL    HW223730   3.172   4.642   5.650
 7611SOL     OW23731   4.433   3.385   1.242
 7611SOL    HW123732   4.489   3.365   1.161
 7611SOL    HW223733   4.455   3.320   1.315
 7612SOL     OW23734   2.713   1.560   2.992
 7612SOL    HW123735   2.716   1.461   2.978
 7612SOL    HW223736   2.636   1.583   3.052
 7613SOL     OW23737   0.673   1.336   2.597
 7613SOL    HW123738   0.702   1.399   2.669
 7613SOL    HW223739   0.680   1.382   2.508
 7614SOL     OW23740   5.106   3.318   0.353
 7614SOL    HW123741   5.117   3.235   0.298
 7614SOL    HW223742   5.175   3.320   0.425
 7615SOL     OW23743   5.240   3.094   4.886
 7615SOL    HW123744   5.326   3.093   4.937
 7615SOL    HW223745   5.199   3.185   4.891
 7616SOL     OW23746   6.445   6.855   3.483
 7616SOL    HW123747   6.521   6.908   3.445
 7616SOL    HW223748   6.372   6.849   3.415
 7617SOL     OW23749   5.413   5.518   3.370
 7617SOL    HW123750   5.328   5.546   3.324
 7617SOL    HW223751   5.448   5.435   3.328
 7618SOL     OW23752   2.974   3.260   0.526
 7618SOL    HW123753   2.957   3.164   0.502
 7618SOL    HW223754   3.014   3.308   0.449
 7619SOL     OW23755   0.608   2.531   4.244
 7619SOL    HW123756   0.641   2.464   4.311
 7619SOL    HW223757   0.672   2.536   4.168
 7620SOL     OW23758   3.858   3.802   1.377
 7620SOL    HW123759   3.888   3.896   1.393
 7620SOL    HW223760   3.758   3.798   1.372
 7621SOL     OW23761   0.388   5.646   0.717
 7621SOL    HW123762   0.337   5.695   0.646
 7621SOL    HW223763   0.476   5.616   0.680
 7622SOL     OW23764   3.077   3.856   0.852
 7622SOL    HW123765   3.010   3.899   0.913
 7622SOL    HW223766   3.169   3.887   0.878
 7623SOL     OW23767   4.802   5.028   1.200
 7623SOL    HW123768   4.829   5.096   1.132
 7623SOL    HW223769   4.796   5.071   1.290
 7624SOL     OW23770   0.713   2.830   2.126
 7624SOL    HW123771   0.661   2.869   2.051
 7624SOL    HW223772   0.811   2.846   2.111
 7625SOL     OW23773   5.060   1.866   0.455
 7625SOL    HW123774   5.068   1.821   0.544
 7625SOL    HW223775   5.038   1.797   0.385
 7626SOL     OW23776   5.348   0.679   5.070
 7626SOL    HW123777   5.366   0.751   5.136
 7626SOL    HW223778   5.255   0.688   5.034
 7627SOL     OW23779   3.450   1.973   6.389
 7627SOL    HW123780   3.363   1.925   6.385
 7627SOL    HW223781   3.439   2.066   6.354
 7628SOL     OW23782   3.463   3.057   0.309
 7628SOL    HW123783   3.458   3.029   0.405
 7628SOL    HW223784   3.378   3.033   0.263
 7629SOL     OW23785   6.065   3.202   4.187
 7629SOL    HW123786   6.134   3.257   4.140
 7629SOL    HW223787   5.979   3.206   4.136
 7630SOL     OW23788   1.291   6.936   5.422
 7630SOL    HW123789   1.378   6.956   5.379
 7630SOL    HW223790   1.306   6.888   5.508
 7631SOL     OW23791   2.149   6.690   5.358
 7631SOL    HW123792   2.098   6.776   5.358
 7631SOL    HW223793   2.095   6.619   5.314
 7632SOL     OW23794   4.727   5.603   0.278
 7632SOL    HW123795   4.768   5.646   0.359
 7632SOL    HW223796   4.694   5.512   0.302
 7633SOL     OW23797   6.069   1.035   1.218
 7633SOL    HW123798   6.053   1.124   1.259
 7633SOL    HW223799   6.150   1.038   1.159
 7634SOL     OW23800   0.534   1.943   0.182
 7634SOL    HW123801   0.569   2.023   0.229
 7634SOL    HW223802   0.479   1.971   0.103
 7635SOL     OW23803   2.572   4.847   6.428
 7635SOL    HW123804   2.564   4.822   6.525
 7635SOL    HW223805   2.623   4.777   6.380
 7636SOL     OW23806   0.725   3.703   4.912
 7636SOL    HW123807   0.664   3.712   4.834
 7636SOL    HW223808   0.765   3.611   4.913
 7637SOL     OW23809   1.116   6.291   3.988
 7637SOL    HW123810   1.093   6.199   3.956
 7637SOL    HW223811   1.214   6.295   4.009
 7638SOL     OW23812   0.799   5.114   1.673
 7638SOL    HW123813   0.792   5.058   1.756
 7638SOL    HW223814   0.860   5.192   1.691
 7639SOL     OW23815   1.370   0.909   0.144
 7639SOL    HW123816   1.446   0.963   0.108
 7639SOL    HW223817   1.359   0.826   0.089
 7640SOL     OW23818   3.208   0.942   6.577
 7640SOL    HW123819   3.193   1.040   6.587
 7640SOL    HW223820   3.205   0.916   6.481
 7641SOL     OW23821   0.534   4.007   2.997
 7641SOL    HW123822   0.484   3.921   2.989
 7641SOL    HW223823   0.471   4.082   3.016
 7642SOL     OW23824   6.217   0.863   3.611
 7642SOL    HW123825   6.177   0.925   3.678
 7642SOL    HW223826   6.311   0.893   3.591
 7643SOL     OW23827   5.152   2.793   2.969
 7643SOL    HW123828   5.174   2.815   3.063
 7643SOL    HW223829   5.063   2.746   2.965
 7644SOL     OW23830   4.909   3.883   1.212
 7644SOL    HW123831   4.901   3.929   1.301
 7644SOL    HW223832   5.000   3.842   1.205
 7645SOL     OW23833   3.107   3.688   6.188
 7645SOL    HW123834   3.058   3.601   6.181
 7645SOL    HW223835   3.095   3.739   6.103
 7646SOL     OW23836   0.667   2.469   2.840
 7646SOL    HW123837   0.654   2.372   2.859
 7646SOL    HW223838   0.616   2.494   2.757
 7647SOL     OW23839   0.139   2.953   5.025
 7647SOL    HW123840   0.075   2.881   4.998
 7647SOL    HW223841   0.099   3.042   5.006
 7648SOL     OW23842   2.552   1.586   1.789
 7648SOL    HW123843   2.493   1.522   1.740
 7648SOL    HW223844   2.639   1.542   1.812
 7649SOL     OW23845   5.380   1.025   5.494
 7649SOL    HW123846   5.309   0.958   5.514
 7649SOL    HW223847   5.382   1.045   5.396
 7650SOL     OW23848   4.045   2.150   0.851
 7650SOL    HW123849   4.119   2.105   0.900
 7650SOL    HW223850   3.965   2.092   0.850
 7651SOL     OW23851   2.189   4.775   5.526
 7651SOL    HW123852   2.120   4.800   5.458
 7651SOL    HW223853   2.180   4.834   5.606
 7652SOL     OW23854   6.044   1.353   4.191
 7652SOL    HW123855   5.945   1.362   4.205
 7652SOL    HW223856   6.063   1.348   4.093
 7653SOL     OW23857   0.434   1.646   6.589
 7653SOL    HW123858   0.486   1.570   6.626
 7653SOL    HW223859   0.362   1.673   6.654
 7654SOL     OW23860   5.601   2.580   6.350
 7654SOL    HW123861   5.645   2.663   6.385
 7654SOL    HW223862   5.515   2.603   6.305
 7655SOL     OW23863   3.277   0.616   3.248
 7655SOL    HW123864   3.307   0.681   3.179
 7655SOL    HW223865   3.256   0.665   3.333
 7656SOL     OW23866   6.595   3.265   6.944
 7656SOL    HW123867   6.604   3.363   6.960
 7656SOL    HW223868   6.506   3.246   6.902
 7657SOL     OW23869   1.541   4.017   4.730
 7657SOL    HW123870   1.448   4.046   4.754
 7657SOL    HW223871   1.537   3.943   4.663
 7658SOL     OW23872   2.574   1.561   0.800
 7658SOL    HW123873   2.557   1.488   0.867
 7658SOL    HW223874   2.620   1.637   0.845
 7659SOL     OW23875   4.281   3.546   5.504
 7659SOL    HW123876   4.333   3.544   5.418
 7659SOL    HW223877   4.227   3.630   5.508
 7660SOL     OW23878   0.131   5.249   4.594
 7660SOL    HW123879   0.118   5.166   4.539
 7660SOL    HW223880   0.186   5.315   4.542
 7661SOL     OW23881   4.713   2.875   6.013
 7661SOL    HW123882   4.675   2.818   6.086
 7661SOL    HW223883   4.756   2.816   5.944
 7662SOL     OW23884   0.987   1.980   2.331
 7662SOL    HW123885   1.075   1.975   2.377
 7662SOL    HW223886   0.971   1.896   2.280
 7663SOL     OW23887   6.664   5.386   5.330
 7663SOL    HW123888   6.654   5.419   5.424
 7663SOL    HW223889   6.686   5.463   5.270
 7664SOL     OW23890   3.756   2.053   2.591
 7664SOL    HW123891   3.676   2.070   2.648
 7664SOL    HW223892   3.732   2.068   2.495
 7665SOL     OW23893   4.221   1.348   4.683
 7665SOL    HW123894   4.189   1.305   4.598
 7665SOL    HW223895   4.153   1.336   4.755
 7666SOL     OW23896   5.492   5.125   4.318
 7666SOL    HW123897   5.428   5.202   4.322
 7666SOL    HW223898   5.499   5.093   4.223
 7667SOL     OW23899   5.001   6.374   1.784
 7667SOL    HW123900   4.903   6.391   1.779
 7667SOL    HW223901   5.051   6.452   1.747
 7668SOL     OW23902   2.503   5.163   0.963
 7668SOL    HW123903   2.529   5.192   1.055
 7668SOL    HW223904   2.462   5.072   0.967
 7669SOL     OW23905   2.675   6.586   5.606
 7669SOL    HW123906   2.582   6.598   5.573
 7669SOL    HW223907   2.737   6.645   5.553
 7670SOL     OW23908   0.078   6.608   0.438
 7670SOL    HW123909   0.006   6.678   0.444
 7670SOL    HW223910   0.049   6.527   0.488
 7671SOL     OW23911   4.619   0.773   1.250
 7671SOL    HW123912   4.665   0.847   1.299
 7671SOL    HW223913   4.577   0.810   1.167
 7672SOL     OW23914   5.520   4.977   3.057
 7672SOL    HW123915   5.429   4.942   3.034
 7672SOL    HW223916   5.538   4.964   3.154
 7673SOL     OW23917   0.474   5.791   3.899
 7673SOL    HW123918   0.482   5.748   3.809
 7673SOL    HW223919   0.434   5.726   3.963
 7674SOL     OW23920   3.995   6.623   4.554
 7674SOL    HW123921   4.008   6.574   4.640
 7674SOL    HW223922   3.974   6.558   4.482
 7675SOL     OW23923   3.933   6.922   2.621
 7675SOL    HW123924   3.936   6.992   2.549
 7675SOL    HW223925   4.024   6.882   2.631
 7676SOL     OW23926   2.957   2.963   5.394
 7676SOL    HW123927   2.994   3.013   5.472
 7676SOL    HW223928   2.979   3.011   5.310
 7677SOL     OW23929   5.887   4.751   1.599
 7677SOL    HW123930   5.865   4.686   1.672
 7677SOL    HW223931   5.979   4.734   1.565
 7678SOL     OW23932   1.289   1.319   5.444
 7678SOL    HW123933   1.219   1.334   5.514
 7678SOL    HW223934   1.290   1.397   5.381
 7679SOL     OW23935   1.894   5.486   5.312
 7679SOL    HW123936   1.932   5.413   5.255
 7679SOL    HW223937   1.902   5.573   5.264
 7680SOL     OW23938   1.740   0.455   4.972
 7680SOL    HW123939   1.736   0.359   4.944
 7680SOL    HW223940   1.810   0.467   5.042
 7681SOL     OW23941   2.853   3.593   6.655
 7681SOL    HW123942   2.761   3.596   6.693
 7681SOL    HW223943   2.886   3.687   6.641
 7682SOL     OW23944   2.963   1.593   2.535
 7682SOL    HW123945   2.920   1.635   2.455
 7682SOL    HW223946   3.058   1.571   2.514
 7683SOL     OW23947   0.910   0.909   4.602
 7683SOL    HW123948   0.878   0.877   4.513
 7683SOL    HW223949   0.999   0.953   4.591
 7684SOL     OW23950   4.144   2.153   1.584
 7684SOL    HW123951   4.095   2.224   1.532
 7684SOL    HW223952   4.188   2.090   1.520
 7685SOL     OW23953   3.016   0.945   0.231
 7685SOL    HW123954   2.967   0.896   0.160
 7685SOL    HW223955   2.959   0.950   0.313
 7686SOL     OW23956   5.691   0.481   4.008
 7686SOL    HW123957   5.618   0.464   4.074
 7686SOL    HW223958   5.727   0.393   3.975
 7687SOL     OW23959   5.434   5.357   4.925
 7687SOL    HW123960   5.490   5.278   4.951
 7687SOL    HW223961   5.361   5.369   4.992
 7688SOL     OW23962   0.673   4.890   6.669
 7688SOL    HW123963   0.676   4.983   6.630
 7688SOL    HW223964   0.765   4.865   6.701
 7689SOL     OW23965   4.429   0.197   1.960
 7689SOL    HW123966   4.348   0.139   1.952
 7689SOL    HW223967   4.406   0.279   2.014
 7690SOL     OW23968   6.356   5.803   1.046
 7690SOL    HW123969   6.396   5.712   1.038
 7690SOL    HW223970   6.257   5.795   1.062
 7691SOL     OW23971   4.379   4.667   2.635
 7691SOL    HW123972   4.456   4.607   2.657
 7691SOL    HW223973   4.361   4.662   2.536
 7692SOL     OW23974   2.129   6.737   2.376
 7692SOL    HW123975   2.117   6.641   2.402
 7692SOL    HW223976   2.055   6.791   2.414
 7693SOL     OW23977   2.683   1.752   0.967
 7693SOL    HW123978   2.651   1.702   1.048
 7693SOL    HW223979   2.783   1.744   0.961
 7694SOL     OW23980   5.782   1.938   5.173
 7694SOL    HW123981   5.692   1.914   5.137
 7694SOL    HW223982   5.788   1.913   5.270
 7695SOL     OW23983   5.621   0.620   2.689
 7695SOL    HW123984   5.664   0.582   2.607
 7695SOL    HW223985   5.595   0.545   2.751
 7696SOL     OW23986   0.279   2.919   6.430
 7696SOL    HW123987   0.304   2.949   6.521
 7696SOL    HW223988   0.275   2.819   6.428
 7697SOL     OW23989   4.861   6.766   2.694
 7697SOL    HW123990   4.770   6.800   2.716
 7697SOL    HW223991   4.878   6.776   2.596
 7698SOL     OW23992   6.226   1.913   6.862
 7698SOL    HW123993   6.319   1.917   6.826
 7698SOL    HW223994   6.210   1.822   6.902
 7699SOL     OW23995   3.399   5.182   5.417
 7699SOL    HW123996   3.466   5.253   5.432
 7699SOL    HW223997   3.407   5.147   5.324
 7700SOL     OW23998   5.074   5.087   2.649
 7700SOL    HW123999   5.028   5.116   2.565
 7700SOL    HW224000   5.005   5.060   2.716
 7701SOL     OW24001   0.129   2.536   5.983
 7701SOL    HW124002   0.063   2.518   5.909
 7701SOL    HW224003   0.139   2.634   5.996
 7702SOL     OW24004   4.720   0.145   4.854
 7702SOL    HW124005   4.692   0.178   4.944
 7702SOL    HW224006   4.709   0.219   4.787
 7703SOL     OW24007   6.330   6.865   4.949
 7703SOL    HW124008   6.418   6.913   4.939
 7703SOL    HW224009   6.332   6.810   5.033
 7704SOL     OW24010   6.663   1.540   4.506
 7704SOL    HW124011   6.658   1.629   4.551
 7704SOL    HW224012   6.585   1.528   4.445
 7705SOL     OW24013   2.161   5.393   0.630
 7705SOL    HW124014   2.149   5.477   0.576
 7705SOL    HW224015   2.092   5.390   0.702
 7706SOL     OW24016   3.604   2.885   2.239
 7706SOL    HW124017   3.532   2.859   2.175
 7706SOL    HW224018   3.591   2.980   2.268
 7707SOL     OW24019   6.899   5.210   6.957
 7707SOL    HW124020   6.965   5.280   6.930
 7707SOL    HW224021   6.943   5.120   6.952
 7708SOL     OW24022   2.605   6.930   4.716
 7708SOL    HW124023   2.553   6.852   4.751
 7708SOL    HW224024   2.544   7.008   4.704
 7709SOL     OW24025   0.294   5.261   1.760
 7709SOL    HW124026   0.366   5.232   1.823
 7709SOL    HW224027   0.318   5.235   1.667
 7710SOL     OW24028   0.863   3.683   1.417
 7710SOL    HW124029   0.902   3.775   1.422
 7710SOL    HW224030   0.890   3.631   1.498
 7711SOL     OW24031   7.013   5.178   5.051
 7711SOL    HW124032   6.985   5.160   5.145
 7711SOL    HW224033   0.055   5.110   5.022
 7712SOL     OW24034   6.362   4.586   6.222
 7712SOL    HW124035   6.373   4.578   6.321
 7712SOL    HW224036   6.302   4.514   6.189
 7713SOL     OW24037   2.185   4.904   0.230
 7713SOL    HW124038   2.162   4.816   0.189
 7713SOL    HW224039   2.102   4.951   0.259
 7714SOL     OW24040   6.717   1.066   4.804
 7714SOL    HW124041   6.693   0.977   4.840
 7714SOL    HW224042   6.786   1.109   4.862
 7715SOL     OW24043   2.794   2.862   5.711
 7715SOL    HW124044   2.890   2.879   5.735
 7715SOL    HW224045   2.756   2.943   5.667
 7716SOL     OW24046   1.154   5.558   5.580
 7716SOL    HW124047   1.198   5.589   5.496
 7716SOL    HW224048   1.055   5.555   5.566
 7717SOL     OW24049   1.169   1.942   6.782
 7717SOL    HW124050   1.176   2.037   6.810
 7717SOL    HW224051   1.260   1.899   6.784
 7718SOL     OW24052   1.170   4.049   2.665
 7718SOL    HW124053   1.208   4.140   2.650
 7718SOL    HW224054   1.201   3.988   2.592
 7719SOL     OW24055   1.584   4.029   4.998
 7719SOL    HW124056   1.562   4.026   4.901
 7719SOL    HW224057   1.663   4.089   5.013
 7720SOL     OW24058   5.595   1.715   6.931
 7720SOL    HW124059   5.623   1.809   6.949
 7720SOL    HW224060   5.674   1.662   6.900
 7721SOL     OW24061   0.602   0.716   2.464
 7721SOL    HW124062   0.665   0.756   2.530
 7721SOL    HW224063   0.554   0.789   2.415
 7722SOL     OW24064   2.568   5.633   3.303
 7722SOL    HW124065   2.583   5.720   3.348
 7722SOL    HW224066   2.628   5.564   3.343
 7723SOL     OW24067   5.176   4.289   0.567
 7723SOL    HW124068   5.235   4.305   0.488
 7723SOL    HW224069   5.085   4.260   0.536
 7724SOL     OW24070   2.117   4.125   2.013
 7724SOL    HW124071   2.124   4.054   2.084
 7724SOL    HW224072   2.122   4.215   2.055
 7725SOL     OW24073   5.643   3.133   3.451
 7725SOL    HW124074   5.591   3.208   3.492
 7725SOL    HW224075   5.615   3.046   3.493
 7726SOL     OW24076   0.048   2.982   6.319
 7726SOL    HW124077   0.125   2.962   6.379
 7726SOL    HW224078   0.055   3.076   6.286
 7727SOL     OW24079   5.385   2.195   2.312
 7727SOL    HW124080   5.366   2.277   2.257
 7727SOL    HW224081   5.402   2.118   2.252
 7728SOL     OW24082   2.065   3.391   4.621
 7728SOL    HW124083   1.972   3.424   4.637
 7728SOL    HW224084   2.128   3.435   4.685
 7729SOL     OW24085   6.584   2.039   4.194
 7729SOL    HW124086   6.608   2.057   4.289
 7729SOL    HW224087   6.553   1.944   4.185
 7730SOL     OW24088   6.680   3.952   5.147
 7730SOL    HW124089   6.688   3.926   5.244
 7730SOL    HW224090   6.741   4.029   5.128
 7731SOL     OW24091   6.182   0.141   6.910
 7731SOL    HW124092   6.108   0.202   6.881
 7731SOL    HW224093   6.228   0.180   6.990
 7732SOL     OW24094   4.438   0.094   6.553
 7732SOL    HW124095   4.348   0.105   6.511
 7732SOL    HW224096   4.484   0.014   6.513
 7733SOL     OW24097   6.488   5.747   2.137
 7733SOL    HW124098   6.493   5.839   2.099
 7733SOL    HW224099   6.578   5.704   2.131
 7734SOL     OW24100   3.326   3.909   5.286
 7734SOL    HW124101   3.340   3.991   5.341
 7734SOL    HW224102   3.400   3.844   5.303
 7735SOL     OW24103   6.927   5.683   0.753
 7735SOL    HW124104   6.954   5.779   0.744
 7735SOL    HW224105   6.867   5.673   0.833
 7736SOL     OW24106   3.151   3.352   0.757
 7736SOL    HW124107   3.230   3.292   0.743
 7736SOL    HW224108   3.094   3.352   0.675
 7737SOL     OW24109   4.064   4.532   1.265
 7737SOL    HW124110   4.138   4.593   1.294
 7737SOL    HW224111   3.977   4.567   1.302
 7738SOL     OW24112   2.521   6.132   6.778
 7738SOL    HW124113   2.460   6.072   6.830
 7738SOL    HW224114   2.473   6.168   6.698
 7739SOL     OW24115   1.158   1.792   0.308
 7739SOL    HW124116   1.092   1.753   0.372
 7739SOL    HW224117   1.113   1.814   0.222
 7740SOL     OW24118   1.571   0.784   4.556
 7740SOL    HW124119   1.494   0.780   4.620
 7740SOL    HW224120   1.655   0.806   4.605
 7741SOL     OW24121   1.655   4.005   6.322
 7741SOL    HW124122   1.698   3.998   6.232
 7741SOL    HW224123   1.669   4.097   6.358
 7742SOL     OW24124   4.243   1.754   3.820
 7742SOL    HW124125   4.244   1.769   3.722
 7742SOL    HW224126   4.195   1.829   3.866
 7743SOL     OW24127   5.140   1.693   5.670
 7743SOL    HW124128   5.206   1.757   5.709
 7743SOL    HW224129   5.062   1.744   5.633
 7744SOL     OW24130   0.778   6.563   4.157
 7744SOL    HW124131   0.728   6.487   4.117
 7744SOL    HW224132   0.822   6.616   4.084
 7745SOL     OW24133   2.203   0.057   1.115
 7745SOL    HW124134   2.124   0.118   1.125
 7745SOL    HW224135   2.264   0.094   1.045
 7746SOL     OW24136   1.207   6.372   0.918
 7746SOL    HW124137   1.283   6.307   0.926
 7746SOL    HW224138   1.127   6.325   0.883
 7747SOL     OW24139   0.841   6.283   0.648
 7747SOL    HW124140   0.850   6.211   0.579
 7747SOL    HW224141   0.771   6.257   0.714
 7748SOL     OW24142   4.235   2.639   5.701
 7748SOL    HW124143   4.214   2.734   5.678
 7748SOL    HW224144   4.249   2.586   5.617
 7749SOL     OW24145   3.306   3.473   4.086
 7749SOL    HW124146   3.395   3.496   4.048
 7749SOL    HW224147   3.235   3.489   4.018
 7750SOL     OW24148   5.597   4.230   5.291
 7750SOL    HW124149   5.674   4.169   5.275
 7750SOL    HW224150   5.540   4.195   5.365
 7751SOL     OW24151   6.656   0.818   4.932
 7751SOL    HW124152   6.683   0.816   5.028
 7751SOL    HW224153   6.709   0.751   4.881
 7752SOL     OW24154   6.198   5.810   5.273
 7752SOL    HW124155   6.147   5.749   5.212
 7752SOL    HW224156   6.135   5.856   5.336
 7753SOL     OW24157   1.895   0.860   4.321
 7753SOL    HW124158   1.960   0.789   4.347
 7753SOL    HW224159   1.804   0.821   4.313
 7754SOL     OW24160   5.842   0.498   1.242
 7754SOL    HW124161   5.802   0.586   1.266
 7754SOL    HW224162   5.789   0.425   1.284
 7755SOL     OW24163   0.724   5.812   5.359
 7755SOL    HW124164   0.809   5.801   5.410
 7755SOL    HW224165   0.647   5.813   5.423
 7756SOL     OW24166   3.404   5.291   1.916
 7756SOL    HW124167   3.329   5.244   1.963
 7756SOL    HW224168   3.487   5.236   1.923
 7757SOL     OW24169   4.821   6.103   5.725
 7757SOL    HW124170   4.838   6.139   5.634
 7757SOL    HW224171   4.906   6.105   5.778
 7758SOL     OW24172   2.773   2.148   6.092
 7758SOL    HW124173   2.781   2.093   6.009
 7758SOL    HW224174   2.689   2.201   6.089
 7759SOL     OW24175   1.914   0.885   4.048
 7759SOL    HW124176   1.854   0.946   3.995
 7759SOL    HW224177   1.882   0.882   4.143
 7760SOL     OW24178   5.125   3.081   2.183
 7760SOL    HW124179   5.032   3.083   2.144
 7760SOL    HW224180   5.143   3.167   2.230
 7761SOL     OW24181   3.052   0.043   6.947
 7761SOL    HW124182   3.100   0.108   6.887
 7761SOL    HW224183   3.118   7.001   6.982
 7762SOL     OW24184   4.171   1.326   6.736
 7762SOL    HW124185   4.141   1.318   6.641
 7762SOL    HW224186   4.231   1.248   6.759
 7763SOL     OW24187   1.807   1.902   0.657
 7763SOL    HW124188   1.717   1.890   0.615
 7763SOL    HW224189   1.850   1.984   0.621
 7764SOL     OW24190   3.804   2.976   2.453
 7764SOL    HW124191   3.745   2.920   2.395
 7764SOL    HW224192   3.867   3.029   2.395
 7765SOL     OW24193   6.724   2.465   2.730
 7765SOL    HW124194   6.642   2.479   2.785
 7765SOL    HW224195   6.760   2.553   2.700
 7766SOL     OW24196   6.114   2.131   6.999
 7766SOL    HW124197   6.030   2.172   6.962
 7766SOL    HW224198   6.146   2.060   6.937
 7767SOL     OW24199   4.319   5.981   4.116
 7767SOL    HW124200   4.336   5.999   4.213
 7767SOL    HW224201   4.278   6.062   4.073
 7768SOL     OW24202   3.961   4.928   1.889
 7768SOL    HW124203   3.973   4.879   1.975
 7768SOL    HW224204   4.046   4.924   1.836
 7769SOL     OW24205   5.534   2.284   0.911
 7769SOL    HW124206   5.473   2.234   0.972
 7769SOL    HW224207   5.518   2.382   0.920
 7770SOL     OW24208   3.138   4.710   1.448
 7770SOL    HW124209   3.060   4.753   1.493
 7770SOL    HW224210   3.194   4.663   1.516
 7771SOL     OW24211   2.905   2.595   6.084
 7771SOL    HW124212   2.882   2.529   6.154
 7771SOL    HW224213   2.946   2.676   6.126
 7772SOL     OW24214   4.750   0.351   4.186
 7772SOL    HW124215   4.755   0.443   4.225
 7772SOL    HW224216   4.680   0.299   4.235
 7773SOL     OW24217   4.188   3.876   6.066
 7773SOL    HW124218   4.167   3.792   6.017
 7773SOL    HW224219   4.191   3.952   6.002
 7774SOL     OW24220   4.990   1.673   6.132
 7774SOL    HW124221   5.060   1.645   6.199
 7774SOL    HW224222   4.916   1.722   6.179
 7775SOL     OW24223   3.589   6.597   2.163
 7775SOL    HW124224   3.549   6.655   2.092
 7775SOL    HW224225   3.535   6.606   2.247
 7776SOL     OW24226   3.656   3.660   6.446
 7776SOL    HW124227   3.606   3.580   6.480
 7776SOL    HW224228   3.612   3.743   6.480
 7777SOL     OW24229   2.330   0.693   6.653
 7777SOL    HW124230   2.408   0.680   6.592
 7777SOL    HW224231   2.333   0.785   6.692
 7778SOL     OW24232   5.200   0.217   6.985
 7778SOL    HW124233   5.219   0.247   6.892
 7778SOL    HW224234   5.152   0.129   6.982
 7779SOL     OW24235   3.827   2.456   0.471
 7779SOL    HW124236   3.838   2.399   0.389
 7779SOL    HW224237   3.743   2.510   0.463
 7780SOL     OW24238   1.880   5.990   4.691
 7780SOL    HW124239   1.860   5.892   4.702
 7780SOL    HW224240   1.881   6.034   4.780
 7781SOL     OW24241   1.746   3.805   5.124
 7781SOL    HW124242   1.773   3.848   5.038
 7781SOL    HW224243   1.741   3.875   5.196
 7782SOL     OW24244   2.372   4.082   6.142
 7782SOL    HW124245   2.318   4.043   6.216
 7782SOL    HW224246   2.445   4.140   6.181
 7783SOL     OW24247   2.537   5.859   6.702
 7783SOL    HW124248   2.517   5.846   6.605
 7783SOL    HW224249   2.618   5.916   6.713
 7784SOL     OW24250   0.523   3.473   6.907
 7784SOL    HW124251   0.474   3.432   6.830
 7784SOL    HW224252   0.508   3.419   6.990
 7785SOL     OW24253   2.422   6.238   4.342
 7785SOL    HW124254   2.422   6.337   4.327
 7785SOL    HW224255   2.358   6.194   4.279
 7786SOL     OW24256   3.125   4.704   5.291
 7786SOL    HW124257   3.094   4.787   5.337
 7786SOL    HW224258   3.046   4.652   5.258
 7787SOL     OW24259   2.265   2.902   5.307
 7787SOL    HW124260   2.186   2.959   5.285
 7787SOL    HW224261   2.348   2.949   5.278
 7788SOL     OW24262   0.414   1.488   1.106
 7788SOL    HW124263   0.452   1.530   1.024
 7788SOL    HW224264   0.462   1.403   1.126
 7789SOL     OW24265   2.781   0.906   1.190
 7789SOL    HW124266   2.839   0.946   1.262
 7789SOL    HW224267   2.746   0.818   1.220
 7790SOL     OW24268   5.481   3.041   2.949
 7790SOL    HW124269   5.483   2.980   2.870
 7790SOL    HW224270   5.444   3.130   2.922
 7791SOL     OW24271   2.278   4.737   4.343
 7791SOL    HW124272   2.207   4.667   4.354
 7791SOL    HW224273   2.303   4.773   4.433
 7792SOL     OW24274   2.690   5.805   6.121
 7792SOL    HW124275   2.746   5.772   6.197
 7792SOL    HW224276   2.716   5.899   6.099
 7793SOL     OW24277   1.234   1.119   6.152
 7793SOL    HW124278   1.236   1.043   6.087
 7793SOL    HW224279   1.160   1.104   6.218
 7794SOL     OW24280   5.345   5.349   4.338
 7794SOL    HW124281   5.424   5.411   4.340
 7794SOL    HW224282   5.268   5.396   4.295
 7795SOL     OW24283   1.965   4.463   5.314
 7795SOL    HW124284   2.001   4.540   5.262
 7795SOL    HW224285   1.979   4.479   5.412
 7796SOL     OW24286   3.784   4.077   3.134
 7796SOL    HW124287   3.727   4.108   3.210
 7796SOL    HW224288   3.850   4.009   3.167
 7797SOL     OW24289   6.982   6.922   3.120
 7797SOL    HW124290   0.008   7.007   3.104
 7797SOL    HW224291   6.937   6.895   3.035
 7798SOL     OW24292   3.216   5.989   0.855
 7798SOL    HW124293   3.138   6.017   0.798
 7798SOL    HW224294   3.188   5.987   0.951
 7799SOL     OW24295   0.178   4.943   1.129
 7799SOL    HW124296   0.169   4.850   1.166
 7799SOL    HW224297   0.114   4.955   1.053
 7800SOL     OW24298   0.139   5.317   2.048
 7800SOL    HW124299   0.216   5.374   2.075
 7800SOL    HW224300   0.163   5.266   1.965
 7801SOL     OW24301   2.783   1.979   0.168
 7801SOL    HW124302   2.714   1.984   0.096
 7801SOL    HW224303   2.873   1.997   0.129
 7802SOL     OW24304   5.058   2.563   1.615
 7802SOL    HW124305   5.059   2.640   1.679
 7802SOL    HW224306   5.146   2.558   1.568
 7803SOL     OW24307   3.955   4.372   5.701
 7803SOL    HW124308   3.962   4.312   5.622
 7803SOL    HW224309   3.907   4.323   5.775
 7804SOL     OW24310   5.265   1.757   5.418
 7804SOL    HW124311   5.253   1.733   5.515
 7804SOL    HW224312   5.282   1.673   5.365
 7805SOL     OW24313   5.408   2.757   2.045
 7805SOL    HW124314   5.442   2.741   2.137
 7805SOL    HW224315   5.476   2.807   1.992
 7806SOL     OW24316   5.721   2.768   6.026
 7806SOL    HW124317   5.679   2.749   5.937
 7806SOL    HW224318   5.669   2.839   6.073
 7807SOL     OW24319   6.955   3.940   6.178
 7807SOL    HW124320   6.946   4.019   6.117
 7807SOL    HW224321   6.997   3.864   6.127
 7808SOL     OW24322   0.936   0.770   4.897
 7808SOL    HW124323   0.940   0.831   4.818
 7808SOL    HW224324   0.972   0.817   4.978
 7809SOL     OW24325   2.524   5.434   5.012
 7809SOL    HW124326   2.561   5.341   5.006
 7809SOL    HW224327   2.537   5.480   4.924
 7810SOL     OW24328   2.874   0.542   5.166
 7810SOL    HW124329   2.946   0.475   5.182
 7810SOL    HW224330   2.829   0.564   5.253
 7811SOL     OW24331   5.381   4.578   3.768
 7811SOL    HW124332   5.397   4.647   3.698
 7811SOL    HW224333   5.295   4.531   3.748
 7812SOL     OW24334   1.897   1.277   4.131
 7812SOL    HW124335   1.930   1.219   4.206
 7812SOL    HW224336   1.843   1.221   4.068
 7813SOL     OW24337   6.355   2.946   6.801
 7813SOL    HW124338   6.260   2.923   6.820
 7813SOL    HW224339   6.414   2.905   6.870
 7814SOL     OW24340   6.880   3.286   3.744
 7814SOL    HW124341   6.895   3.385   3.737
 7814SOL    HW224342   6.784   3.266   3.726
 7815SOL     OW24343   6.228   1.656   6.405
 7815SOL    HW124344   6.322   1.686   6.422
 7815SOL    HW224345   6.164   1.723   6.443
 7816SOL     OW24346   0.605   3.809   5.621
 7816SOL    HW124347   0.553   3.772   5.697
 7816SOL    HW224348   0.595   3.909   5.619
 7817SOL     OW24349   5.339   4.012   4.520
 7817SOL    HW124350   5.383   4.014   4.610
 7817SOL    HW224351   5.317   4.105   4.491
 7818SOL     OW24352   5.803   6.284   1.859
 7818SOL    HW124353   5.899   6.265   1.881
 7818SOL    HW224354   5.780   6.241   1.772
 7819SOL     OW24355   6.841   2.653   1.617
 7819SOL    HW124356   6.912   2.600   1.663
 7819SOL    HW224357   6.861   2.657   1.519
 7820SOL     OW24358   1.540   1.362   6.629
 7820SOL    HW124359   1.507   1.454   6.605
 7820SOL    HW224360   1.466   1.297   6.619
 7821SOL     OW24361   3.495   5.448   1.273
 7821SOL    HW124362   3.540   5.428   1.359
 7821SOL    HW224363   3.479   5.362   1.223
 7822SOL     OW24364   0.995   5.612   5.106
 7822SOL    HW124365   0.936   5.692   5.092
 7822SOL    HW224366   1.088   5.633   5.078
 7823SOL     OW24367   1.965   4.199   5.259
 7823SOL    HW124368   1.957   4.295   5.285
 7823SOL    HW224369   2.059   4.168   5.272
 7824SOL     OW24370   0.492   2.655   5.430
 7824SOL    HW124371   0.395   2.677   5.444
 7824SOL    HW224372   0.533   2.627   5.517
 7825SOL     OW24373   2.509   1.625   6.584
 7825SOL    HW124374   2.536   1.709   6.536
 7825SOL    HW224375   2.418   1.637   6.624
 7826SOL     OW24376   6.833   2.510   6.820
 7826SOL    HW124377   6.857   2.580   6.887
 7826SOL    HW224378   6.779   2.439   6.865
 7827SOL     OW24379   0.489   6.192   3.790
 7827SOL    HW124380   0.453   6.172   3.881
 7827SOL    HW224381   0.555   6.267   3.796
 7828SOL     OW24382   0.448   4.173   6.559
 7828SOL    HW124383   0.464   4.085   6.604
 7828SOL    HW224384   0.411   4.237   6.626
 7829SOL     OW24385   3.256   2.762   1.121
 7829SOL    HW124386   3.174   2.806   1.158
 7829SOL    HW224387   3.329   2.765   1.189
 7830SOL     OW24388   2.776   4.795   4.279
 7830SOL    HW124389   2.870   4.830   4.274
 7830SOL    HW224390   2.752   4.750   4.193
 7831SOL     OW24391   1.967   2.097   0.516
 7831SOL    HW124392   2.047   2.037   0.519
 7831SOL    HW224393   1.986   2.175   0.456
 7832SOL     OW24394   5.591   0.612   4.643
 7832SOL    HW124395   5.540   0.595   4.727
 7832SOL    HW224396   5.688   0.590   4.658
 7833SOL     OW24397   2.108   0.619   4.114
 7833SOL    HW124398   2.031   0.580   4.164
 7833SOL    HW224399   2.084   0.630   4.018
 7834SOL     OW24400   6.426   2.975   4.659
 7834SOL    HW124401   6.472   3.061   4.680
 7834SOL    HW224402   6.327   2.987   4.665
 7835SOL     OW24403   4.417   2.009   4.866
 7835SOL    HW124404   4.446   2.050   4.779
 7835SOL    HW224405   4.461   1.920   4.877
 7836SOL     OW24406   3.593   4.212   5.342
 7836SOL    HW124407   3.565   4.156   5.264
 7836SOL    HW224408   3.637   4.295   5.309
 7837SOL     OW24409   5.778   6.422   6.531
 7837SOL    HW124410   5.781   6.521   6.543
 7837SOL    HW224411   5.828   6.378   6.606
 7838SOL     OW24412   5.436   5.488   1.064
 7838SOL    HW124413   5.449   5.541   0.980
 7838SOL    HW224414   5.457   5.545   1.143
 7839SOL     OW24415   6.134   4.015   4.461
 7839SOL    HW124416   6.151   3.921   4.490
 7839SOL    HW224417   6.044   4.044   4.493
 7840SOL     OW24418   2.167   3.170   3.644
 7840SOL    HW124419   2.225   3.242   3.683
 7840SOL    HW224420   2.096   3.212   3.587
 7841SOL     OW24421   5.068   2.492   6.041
 7841SOL    HW124422   5.022   2.548   6.111
 7841SOL    HW224423   5.002   2.427   6.003
 7842SOL     OW24424   2.089   1.490   2.229
 7842SOL    HW124425   2.139   1.417   2.277
 7842SOL    HW224426   1.991   1.477   2.241
 7843SOL     OW24427   0.428   6.640   3.161
 7843SOL    HW124428   0.338   6.673   3.189
 7843SOL    HW224429   0.429   6.540   3.164
 7844SOL     OW24430   3.580   0.889   2.781
 7844SOL    HW124431   3.515   0.820   2.749
 7844SOL    HW224432   3.637   0.920   2.705
 7845SOL     OW24433   5.863   1.970   1.487
 7845SOL    HW124434   5.933   2.000   1.551
 7845SOL    HW224435   5.774   2.001   1.518
 7846SOL     OW24436   0.585   2.930   0.421
 7846SOL    HW124437   0.583   2.978   0.508
 7846SOL    HW224438   0.545   2.839   0.433
 7847SOL     OW24439   5.649   2.384   4.693
 7847SOL    HW124440   5.605   2.447   4.757
 7847SOL    HW224441   5.586   2.309   4.672
 7848SOL     OW24442   2.905   4.677   0.837
 7848SOL    HW124443   2.949   4.704   0.751
 7848SOL    HW224444   2.973   4.638   0.899
 7849SOL     OW24445   4.657   3.946   6.129
 7849SOL    HW124446   4.593   4.023   6.130
 7849SOL    HW224447   4.691   3.929   6.221
 7850SOL     OW24448   6.663   1.406   3.510
 7850SOL    HW124449   6.721   1.484   3.529
 7850SOL    HW224450   6.632   1.410   3.414
 7851SOL     OW24451   0.599   4.545   2.123
 7851SOL    HW124452   0.642   4.550   2.033
 7851SOL    HW224453   0.650   4.480   2.180
 7852SOL     OW24454   1.954   2.186   6.835
 7852SOL    HW124455   1.949   2.096   6.878
 7852SOL    HW224456   1.974   2.256   6.904
 7853SOL     OW24457   4.256   2.833   1.694
 7853SOL    HW124458   4.167   2.862   1.730
 7853SOL    HW224459   4.317   2.912   1.688
 7854SOL     OW24460   5.321   2.455   6.144
 7854SOL    HW124461   5.228   2.475   6.115
 7854SOL    HW224462   5.386   2.490   6.076
 7855SOL     OW24463   5.473   6.985   4.527
 7855SOL    HW124464   5.483   6.885   4.518
 7855SOL    HW224465   5.386   7.013   4.485
 7856SOL     OW24466   2.140   6.023   4.761
 7856SOL    HW124467   2.054   6.019   4.710
 7856SOL    HW224468   2.166   6.119   4.776
 7857SOL     OW24469   4.947   3.772   0.490
 7857SOL    HW124470   5.033   3.823   0.481
 7857SOL    HW224471   4.923   3.763   0.586
 7858SOL     OW24472   0.613   5.249   5.790
 7858SOL    HW124473   0.637   5.153   5.779
 7858SOL    HW224474   0.696   5.305   5.787
 7859SOL     OW24475   4.917   2.581   6.966
 7859SOL    HW124476   4.875   2.672   6.962
 7859SOL    HW224477   4.996   2.579   6.905
 7860SOL     OW24478   2.499   0.869   4.446
 7860SOL    HW124479   2.416   0.881   4.390
 7860SOL    HW224480   2.566   0.816   4.395
 7861SOL     OW24481   2.475   6.727   1.204
 7861SOL    HW124482   2.568   6.693   1.219
 7861SOL    HW224483   2.478   6.804   1.141
 7862SOL     OW24484   2.755   6.280   1.182
 7862SOL    HW124485   2.810   6.254   1.102
 7862SOL    HW224486   2.684   6.212   1.197
 7863SOL     OW24487   6.759   4.302   3.744
 7863SOL    HW124488   6.758   4.203   3.755
 7863SOL    HW224489   6.689   4.329   3.678
 7864SOL     OW24490   2.715   6.847   5.205
 7864SOL    HW124491   2.718   6.904   5.123
 7864SOL    HW224492   2.625   6.856   5.248
 7865SOL     OW24493   6.081   5.847   3.846
 7865SOL    HW124494   6.023   5.865   3.925
 7865SOL    HW224495   6.173   5.822   3.877
 7866SOL     OW24496   1.085   0.341   6.400
 7866SOL    HW124497   1.180   0.320   6.424
 7866SOL    HW224498   1.043   0.261   6.358
 7867SOL     OW24499   5.436   6.562   3.805
 7867SOL    HW124500   5.381   6.481   3.784
 7867SOL    HW224501   5.525   6.554   3.759
 7868SOL     OW24502   3.569   6.938   0.933
 7868SOL    HW124503   3.487   6.948   0.989
 7868SOL    HW224504   3.645   6.909   0.991
 7869SOL     OW24505   5.272   4.096   6.250
 7869SOL    HW124506   5.320   4.061   6.169
 7869SOL    HW224507   5.330   4.085   6.330
 7870SOL     OW24508   4.957   5.826   5.107
 7870SOL    HW124509   4.928   5.822   5.011
 7870SOL    HW224510   4.934   5.740   5.153
 7871SOL     OW24511   5.038   1.574   1.774
 7871SOL    HW124512   5.022   1.513   1.851
 7871SOL    HW224513   4.956   1.578   1.717
 7872SOL     OW24514   2.057   6.458   2.457
 7872SOL    HW124515   1.962   6.442   2.432
 7872SOL    HW224516   2.113   6.380   2.428
 7873SOL     OW24517   6.383   1.231   0.327
 7873SOL    HW124518   6.387   1.176   0.411
 7873SOL    HW224519   6.303   1.291   0.332
 7874SOL     OW24520   5.271   2.603   0.647
 7874SOL    HW124521   5.228   2.536   0.587
 7874SOL    HW224522   5.370   2.591   0.646
 7875SOL     OW24523   4.779   4.192   6.353
 7875SOL    HW124524   4.848   4.207   6.423
 7875SOL    HW224525   4.824   4.179   6.264
 7876SOL     OW24526   0.791   0.237   2.075
 7876SOL    HW124527   0.762   0.231   2.170
 7876SOL    HW224528   0.726   0.188   2.017
 7877SOL     OW24529   6.661   1.743   3.124
 7877SOL    HW124530   6.745   1.788   3.156
 7877SOL    HW224531   6.678   1.645   3.113
 7878SOL     OW24532   4.721   4.993   3.315
 7878SOL    HW124533   4.643   5.047   3.282
 7878SOL    HW224534   4.791   5.054   3.351
 7879SOL     OW24535   2.686   4.768   3.317
 7879SOL    HW124536   2.711   4.864   3.323
 7879SOL    HW224537   2.612   4.757   3.251
 7880SOL     OW24538   1.314   4.119   1.979
 7880SOL    HW124539   1.383   4.102   1.909
 7880SOL    HW224540   1.338   4.201   2.031
 7881SOL     OW24541   5.170   3.821   3.874
 7881SOL    HW124542   5.183   3.878   3.955
 7881SOL    HW224543   5.074   3.790   3.870
 7882SOL     OW24544   1.731   3.046   1.011
 7882SOL    HW124545   1.808   2.992   1.045
 7882SOL    HW224546   1.758   3.091   0.925
 7883SOL     OW24547   1.095   0.984   5.411
 7883SOL    HW124548   1.045   0.974   5.324
 7883SOL    HW224549   1.182   0.936   5.405
 7884SOL     OW24550   0.485   2.975   4.481
 7884SOL    HW124551   0.461   3.028   4.562
 7884SOL    HW224552   0.499   3.037   4.404
 7885SOL     OW24553   5.993   5.929   0.216
 7885SOL    HW124554   6.077   5.978   0.192
 7885SOL    HW224555   5.990   5.842   0.166
 7886SOL     OW24556   4.753   5.061   0.020
 7886SOL    HW124557   4.683   5.119   7.002
 7886SOL    HW224558   4.839   5.070   6.995
 7887SOL     OW24559   4.933   1.838   0.100
 7887SOL    HW124560   4.865   1.787   0.047
 7887SOL    HW224561   5.023   1.826   0.059
 7888SOL     OW24562   4.633   0.859   4.036
 7888SOL    HW124563   4.615   0.805   4.119
 7888SOL    HW224564   4.579   0.943   4.039
 7889SOL     OW24565   0.371   6.703   2.109
 7889SOL    HW124566   0.405   6.660   2.025
 7889SOL    HW224567   0.363   6.634   2.181
 7890SOL     OW24568   1.409   3.671   2.630
 7890SOL    HW124569   1.501   3.708   2.642
 7890SOL    HW224570   1.415   3.573   2.610
 7891SOL     OW24571   2.287   4.692   2.381
 7891SOL    HW124572   2.350   4.702   2.304
 7891SOL    HW224573   2.329   4.729   2.463
 7892SOL     OW24574   2.132   2.038   6.083
 7892SOL    HW124575   2.068   1.962   6.092
 7892SOL    HW224576   2.180   2.032   5.996
 7893SOL     OW24577   6.339   6.518   1.212
 7893SOL    HW124578   6.384   6.589   1.267
 7893SOL    HW224579   6.328   6.435   1.267
 7894SOL     OW24580   2.641   6.767   1.504
 7894SOL    HW124581   2.665   6.752   1.408
 7894SOL    HW224582   2.723   6.760   1.561
 7895SOL     OW24583   6.992   1.153   4.547
 7895SOL    HW124584   0.050   1.180   4.498
 7895SOL    HW224585   6.913   1.196   4.504
 7896SOL     OW24586   4.736   3.554   5.679
 7896SOL    HW124587   4.698   3.644   5.701
 7896SOL    HW224588   4.704   3.526   5.588
 7897SOL     OW24589   2.890   3.103   6.350
 7897SOL    HW124590   2.804   3.054   6.347
 7897SOL    HW224591   2.880   3.185   6.406
 7898SOL     OW24592   4.099   2.202   3.494
 7898SOL    HW124593   4.009   2.178   3.530
 7898SOL    HW224594   4.094   2.211   3.395
 7899SOL     OW24595   5.370   1.992   2.814
 7899SOL    HW124596   5.340   1.979   2.909
 7899SOL    HW224597   5.411   2.083   2.805
 7900SOL     OW24598   1.798   5.854   0.944
 7900SOL    HW124599   1.740   5.876   1.021
 7900SOL    HW224600   1.742   5.823   0.867
 7901SOL     OW24601   6.124   6.450   6.395
 7901SOL    HW124602   6.075   6.419   6.314
 7901SOL    HW224603   6.203   6.506   6.368
 7902SOL     OW24604   4.319   3.789   0.016
 7902SOL    HW124605   4.298   3.736   0.099
 7902SOL    HW224606   4.401   3.751   6.998
 7903SOL     OW24607   6.547   1.876   0.008
 7903SOL    HW124608   6.585   1.786   7.010
 7903SOL    HW224609   6.455   1.864   0.046
 7904SOL     OW24610   6.861   1.270   2.264
 7904SOL    HW124611   6.906   1.318   2.340
 7904SOL    HW224612   6.828   1.181   2.296
 7905SOL     OW24613   4.166   0.850   1.279
 7905SOL    HW124614   4.135   0.854   1.374
 7905SOL    HW224615   4.151   0.939   1.236
 7906SOL     OW24616   6.002   5.954   6.584
 7906SOL    HW124617   5.939   5.995   6.517
 7906SOL    HW224618   5.949   5.917   6.660
 7907SOL     OW24619   0.162   2.524   2.408
 7907SOL    HW124620   0.250   2.508   2.364
 7907SOL    HW224621   0.168   2.605   2.466
 7908SOL     OW24622   6.625   2.247   4.010
 7908SOL    HW124623   6.584   2.232   3.920
 7908SOL    HW224624   6.605   2.168   4.069
 7909SOL     OW24625   4.827   4.564   4.853
 7909SOL    HW124626   4.911   4.511   4.842
 7909SOL    HW224627   4.749   4.507   4.827
 7910SOL     OW24628   5.484   3.044   5.560
 7910SOL    HW124629   5.441   3.036   5.470
 7910SOL    HW224630   5.430   2.992   5.627
 7911SOL     OW24631   6.199   4.505   0.191
 7911SOL    HW124632   6.245   4.417   0.176
 7911SOL    HW224633   6.180   4.517   0.289
 7912SOL     OW24634   6.210   4.753   6.078
 7912SOL    HW124635   6.267   4.707   6.146
 7912SOL    HW224636   6.257   4.834   6.043
 7913SOL     OW24637   0.096   5.458   6.065
 7913SOL    HW124638   0.121   5.444   5.969
 7913SOL    HW224639   0.097   5.370   6.113
 7914SOL     OW24640   5.913   4.017   1.058
 7914SOL    HW124641   5.967   4.064   1.128
 7914SOL    HW224642   5.880   4.083   0.991
 7915SOL     OW24643   3.514   1.680   3.285
 7915SOL    HW124644   3.429   1.692   3.234
 7915SOL    HW224645   3.592   1.704   3.226
 7916SOL     OW24646   5.325   3.882   5.333
 7916SOL    HW124647   5.400   3.878   5.266
 7916SOL    HW224648   5.296   3.789   5.355
 7917SOL     OW24649   3.440   3.887   4.041
 7917SOL    HW124650   3.482   3.815   3.985
 7917SOL    HW224651   3.435   3.972   3.987
 7918SOL     OW24652   5.824   1.727   2.656
 7918SOL    HW124653   5.898   1.781   2.616
 7918SOL    HW224654   5.739   1.743   2.605
 7919SOL     OW24655   5.241   5.111   2.160
 7919SOL    HW124656   5.297   5.101   2.242
 7919SOL    HW224657   5.167   5.175   2.177
 7920SOL     OW24658   0.535   5.183   1.208
 7920SOL    HW124659   0.477   5.240   1.267
 7920SOL    HW224660   0.500   5.090   1.207
 7921SOL     OW24661   2.043   0.327   1.368
 7921SOL    HW124662   2.003   0.251   1.317
 7921SOL    HW224663   2.142   0.316   1.371
 7922SOL     OW24664   0.906   5.504   6.583
 7922SOL    HW124665   0.964   5.577   6.618
 7922SOL    HW224666   0.898   5.432   6.653
 7923SOL     OW24667   1.329   1.510   3.540
 7923SOL    HW124668   1.381   1.442   3.488
 7923SOL    HW224669   1.369   1.520   3.632
 7924SOL     OW24670   2.994   7.004   3.940
 7924SOL    HW124671   2.992   6.976   4.036
 7924SOL    HW224672   2.903   6.989   3.899
 7925SOL     OW24673   6.406   1.209   6.035
 7925SOL    HW124674   6.365   1.135   6.088
 7925SOL    HW224675   6.356   1.222   5.950
 7926SOL     OW24676   3.868   0.372   1.688
 7926SOL    HW124677   3.936   0.444   1.693
 7926SOL    HW224678   3.913   0.283   1.685
 7927SOL     OW24679   4.679   5.327   4.432
 7927SOL    HW124680   4.657   5.230   4.426
 7927SOL    HW224681   4.618   5.380   4.373
 7928SOL     OW24682   1.653   5.492   1.815
 7928SOL    HW124683   1.726   5.434   1.780
 7928SOL    HW224684   1.694   5.574   1.856
 7929SOL     OW24685   3.622   3.600   4.057
 7929SOL    HW124686   3.659   3.518   4.013
 7929SOL    HW224687   3.631   3.593   4.156
 7930SOL     OW24688   5.102   5.549   3.613
 7930SOL    HW124689   5.047   5.628   3.588
 7930SOL    HW224690   5.197   5.577   3.623
 7931SOL     OW24691   2.480   1.741   0.468
 7931SOL    HW124692   2.533   1.668   0.424
 7931SOL    HW224693   2.383   1.728   0.447
 7932SOL     OW24694   2.352   0.396   0.614
 7932SOL    HW124695   2.375   0.384   0.517
 7932SOL    HW224696   2.288   0.324   0.641
 7933SOL     OW24697   1.371   0.996   6.794
 7933SOL    HW124698   1.389   0.943   6.711
 7933SOL    HW224699   1.456   1.005   6.846
 7934SOL     OW24700   2.607   3.588   6.358
 7934SOL    HW124701   2.617   3.590   6.457
 7934SOL    HW224702   2.670   3.654   6.317
 7935SOL     OW24703   4.236   6.486   1.920
 7935SOL    HW124704   4.234   6.583   1.899
 7935SOL    HW224705   4.330   6.455   1.929
 7936SOL     OW24706   4.322   5.854   3.222
 7936SOL    HW124707   4.290   5.904   3.141
 7936SOL    HW224708   4.368   5.917   3.284
 7937SOL     OW24709   6.311   6.512   6.011
 7937SOL    HW124710   6.363   6.427   6.004
 7937SOL    HW224711   6.269   6.533   5.923
 7938SOL     OW24712   5.149   5.116   4.853
 7938SOL    HW124713   5.226   5.057   4.831
 7938SOL    HW224714   5.120   5.165   4.771
 7939SOL     OW24715   1.298   0.838   5.505
 7939SOL    HW124716   1.374   0.873   5.559
 7939SOL    HW224717   1.222   0.815   5.566
 7940SOL     OW24718   1.873   6.129   0.843
 7940SOL    HW124719   1.871   6.043   0.894
 7940SOL    HW224720   1.873   6.110   0.745
 7941SOL     OW24721   0.314   0.354   1.041
 7941SOL    HW124722   0.242   0.423   1.033
 7941SOL    HW224723   0.274   0.268   1.072
 7942SOL     OW24724   0.128   0.437   1.562
 7942SOL    HW124725   0.215   0.391   1.549
 7942SOL    HW224726   0.137   0.533   1.535
 7943SOL     OW24727   5.131   1.456   1.538
 7943SOL    HW124728   5.215   1.402   1.541
 7943SOL    HW224729   5.102   1.480   1.631
 7944SOL     OW24730   0.902   4.569   1.629
 7944SOL    HW124731   0.920   4.654   1.580
 7944SOL    HW224732   0.971   4.557   1.701
 7945SOL     OW24733   5.378   6.778   2.387
 7945SOL    HW124734   5.278   6.774   2.387
 7945SOL    HW224735   5.409   6.836   2.312
 7946SOL     OW24736   1.558   2.076   6.153
 7946SOL    HW124737   1.612   2.147   6.108
 7946SOL    HW224738   1.482   2.118   6.203
 7947SOL     OW24739   4.173   3.335   6.253
 7947SOL    HW124740   4.233   3.336   6.174
 7947SOL    HW224741   4.134   3.427   6.266
 7948SOL     OW24742   6.983   6.403   0.556
 7948SOL    HW124743   7.002   6.305   0.557
 7948SOL    HW224744   6.888   6.418   0.585
 7949SOL     OW24745   5.589   4.386   3.809
 7949SOL    HW124746   5.566   4.293   3.839
 7949SOL    HW224747   5.505   4.439   3.797
 7950SOL     OW24748   3.871   5.516   4.399
 7950SOL    HW124749   3.791   5.507   4.338
 7950SOL    HW224750   3.855   5.589   4.465
 7951SOL     OW24751   3.492   3.501   0.863
 7951SOL    HW124752   3.557   3.554   0.809
 7951SOL    HW224753   3.407   3.554   0.875
 7952SOL     OW24754   5.535   3.247   1.010
 7952SOL    HW124755   5.542   3.289   1.100
 7952SOL    HW224756   5.626   3.241   0.968
 7953SOL     OW24757   2.257   2.980   3.065
 7953SOL    HW124758   2.301   3.005   2.978
 7953SOL    HW224759   2.297   2.895   3.099
 7954SOL     OW24760   4.149   5.215   5.055
 7954SOL    HW124761   4.072   5.271   5.024
 7954SOL    HW224762   4.121   5.161   5.135
 7955SOL     OW24763   0.911   6.423   6.417
 7955SOL    HW124764   1.005   6.454   6.429
 7955SOL    HW224765   0.890   6.416   6.320
 7956SOL     OW24766   6.015   6.462   4.216
 7956SOL    HW124767   6.014   6.460   4.116
 7956SOL    HW224768   5.966   6.543   4.248
 7957SOL     OW24769   1.073   1.540   1.492
 7957SOL    HW124770   1.124   1.469   1.540
 7957SOL    HW224771   1.135   1.589   1.430
 7958SOL     OW24772   2.880   5.035   2.904
 7958SOL    HW124773   2.903   4.955   2.849
 7958SOL    HW224774   2.828   5.006   2.984
 7959SOL     OW24775   6.006   4.884   0.793
 7959SOL    HW124776   5.937   4.900   0.722
 7959SOL    HW224777   5.975   4.923   0.879
 7960SOL     OW24778   2.460   1.917   1.221
 7960SOL    HW124779   2.530   1.847   1.209
 7960SOL    HW224780   2.502   2.000   1.259
 7961SOL     OW24781   1.956   5.747   6.584
 7961SOL    HW124782   1.992   5.773   6.494
 7961SOL    HW224783   1.978   5.650   6.601
 7962SOL     OW24784   1.050   1.040   2.489
 7962SOL    HW124785   1.043   0.977   2.412
 7962SOL    HW224786   1.137   1.090   2.483
 7963SOL     OW24787   0.683   0.590   5.454
 7963SOL    HW124788   0.684   0.513   5.518
 7963SOL    HW224789   0.734   0.565   5.371
 7964SOL     OW24790   5.894   5.489   4.186
 7964SOL    HW124791   5.982   5.472   4.231
 7964SOL    HW224792   5.856   5.402   4.154
 7965SOL     OW24793   5.346   1.962   0.139
 7965SOL    HW124794   5.416   1.950   0.069
 7965SOL    HW224795   5.370   1.908   0.220
 7966SOL     OW24796   6.823   4.744   3.917
 7966SOL    HW124797   6.848   4.663   3.970
 7966SOL    HW224798   6.784   4.716   3.829
 7967SOL     OW24799   3.082   6.315   2.446
 7967SOL    HW124800   3.135   6.340   2.527
 7967SOL    HW224801   2.990   6.354   2.454
 7968SOL     OW24802   2.142   2.156   2.932
 7968SOL    HW124803   2.043   2.153   2.938
 7968SOL    HW224804   2.182   2.121   3.016
 7969SOL     OW24805   3.103   1.869   3.404
 7969SOL    HW124806   3.160   1.951   3.391
 7969SOL    HW224807   3.162   1.788   3.405
 7970SOL     OW24808   0.608   4.471   3.396
 7970SOL    HW124809   0.583   4.386   3.348
 7970SOL    HW224810   0.526   4.518   3.426
 7971SOL     OW24811   3.525   1.381   1.556
 7971SOL    HW124812   3.430   1.356   1.541
 7971SOL    HW224813   3.573   1.384   1.468
 7972SOL     OW24814   0.521   4.687   1.345
 7972SOL    HW124815   0.450   4.630   1.304
 7972SOL    HW224816   0.497   4.783   1.333
 7973SOL     OW24817   4.904   3.065   3.531
 7973SOL    HW124818   4.911   3.129   3.454
 7973SOL    HW224819   4.879   3.115   3.614
 7974SOL     OW24820   5.219   0.355   4.528
 7974SOL    HW124821   5.218   0.438   4.585
 7974SOL    HW224822   5.125   0.323   4.515
 7975SOL     OW24823   3.170   1.496   4.289
 7975SOL    HW124824   3.085   1.456   4.325
 7975SOL    HW224825   3.149   1.550   4.208
 7976SOL     OW24826   1.162   5.550   5.858
 7976SOL    HW124827   1.170   5.585   5.765
 7976SOL    HW224828   1.253   5.525   5.892
 7977SOL     OW24829   5.523   6.084   1.562
 7977SOL    HW124830   5.493   6.152   1.630
 7977SOL    HW224831   5.445   6.028   1.535
 7978SOL     OW24832   4.647   3.818   5.737
 7978SOL    HW124833   4.715   3.840   5.807
 7978SOL    HW224834   4.672   3.862   5.651
 7979SOL     OW24835   3.045   0.158   4.399
 7979SOL    HW124836   2.956   0.184   4.362
 7979SOL    HW224837   3.032   0.106   4.484
 7980SOL     OW24838   3.432   6.180   0.848
 7980SOL    HW124839   3.518   6.132   0.827
 7980SOL    HW224840   3.356   6.116   0.841
 7981SOL     OW24841   0.897   5.166   2.675
 7981SOL    HW124842   0.956   5.104   2.622
 7981SOL    HW224843   0.913   5.260   2.645
 7982SOL     OW24844   6.583   2.500   1.045
 7982SOL    HW124845   6.506   2.518   1.105
 7982SOL    HW224846   6.562   2.532   0.953
 7983SOL     OW24847   5.165   2.340   2.446
 7983SOL    HW124848   5.184   2.419   2.390
 7983SOL    HW224849   5.237   2.272   2.434
 7984SOL     OW24850   0.373   2.141   1.871
 7984SOL    HW124851   0.371   2.230   1.825
 7984SOL    HW224852   0.309   2.141   1.948
 7985SOL     OW24853   0.278   1.326   2.520
 7985SOL    HW124854   0.367   1.340   2.478
 7985SOL    HW224855   0.208   1.375   2.468
 7986SOL     OW24856   4.109   0.705   6.350
 7986SOL    HW124857   4.140   0.788   6.303
 7986SOL    HW224858   4.013   0.715   6.374
 7987SOL     OW24859   0.713   3.036   5.089
 7987SOL    HW124860   0.621   3.032   5.127
 7987SOL    HW224861   0.752   2.944   5.084
 7988SOL     OW24862   2.610   1.659   4.602
 7988SOL    HW124863   2.588   1.728   4.671
 7988SOL    HW224864   2.697   1.615   4.626
 7989SOL     OW24865   3.028   2.698   5.372
 7989SOL    HW124866   2.996   2.636   5.443
 7989SOL    HW224867   2.997   2.791   5.393
 7990SOL     OW24868   1.288   2.359   5.085
 7990SOL    HW124869   1.268   2.455   5.105
 7990SOL    HW224870   1.212   2.302   5.116
 7991SOL     OW24871   0.715   2.748   6.304
 7991SOL    HW124872   0.747   2.653   6.305
 7991SOL    HW224873   0.706   2.780   6.398
 7992SOL     OW24874   2.516   0.375   1.022
 7992SOL    HW124875   2.611   0.400   1.040
 7992SOL    HW224876   2.456   0.443   1.064
 7993SOL     OW24877   1.937   6.727   6.897
 7993SOL    HW124878   1.840   6.751   6.886
 7993SOL    HW224879   1.993   6.797   6.853
 7994SOL     OW24880   5.463   0.968   4.020
 7994SOL    HW124881   5.510   0.893   3.975
 7994SOL    HW224882   5.366   0.965   3.998
 7995SOL     OW24883   3.048   5.136   3.841
 7995SOL    HW124884   3.099   5.084   3.910
 7995SOL    HW224885   2.965   5.174   3.881
 7996SOL     OW24886   3.903   6.846   5.495
 7996SOL    HW124887   3.960   6.924   5.524
 7996SOL    HW224888   3.960   6.780   5.447
 7997SOL     OW24889   5.877   2.803   1.113
 7997SOL    HW124890   5.903   2.899   1.103
 7997SOL    HW224891   5.888   2.775   1.209
 7998SOL     OW24892   6.205   5.037   0.047
 7998SOL    HW124893   6.287   5.041   0.105
 7998SOL    HW224894   6.230   5.061   6.978
 7999SOL     OW24895   1.336   0.066   5.810
 7999SOL    HW124896   1.338   6.999   5.849
 7999SOL    HW224897   1.243   0.087   5.780
 8000SOL     OW24898   6.019   6.896   5.469
 8000SOL    HW124899   6.022   6.804   5.509
 8000SOL    HW224900   6.018   6.964   5.542
 8001SOL     OW24901   1.929   6.788   1.857
 8001SOL    HW124902   1.966   6.875   1.825
 8001SOL    HW224903   1.839   6.804   1.899
 8002SOL     OW24904   5.966   2.463   4.940
 8002SOL    HW124905   6.015   2.440   4.856
 8002SOL    HW224906   5.981   2.391   5.008
 8003SOL     OW24907   3.360   4.902   3.224
 8003SOL    HW124908   3.361   5.002   3.214
 8003SOL    HW224909   3.299   4.863   3.155
 8004SOL     OW24910   2.144   3.991   2.579
 8004SOL    HW124911   2.161   3.905   2.529
 8004SOL    HW224912   2.167   4.068   2.520
 8005SOL     OW24913   2.951   0.984   1.416
 8005SOL    HW124914   2.951   1.060   1.481
 8005SOL    HW224915   3.045   0.963   1.389
 8006SOL     OW24916   3.146   5.958   1.102
 8006SOL    HW124917   3.109   5.890   1.166
 8006SOL    HW224918   3.156   6.046   1.149
 8007SOL     OW24919   0.227   0.470   4.309
 8007SOL    HW124920   0.168   0.547   4.285
 8007SOL    HW224921   0.181   0.413   4.377
 8008SOL     OW24922   6.145   6.711   0.724
 8008SOL    HW124923   6.110   6.803   0.740
 8008SOL    HW224924   6.110   6.649   0.794
 8009SOL     OW24925   0.220   6.689   4.002
 8009SOL    HW124926   0.310   6.730   4.016
 8009SOL    HW224927   0.152   6.740   4.054
 8010SOL     OW24928   2.360   2.523   6.850
 8010SOL    HW124929   2.420   2.601   6.868
 8010SOL    HW224930   2.273   2.556   6.812
 8011SOL     OW24931   3.253   2.307   0.785
 8011SOL    HW124932   3.262   2.384   0.848
 8011SOL    HW224933   3.181   2.327   0.718
 8012SOL     OW24934   2.704   6.451   1.874
 8012SOL    HW124935   2.763   6.417   1.801
 8012SOL    HW224936   2.746   6.533   1.914
 8013SOL     OW24937   5.772   4.182   4.871
 8013SOL    HW124938   5.833   4.258   4.848
 8013SOL    HW224939   5.733   4.144   4.788
 8014SOL     OW24940   2.352   0.147   0.115
 8014SOL    HW124941   2.258   0.149   0.080
 8014SOL    HW224942   2.402   0.073   0.071
 8015SOL     OW24943   2.378   2.846   0.318
 8015SOL    HW124944   2.433   2.927   0.297
 8015SOL    HW224945   2.394   2.819   0.413
 8016SOL     OW24946   4.211   6.462   7.002
 8016SOL    HW124947   4.219   6.393   0.049
 8016SOL    HW224948   4.196   6.417   6.914
 8017SOL     OW24949   5.945   4.417   4.556
 8017SOL    HW124950   5.917   4.453   4.645
 8017SOL    HW224951   6.045   4.409   4.553
 8018SOL     OW24952   4.945   1.855   5.073
 8018SOL    HW124953   4.895   1.853   4.987
 8018SOL    HW224954   4.989   1.766   5.088
 8019SOL     OW24955   2.456   5.869   0.970
 8019SOL    HW124956   2.555   5.858   0.971
 8019SOL    HW224957   2.425   5.886   0.877
 8020SOL     OW24958   4.930   4.977   0.359
 8020SOL    HW124959   5.008   5.031   0.390
 8020SOL    HW224960   4.962   4.897   0.309
 8021SOL     OW24961   0.541   0.816   0.908
 8021SOL    HW124962   0.544   0.744   0.978
 8021SOL    HW224963   0.547   0.774   0.818
 8022SOL     OW24964   4.433   6.361   3.063
 8022SOL    HW124965   4.388   6.366   3.152
 8022SOL    HW224966   4.472   6.270   3.050
 8023SOL     OW24967   5.658   5.987   3.040
 8023SOL    HW124968   5.685   5.931   2.962
 8023SOL    HW224969   5.597   6.060   3.009
 8024SOL     OW24970   4.867   4.865   5.409
 8024SOL    HW124971   4.915   4.788   5.366
 8024SOL    HW224972   4.770   4.843   5.417
 8025SOL     OW24973   4.056   5.750   6.654
 8025SOL    HW124974   4.036   5.739   6.752
 8025SOL    HW224975   4.143   5.707   6.633
 8026SOL     OW24976   1.409   3.261   0.083
 8026SOL    HW124977   1.485   3.240   0.145
 8026SOL    HW224978   1.333   3.199   0.103
 8027SOL     OW24979   4.670   1.844   4.952
 8027SOL    HW124980   4.612   1.778   4.906
 8027SOL    HW224981   4.663   1.830   5.051
 8028SOL     OW24982   4.867   4.746   6.595
 8028SOL    HW124983   4.827   4.664   6.554
 8028SOL    HW224984   4.811   4.775   6.673
 8029SOL     OW24985   3.777   4.156   0.238
 8029SOL    HW124986   3.860   4.132   0.189
 8029SOL    HW224987   3.785   4.129   0.334
 8030SOL     OW24988   5.650   4.233   6.296
 8030SOL    HW124989   5.701   4.151   6.271
 8030SOL    HW224990   5.585   4.211   6.369
 8031SOL     OW24991   3.969   5.482   1.290
 8031SOL    HW124992   3.981   5.581   1.289
 8031SOL    HW224993   3.914   5.454   1.211
 8032SOL     OW24994   5.499   4.048   5.483
 8032SOL    HW124995   5.418   4.001   5.448
 8032SOL    HW224996   5.577   3.985   5.482
 8033SOL     OW24997   5.768   2.232   0.224
 8033SOL    HW124998   5.765   2.240   0.323
 8033SOL    HW224999   5.814   2.147   0.198
 8034SOL     OW25000   5.517   6.884   4.903
 8034SOL    HW125001   5.552   6.978   4.912
 8034SOL    HW225002   5.584   6.828   4.855
 8035SOL     OW25003   5.529   6.588   6.710
 8035SOL    HW125004   5.533   6.618   6.615
 8035SOL    HW225005   5.529   6.488   6.713
 8036SOL     OW25006   1.829   4.391   1.698
 8036SOL    HW125007   1.782   4.375   1.785
 8036SOL    HW225008   1.916   4.436   1.716
 8037SOL     OW25009   1.652   2.917   1.259
 8037SOL    HW125010   1.746   2.949   1.270
 8037SOL    HW225011   1.606   2.974   1.192
 8038SOL     OW25012   0.251   2.356   3.914
 8038SOL    HW125013   0.240   2.259   3.892
 8038SOL    HW225014   0.234   2.411   3.832
 8039SOL     OW25015   2.412   6.984   3.428
 8039SOL    HW125016   2.333   6.961   3.371
 8039SOL    HW225017   2.438   0.055   3.413
 8040SOL     OW25018   0.159   5.309   1.209
 8040SOL    HW125019   0.111   5.388   1.246
 8040SOL    HW225020   0.196   5.331   1.119
 8041SOL     OW25021   4.416   1.297   0.460
 8041SOL    HW125022   4.345   1.345   0.408
 8041SOL    HW225023   4.396   1.199   0.461
 8042SOL     OW25024   3.376   2.849   2.080
 8042SOL    HW125025   3.444   2.823   2.011
 8042SOL    HW225026   3.296   2.887   2.034
 8043SOL     OW25027   2.315   0.264   1.937
 8043SOL    HW125028   2.338   0.168   1.918
 8043SOL    HW225029   2.254   0.269   2.016
 8044SOL     OW25030   2.968   3.909   1.451
 8044SOL    HW125031   2.912   3.869   1.524
 8044SOL    HW225032   2.946   4.006   1.443
 8045SOL     OW25033   5.262   2.543   3.171
 8045SOL    HW125034   5.203   2.490   3.111
 8045SOL    HW225035   5.208   2.610   3.221
 8046SOL     OW25036   6.073   4.703   5.653
 8046SOL    HW125037   6.057   4.790   5.606
 8046SOL    HW225038   6.166   4.701   5.689
 8047SOL     OW25039   3.775   6.057   4.553
 8047SOL    HW125040   3.766   5.985   4.622
 8047SOL    HW225041   3.872   6.079   4.541
 8048SOL     OW25042   6.417   7.017   5.371
 8048SOL    HW125043   6.414   0.000   5.470
 8048SOL    HW225044   6.405   0.083   5.330
 8049SOL     OW25045   1.339   6.659   0.911
 8049SOL    HW125046   1.401   6.689   0.983
 8049SOL    HW225047   1.299   6.571   0.935
 8050SOL     OW25048   2.131   3.635   1.242
 8050SOL    HW125049   2.083   3.568   1.184
 8050SOL    HW225050   2.093   3.632   1.334
 8051SOL     OW25051   4.578   0.982   3.487
 8051SOL    HW125052   4.505   0.971   3.554
 8051SOL    HW225053   4.664   1.005   3.533
 8052SOL     OW25054   2.810   1.299   2.969
 8052SOL    HW125055   2.848   1.224   3.023
 8052SOL    HW225056   2.822   1.279   2.872
 8053SOL     OW25057   3.743   3.608   2.389
 8053SOL    HW125058   3.744   3.705   2.414
 8053SOL    HW225059   3.649   3.580   2.370
 8054SOL     OW25060   4.405   6.530   4.689
 8054SOL    HW125061   4.393   6.483   4.602
 8054SOL    HW225062   4.371   6.624   4.682
 8055SOL     OW25063   1.655   6.863   5.961
 8055SOL    HW125064   1.741   6.848   5.913
 8055SOL    HW225065   1.665   6.940   6.024
 8056SOL     OW25066   4.106   1.684   2.898
 8056SOL    HW125067   4.182   1.723   2.846
 8056SOL    HW225068   4.025   1.678   2.840
 8057SOL     OW25069   3.334   6.435   3.333
 8057SOL    HW125070   3.285   6.509   3.378
 8057SOL    HW225071   3.405   6.473   3.274
 8058SOL     OW25072   2.951   1.363   1.913
 8058SOL    HW125073   3.002   1.443   1.879
 8058SOL    HW225074   3.015   1.288   1.930
 8059SOL     OW25075   3.344   1.832   4.310
 8059SOL    HW125076   3.393   1.746   4.320
 8059SOL    HW225077   3.366   1.893   4.386
 8060SOL     OW25078   0.226   0.835   4.628
 8060SOL    HW125079   0.190   0.746   4.655
 8060SOL    HW225080   0.263   0.830   4.536
 8061SOL     OW25081   6.825   5.933   2.759
 8061SOL    HW125082   6.756   5.934   2.832
 8061SOL    HW225083   6.795   5.992   2.684
 8062SOL     OW25084   1.771   4.169   3.440
 8062SOL    HW125085   1.792   4.218   3.524
 8062SOL    HW225086   1.776   4.071   3.456
 8063SOL     OW25087   3.579   2.874   0.004
 8063SOL    HW125088   3.535   2.963   7.018
 8063SOL    HW225089   3.649   2.880   0.075
 8064SOL     OW25090   6.733   3.779   0.445
 8064SOL    HW125091   6.672   3.707   0.478
 8064SOL    HW225092   6.735   3.854   0.510
 8065SOL     OW25093   5.006   0.145   4.964
 8065SOL    HW125094   5.080   0.125   4.900
 8065SOL    HW225095   4.921   0.157   4.913
 8066SOL     OW25096   1.577   1.011   1.609
 8066SOL    HW125097   1.636   1.083   1.574
 8066SOL    HW225098   1.529   1.044   1.691
 8067SOL     OW25099   4.896   2.566   1.986
 8067SOL    HW125100   4.945   2.486   1.952
 8067SOL    HW225101   4.917   2.580   2.082
 8068SOL     OW25102   1.158   4.089   5.178
 8068SOL    HW125103   1.201   4.055   5.094
 8068SOL    HW225104   1.173   4.023   5.252
 8069SOL     OW25105   1.191   6.822   1.862
 8069SOL    HW125106   1.176   6.868   1.949
 8069SOL    HW225107   1.232   6.886   1.797
 8070SOL     OW25108   4.194   6.576   1.420
 8070SOL    HW125109   4.128   6.619   1.358
 8070SOL    HW225110   4.204   6.480   1.397
 8071SOL     OW25111   3.636   6.807   6.549
 8071SOL    HW125112   3.618   6.788   6.452
 8071SOL    HW225113   3.638   6.905   6.564
 8072SOL     OW25114   5.079   1.296   0.652
 8072SOL    HW125115   5.037   1.260   0.735
 8072SOL    HW225116   5.130   1.379   0.675
 8073SOL     OW25117   4.285   6.337   5.940
 8073SOL    HW125118   4.265   6.291   5.853
 8073SOL    HW225119   4.316   6.430   5.922
 8074SOL     OW25120   3.802   3.771   6.895
 8074SOL    HW125121   3.778   3.783   6.991
 8074SOL    HW225122   3.895   3.804   6.880
 8075SOL     OW25123   6.943   1.685   2.975
 8075SOL    HW125124   6.875   1.615   2.993
 8075SOL    HW225125   0.009   1.643   2.968
 8076SOL     OW25126   5.910   2.676   5.604
 8076SOL    HW125127   6.002   2.701   5.572
 8076SOL    HW225128   5.910   2.672   5.704
 8077SOL     OW25129   1.391   0.817   1.086
 8077SOL    HW125130   1.433   0.877   1.154
 8077SOL    HW225131   1.399   0.722   1.116
 8078SOL     OW25132   6.205   2.879   0.721
 8078SOL    HW125133   6.139   2.837   0.783
 8078SOL    HW225134   6.198   2.836   0.631
 8079SOL     OW25135   6.891   2.404   2.364
 8079SOL    HW125136   6.888   2.333   2.294
 8079SOL    HW225137   6.981   2.447   2.363
 8080SOL     OW25138   3.506   4.472   0.227
 8080SOL    HW125139   3.526   4.570   0.228
 8080SOL    HW225140   3.553   4.430   0.150
 8081SOL     OW25141   6.086   0.701   5.278
 8081SOL    HW125142   6.065   0.790   5.237
 8081SOL    HW225143   6.023   0.685   5.355
 8082SOL     OW25144   6.943   2.612   3.341
 8082SOL    HW125145   0.018   2.606   3.333
 8082SOL    HW225146   6.911   2.545   3.408
 8083SOL     OW25147   4.477   2.500   3.521
 8083SOL    HW125148   4.514   2.581   3.565
 8083SOL    HW225149   4.404   2.462   3.577
 8084SOL     OW25150   6.804   6.876   1.541
 8084SOL    HW125151   6.845   6.797   1.496
 8084SOL    HW225152   6.801   6.861   1.640
 8085SOL     OW25153   5.635   0.850   0.884
 8085SOL    HW125154   5.689   0.775   0.844
 8085SOL    HW225155   5.634   0.841   0.983
 8086SOL     OW25156   3.703   0.577   5.436
 8086SOL    HW125157   3.734   0.617   5.350
 8086SOL    HW225158   3.721   0.640   5.511
 8087SOL     OW25159   2.913   2.502   1.276
 8087SOL    HW125160   2.869   2.591   1.284
 8087SOL    HW225161   2.850   2.431   1.309
 8088SOL     OW25162   4.471   0.889   2.669
 8088SOL    HW125163   4.539   0.916   2.738
 8088SOL    HW225164   4.515   0.836   2.597
 8089SOL     OW25165   6.010   2.379   0.148
 8089SOL    HW125166   5.913   2.365   0.168
 8089SOL    HW225167   6.023   2.398   0.051
 8090SOL     OW25168   4.229   2.043   5.325
 8090SOL    HW125169   4.200   1.950   5.349
 8090SOL    HW225170   4.304   2.039   5.259
 8091SOL     OW25171   2.518   5.022   5.769
 8091SOL    HW125172   2.448   4.966   5.814
 8091SOL    HW225173   2.510   5.013   5.670
 8092SOL     OW25174   1.183   1.713   4.862
 8092SOL    HW125175   1.217   1.655   4.788
 8092SOL    HW225176   1.176   1.660   4.946
 8093SOL     OW25177   5.737   5.785   1.401
 8093SOL    HW125178   5.823   5.759   1.446
 8093SOL    HW225179   5.745   5.879   1.366
 8094SOL     OW25180   1.159   4.075   5.743
 8094SOL    HW125181   1.133   4.104   5.835
 8094SOL    HW225182   1.112   4.131   5.675
 8095SOL     OW25183   5.428   3.371   4.426
 8095SOL    HW125184   5.500   3.441   4.426
 8095SOL    HW225185   5.466   3.284   4.396
 8096SOL     OW25186   3.746   6.204   1.578
 8096SOL    HW125187   3.835   6.159   1.591
 8096SOL    HW225188   3.673   6.138   1.591
 8097SOL     OW25189   5.184   0.930   3.962
 8097SOL    HW125190   5.150   0.941   3.868
 8097SOL    HW225191   5.118   0.970   4.026
 8098SOL     OW25192   3.381   6.779   3.791
 8098SOL    HW125193   3.338   6.752   3.705
 8098SOL    HW225194   3.341   6.866   3.821
 8099SOL     OW25195   4.471   6.786   5.025
 8099SOL    HW125196   4.543   6.831   4.973
 8099SOL    HW225197   4.493   6.789   5.123
 8100SOL     OW25198   0.345   6.602   0.952
 8100SOL    HW125199   0.417   6.532   0.947
 8100SOL    HW225200   0.309   6.619   0.860
 8101SOL     OW25201   1.837   6.340   3.772
 8101SOL    HW125202   1.926   6.311   3.735
 8101SOL    HW225203   1.841   6.438   3.793
 8102SOL     OW25204   6.630   5.804   5.932
 8102SOL    HW125205   6.624   5.868   5.856
 8102SOL    HW225206   6.545   5.751   5.939
 8103SOL     OW25207   3.221   1.542   2.459
 8103SOL    HW125208   3.259   1.501   2.376
 8103SOL    HW225209   3.293   1.554   2.527
 8104SOL     OW25210   2.849   6.706   6.280
 8104SOL    HW125211   2.783   6.649   6.329
 8104SOL    HW225212   2.830   6.702   6.182
 8105SOL     OW25213   2.463   1.905   4.042
 8105SOL    HW125214   2.383   1.846   4.040
 8105SOL    HW225215   2.498   1.916   3.949
 8106SOL     OW25216   1.537   4.175   3.950
 8106SOL    HW125217   1.491   4.089   3.972
 8106SOL    HW225218   1.485   4.223   3.880
 8107SOL     OW25219   2.104   6.574   5.969
 8107SOL    HW125220   2.084   6.645   6.036
 8107SOL    HW225221   2.070   6.603   5.879
 8108SOL     OW25222   1.001   3.229   4.191
 8108SOL    HW125223   1.089   3.259   4.228
 8108SOL    HW225224   0.936   3.217   4.265
 8109SOL     OW25225   1.660   5.250   4.863
 8109SOL    HW125226   1.726   5.322   4.886
 8109SOL    HW225227   1.638   5.254   4.766
 8110SOL     OW25228   2.194   5.640   0.494
 8110SOL    HW125229   2.178   5.706   0.567
 8110SOL    HW225230   2.286   5.653   0.457
 8111SOL     OW25231   2.523   5.369   4.685
 8111SOL    HW125232   2.538   5.440   4.616
 8111SOL    HW225233   2.589   5.296   4.674
 8112SOL     OW25234   2.247   1.083   4.668
 8112SOL    HW125235   2.177   1.032   4.619
 8112SOL    HW225236   2.319   1.112   4.604
 8113SOL     OW25237   3.638   2.493   5.977
 8113SOL    HW125238   3.540   2.495   5.995
 8113SOL    HW225239   3.665   2.578   5.931
 8114SOL     OW25240   2.202   3.009   1.907
 8114SOL    HW125241   2.157   3.094   1.933
 8114SOL    HW225242   2.162   2.933   1.959
 8115SOL     OW25243   3.541   1.351   0.866
 8115SOL    HW125244   3.489   1.268   0.849
 8115SOL    HW225245   3.529   1.379   0.962
 8116SOL     OW25246   5.662   0.592   5.118
 8116SOL    HW125247   5.568   0.616   5.094
 8116SOL    HW225248   5.676   0.604   5.216
 8117SOL     OW25249   1.808   1.937   5.635
 8117SOL    HW125250   1.819   1.864   5.567
 8117SOL    HW225251   1.725   1.989   5.615
 8118SOL     OW25252   0.834   3.445   5.013
 8118SOL    HW125253   0.916   3.440   4.956
 8118SOL    HW225254   0.759   3.396   4.968
 8119SOL     OW25255   1.006   6.415   2.646
 8119SOL    HW125256   0.938   6.343   2.631
 8119SOL    HW225257   1.085   6.377   2.694
 8120SOL     OW25258   4.461   3.950   1.723
 8120SOL    HW125259   4.384   3.889   1.744
 8120SOL    HW225260   4.449   4.036   1.772
 8121SOL     OW25261   5.950   0.262   2.369
 8121SOL    HW125262   6.005   0.299   2.295
 8121SOL    HW225263   5.854   0.261   2.343
 8122SOL     OW25264   6.710   6.445   2.065
 8122SOL    HW125265   6.799   6.411   2.096
 8122SOL    HW225266   6.706   6.544   2.078
 8123SOL     OW25267   1.630   6.436   0.126
 8123SOL    HW125268   1.542   6.390   0.121
 8123SOL    HW225269   1.618   6.526   0.169
 8124SOL     OW25270   1.094   5.939   2.056
 8124SOL    HW125271   1.060   6.027   2.023
 8124SOL    HW225272   1.089   5.938   2.156
 8125SOL     OW25273   5.752   5.347   3.029
 8125SOL    HW125274   5.727   5.321   2.936
 8125SOL    HW225275   5.811   5.277   3.069
 8126SOL     OW25276   5.515   4.549   2.693
 8126SOL    HW125277   5.441   4.486   2.671
 8126SOL    HW225278   5.507   4.631   2.636
 8127SOL     OW25279   2.138   4.875   6.962
 8127SOL    HW125280   2.127   4.792   7.017
 8127SOL    HW225281   2.235   4.885   6.937
 8128SOL     OW25282   3.900   2.409   5.307
 8128SOL    HW125283   3.970   2.480   5.294
 8128SOL    HW225284   3.941   2.320   5.289
 8129SOL     OW25285   5.197   0.207   6.338
 8129SOL    HW125286   5.295   0.195   6.356
 8129SOL    HW225287   5.162   0.283   6.392
 8130SOL     OW25288   2.095   5.862   0.107
 8130SOL    HW125289   2.151   5.938   0.076
 8130SOL    HW225290   2.077   5.871   0.205
 8131SOL     OW25291   2.317   1.430   0.545
 8131SOL    HW125292   2.240   1.399   0.489
 8131SOL    HW225293   2.382   1.480   0.488
 8132SOL     OW25294   6.258   4.955   4.422
 8132SOL    HW125295   6.353   4.938   4.397
 8132SOL    HW225296   6.244   4.932   4.518
 8133SOL     OW25297   1.944   5.289   1.948
 8133SOL    HW125298   1.855   5.244   1.959
 8133SOL    HW225299   2.011   5.223   1.915
 8134SOL     OW25300   1.974   2.418   3.566
 8134SOL    HW125301   1.945   2.323   3.574
 8134SOL    HW225302   2.061   2.430   3.613
 8135SOL     OW25303   3.935   5.573   2.012
 8135SOL    HW125304   3.920   5.672   1.999
 8135SOL    HW225305   4.012   5.559   2.074
 8136SOL     OW25306   4.391   5.721   1.880
 8136SOL    HW125307   4.489   5.741   1.879
 8136SOL    HW225308   4.359   5.710   1.786
 8137SOL     OW25309   2.219   4.357   5.033
 8137SOL    HW125310   2.130   4.381   4.992
 8137SOL    HW225311   2.224   4.259   5.048
 8138SOL     OW25312   4.726   1.025   3.242
 8138SOL    HW125313   4.678   1.010   3.328
 8138SOL    HW225314   4.738   0.937   3.195
 8139SOL     OW25315   1.466   2.011   3.893
 8139SOL    HW125316   1.491   2.057   3.808
 8139SOL    HW225317   1.401   1.937   3.874
 8140SOL     OW25318   4.390   1.016   0.445
 8140SOL    HW125319   4.305   1.067   0.459
 8140SOL    HW225320   4.372   0.918   0.449
 8141SOL     OW25321   4.826   1.390   4.958
 8141SOL    HW125322   4.885   1.463   4.991
 8141SOL    HW225323   4.788   1.339   5.035
 8142SOL     OW25324   1.887   5.936   0.609
 8142SOL    HW125325   1.791   5.959   0.620
 8142SOL    HW225326   1.930   6.000   0.545
 8143SOL     OW25327   5.927   4.767   0.465
 8143SOL    HW125328   5.926   4.718   0.378
 8143SOL    HW225329   5.834   4.796   0.488
 8144SOL     OW25330   6.709   4.645   6.354
 8144SOL    HW125331   6.666   4.556   6.336
 8144SOL    HW225332   6.712   4.662   6.452
 8145SOL     OW25333   4.987   5.660   6.971
 8145SOL    HW125334   4.893   5.685   6.995
 8145SOL    HW225335   4.996   5.660   6.871
 8146SOL     OW25336   5.820   0.453   4.601
 8146SOL    HW125337   5.819   0.354   4.584
 8146SOL    HW225338   5.871   0.498   4.528
 8147SOL     OW25339   1.808   1.012   5.908
 8147SOL    HW125340   1.869   0.955   5.963
 8147SOL    HW225341   1.727   0.958   5.883
 8148SOL     OW25342   4.142   4.926   0.233
 8148SOL    HW125343   4.132   5.022   0.259
 8148SOL    HW225344   4.055   4.890   0.201
 8149SOL     OW25345   1.086   5.959   4.936
 8149SOL    HW125346   1.162   5.939   4.997
 8149SOL    HW225347   1.058   5.875   4.889
 8150SOL     OW25348   0.646   2.929   0.872
 8150SOL    HW125349   0.706   2.951   0.794
 8150SOL    HW225350   0.645   3.006   0.935
 8151SOL     OW25351   6.139   5.096   3.513
 8151SOL    HW125352   6.201   5.038   3.566
 8151SOL    HW225353   6.121   5.180   3.564
 8152SOL     OW25354   4.613   1.590   3.186
 8152SOL    HW125355   4.592   1.513   3.245
 8152SOL    HW225356   4.708   1.618   3.201
 8153SOL     OW25357   0.547   1.821   3.670
 8153SOL    HW125358   0.537   1.779   3.760
 8153SOL    HW225359   0.481   1.897   3.661
 8154SOL     OW25360   1.875   0.894   3.716
 8154SOL    HW125361   1.790   0.943   3.702
 8154SOL    HW225362   1.952   0.955   3.699
 8155SOL     OW25363   1.422   5.327   2.542
 8155SOL    HW125364   1.521   5.338   2.541
 8155SOL    HW225365   1.397   5.254   2.606
 8156SOL     OW25366   6.305   5.520   1.609
 8156SOL    HW125367   6.323   5.444   1.546
 8156SOL    HW225368   6.325   5.491   1.702
 8157SOL     OW25369   6.917   2.755   5.961
 8157SOL    HW125370   6.867   2.697   6.025
 8157SOL    HW225371   6.918   2.849   5.995
 8158SOL     OW25372   5.285   4.908   6.403
 8158SOL    HW125373   5.374   4.912   6.356
 8158SOL    HW225374   5.273   4.991   6.458
 8159SOL     OW25375   3.249   6.507   5.378
 8159SOL    HW125376   3.296   6.457   5.306
 8159SOL    HW225377   3.231   6.601   5.347
 8160SOL     OW25378   5.129   1.162   3.445
 8160SOL    HW125379   5.184   1.169   3.528
 8160SOL    HW225380   5.133   1.069   3.410
 8161SOL     OW25381   5.803   3.002   1.382
 8161SOL    HW125382   5.758   2.912   1.390
 8161SOL    HW225383   5.737   3.074   1.403
 8162SOL     OW25384   0.361   4.973   6.113
 8162SOL    HW125385   0.384   5.044   6.180
 8162SOL    HW225386   0.429   4.900   6.117
 8163SOL     OW25387   4.691   4.635   5.256
 8163SOL    HW125388   4.746   4.589   5.325
 8163SOL    HW225389   4.745   4.647   5.173
 8164SOL     OW25390   5.136   1.234   0.373
 8164SOL    HW125391   5.118   1.331   0.383
 8164SOL    HW225392   5.187   1.201   0.452
 8165SOL     OW25393   0.137   1.556   6.677
 8165SOL    HW125394   0.175   1.589   6.763
 8165SOL    HW225395   0.041   1.583   6.670
 8166SOL     OW25396   1.748   2.041   4.859
 8166SOL    HW125397   1.666   2.058   4.804
 8166SOL    HW225398   1.722   2.027   4.955
 8167SOL     OW25399   0.363   2.857   4.174
 8167SOL    HW125400   0.279   2.901   4.142
 8167SOL    HW225401   0.356   2.758   4.159
 8168SOL     OW25402   2.656   0.783   2.143
 8168SOL    HW125403   2.720   0.803   2.216
 8168SOL    HW225404   2.591   0.858   2.133
 8169SOL     OW25405   5.038   2.684   0.802
 8169SOL    HW125406   5.129   2.667   0.763
 8169SOL    HW225407   4.972   2.698   0.728
 8170SOL     OW25408   6.099   4.867   2.080
 8170SOL    HW125409   6.046   4.784   2.062
 8170SOL    HW225410   6.038   4.938   2.116
 8171SOL     OW25411   1.682   1.135   0.707
 8171SOL    HW125412   1.689   1.040   0.675
 8171SOL    HW225413   1.683   1.137   0.807
 8172SOL     OW25414   0.927   2.933   1.496
 8172SOL    HW125415   0.853   2.965   1.555
 8172SOL    HW225416   0.917   2.834   1.480
 8173SOL     OW25417   5.508   1.139   2.270
 8173SOL    HW125418   5.421   1.095   2.293
 8173SOL    HW225419   5.583   1.090   2.314
 8174SOL     OW25420   2.479   5.145   2.660
 8174SOL    HW125421   2.399   5.156   2.719
 8174SOL    HW225422   2.497   5.047   2.647
 8175SOL     OW25423   0.861   1.570   4.827
 8175SOL    HW125424   0.893   1.663   4.845
 8175SOL    HW225425   0.765   1.573   4.798
 8176SOL     OW25426   2.028   3.937   0.721
 8176SOL    HW125427   1.958   3.962   0.788
 8176SOL    HW225428   2.110   3.993   0.736
 8177SOL     OW25429   3.990   1.275   2.770
 8177SOL    HW125430   4.059   1.328   2.720
 8177SOL    HW225431   4.001   1.290   2.868
 8178SOL     OW25432   2.016   6.457   1.171
 8178SOL    HW125433   1.961   6.540   1.162
 8178SOL    HW225434   2.014   6.405   1.086
 8179SOL     OW25435   5.636   1.233   3.475
 8179SOL    HW125436   5.600   1.300   3.539
 8179SOL    HW225437   5.586   1.147   3.486
 8180SOL     OW25438   4.835   6.262   6.926
 8180SOL    HW125439   4.891   6.210   6.863
 8180SOL    HW225440   4.892   6.301   6.998
 8181SOL     OW25441   0.414   1.077   0.872
 8181SOL    HW125442   0.458   0.987   0.865
 8181SOL    HW225443   0.481   1.145   0.900
 8182SOL     OW25444   2.948   3.720   4.938
 8182SOL    HW125445   2.905   3.691   5.023
 8182SOL    HW225446   3.024   3.658   4.917
 8183SOL     OW25447   0.004   0.109   4.932
 8183SOL    HW125448   0.000   0.138   5.028
 8183SOL    HW225449   0.022   0.011   4.928
 8184SOL     OW25450   0.103   6.409   6.219
 8184SOL    HW125451   0.131   6.479   6.283
 8184SOL    HW225452   0.089   6.322   6.267
 8185SOL     OW25453   1.174   6.640   6.988
 8185SOL    HW125454   1.170   6.592   0.051
 8185SOL    HW225455   1.094   6.616   6.933
 8186SOL     OW25456   1.332   5.582   6.730
 8186SOL    HW125457   1.347   5.533   6.644
 8186SOL    HW225458   1.388   5.665   6.731
 8187SOL     OW25459   0.641   0.757   6.423
 8187SOL    HW125460   0.610   0.662   6.429
 8187SOL    HW225461   0.701   0.767   6.344
 8188SOL     OW25462   2.501   1.882   3.759
 8188SOL    HW125463   2.503   1.935   3.674
 8188SOL    HW225464   2.508   1.785   3.738
 8189SOL     OW25465   5.176   4.482   3.612
 8189SOL    HW125466   5.147   4.414   3.680
 8189SOL    HW225467   5.198   4.435   3.526
 8190SOL     OW25468   6.256   3.421   3.582
 8190SOL    HW125469   6.232   3.324   3.584
 8190SOL    HW225470   6.261   3.453   3.488
 8191SOL     OW25471   3.835   5.058   1.354
 8191SOL    HW125472   3.908   4.990   1.359
 8191SOL    HW225473   3.754   5.017   1.313
 8192SOL     OW25474   1.237   5.075   3.943
 8192SOL    HW125475   1.174   5.006   3.908
 8192SOL    HW225476   1.324   5.070   3.894
 8193SOL     OW25477   0.534   3.572   5.095
 8193SOL    HW125478   0.594   3.547   5.171
 8193SOL    HW225479   0.585   3.627   5.029
 8194SOL     OW25480   4.807   6.571   1.840
 8194SOL    HW125481   4.816   6.657   1.790
 8194SOL    HW225482   4.726   6.522   1.807
 8195SOL     OW25483   5.678   6.577   3.678
 8195SOL    HW125484   5.701   6.565   3.581
 8195SOL    HW225485   5.716   6.663   3.711
 8196SOL     OW25486   4.696   0.061   0.367
 8196SOL    HW125487   4.707   7.006   0.426
 8196SOL    HW225488   4.720   0.144   0.417
 8197SOL     OW25489   4.786   1.858   2.390
 8197SOL    HW125490   4.754   1.768   2.419
 8197SOL    HW225491   4.845   1.848   2.310
 8198SOL     OW25492   2.109   0.488   2.693
 8198SOL    HW125493   2.139   0.396   2.714
 8198SOL    HW225494   2.174   0.531   2.630
 8199SOL     OW25495   5.321   2.849   5.691
 8199SOL    HW125496   5.333   2.790   5.611
 8199SOL    HW225497   5.249   2.812   5.750
 8200SOL     OW25498   4.405   2.780   1.043
 8200SOL    HW125499   4.486   2.743   0.996
 8200SOL    HW225500   4.432   2.814   1.133
 8201SOL     OW25501   6.675   6.879   5.559
 8201SOL    HW125502   6.665   6.785   5.525
 8201SOL    HW225503   6.587   6.912   5.593
 8202SOL     OW25504   0.884   6.425   1.910
 8202SOL    HW125505   0.904   6.513   1.867
 8202SOL    HW225506   0.791   6.397   1.888
 8203SOL     OW25507   1.372   3.284   1.187
 8203SOL    HW125508   1.368   3.208   1.122
 8203SOL    HW225509   1.401   3.367   1.140
 8204SOL     OW25510   4.093   3.167   1.632
 8204SOL    HW125511   4.145   3.222   1.567
 8204SOL    HW225512   4.074   3.221   1.714
 8205SOL     OW25513   1.440   3.543   0.739
 8205SOL    HW125514   1.496   3.593   0.673
 8205SOL    HW225515   1.344   3.551   0.714
 8206SOL     OW25516   4.060   1.071   6.582
 8206SOL    HW125517   4.143   1.018   6.599
 8206SOL    HW225518   4.011   1.085   6.668
 8207SOL     OW25519   3.733   2.949   4.757
 8207SOL    HW125520   3.811   3.008   4.777
 8207SOL    HW225521   3.684   2.928   4.842
 8208SOL     OW25522   1.829   1.086   0.372
 8208SOL    HW125523   1.899   1.041   0.317
 8208SOL    HW225524   1.866   1.170   0.411
 8209SOL     OW25525   6.475   0.904   5.610
 8209SOL    HW125526   6.413   0.920   5.687
 8209SOL    HW225527   6.424   0.863   5.535
 8210SOL     OW25528   1.413   2.816   0.141
 8210SOL    HW125529   1.404   2.792   0.237
 8210SOL    HW225530   1.402   2.735   0.084
 8211SOL     OW25531   2.625   4.445   0.791
 8211SOL    HW125532   2.587   4.464   0.700
 8211SOL    HW225533   2.644   4.531   0.838
 8212SOL     OW25534   1.542   2.379   3.032
 8212SOL    HW125535   1.511   2.445   3.100
 8212SOL    HW225536   1.501   2.289   3.051
 8213SOL     OW25537   0.189   4.811   1.950
 8213SOL    HW125538   0.136   4.885   1.907
 8213SOL    HW225539   0.282   4.844   1.969
 8214SOL     OW25540   5.253   4.198   2.906
 8214SOL    HW125541   5.347   4.230   2.906
 8214SOL    HW225542   5.246   4.113   2.854
 8215SOL     OW25543   3.439   5.095   4.901
 8215SOL    HW125544   3.536   5.090   4.877
 8215SOL    HW225545   3.395   5.009   4.877
 8216SOL     OW25546   4.547   4.452   3.648
 8216SOL    HW125547   4.586   4.361   3.634
 8216SOL    HW225548   4.548   4.473   3.746
 8217SOL     OW25549   2.612   6.467   0.469
 8217SOL    HW125550   2.650   6.403   0.401
 8217SOL    HW225551   2.685   6.527   0.501
 8218SOL     OW25552   0.444   1.488   7.004
 8218SOL    HW125553   0.435   1.561   0.047
 8218SOL    HW225554   0.394   1.407   0.009
 8219SOL     OW25555   5.893   2.216   6.454
 8219SOL    HW125556   5.945   2.137   6.483
 8219SOL    HW225557   5.803   2.187   6.422
 8220SOL     OW25558   3.500   3.506   2.723
 8220SOL    HW125559   3.542   3.590   2.758
 8220SOL    HW225560   3.568   3.433   2.722
 8221SOL     OW25561   5.596   6.153   3.484
 8221SOL    HW125562   5.619   6.250   3.481
 8221SOL    HW225563   5.586   6.125   3.580
 8222SOL     OW25564   5.980   1.411   2.011
 8222SOL    HW125565   6.008   1.416   2.107
 8222SOL    HW225566   5.947   1.501   1.981
 8223SOL     OW25567   0.180   4.466   6.347
 8223SOL    HW125568   0.168   4.551   6.296
 8223SOL    HW225569   0.222   4.398   6.287
 8224SOL     OW25570   1.181   3.041   3.270
 8224SOL    HW125571   1.277   3.066   3.283
 8224SOL    HW225572   1.123   3.118   3.297
 8225SOL     OW25573   4.974   1.433   6.683
 8225SOL    HW125574   4.982   1.390   6.774
 8225SOL    HW225575   5.066   1.446   6.645
 8226SOL     OW25576   4.988   0.674   1.329
 8226SOL    HW125577   4.925   0.716   1.263
 8226SOL    HW225578   4.952   0.686   1.422
 8227SOL     OW25579   6.486   2.943   3.315
 8227SOL    HW125580   6.513   2.866   3.257
 8227SOL    HW225581   6.387   2.940   3.331
 8228SOL     OW25582   6.690   2.484   4.911
 8228SOL    HW125583   6.659   2.577   4.890
 8228SOL    HW225584   6.713   2.437   4.826
 8229SOL     OW25585   3.414   5.574   6.920
 8229SOL    HW125586   3.439   5.565   6.824
 8229SOL    HW225587   3.460   5.652   6.960
 8230SOL     OW25588   5.398   0.257   4.886
 8230SOL    HW125589   5.388   0.215   4.976
 8230SOL    HW225590   5.474   0.214   4.838
 8231SOL     OW25591   5.487   5.347   0.798
 8231SOL    HW125592   5.489   5.429   0.854
 8231SOL    HW225593   5.544   5.276   0.839
 8232SOL     OW25594   3.891   2.025   7.000
 8232SOL    HW125595   3.921   1.933   6.977
 8232SOL    HW225596   3.963   2.072   0.027
 8233SOL     OW25597   0.884   5.000   6.337
 8233SOL    HW125598   0.869   5.063   6.261
 8233SOL    HW225599   0.877   4.906   6.303
 8234SOL     OW25600   3.041   2.563   6.949
 8234SOL    HW125601   3.124   2.555   6.894
 8234SOL    HW225602   2.962   2.530   6.897
 8235SOL     OW25603   3.939   3.874   1.089
 8235SOL    HW125604   4.033   3.906   1.099
 8235SOL    HW225605   3.915   3.816   1.166
 8236SOL     OW25606   6.203   2.890   0.152
 8236SOL    HW125607   6.207   2.791   0.140
 8236SOL    HW225608   6.269   2.934   0.091
 8237SOL     OW25609   3.820   5.637   5.242
 8237SOL    HW125610   3.888   5.616   5.172
 8237SOL    HW225611   3.766   5.716   5.213
 8238SOL     OW25612   2.094   3.565   6.595
 8238SOL    HW125613   2.055   3.609   6.514
 8238SOL    HW225614   2.028   3.500   6.633
 8239SOL     OW25615   6.970   1.542   5.586
 8239SOL    HW125616   6.994   1.633   5.552
 8239SOL    HW225617   6.883   1.514   5.545
 8240SOL     OW25618   3.442   4.128   2.691
 8240SOL    HW125619   3.364   4.096   2.746
 8240SOL    HW225620   3.410   4.150   2.599
 8241SOL     OW25621   3.055   6.843   0.199
 8241SOL    HW125622   3.109   6.927   0.194
 8241SOL    HW225623   3.115   6.765   0.215
 8242SOL     OW25624   1.144   4.502   5.154
 8242SOL    HW125625   1.126   4.540   5.244
 8242SOL    HW225626   1.073   4.532   5.090
 8243SOL     OW25627   0.420   2.974   5.935
 8243SOL    HW125628   0.454   3.017   5.851
 8243SOL    HW225629   0.497   2.946   5.993
 8244SOL     OW25630   0.988   6.421   3.725
 8244SOL    HW125631   1.035   6.394   3.809
 8244SOL    HW225632   1.019   6.512   3.697
 8245SOL     OW25633   4.258   2.026   0.954
 8245SOL    HW125634   4.273   2.060   0.861
 8245SOL    HW225635   4.327   2.064   1.015
 8246SOL     OW25636   6.139   3.417   6.318
 8246SOL    HW125637   6.132   3.476   6.398
 8246SOL    HW225638   6.069   3.346   6.322
 8247SOL     OW25639   0.759   0.202   1.604
 8247SOL    HW125640   0.822   0.132   1.636
 8247SOL    HW225641   0.720   0.251   1.683
 8248SOL     OW25642   5.621   4.055   3.761
 8248SOL    HW125643   5.577   4.011   3.682
 8248SOL    HW225644   5.567   4.039   3.843
 8249SOL     OW25645   1.885   4.636   4.073
 8249SOL    HW125646   1.813   4.698   4.104
 8249SOL    HW225647   1.876   4.548   4.119
 8250SOL     OW25648   3.934   3.994   2.747
 8250SOL    HW125649   3.991   3.911   2.750
 8250SOL    HW225650   3.931   4.035   2.838
 8251SOL     OW25651   5.370   1.588   4.983
 8251SOL    HW125652   5.379   1.498   4.940
 8251SOL    HW225653   5.458   1.617   5.019
 8252SOL     OW25654   2.252   2.931   6.103
 8252SOL    HW125655   2.265   2.837   6.072
 8252SOL    HW225656   2.331   2.986   6.076
 8253SOL     OW25657   3.152   2.953   4.986
 8253SOL    HW125658   3.230   2.909   5.031
 8253SOL    HW225659   3.101   2.886   4.933
 8254SOL     OW25660   4.183   4.740   3.699
 8254SOL    HW125661   4.241   4.681   3.643
 8254SOL    HW225662   4.240   4.807   3.747
 8255SOL     OW25663   4.463   5.833   3.949
 8255SOL    HW125664   4.413   5.903   4.000
 8255SOL    HW225665   4.434   5.742   3.979
 8256SOL     OW25666   5.497   1.221   4.292
 8256SOL    HW125667   5.538   1.130   4.295
 8256SOL    HW225668   5.404   1.214   4.255
 8257SOL     OW25669   5.918   4.785   3.269
 8257SOL    HW125670   5.926   4.885   3.270
 8257SOL    HW225671   5.847   4.757   3.333
 8258SOL     OW25672   3.971   1.497   0.178
 8258SOL    HW125673   3.872   1.483   0.183
 8258SOL    HW225674   3.990   1.595   0.172
 8259SOL     OW25675   3.486   2.126   3.416
 8259SOL    HW125676   3.393   2.161   3.421
 8259SOL    HW225677   3.517   2.100   3.508
 8260SOL     OW25678   2.740   6.994   1.378
 8260SOL    HW125679   2.700   6.921   1.434
 8260SOL    HW225680   2.840   6.987   1.382
 8261SOL     OW25681   5.445   1.202   1.429
 8261SOL    HW125682   5.520   1.137   1.436
 8261SOL    HW225683   5.418   1.232   1.521
 8262SOL     OW25684   1.040   2.501   1.572
 8262SOL    HW125685   1.086   2.577   1.617
 8262SOL    HW225686   1.015   2.432   1.639
 8263SOL     OW25687   6.688   1.211   1.306
 8263SOL    HW125688   6.746   1.207   1.388
 8263SOL    HW225689   6.592   1.204   1.334
 8264SOL     OW25690   1.361   5.839   2.464
 8264SOL    HW125691   1.348   5.747   2.501
 8264SOL    HW225692   1.455   5.869   2.481
 8265SOL     OW25693   1.698   0.816   2.010
 8265SOL    HW125694   1.728   0.721   1.998
 8265SOL    HW225695   1.734   0.852   2.096
 8266SOL     OW25696   2.782   6.640   2.567
 8266SOL    HW125697   2.796   6.554   2.519
 8266SOL    HW225698   2.685   6.665   2.564
 8267SOL     OW25699   1.632   3.500   1.320
 8267SOL    HW125700   1.723   3.516   1.359
 8267SOL    HW225701   1.640   3.446   1.237
 8268SOL     OW25702   2.400   6.830   5.949
 8268SOL    HW125703   2.323   6.857   5.891
 8268SOL    HW225704   2.478   6.806   5.891
 8269SOL     OW25705   5.334   1.699   1.068
 8269SOL    HW125706   5.408   1.766   1.057
 8269SOL    HW225707   5.260   1.741   1.121
 8270SOL     OW25708   3.238   6.673   4.002
 8270SOL    HW125709   3.262   6.746   4.066
 8270SOL    HW225710   3.269   6.698   3.910
 8271SOL     OW25711   6.693   2.007   2.766
 8271SOL    HW125712   6.727   1.986   2.675
 8271SOL    HW225713   6.594   1.990   2.769
 8272SOL     OW25714   4.364   0.608   2.239
 8272SOL    HW125715   4.356   0.652   2.329
 8272SOL    HW225716   4.444   0.548   2.238
 8273SOL     OW25717   1.955   0.546   1.198
 8273SOL    HW125718   1.918   0.482   1.130
 8273SOL    HW225719   1.959   0.501   1.287
 8274SOL     OW25720   4.655   5.349   2.919
 8274SOL    HW125721   4.575   5.293   2.939
 8274SOL    HW225722   4.646   5.391   2.829
 8275SOL     OW25723   4.800   1.861   6.287
 8275SOL    HW125724   4.753   1.892   6.369
 8275SOL    HW225725   4.867   1.929   6.258
 8276SOL     OW25726   1.161   2.215   4.804
 8276SOL    HW125727   1.138   2.310   4.781
 8276SOL    HW225728   1.204   2.212   4.894
 8277SOL     OW25729   6.971   0.259   6.430
 8277SOL    HW125730   6.957   0.161   6.444
 8277SOL    HW225731   0.026   0.273   6.371
 8278SOL     OW25732   2.458   1.728   0.095
 8278SOL    HW125733   2.402   1.776   0.028
 8278SOL    HW225734   2.470   1.786   0.176
 8279SOL     OW25735   0.756   6.274   4.073
 8279SOL    HW125736   0.719   6.325   3.995
 8279SOL    HW225737   0.819   6.204   4.041
 8280SOL     OW25738   3.208   2.546   6.424
 8280SOL    HW125739   3.247   2.509   6.340
 8280SOL    HW225740   3.243   2.638   6.440
 8281SOL     OW25741   0.672   5.481   1.736
 8281SOL    HW125742   0.674   5.578   1.763
 8281SOL    HW225743   0.647   5.474   1.640
 8282SOL     OW25744   5.197   3.109   6.092
 8282SOL    HW125745   5.145   3.175   6.147
 8282SOL    HW225746   5.261   3.158   6.033
 8283SOL     OW25747   1.365   4.054   6.321
 8283SOL    HW125748   1.459   4.018   6.313
 8283SOL    HW225749   1.333   4.081   6.231
 8284SOL     OW25750   6.820   4.558   2.100
 8284SOL    HW125751   6.764   4.550   2.182
 8284SOL    HW225752   6.883   4.635   2.109
 8285SOL     OW25753   4.032   3.390   4.880
 8285SOL    HW125754   4.075   3.429   4.961
 8285SOL    HW225755   4.075   3.428   4.798
 8286SOL     OW25756   6.416   2.169   5.767
 8286SOL    HW125757   6.512   2.193   5.782
 8286SOL    HW225758   6.408   2.070   5.755
 8287SOL     OW25759   0.966   5.614   4.287
 8287SOL    HW125760   0.867   5.614   4.272
 8287SOL    HW225761   0.990   5.684   4.354
 8288SOL     OW25762   2.293   2.698   2.871
 8288SOL    HW125763   2.297   2.765   2.798
 8288SOL    HW225764   2.216   2.636   2.856
 8289SOL     OW25765   0.835   0.639   0.574
 8289SOL    HW125766   0.854   0.694   0.492
 8289SOL    HW225767   0.913   0.646   0.637
 8290SOL     OW25768   6.301   1.950   0.863
 8290SOL    HW125769   6.330   1.854   0.853
 8290SOL    HW225770   6.239   1.957   0.941
 8291SOL     OW25771   4.257   0.084   6.231
 8291SOL    HW125772   4.188   0.156   6.234
 8291SOL    HW225773   4.348   0.126   6.234
 8292SOL     OW25774   2.964   6.479   0.471
 8292SOL    HW125775   2.961   6.426   0.555
 8292SOL    HW225776   2.957   6.577   0.493
 8293SOL     OW25777   4.587   6.503   5.833
 8293SOL    HW125778   4.587   6.439   5.909
 8293SOL    HW225779   4.506   6.562   5.839
 8294SOL     OW25780   6.355   2.542   6.509
 8294SOL    HW125781   6.321   2.569   6.599
 8294SOL    HW225782   6.392   2.449   6.514
 8295SOL     OW25783   5.686   4.299   1.765
 8295SOL    HW125784   5.587   4.290   1.756
 8295SOL    HW225785   5.732   4.240   1.699
 8296SOL     OW25786   1.441   5.785   6.913
 8296SOL    HW125787   1.396   5.848   6.977
 8296SOL    HW225788   1.483   5.837   6.839
 8297SOL     OW25789   5.998   2.208   3.523
 8297SOL    HW125790   6.010   2.186   3.426
 8297SOL    HW225791   6.087   2.222   3.566
 8298SOL     OW25792   4.621   1.304   1.941
 8298SOL    HW125793   4.698   1.279   2.000
 8298SOL    HW225794   4.627   1.401   1.918
 8299SOL     OW25795   7.008   2.986   2.168
 8299SOL    HW125796   7.013   2.963   2.071
 8299SOL    HW225797   6.932   3.049   2.183
 8300SOL     OW25798   0.957   4.188   5.305
 8300SOL    HW125799   1.032   4.143   5.257
 8300SOL    HW225800   0.922   4.263   5.249
 8301SOL     OW25801   4.492   2.589   1.277
 8301SOL    HW125802   4.531   2.612   1.366
 8301SOL    HW225803   4.406   2.639   1.265
 8302SOL     OW25804   5.928   6.950   6.458
 8302SOL    HW125805   5.955   6.855   6.470
 8302SOL    HW225806   5.830   6.960   6.475
 8303SOL     OW25807   0.563   7.023   4.901
 8303SOL    HW125808   0.528   0.092   4.904
 8303SOL    HW225809   0.602   7.005   4.811
 8304SOL     OW25810   0.502   3.949   6.701
 8304SOL    HW125811   0.560   3.990   6.772
 8304SOL    HW225812   0.494   3.851   6.717
 8305SOL     OW25813   3.353   5.132   4.153
 8305SOL    HW125814   3.449   5.157   4.145
 8305SOL    HW225815   3.297   5.215   4.159
 8306SOL     OW25816   0.577   2.308   5.531
 8306SOL    HW125817   0.639   2.342   5.602
 8306SOL    HW225818   0.626   2.305   5.444
 8307SOL     OW25819   3.203   5.586   0.875
 8307SOL    HW125820   3.160   5.625   0.793
 8307SOL    HW225821   3.141   5.593   0.952
 8308SOL     OW25822   3.745   6.985   1.646
 8308SOL    HW125823   3.788   7.021   1.729
 8308SOL    HW225824   3.694   0.033   1.601
 8309SOL     OW25825   6.056   6.105   2.744
 8309SOL    HW125826   5.962   6.101   2.709
 8309SOL    HW225827   6.059   6.164   2.824
 8310SOL     OW25828   0.882   4.881   0.656
 8310SOL    HW125829   0.833   4.860   0.740
 8310SOL    HW225830   0.853   4.818   0.584
 8311SOL     OW25831   6.636   0.800   6.472
 8311SOL    HW125832   6.539   0.815   6.488
 8311SOL    HW225833   6.675   0.879   6.426
 8312SOL     OW25834   4.892   6.743   1.633
 8312SOL    HW125835   4.920   6.817   1.694
 8312SOL    HW225836   4.951   6.742   1.553
 8313SOL     OW25837   3.350   1.721   2.842
 8313SOL    HW125838   3.386   1.639   2.797
 8313SOL    HW225839   3.307   1.780   2.774
 8314SOL     OW25840   5.774   0.343   1.543
 8314SOL    HW125841   5.766   0.296   1.455
 8314SOL    HW225842   5.869   0.372   1.557
 8315SOL     OW25843   4.846   3.255   0.658
 8315SOL    HW125844   4.866   3.337   0.603
 8315SOL    HW225845   4.930   3.225   0.703
 8316SOL     OW25846   0.905   4.600   0.773
 8316SOL    HW125847   0.980   4.645   0.723
 8316SOL    HW225848   0.922   4.608   0.871
 8317SOL     OW25849   1.899   3.971   2.703
 8317SOL    HW125850   1.837   4.048   2.706
 8317SOL    HW225851   1.991   4.003   2.680
 8318SOL     OW25852   4.077   1.726   4.660
 8318SOL    HW125853   4.107   1.809   4.708
 8318SOL    HW225854   4.157   1.676   4.626
 8319SOL     OW25855   3.540   1.244   5.158
 8319SOL    HW125856   3.569   1.338   5.139
 8319SOL    HW225857   3.497   1.240   5.248
 8320SOL     OW25858   3.020   4.675   1.171
 8320SOL    HW125859   3.062   4.663   1.261
 8320SOL    HW225860   3.091   4.673   1.101
 8321SOL     OW25861   0.238   1.163   0.392
 8321SOL    HW125862   0.149   1.125   0.367
 8321SOL    HW225863   0.226   1.258   0.423
 8322SOL     OW25864   0.081   0.156   6.866
 8322SOL    HW125865   0.015   0.107   6.810
 8322SOL    HW225866   0.096   0.247   6.828
 8323SOL     OW25867   0.926   0.665   2.549
 8323SOL    HW125868   0.941   0.742   2.487
 8323SOL    HW225869   0.905   0.701   2.640
 8324SOL     OW25870   6.050   0.628   2.425
 8324SOL    HW125871   6.037   0.699   2.495
 8324SOL    HW225872   5.981   0.638   2.354
 8325SOL     OW25873   3.888   3.111   4.069
 8325SOL    HW125874   3.881   3.046   4.144
 8325SOL    HW225875   3.875   3.064   3.982
 8326SOL     OW25876   4.421   3.465   5.719
 8326SOL    HW125877   4.458   3.534   5.782
 8326SOL    HW225878   4.378   3.511   5.642
 8327SOL     OW25879   5.507   2.507   5.958
 8327SOL    HW125880   5.594   2.482   6.000
 8327SOL    HW225881   5.515   2.598   5.917
 8328SOL     OW25882   2.334   3.665   6.339
 8328SOL    HW125883   2.259   3.606   6.366
 8328SOL    HW225884   2.421   3.625   6.368
 8329SOL     OW25885   0.185   2.851   5.332
 8329SOL    HW125886   0.144   2.862   5.241
 8329SOL    HW225887   0.208   2.755   5.347
 8330SOL     OW25888   1.564   6.814   0.727
 8330SOL    HW125889   1.571   6.715   0.739
 8330SOL    HW225890   1.594   6.838   0.634
 8331SOL     OW25891   3.277   0.599   1.090
 8331SOL    HW125892   3.206   0.539   1.127
 8331SOL    HW225893   3.247   0.694   1.096
 8332SOL     OW25894   4.828   5.286   1.843
 8332SOL    HW125895   4.884   5.327   1.770
 8332SOL    HW225896   4.789   5.201   1.810
 8333SOL     OW25897   0.474   6.006   0.093
 8333SOL    HW125898   0.460   5.949   0.012
 8333SOL    HW225899   0.557   5.977   0.141
 8334SOL     OW25900   6.011   1.566   3.742
 8334SOL    HW125901   5.948   1.601   3.673
 8334SOL    HW225902   5.993   1.469   3.758
 8335SOL     OW25903   6.104   5.542   6.086
 8335SOL    HW125904   6.030   5.518   6.024
 8335SOL    HW225905   6.099   5.484   6.168
 8336SOL     OW25906   0.209   1.594   2.287
 8336SOL    HW125907   0.278   1.610   2.358
 8336SOL    HW225908   0.136   1.662   2.296
 8337SOL     OW25909   1.083   6.162   2.760
 8337SOL    HW125910   1.145   6.110   2.702
 8337SOL    HW225911   1.110   6.153   2.855
 8338SOL     OW25912   2.110   4.953   1.301
 8338SOL    HW125913   2.184   4.908   1.251
 8338SOL    HW225914   2.079   4.893   1.375
 8339SOL     OW25915   6.029   0.837   2.582
 8339SOL    HW125916   6.010   0.931   2.552
 8339SOL    HW225917   6.048   0.836   2.680
 8340SOL     OW25918   4.918   3.749   0.751
 8340SOL    HW125919   4.823   3.750   0.720
 8340SOL    HW225920   4.928   3.812   0.828
 8341SOL     OW25921   1.922   0.174   1.174
 8341SOL    HW125922   1.879   0.232   1.104
 8341SOL    HW225923   1.932   0.081   1.138
 8342SOL     OW25924   3.826   0.618   0.845
 8342SOL    HW125925   3.888   0.588   0.919
 8342SOL    HW225926   3.801   0.539   0.789
 8343SOL     OW25927   1.640   5.601   6.372
 8343SOL    HW125928   1.715   5.619   6.309
 8343SOL    HW225929   1.628   5.503   6.383
 8344SOL     OW25930   4.569   6.099   5.816
 8344SOL    HW125931   4.656   6.095   5.767
 8344SOL    HW225932   4.586   6.103   5.914
 8345SOL     OW25933   5.997   1.873   3.177
 8345SOL    HW125934   6.060   1.850   3.104
 8345SOL    HW225935   5.912   1.822   3.165
 8346SOL     OW25936   2.554   5.060   0.692
 8346SOL    HW125937   2.592   4.975   0.655
 8346SOL    HW225938   2.548   5.054   0.791
 8347SOL     OW25939   2.776   6.423   4.976
 8347SOL    HW125940   2.804   6.334   5.010
 8347SOL    HW225941   2.796   6.493   5.045
 8348SOL     OW25942   1.209   0.629   1.341
 8348SOL    HW125943   1.234   0.572   1.262
 8348SOL    HW225944   1.147   0.577   1.400
 8349SOL     OW25945   5.613   4.017   0.868
 8349SOL    HW125946   5.529   4.037   0.819
 8349SOL    HW225947   5.602   3.933   0.921
 8350SOL     OW25948   6.284   1.108   5.228
 8350SOL    HW125949   6.328   1.023   5.254
 8350SOL    HW225950   6.352   1.173   5.195
 8351SOL     OW25951   3.456   6.058   4.228
 8351SOL    HW125952   3.528   5.995   4.199
 8351SOL    HW225953   3.480   6.098   4.316
 8352SOL     OW25954   6.655   6.728   2.054
 8352SOL    HW125955   6.626   6.712   2.148
 8352SOL    HW225956   6.584   6.696   1.991
 8353SOL     OW25957   6.261   3.685   2.441
 8353SOL    HW125958   6.162   3.688   2.455
 8353SOL    HW225959   6.282   3.709   2.346
 8354SOL     OW25960   2.824   1.656   6.613
 8354SOL    HW125961   2.833   1.561   6.582
 8354SOL    HW225962   2.763   1.660   6.691
 8355SOL     OW25963   3.064   0.596   0.408
 8355SOL    HW125964   3.067   0.663   0.483
 8355SOL    HW225965   3.053   0.504   0.446
 8356SOL     OW25966   1.057   6.071   0.166
 8356SOL    HW125967   1.069   5.973   0.175
 8356SOL    HW225968   1.145   6.117   0.178
 8357SOL     OW25969   3.417   5.497   4.826
 8357SOL    HW125970   3.411   5.477   4.924
 8357SOL    HW225971   3.394   5.415   4.774
 8358SOL     OW25972   1.702   2.325   5.734
 8358SOL    HW125973   1.792   2.323   5.690
 8358SOL    HW225974   1.662   2.234   5.732
 8359SOL     OW25975   4.331   5.285   4.299
 8359SOL    HW125976   4.232   5.287   4.289
 8359SOL    HW225977   4.369   5.375   4.276
 8360SOL     OW25978   4.459   0.180   3.075
 8360SOL    HW125979   4.384   0.120   3.046
 8360SOL    HW225980   4.435   0.275   3.055
 8361SOL     OW25981   1.458   1.362   2.709
 8361SOL    HW125982   1.420   1.296   2.773
 8361SOL    HW225983   1.469   1.450   2.755
 8362SOL     OW25984   2.505   2.752   0.594
 8362SOL    HW125985   2.519   2.664   0.638
 8362SOL    HW225986   2.590   2.803   0.594
 8363SOL     OW25987   1.127   2.681   0.901
 8363SOL    HW125988   1.065   2.756   0.926
 8363SOL    HW225989   1.080   2.620   0.837
 8364SOL     OW25990   6.271   3.477   3.310
 8364SOL    HW125991   6.343   3.539   3.279
 8364SOL    HW225992   6.193   3.482   3.247
 8365SOL     OW25993   1.326   3.591   0.399
 8365SOL    HW125994   1.360   3.658   0.465
 8365SOL    HW225995   1.226   3.593   0.397
 8366SOL     OW25996   4.564   5.863   2.533
 8366SOL    HW125997   4.529   5.898   2.620
 8366SOL    HW225998   4.519   5.776   2.511
 8367SOL     OW25999   4.889   6.335   3.712
 8367SOL    HW126000   4.903   6.408   3.780
 8367SOL    HW226001   4.896   6.374   3.620
 8368SOL     OW26002   2.551   5.394   6.080
 8368SOL    HW126003   2.465   5.401   6.030
 8368SOL    HW226004   2.593   5.305   6.061
 8369SOL     OW26005   2.045   0.983   0.236
 8369SOL    HW126006   2.077   0.889   0.246
 8369SOL    HW226007   2.116   1.046   0.268
 8370SOL     OW26008   1.779   1.912   6.333
 8370SOL    HW126009   1.699   1.892   6.276
 8370SOL    HW226010   1.799   2.010   6.330
 8371SOL     OW26011   1.357   2.889   0.703
 8371SOL    HW126012   1.444   2.883   0.653
 8371SOL    HW226013   1.367   2.843   0.791
 8372SOL     OW26014   0.305   0.135   2.450
 8372SOL    HW126015   0.308   0.091   2.360
 8372SOL    HW226016   0.375   0.096   2.509
 8373SOL     OW26017   1.086   6.643   5.933
 8373SOL    HW126018   1.015   6.623   5.865
 8373SOL    HW226019   1.043   6.679   6.016
 8374SOL     OW26020   6.622   0.945   0.152
 8374SOL    HW126021   6.611   0.914   0.247
 8374SOL    HW226022   6.673   1.031   0.151
 8375SOL     OW26023   3.176   6.132   5.931
 8375SOL    HW126024   3.101   6.108   5.869
 8375SOL    HW226025   3.160   6.223   5.969
 8376SOL     OW26026   3.019   0.143   3.704
 8376SOL    HW126027   2.996   0.241   3.710
 8376SOL    HW226028   2.990   0.098   3.788
 8377SOL     OW26029   6.090   5.386   1.381
 8377SOL    HW126030   5.999   5.385   1.339
 8377SOL    HW226031   6.130   5.476   1.370
 8378SOL     OW26032   5.369   3.314   2.969
 8378SOL    HW126033   5.407   3.323   3.061
 8378SOL    HW226034   5.369   3.403   2.924
 8379SOL     OW26035   6.446   3.784   1.671
 8379SOL    HW126036   6.395   3.857   1.625
 8379SOL    HW226037   6.517   3.825   1.729
 8380SOL     OW26038   5.783   1.005   2.466
 8380SOL    HW126039   5.767   0.951   2.549
 8380SOL    HW226040   5.797   1.101   2.490
 8381SOL     OW26041   1.291   5.267   4.456
 8381SOL    HW126042   1.263   5.241   4.364
 8381SOL    HW226043   1.218   5.319   4.499
 8382SOL     OW26044   1.465   1.957   2.628
 8382SOL    HW126045   1.421   1.976   2.716
 8382SOL    HW226046   1.535   1.887   2.640
 8383SOL     OW26047   2.825   2.494   6.813
 8383SOL    HW126048   2.756   2.458   6.876
 8383SOL    HW226049   2.781   2.552   6.744
 8384SOL     OW26050   6.895   6.070   1.450
 8384SOL    HW126051   6.889   6.156   1.400
 8384SOL    HW226052   6.978   6.070   1.507
 8385SOL     OW26053   4.863   2.152   2.493
 8385SOL    HW126054   4.932   2.121   2.558
 8385SOL    HW226055   4.842   2.078   2.429
 8386SOL     OW26056   0.691   4.428   2.889
 8386SOL    HW126057   0.712   4.334   2.862
 8386SOL    HW226058   0.610   4.430   2.947
 8387SOL     OW26059   1.265   1.436   1.265
 8387SOL    HW126060   1.198   1.371   1.230
 8387SOL    HW226061   1.279   1.420   1.363
 8388SOL     OW26062   3.003   6.546   1.536
 8388SOL    HW126063   2.934   6.493   1.486
 8388SOL    HW226064   3.094   6.514   1.511
 8389SOL     OW26065   5.217   2.929   1.950
 8389SOL    HW126066   5.292   2.866   1.971
 8389SOL    HW226067   5.211   2.998   2.022
 8390SOL     OW26068   4.744   1.966   5.559
 8390SOL    HW126069   4.827   1.970   5.615
 8390SOL    HW226070   4.742   1.880   5.507
 8391SOL     OW26071   6.468   0.210   0.645
 8391SOL    HW126072   6.419   0.169   0.569
 8391SOL    HW226073   6.528   0.283   0.611
 8392SOL     OW26074   5.994   3.184   4.479
 8392SOL    HW126075   5.924   3.231   4.533
 8392SOL    HW226076   5.970   3.190   4.382
 8393SOL     OW26077   4.848   0.183   1.839
 8393SOL    HW126078   4.816   0.168   1.932
 8393SOL    HW226079   4.770   0.188   1.777
 8394SOL     OW26080   5.972   3.703   2.492
 8394SOL    HW126081   5.936   3.638   2.559
 8394SOL    HW226082   5.986   3.792   2.536
 8395SOL     OW26083   2.187   1.100   5.180
 8395SOL    HW126084   2.225   1.149   5.100
 8395SOL    HW226085   2.154   1.010   5.151
 8396SOL     OW26086   4.653   5.542   5.040
 8396SOL    HW126087   4.701   5.627   5.020
 8396SOL    HW226088   4.561   5.562   5.073
 8397SOL     OW26089   6.305   1.236   3.676
 8397SOL    HW126090   6.403   1.219   3.684
 8397SOL    HW226091   6.281   1.319   3.727
 8398SOL     OW26092   5.285   2.145   5.631
 8398SOL    HW126093   5.206   2.182   5.583
 8398SOL    HW226094   5.322   2.213   5.693
 8399SOL     OW26095   0.281   5.667   0.107
 8399SOL    HW126096   0.198   5.614   0.122
 8399SOL    HW226097   0.287   5.739   0.176
 8400SOL     OW26098   1.326   2.203   4.094
 8400SOL    HW126099   1.384   2.132   4.054
 8400SOL    HW226100   1.297   2.267   4.022
 8401SOL     OW26101   2.709   0.416   5.429
 8401SOL    HW126102   2.638   0.354   5.394
 8401SOL    HW226103   2.695   0.507   5.389
 8402SOL     OW26104   4.469   1.275   5.776
 8402SOL    HW126105   4.457   1.365   5.819
 8402SOL    HW226106   4.559   1.239   5.800
 8403SOL     OW26107   6.205   4.389   4.567
 8403SOL    HW126108   6.243   4.470   4.522
 8403SOL    HW226109   6.277   4.342   4.618
 8404SOL     OW26110   2.143   1.987   6.559
 8404SOL    HW126111   2.150   2.078   6.599
 8404SOL    HW226112   2.188   1.985   6.470
 8405SOL     OW26113   3.836   1.191   5.201
 8405SOL    HW126114   3.891   1.162   5.122
 8405SOL    HW226115   3.749   1.228   5.169
 8406SOL     OW26116   5.307   0.934   6.383
 8406SOL    HW126117   5.400   0.966   6.403
 8406SOL    HW226118   5.241   0.998   6.420
 8407SOL     OW26119   3.484   6.249   3.212
 8407SOL    HW126120   3.516   6.164   3.255
 8407SOL    HW226121   3.444   6.308   3.282
 8408SOL     OW26122   5.192   0.352   1.121
 8408SOL    HW126123   5.104   0.331   1.078
 8408SOL    HW226124   5.176   0.391   1.212
 8409SOL     OW26125   4.394   2.423   1.919
 8409SOL    HW126126   4.379   2.446   1.823
 8409SOL    HW226127   4.462   2.351   1.927
 8410SOL     OW26128   6.696   1.912   1.727
 8410SOL    HW126129   6.794   1.932   1.732
 8410SOL    HW226130   6.682   1.813   1.729
 8411SOL     OW26131   1.094   6.408   0.524
 8411SOL    HW126132   1.049   6.330   0.566
 8411SOL    HW226133   1.029   6.461   0.470
 8412SOL     OW26134   2.871   3.418   0.120
 8412SOL    HW126135   2.967   3.443   0.125
 8412SOL    HW226136   2.862   3.319   0.109
 8413SOL     OW26137   4.089   5.129   5.666
 8413SOL    HW126138   4.172   5.079   5.644
 8413SOL    HW226139   4.060   5.107   5.759
 8414SOL     OW26140   1.268   1.244   2.901
 8414SOL    HW126141   1.288   1.159   2.852
 8414SOL    HW226142   1.170   1.250   2.918
 8415SOL     OW26143   2.649   6.975   4.399
 8415SOL    HW126144   2.631   6.879   4.421
 8415SOL    HW226145   2.709   7.014   4.469
 8416SOL     OW26146   6.421   1.773   4.671
 8416SOL    HW126147   6.345   1.822   4.713
 8416SOL    HW226148   6.508   1.810   4.705
 8417SOL     OW26149   0.928   3.138   4.945
 8417SOL    HW126150   0.844   3.109   4.991
 8417SOL    HW226151   1.007   3.100   4.993
 8418SOL     OW26152   1.076   5.857   2.350
 8418SOL    HW126153   1.173   5.848   2.373
 8418SOL    HW226154   1.042   5.768   2.317
 8419SOL     OW26155   5.211   0.682   4.080
 8419SOL    HW126156   5.291   0.690   4.139
 8419SOL    HW226157   5.212   0.756   4.012
 8420SOL     OW26158   3.272   6.516   2.164
 8420SOL    HW126159   3.314   6.535   2.252
 8420SOL    HW226160   3.187   6.465   2.177
 8421SOL     OW26161   4.148   6.533   6.108
 8421SOL    HW126162   4.143   6.451   6.166
 8421SOL    HW226163   4.081   6.600   6.140
 8422SOL     OW26164   4.583   2.474   2.969
 8422SOL    HW126165   4.630   2.388   2.948
 8422SOL    HW226166   4.584   2.490   3.068
 8423SOL     OW26167   5.493   4.365   5.767
 8423SOL    HW126168   5.426   4.298   5.735
 8423SOL    HW226169   5.585   4.326   5.759
 8424SOL     OW26170   2.185   0.224   3.455
 8424SOL    HW126171   2.183   0.302   3.391
 8424SOL    HW226172   2.262   0.234   3.518
 8425SOL     OW26173   2.992   3.940   3.357
 8425SOL    HW126174   2.968   4.020   3.303
 8425SOL    HW226175   3.090   3.921   3.347
 8426SOL     OW26176   3.907   2.979   1.995
 8426SOL    HW126177   3.871   2.893   2.031
 8426SOL    HW226178   3.910   3.048   2.067
 8427SOL     OW26179   2.947   3.831   3.629
 8427SOL    HW126180   2.983   3.740   3.607
 8427SOL    HW226181   2.924   3.879   3.544
 8428SOL     OW26182   6.844   0.657   0.879
 8428SOL    HW126183   6.863   0.755   0.892
 8428SOL    HW226184   6.864   0.631   0.785
 8429SOL     OW26185   1.851   5.684   6.184
 8429SOL    HW126186   1.867   5.782   6.193
 8429SOL    HW226187   1.936   5.635   6.201
 8430SOL     OW26188   4.342   5.972   4.394
 8430SOL    HW126189   4.392   5.885   4.387
 8430SOL    HW226190   4.318   5.989   4.489
 8431SOL     OW26191   2.846   3.342   6.473
 8431SOL    HW126192   2.784   3.352   6.395
 8431SOL    HW226193   2.850   3.428   6.524
 8432SOL     OW26194   6.747   5.885   6.353
 8432SOL    HW126195   6.804   5.945   6.409
 8432SOL    HW226196   6.652   5.917   6.355
 8433SOL     OW26197   4.594   2.577   0.679
 8433SOL    HW126198   4.583   2.645   0.607
 8433SOL    HW226199   4.515   2.516   0.681
 8434SOL     OW26200   2.231   5.591   5.495
 8434SOL    HW126201   2.312   5.627   5.449
 8434SOL    HW226202   2.160   5.662   5.500
 8435SOL     OW26203   4.917   0.953   2.592
 8435SOL    HW126204   4.871   1.001   2.667
 8435SOL    HW226205   4.941   1.018   2.520
 8436SOL     OW26206   2.412   6.746   3.185
 8436SOL    HW126207   2.439   6.768   3.279
 8436SOL    HW226208   2.342   6.810   3.154
 8437SOL     OW26209   2.281   2.806   2.554
 8437SOL    HW126210   2.220   2.877   2.589
 8437SOL    HW226211   2.280   2.809   2.454
 8438SOL     OW26212   1.518   4.564   3.113
 8438SOL    HW126213   1.583   4.493   3.140
 8438SOL    HW226214   1.436   4.522   3.076
 8439SOL     OW26215   6.061   5.810   3.405
 8439SOL    HW126216   6.008   5.838   3.485
 8439SOL    HW226217   6.000   5.792   3.328
 8440SOL     OW26218   1.864   1.212   3.529
 8440SOL    HW126219   1.932   1.166   3.585
 8440SOL    HW226220   1.851   1.162   3.444
 8441SOL     OW26221   5.579   0.154   5.453
 8441SOL    HW126222   5.656   0.178   5.393
 8441SOL    HW226223   5.519   0.233   5.463
 8442SOL     OW26224   3.735   0.949   5.282
 8442SOL    HW126225   3.764   1.041   5.257
 8442SOL    HW226226   3.641   0.934   5.251
 8443SOL     OW26227   1.647   4.846   3.539
 8443SOL    HW126228   1.633   4.815   3.445
 8443SOL    HW226229   1.632   4.945   3.544
 8444SOL     OW26230   4.703   5.812   3.388
 8444SOL    HW126231   4.714   5.716   3.412
 8444SOL    HW226232   4.662   5.862   3.464
 8445SOL     OW26233   3.234   6.848   6.971
 8445SOL    HW126234   3.153   6.824   6.918
 8445SOL    HW226235   3.237   6.793   0.030
 8446SOL     OW26236   0.501   6.024   5.188
 8446SOL    HW126237   0.519   5.992   5.095
 8446SOL    HW226238   0.575   6.085   5.217
 8447SOL     OW26239   3.862   1.444   2.308
 8447SOL    HW126240   3.816   1.524   2.346
 8447SOL    HW226241   3.868   1.372   2.377
 8448SOL     OW26242   5.117   6.615   2.950
 8448SOL    HW126243   5.197   6.569   2.911
 8448SOL    HW226244   5.072   6.669   2.880
 8449SOL     OW26245   1.784   2.602   3.227
 8449SOL    HW126246   1.876   2.574   3.254
 8449SOL    HW226247   1.717   2.538   3.264
 8450SOL     OW26248   6.658   0.814   6.906
 8450SOL    HW126249   6.617   0.852   6.989
 8450SOL    HW226250   6.684   0.888   6.845
 8451SOL     OW26251   4.468   1.904   1.318
 8451SOL    HW126252   4.521   1.834   1.270
 8451SOL    HW226253   4.456   1.876   1.413
 8452SOL     OW26254   5.184   1.769   4.725
 8452SOL    HW126255   5.086   1.773   4.703
 8452SOL    HW226256   5.198   1.711   4.805
 8453SOL     OW26257   0.626   5.814   6.768
 8453SOL    HW126258   0.689   5.891   6.755
 8453SOL    HW226259   0.537   5.849   6.797
 8454SOL     OW26260   0.907   4.632   0.240
 8454SOL    HW126261   0.983   4.576   0.207
 8454SOL    HW226262   0.837   4.573   0.279
 8455SOL     OW26263   1.343   0.530   2.776
 8455SOL    HW126264   1.344   0.470   2.696
 8455SOL    HW226265   1.282   0.493   2.846
 8456SOL     OW26266   5.621   1.458   3.274
 8456SOL    HW126267   5.532   1.456   3.229
 8456SOL    HW226268   5.608   1.461   3.374
 8457SOL     OW26269   6.394   6.268   4.807
 8457SOL    HW126270   6.305   6.302   4.834
 8457SOL    HW226271   6.448   6.342   4.766
 8458SOL     OW26272   6.670   0.387   6.721
 8458SOL    HW126273   6.605   0.361   6.651
 8458SOL    HW226274   6.745   0.439   6.680
 8459SOL     OW26275   1.513   5.897   3.006
 8459SOL    HW126276   1.555   5.928   2.921
 8459SOL    HW226277   1.583   5.866   3.070
 8460SOL     OW26278   3.128   4.201   5.143
 8460SOL    HW126279   3.105   4.131   5.075
 8460SOL    HW226280   3.046   4.227   5.194
 8461SOL     OW26281   6.587   2.718   4.788
 8461SOL    HW126282   6.617   2.810   4.763
 8461SOL    HW226283   6.488   2.711   4.778
 8462SOL     OW26284   2.272   2.210   1.826
 8462SOL    HW126285   2.336   2.284   1.843
 8462SOL    HW226286   2.303   2.156   1.748
 8463SOL     OW26287   5.845   0.725   2.279
 8463SOL    HW126288   5.775   0.712   2.208
 8463SOL    HW226289   5.898   0.807   2.257
 8464SOL     OW26290   5.789   2.987   4.254
 8464SOL    HW126291   5.709   2.996   4.313
 8464SOL    HW226292   5.789   2.897   4.210
 8465SOL     OW26293   1.530   2.173   0.380
 8465SOL    HW126294   1.613   2.149   0.329
 8465SOL    HW226295   1.485   2.250   0.336
 8466SOL     OW26296   1.014   5.931   3.495
 8466SOL    HW126297   1.065   5.896   3.417
 8466SOL    HW226298   0.965   6.014   3.469
 8467SOL     OW26299   3.051   5.481   1.136
 8467SOL    HW126300   3.063   5.382   1.124
 8467SOL    HW226301   3.127   5.517   1.190
 8468SOL     OW26302   4.904   1.705   6.768
 8468SOL    HW126303   4.850   1.656   6.836
 8468SOL    HW226304   4.983   1.649   6.742
 8469SOL     OW26305   3.317   2.781   6.482
 8469SOL    HW126306   3.411   2.750   6.500
 8469SOL    HW226307   3.291   2.849   6.549
 8470SOL     OW26308   2.971   3.410   6.814
 8470SOL    HW126309   2.927   3.482   6.760
 8470SOL    HW226310   3.025   3.352   6.754
 8471SOL     OW26311   3.594   0.944   3.659
 8471SOL    HW126312   3.576   0.951   3.561
 8471SOL    HW226313   3.547   1.019   3.707
 8472SOL     OW26314   1.237   6.611   4.118
 8472SOL    HW126315   1.177   6.558   4.178
 8472SOL    HW226316   1.293   6.549   4.063
 8473SOL     OW26317   0.076   5.013   6.923
 8473SOL    HW126318   0.063   4.952   6.845
 8473SOL    HW226319   0.138   5.087   6.897
 8474SOL     OW26320   3.368   3.708   1.440
 8474SOL    HW126321   3.363   3.777   1.369
 8474SOL    HW226322   3.288   3.649   1.436
 8475SOL     OW26323   6.028   1.498   2.539
 8475SOL    HW126324   6.111   1.487   2.594
 8475SOL    HW226325   5.962   1.553   2.589
 8476SOL     OW26326   4.333   1.074   2.100
 8476SOL    HW126327   4.247   1.030   2.123
 8476SOL    HW226328   4.373   1.115   2.182
 8477SOL     OW26329   2.675   0.635   1.190
 8477SOL    HW126330   2.608   0.670   1.125
 8477SOL    HW226331   2.750   0.590   1.141
 8478SOL     OW26332   1.421   0.577   5.466
 8478SOL    HW126333   1.440   0.559   5.370
 8478SOL    HW226334   1.363   0.659   5.474
 8479SOL     OW26335   5.958   0.952   0.922
 8479SOL    HW126336   5.928   1.027   0.980
 8479SOL    HW226337   5.901   0.872   0.937
 8480SOL     OW26338   3.251   0.969   1.441
 8480SOL    HW126339   3.314   0.986   1.366
 8480SOL    HW226340   3.269   0.879   1.481
 8481SOL     OW26341   3.539   1.272   4.045
 8481SOL    HW126342   3.481   1.273   4.126
 8481SOL    HW226343   3.606   1.347   4.051
 8482SOL     OW26344   1.318   6.779   2.260
 8482SOL    HW126345   1.386   6.842   2.299
 8482SOL    HW226346   1.351   6.685   2.269
 8483SOL     OW26347   3.642   6.010   0.693
 8483SOL    HW126348   3.710   6.040   0.626
 8483SOL    HW226349   3.579   5.946   0.650
 8484SOL     OW26350   0.548   4.953   4.675
 8484SOL    HW126351   0.457   4.988   4.698
 8484SOL    HW226352   0.614   4.985   4.743
 8485SOL     OW26353   2.122   3.806   7.002
 8485SOL    HW126354   2.117   3.718   6.954
 8485SOL    HW226355   2.217   3.828   7.021
 8486SOL     OW26356   5.474   0.795   2.217
 8486SOL    HW126357   5.559   0.797   2.165
 8486SOL    HW226358   5.432   0.705   2.209
 8487SOL     OW26359   5.112   0.416   1.382
 8487SOL    HW126360   5.023   0.372   1.396
 8487SOL    HW226361   5.099   0.514   1.370
 8488SOL     OW26362   5.066   3.408   3.977
 8488SOL    HW126363   5.023   3.419   4.066
 8488SOL    HW226364   5.010   3.453   3.907
 8489SOL     OW26365   4.948   4.728   1.658
 8489SOL    HW126366   5.021   4.790   1.687
 8489SOL    HW226367   4.982   4.666   1.588
 8490SOL     OW26368   4.282   4.948   3.028
 8490SOL    HW126369   4.225   4.869   3.053
 8490SOL    HW226370   4.300   4.947   2.930
 8491SOL     OW26371   2.211   0.650   2.317
 8491SOL    HW126372   2.262   0.629   2.400
 8491SOL    HW226373   2.274   0.649   2.239
 8492SOL     OW26374   5.960   2.255   5.115
 8492SOL    HW126375   5.861   2.241   5.117
 8492SOL    HW226376   5.990   2.292   5.203
 8493SOL     OW26377   4.451   1.646   6.636
 8493SOL    HW126378   4.483   1.558   6.672
 8493SOL    HW226379   4.385   1.629   6.562
 8494SOL     OW26380   3.365   5.704   6.476
 8494SOL    HW126381   3.285   5.673   6.423
 8494SOL    HW226382   3.336   5.772   6.543
 8495SOL     OW26383   6.936   2.645   1.360
 8495SOL    HW126384   7.007   2.671   1.294
 8495SOL    HW226385   6.848   2.637   1.313
 8496SOL     OW26386   0.212   2.570   3.336
 8496SOL    HW126387   0.226   2.501   3.264
 8496SOL    HW226388   0.281   2.642   3.326
 8497SOL     OW26389   5.845   5.494   3.539
 8497SOL    HW126390   5.876   5.487   3.444
 8497SOL    HW226391   5.895   5.568   3.585
 8498SOL     OW26392   0.057   1.024   1.496
 8498SOL    HW126393   0.130   1.080   1.457
 8498SOL    HW226394   6.998   1.077   1.501
 8499SOL     OW26395   3.353   4.398   6.130
 8499SOL    HW126396   3.319   4.398   6.036
 8499SOL    HW226397   3.448   4.366   6.131
 8500SOL     OW26398   2.530   6.432   5.995
 8500SOL    HW126399   2.531   6.407   5.898
 8500SOL    HW226400   2.436   6.435   6.028
 8501SOL     OW26401   1.821   3.281   6.776
 8501SOL    HW126402   1.794   3.261   6.682
 8501SOL    HW226403   1.741   3.307   6.829
 8502SOL     OW26404   6.836   6.892   1.793
 8502SOL    HW126405   6.824   6.970   1.854
 8502SOL    HW226406   6.911   6.835   1.825
 8503SOL     OW26407   2.639   5.051   3.169
 8503SOL    HW126408   2.692   4.970   3.144
 8503SOL    HW226409   2.688   5.103   3.239
 8504SOL     OW26410   1.270   5.176   3.523
 8504SOL    HW126411   1.178   5.146   3.546
 8504SOL    HW226412   1.266   5.241   3.447
 8505SOL     OW26413   5.103   3.797   3.419
 8505SOL    HW126414   5.029   3.822   3.357
 8505SOL    HW226415   5.154   3.720   3.380
 8506SOL     OW26416   1.612   6.861   0.468
 8506SOL    HW126417   1.512   6.855   0.459
 8506SOL    HW226418   1.654   6.851   0.378
 8507SOL     OW26419   1.580   0.843   5.907
 8507SOL    HW126420   1.484   0.859   5.927
 8507SOL    HW226421   1.607   0.754   5.943
 8508SOL     OW26422   0.077   2.340   5.368
 8508SOL    HW126423   0.059   2.438   5.365
 8508SOL    HW226424   0.093   2.311   5.463
 8509SOL     OW26425   6.252   1.712   4.254
 8509SOL    HW126426   6.185   1.758   4.196
 8509SOL    HW226427   6.300   1.780   4.310
 8510SOL     OW26428   5.618   5.964   2.648
 8510SOL    HW126429   5.618   5.904   2.569
 8510SOL    HW226430   5.641   5.912   2.730
 8511SOL     OW26431   6.758   4.822   1.847
 8511SOL    HW126432   6.824   4.753   1.875
 8511SOL    HW226433   6.698   4.844   1.924
 8512SOL     OW26434   5.084   2.086   0.096
 8512SOL    HW126435   5.020   2.009   0.092
 8512SOL    HW226436   5.176   2.051   0.113
 8513SOL     OW26437   6.500   4.579   1.184
 8513SOL    HW126438   6.458   4.530   1.107
 8513SOL    HW226439   6.434   4.641   1.225
 8514SOL     OW26440   2.839   1.468   5.120
 8514SOL    HW126441   2.921   1.458   5.062
 8514SOL    HW226442   2.773   1.526   5.074
 8515SOL     OW26443   0.647   1.039   0.707
 8515SOL    HW126444   0.635   1.119   0.766
 8515SOL    HW226445   0.705   0.972   0.753
 8516SOL     OW26446   5.919   2.803   2.303
 8516SOL    HW126447   5.965   2.723   2.263
 8516SOL    HW226448   5.821   2.785   2.309
 8517SOL     OW26449   1.579   2.730   5.360
 8517SOL    HW126450   1.667   2.770   5.335
 8517SOL    HW226451   1.571   2.639   5.318
 8518SOL     OW26452   5.437   4.773   6.715
 8518SOL    HW126453   5.393   4.770   6.625
 8518SOL    HW226454   5.439   4.867   6.748
 8519SOL     OW26455   1.439   4.075   0.935
 8519SOL    HW126456   1.480   4.012   0.999
 8519SOL    HW226457   1.469   4.054   0.842
 8520SOL     OW26458   3.907   3.853   4.514
 8520SOL    HW126459   3.966   3.782   4.477
 8520SOL    HW226460   3.915   3.936   4.459
 8521SOL     OW26461   1.524   6.019   5.395
 8521SOL    HW126462   1.455   5.971   5.449
 8521SOL    HW226463   1.602   6.042   5.453
 8522SOL     OW26464   1.457   6.993   0.920
 8522SOL    HW126465   1.362   7.011   0.946
 8522SOL    HW226466   1.461   6.914   0.860
 8523SOL     OW26467   2.687   0.222   6.431
 8523SOL    HW126468   2.768   0.279   6.442
 8523SOL    HW226469   2.615   0.255   6.492
 8524SOL     OW26470   1.529   5.249   4.579
 8524SOL    HW126471   1.436   5.255   4.542
 8524SOL    HW226472   1.577   5.173   4.536
 8525SOL     OW26473   6.705   4.752   1.423
 8525SOL    HW126474   6.756   4.815   1.482
 8525SOL    HW226475   6.634   4.803   1.373
 8526SOL     OW26476   2.506   6.945   0.996
 8526SOL    HW126477   2.437   6.913   0.932
 8526SOL    HW226478   2.596   6.913   0.968
 8527SOL     OW26479   3.581   0.038   6.580
 8527SOL    HW126480   3.482   0.026   6.582
 8527SOL    HW226481   3.609   0.094   6.658
 8528SOL     OW26482   4.789   2.261   0.926
 8528SOL    HW126483   4.787   2.359   0.946
 8528SOL    HW226484   4.699   2.222   0.943
 8529SOL     OW26485   1.283   6.045   6.779
 8529SOL    HW126486   1.343   5.983   6.729
 8529SOL    HW226487   1.336   6.123   6.812
 8530SOL     OW26488   2.882   3.592   4.064
 8530SOL    HW126489   2.903   3.615   4.159
 8530SOL    HW226490   2.822   3.663   4.025
 8531SOL     OW26491   6.957   5.786   3.756
 8531SOL    HW126492   0.020   5.788   3.803
 8531SOL    HW226493   6.971   5.763   3.660
 8532SOL     OW26494   3.709   6.207   4.246
 8532SOL    HW126495   3.648   6.221   4.324
 8532SOL    HW226496   3.679   6.265   4.170
 8533SOL     OW26497   1.133   6.103   6.537
 8533SOL    HW126498   1.133   6.010   6.500
 8533SOL    HW226499   1.185   6.106   6.622
 8534SOL     OW26500   4.204   2.309   3.956
 8534SOL    HW126501   4.248   2.243   4.017
 8534SOL    HW226502   4.130   2.265   3.906
 8535SOL     OW26503   5.818   0.836   3.770
 8535SOL    HW126504   5.877   0.877   3.701
 8535SOL    HW226505   5.855   0.853   3.861
 8536SOL     OW26506   0.294   0.821   4.363
 8536SOL    HW126507   0.360   0.835   4.289
 8536SOL    HW226508   0.218   0.766   4.330
 8537SOL     OW26509   6.887   1.343   3.269
 8537SOL    HW126510   6.810   1.279   3.262
 8537SOL    HW226511   6.967   1.295   3.306
 8538SOL     OW26512   1.184   2.337   0.261
 8538SOL    HW126513   1.201   2.239   0.271
 8538SOL    HW226514   1.264   2.389   0.291
 8539SOL     OW26515   6.419   2.722   2.919
 8539SOL    HW126516   6.437   2.741   2.823
 8539SOL    HW226517   6.321   2.725   2.937
 8540SOL     OW26518   4.406   6.841   6.859
 8540SOL    HW126519   4.335   6.825   6.790
 8540SOL    HW226520   4.494   6.806   6.826
 8541SOL     OW26521   2.131   2.044   3.783
 8541SOL    HW126522   2.090   2.089   3.703
 8541SOL    HW226523   2.196   2.106   3.826
 8542SOL     OW26524   4.247   3.881   6.320
 8542SOL    HW126525   4.202   3.882   6.231
 8542SOL    HW226526   4.255   3.974   6.354
 8543SOL     OW26527   2.084   2.922   6.971
 8543SOL    HW126528   2.150   2.884   0.011
 8543SOL    HW226529   2.133   2.962   6.894
 8544SOL     OW26530   5.414   2.736   4.025
 8544SOL    HW126531   5.499   2.769   3.985
 8544SOL    HW226532   5.363   2.683   3.956
 8545SOL     OW26533   4.787   6.106   5.104
 8545SOL    HW126534   4.812   6.176   5.038
 8545SOL    HW226535   4.820   6.017   5.073
 8546SOL     OW26536   5.029   1.598   4.037
 8546SOL    HW126537   5.126   1.622   4.026
 8546SOL    HW226538   5.005   1.596   4.134
 8547SOL     OW26539   0.998   4.454   3.537
 8547SOL    HW126540   0.937   4.403   3.599
 8547SOL    HW226541   0.968   4.440   3.443
 8548SOL     OW26542   5.374   1.008   4.761
 8548SOL    HW126543   5.350   0.984   4.667
 8548SOL    HW226544   5.295   0.997   4.820
 8549SOL     OW26545   6.342   3.341   4.167
 8549SOL    HW126546   6.314   3.324   4.261
 8549SOL    HW226547   6.382   3.432   4.160
 8550SOL     OW26548   1.390   5.045   6.511
 8550SOL    HW126549   1.487   5.071   6.509
 8550SOL    HW226550   1.354   5.041   6.418
 8551SOL     OW26551   3.597   3.940   6.758
 8551SOL    HW126552   3.665   3.891   6.814
 8551SOL    HW226553   3.513   3.950   6.811
 8552SOL     OW26554   2.889   5.999   3.542
 8552SOL    HW126555   2.922   5.997   3.636
 8552SOL    HW226556   2.869   5.906   3.511
 8553SOL     OW26557   4.842   6.622   0.645
 8553SOL    HW126558   4.839   6.680   0.727
 8553SOL    HW226559   4.936   6.617   0.612
 8554SOL     OW26560   0.040   4.305   6.965
 8554SOL    HW126561   0.041   4.219   7.017
 8554SOL    HW226562   0.104   4.299   6.888
 8555SOL     OW26563   1.048   0.513   4.165
 8555SOL    HW126564   1.015   0.423   4.194
 8555SOL    HW226565   1.133   0.503   4.114
 8556SOL     OW26566   6.653   0.328   3.941
 8556SOL    HW126567   6.613   0.411   3.979
 8556SOL    HW226568   6.615   0.248   3.988
 8557SOL     OW26569   7.010   6.786   1.173
 8557SOL    HW126570   0.072   6.739   1.190
 8557SOL    HW226571   6.989   6.783   1.075
 8558SOL     OW26572   1.369   5.030   2.061
 8558SOL    HW126573   1.303   4.956   2.047
 8558SOL    HW226574   1.355   5.101   1.992
 8559SOL     OW26575   1.241   0.115   2.026
 8559SOL    HW126576   1.151   0.117   2.070
 8559SOL    HW226577   1.256   0.200   1.977
 8560SOL     OW26578   6.361   1.807   0.225
 8560SOL    HW126579   6.269   1.784   0.195
 8560SOL    HW226580   6.364   1.814   0.324
 8561SOL     OW26581   4.867   6.524   3.503
 8561SOL    HW126582   4.786   6.573   3.537
 8561SOL    HW226583   4.845   6.479   3.416
 8562SOL     OW26584   3.582   6.867   4.079
 8562SOL    HW126585   3.569   6.917   3.994
 8562SOL    HW226586   3.494   6.832   4.111
 8563SOL     OW26587   2.676   2.797   0.110
 8563SOL    HW126588   2.577   2.806   0.116
 8563SOL    HW226589   2.703   2.707   0.145
 8564SOL     OW26590   1.292   6.923   3.446
 8564SOL    HW126591   1.298   6.924   3.546
 8564SOL    HW226592   1.348   6.997   3.409
 8565SOL     OW26593   3.821   6.784   1.028
 8565SOL    HW126594   3.881   6.808   1.104
 8565SOL    HW226595   3.805   6.685   1.028
 8566SOL     OW26596   1.204   2.017   3.171
 8566SOL    HW126597   1.140   2.086   3.205
 8566SOL    HW226598   1.298   2.052   3.178
 8567SOL     OW26599   5.086   1.453   1.068
 8567SOL    HW126600   5.035   1.465   1.153
 8567SOL    HW226601   5.184   1.449   1.088
 8568SOL     OW26602   5.634   1.566   0.414
 8568SOL    HW126603   5.541   1.530   0.422
 8568SOL    HW226604   5.682   1.551   0.500
 8569SOL     OW26605   4.654   1.361   4.286
 8569SOL    HW126606   4.627   1.434   4.348
 8569SOL    HW226607   4.695   1.400   4.204
 8570SOL     OW26608   0.476   4.306   6.831
 8570SOL    HW126609   0.557   4.260   6.794
 8570SOL    HW226610   0.488   4.405   6.826
 8571SOL     OW26611   6.986   4.190   4.627
 8571SOL    HW126612   6.904   4.246   4.617
 8571SOL    HW226613   0.041   4.244   4.604
 8572SOL     OW26614   2.026   4.965   5.372
 8572SOL    HW126615   1.929   4.951   5.355
 8572SOL    HW226616   2.048   5.063   5.364
 8573SOL     OW26617   4.217   5.775   5.930
 8573SOL    HW126618   4.175   5.696   5.973
 8573SOL    HW226619   4.169   5.859   5.958
 8574SOL     OW26620   0.404   3.773   5.416
 8574SOL    HW126621   0.461   3.753   5.496
 8574SOL    HW226622   0.363   3.689   5.382
 8575SOL     OW26623   3.343   2.657   0.687
 8575SOL    HW126624   3.432   2.694   0.660
 8575SOL    HW226625   3.347   2.629   0.783
 8576SOL     OW26626   1.477   0.308   1.671
 8576SOL    HW126627   1.431   0.289   1.584
 8576SOL    HW226628   1.575   0.289   1.662
 8577SOL     OW26629   6.395   6.188   3.358
 8577SOL    HW126630   6.474   6.249   3.368
 8577SOL    HW226631   6.426   6.093   3.367
 8578SOL     OW26632   4.518   7.008   3.734
 8578SOL    HW126633   4.496   6.933   3.671
 8578SOL    HW226634   4.478   0.068   3.700
 8579SOL     OW26635   1.016   4.904   3.459
 8579SOL    HW126636   1.042   4.998   3.436
 8579SOL    HW226637   1.093   4.859   3.503
 8580SOL     OW26638   1.664   5.932   1.179
 8580SOL    HW126639   1.712   6.010   1.217
 8580SOL    HW226640   1.566   5.940   1.200
 8581SOL     OW26641   3.099   1.728   0.725
 8581SOL    HW126642   3.158   1.802   0.694
 8581SOL    HW226643   3.045   1.693   0.648
 8582SOL     OW26644   4.394   4.506   1.848
 8582SOL    HW126645   4.437   4.429   1.896
 8582SOL    HW226646   4.350   4.473   1.765
 8583SOL     OW26647   6.180   6.839   5.745
 8583SOL    HW126648   6.119   6.917   5.736
 8583SOL    HW226649   6.204   6.825   5.841
 8584SOL     OW26650   6.509   5.366   0.426
 8584SOL    HW126651   6.546   5.296   0.487
 8584SOL    HW226652   6.429   5.409   0.470
 8585SOL     OW26653   7.010   0.749   0.226
 8585SOL    HW126654   0.053   0.727   0.156
 8585SOL    HW226655   7.022   0.687   0.304
 8586SOL     OW26656   3.872   5.591   2.850
 8586SOL    HW126657   3.873   5.530   2.929
 8586SOL    HW226658   3.965   5.607   2.818
 8587SOL     OW26659   0.389   1.928   2.386
 8587SOL    HW126660   0.304   1.907   2.435
 8587SOL    HW226661   0.425   2.016   2.418
 8588SOL     OW26662   4.474   2.463   6.873
 8588SOL    HW126663   4.500   2.412   6.955
 8588SOL    HW226664   4.552   2.467   6.810
 8589SOL     OW26665   3.879   1.720   4.006
 8589SOL    HW126666   3.896   1.689   3.913
 8589SOL    HW226667   3.813   1.796   4.004
 8590SOL     OW26668   6.022   5.325   5.400
 8590SOL    HW126669   5.979   5.353   5.486
 8590SOL    HW226670   6.076   5.243   5.416
 8591SOL     OW26671   0.929   3.786   6.618
 8591SOL    HW126672   0.872   3.727   6.676
 8591SOL    HW226673   0.870   3.846   6.564
 8592SOL     OW26674   6.431   4.321   0.847
 8592SOL    HW126675   6.378   4.288   0.925
 8592SOL    HW226676   6.433   4.421   0.847
 8593SOL     OW26677   1.961   0.725   2.420
 8593SOL    HW126678   1.935   0.714   2.515
 8593SOL    HW226679   2.060   0.710   2.410
 8594SOL     OW26680   2.954   3.700   4.317
 8594SOL    HW126681   2.909   3.689   4.406
 8594SOL    HW226682   2.998   3.790   4.313
 8595SOL     OW26683   1.838   2.165   2.642
 8595SOL    HW126684   1.863   2.153   2.739
 8595SOL    HW226685   1.782   2.247   2.632
 8596SOL     OW26686   6.103   5.465   1.831
 8596SOL    HW126687   6.030   5.491   1.894
 8596SOL    HW226688   6.084   5.502   1.741
 8597SOL     OW26689   2.736   1.435   0.597
 8597SOL    HW126690   2.779   1.427   0.507
 8597SOL    HW226691   2.700   1.527   0.609
 8598SOL     OW26692   5.977   4.602   1.022
 8598SOL    HW126693   5.942   4.655   1.099
 8598SOL    HW226694   6.060   4.646   0.986
 8599SOL     OW26695   1.855   3.245   3.139
 8599SOL    HW126696   1.768   3.270   3.097
 8599SOL    HW226697   1.929   3.296   3.094
 8600SOL     OW26698   6.724   5.261   6.740
 8600SOL    HW126699   6.790   5.305   6.800
 8600SOL    HW226700   6.640   5.243   6.791
 8601SOL     OW26701   0.547   0.089   4.256
 8601SOL    HW126702   0.621   0.034   4.219
 8601SOL    HW226703   0.466   0.079   4.198
 8602SOL     OW26704   2.448   5.761   2.102
 8602SOL    HW126705   2.365   5.762   2.158
 8602SOL    HW226706   2.424   5.747   2.006
 8603SOL     OW26707   4.129   3.219   0.257
 8603SOL    HW126708   4.226   3.198   0.266
 8603SOL    HW226709   4.099   3.275   0.334
 8604SOL     OW26710   5.327   3.167   3.714
 8604SOL    HW126711   5.385   3.087   3.727
 8604SOL    HW226712   5.301   3.204   3.803
 8605SOL     OW26713   2.552   6.237   3.276
 8605SOL    HW126714   2.535   6.170   3.204
 8605SOL    HW226715   2.543   6.193   3.366
 8606SOL     OW26716   3.905   4.610   5.604
 8606SOL    HW126717   3.865   4.671   5.672
 8606SOL    HW226718   3.917   4.519   5.643
 8607SOL     OW26719   4.392   5.455   1.991
 8607SOL    HW126720   4.344   5.540   1.968
 8607SOL    HW226721   4.376   5.433   2.088
 8608SOL     OW26722   4.361   5.396   2.277
 8608SOL    HW126723   4.423   5.324   2.247
 8608SOL    HW226724   4.374   5.413   2.375
 8609SOL     OW26725   3.322   0.824   5.436
 8609SOL    HW126726   3.283   0.883   5.506
 8609SOL    HW226727   3.323   0.871   5.348
 8610SOL     OW26728   1.319   6.679   3.711
 8610SOL    HW126729   1.229   6.722   3.709
 8610SOL    HW226730   1.321   6.603   3.647
 8611SOL     OW26731   1.796   1.830   4.659
 8611SOL    HW126732   1.818   1.927   4.671
 8611SOL    HW226733   1.698   1.820   4.640
 8612SOL     OW26734   4.016   2.703   5.934
 8612SOL    HW126735   3.998   2.621   5.880
 8612SOL    HW226736   4.067   2.678   6.016
 8613SOL     OW26737   1.966   1.711   1.157
 8613SOL    HW126738   2.051   1.762   1.169
 8613SOL    HW226739   1.888   1.772   1.174
 8614SOL     OW26740   0.907   2.211   3.113
 8614SOL    HW126741   0.985   2.239   3.169
 8614SOL    HW226742   0.856   2.292   3.084
 8615SOL     OW26743   4.400   2.110   5.120
 8615SOL    HW126744   4.416   2.079   5.026
 8615SOL    HW226745   4.408   2.209   5.124
 8616SOL     OW26746   1.181   4.673   0.752
 8616SOL    HW126747   1.210   4.696   0.845
 8616SOL    HW226748   1.255   4.691   0.688
 8617SOL     OW26749   6.010   2.738   0.870
 8617SOL    HW126750   6.060   2.652   0.869
 8617SOL    HW226751   5.975   2.755   0.962
 8618SOL     OW26752   4.640   6.923   3.037
 8618SOL    HW126753   4.563   6.899   3.096
 8618SOL    HW226754   4.726   6.911   3.086
 8619SOL     OW26755   4.218   5.101   6.864
 8619SOL    HW126756   4.203   5.081   6.768
 8619SOL    HW226757   4.227   5.016   6.915
 8620SOL     OW26758   6.295   6.495   2.674
 8620SOL    HW126759   6.200   6.469   2.693
 8620SOL    HW226760   6.296   6.567   2.605
 8621SOL     OW26761   5.996   1.226   3.948
 8621SOL    HW126762   5.971   1.178   4.032
 8621SOL    HW226763   6.055   1.169   3.892
 8622SOL     OW26764   4.681   4.969   0.569
 8622SOL    HW126765   4.714   4.917   0.490
 8622SOL    HW226766   4.759   5.008   0.617
 8623SOL     OW26767   0.422   3.630   3.126
 8623SOL    HW126768   0.349   3.691   3.156
 8623SOL    HW226769   0.440   3.645   3.029
 8624SOL     OW26770   0.513   4.421   3.113
 8624SOL    HW126771   0.414   4.433   3.124
 8624SOL    HW226772   0.539   4.330   3.143
 8625SOL     OW26773   3.925   0.851   4.735
 8625SOL    HW126774   3.883   0.783   4.795
 8625SOL    HW226775   4.006   0.889   4.778
 8626SOL     OW26776   3.250   3.782   3.827
 8626SOL    HW126777   3.205   3.697   3.855
 8626SOL    HW226778   3.348   3.765   3.814
 8627SOL     OW26779   1.030   0.971   0.775
 8627SOL    HW126780   0.934   0.997   0.791
 8627SOL    HW226781   1.082   0.984   0.859
 8628SOL     OW26782   5.388   0.752   6.750
 8628SOL    HW126783   5.415   0.724   6.658
 8628SOL    HW226784   5.378   0.671   6.808
 8629SOL     OW26785   1.213   4.282   4.283
 8629SOL    HW126786   1.230   4.360   4.223
 8629SOL    HW226787   1.290   4.271   4.345
 8630SOL     OW26788   5.846   4.469   3.873
 8630SOL    HW126789   5.779   4.416   3.821
 8630SOL    HW226790   5.885   4.411   3.945
 8631SOL     OW26791   3.732   5.910   4.801
 8631SOL    HW126792   3.751   5.815   4.776
 8631SOL    HW226793   3.812   5.948   4.847
 8632SOL     OW26794   3.913   0.238   3.104
 8632SOL    HW126795   3.961   0.209   3.021
 8632SOL    HW226796   3.831   0.290   3.079
 8633SOL     OW26797   5.562   1.464   4.379
 8633SOL    HW126798   5.494   1.523   4.334
 8633SOL    HW226799   5.527   1.371   4.383
 8634SOL     OW26800   6.865   4.944   2.136
 8634SOL    HW126801   6.768   4.926   2.123
 8634SOL    HW226802   6.880   4.982   2.227
 8635SOL     OW26803   6.003   3.299   5.671
 8635SOL    HW126804   6.070   3.299   5.746
 8635SOL    HW226805   5.919   3.254   5.702
 8636SOL     OW26806   0.027   5.483   0.645
 8636SOL    HW126807   0.076   5.434   0.716
 8636SOL    HW226808   7.002   5.561   0.685
 8637SOL     OW26809   1.828   0.807   0.762
 8637SOL    HW126810   1.809   0.845   0.671
 8637SOL    HW226811   1.748   0.823   0.821
 8638SOL     OW26812   2.990   5.173   0.505
 8638SOL    HW126813   2.974   5.223   0.420
 8638SOL    HW226814   2.930   5.208   0.576
 8639SOL     OW26815   6.239   3.913   1.959
 8639SOL    HW126816   6.165   3.966   1.999
 8639SOL    HW226817   6.327   3.951   1.987
 8640SOL     OW26818   4.898   5.259   1.047
 8640SOL    HW126819   4.934   5.321   1.117
 8640SOL    HW226820   4.950   5.269   0.963
 8641SOL     OW26821   6.826   4.124   3.052
 8641SOL    HW126822   6.736   4.167   3.050
 8641SOL    HW226823   6.893   4.189   3.087
 8642SOL     OW26824   4.525   0.951   1.548
 8642SOL    HW126825   4.458   0.979   1.616
 8642SOL    HW226826   4.500   0.860   1.512
 8643SOL     OW26827   4.732   0.415   6.058
 8643SOL    HW126828   4.762   0.409   6.154
 8643SOL    HW226829   4.796   0.472   6.007
 8644SOL     OW26830   5.910   2.298   4.630
 8644SOL    HW126831   5.947   2.321   4.540
 8644SOL    HW226832   5.822   2.343   4.643
 8645SOL     OW26833   6.208   4.389   1.222
 8645SOL    HW126834   6.231   4.362   1.315
 8645SOL    HW226835   6.222   4.311   1.160
 8646SOL     OW26836   5.589   0.412   0.257
 8646SOL    HW126837   5.584   0.508   0.284
 8646SOL    HW226838   5.497   0.378   0.238
 8647SOL     OW26839   3.701   5.095   0.116
 8647SOL    HW126840   3.650   5.018   0.154
 8647SOL    HW226841   3.720   5.078   0.019
 8648SOL     OW26842   5.482   1.347   4.039
 8648SOL    HW126843   5.394   1.312   4.069
 8648SOL    HW226844   5.545   1.351   4.116
 8649SOL     OW26845   6.265   3.873   5.805
 8649SOL    HW126846   6.243   3.874   5.707
 8649SOL    HW226847   6.282   3.779   5.834
 8650SOL     OW26848   2.134   5.200   3.411
 8650SOL    HW126849   2.201   5.131   3.436
 8650SOL    HW226850   2.179   5.289   3.404
 8651SOL     OW26851   3.665   1.692   6.806
 8651SOL    HW126852   3.657   1.780   6.760
 8651SOL    HW226853   3.743   1.694   6.869
 8652SOL     OW26854   1.755   3.920   3.516
 8652SOL    HW126855   1.734   3.833   3.471
 8652SOL    HW226856   1.717   3.921   3.608
 8653SOL     OW26857   0.196   3.029   7.022
 8653SOL    HW126858   0.169   3.030   0.093
 8653SOL    HW226859   0.136   3.089   6.970
 8654SOL     OW26860   0.385   0.046   2.953
 8654SOL    HW126861   0.349   6.984   2.921
 8654SOL    HW226862   0.330   0.079   3.030
 8655SOL     OW26863   6.444   6.004   4.804
 8655SOL    HW126864   6.447   5.967   4.897
 8655SOL    HW226865   6.439   6.104   4.808
 8656SOL     OW26866   6.590   0.862   1.063
 8656SOL    HW126867   6.670   0.814   1.100
 8656SOL    HW226868   6.607   0.961   1.063
 8657SOL     OW26869   4.372   4.400   6.651
 8657SOL    HW126870   4.451   4.374   6.595
 8657SOL    HW226871   4.307   4.452   6.596
 8658SOL     OW26872   5.998   5.466   6.985
 8658SOL    HW126873   5.929   5.402   7.020
 8658SOL    HW226874   5.972   5.495   6.892
 8659SOL     OW26875   5.195   0.453   3.707
 8659SOL    HW126876   5.194   0.437   3.806
 8659SOL    HW226877   5.231   0.371   3.662
 8660SOL     OW26878   5.557   3.721   0.665
 8660SOL    HW126879   5.458   3.734   0.663
 8660SOL    HW226880   5.583   3.674   0.750
 8661SOL     OW26881   6.955   3.707   1.929
 8661SOL    HW126882   6.991   3.800   1.938
 8661SOL    HW226883   7.017   3.643   1.975
 8662SOL     OW26884   6.606   6.221   0.992
 8662SOL    HW126885   6.678   6.217   0.922
 8662SOL    HW226886   6.627   6.295   1.057
 8663SOL     OW26887   2.290   5.701   1.150
 8663SOL    HW126888   2.192   5.719   1.143
 8663SOL    HW226889   2.340   5.764   1.090
 8664SOL     OW26890   3.860   5.936   0.031
 8664SOL    HW126891   3.930   6.006   0.014
 8664SOL    HW226892   3.877   5.857   6.998
 8665SOL     OW26893   4.621   5.437   5.362
 8665SOL    HW126894   4.532   5.475   5.338
 8665SOL    HW226895   4.652   5.375   5.289
 8666SOL     OW26896   5.114   2.439   5.327
 8666SOL    HW126897   5.113   2.438   5.427
 8666SOL    HW226898   5.158   2.357   5.292
 8667SOL     OW26899   5.116   1.345   3.873
 8667SOL    HW126900   5.049   1.271   3.878
 8667SOL    HW226901   5.111   1.401   3.955
 8668SOL     OW26902   4.842   1.963   4.341
 8668SOL    HW126903   4.844   1.985   4.243
 8668SOL    HW226904   4.924   1.998   4.385
 8669SOL     OW26905   4.197   0.335   6.117
 8669SOL    HW126906   4.110   0.357   6.073
 8669SOL    HW226907   4.229   0.414   6.169
 8670SOL     OW26908   3.477   5.763   4.346
 8670SOL    HW126909   3.431   5.834   4.399
 8670SOL    HW226910   3.576   5.770   4.359
 8671SOL     OW26911   6.327   6.625   4.085
 8671SOL    HW126912   6.421   6.654   4.071
 8671SOL    HW226913   6.314   6.532   4.052
 8672SOL     OW26914   3.429   5.088   4.478
 8672SOL    HW126915   3.516   5.065   4.434
 8672SOL    HW226916   3.359   5.023   4.450
 8673SOL     OW26917   6.441   2.205   0.879
 8673SOL    HW126918   6.540   2.200   0.893
 8673SOL    HW226919   6.402   2.113   0.882
 8674SOL     OW26920   6.713   0.250   2.730
 8674SOL    HW126921   6.765   0.334   2.720
 8674SOL    HW226922   6.703   0.228   2.827
 8675SOL     OW26923   2.227   0.858   3.507
 8675SOL    HW126924   2.142   0.858   3.455
 8675SOL    HW226925   2.216   0.803   3.590
 8676SOL     OW26926   4.326   0.089   2.701
 8676SOL    HW126927   4.268   0.008   2.711
 8676SOL    HW226928   4.422   0.063   2.707
 8677SOL     OW26929   2.681   4.152   5.966
 8677SOL    HW126930   2.681   4.061   5.925
 8677SOL    HW226931   2.767   4.198   5.943
 8678SOL     OW26932   1.129   0.264   6.845
 8678SOL    HW126933   1.075   0.348   6.857
 8678SOL    HW226934   1.211   0.285   6.793
 8679SOL     OW26935   6.182   1.956   5.274
 8679SOL    HW126936   6.100   1.945   5.217
 8679SOL    HW226937   6.237   1.873   5.269
 8680SOL     OW26938   1.149   3.719   0.069
 8680SOL    HW126939   1.201   3.638   0.097
 8680SOL    HW226940   1.059   3.718   0.113
 8681SOL     OW26941   4.091   4.425   0.256
 8681SOL    HW126942   4.059   4.399   0.347
 8681SOL    HW226943   4.013   4.457   0.202
 8682SOL     OW26944   2.728   6.061   2.591
 8682SOL    HW126945   2.662   6.132   2.569
 8682SOL    HW226946   2.789   6.047   2.513
 8683SOL     OW26947   0.654   2.954   1.415
 8683SOL    HW126948   0.678   2.983   1.508
 8683SOL    HW226949   0.683   2.860   1.401
 8684SOL     OW26950   6.141   2.879   4.840
 8684SOL    HW126951   6.087   2.959   4.813
 8684SOL    HW226952   6.122   2.858   4.936
 8685SOL     OW26953   0.923   1.439   6.737
 8685SOL    HW126954   0.884   1.433   6.829
 8685SOL    HW226955   0.908   1.531   6.701
 8686SOL     OW26956   0.069   2.135   2.330
 8686SOL    HW126957   0.145   2.169   2.275
 8686SOL    HW226958   0.097   2.051   2.378
 8687SOL     OW26959   3.662   6.833   2.299
 8687SOL    HW126960   3.580   6.888   2.313
 8687SOL    HW226961   3.651   6.776   2.218
 8688SOL     OW26962   2.476   0.593   1.732
 8688SOL    HW126963   2.525   0.616   1.648
 8688SOL    HW226964   2.542   0.568   1.804
 8689SOL     OW26965   4.462   5.929   0.020
 8689SOL    HW126966   4.376   5.933   6.994
 8689SOL    HW226967   4.447   5.883   0.108
 8690SOL     OW26968   0.547   1.670   3.423
 8690SOL    HW126969   0.514   1.721   3.503
 8690SOL    HW226970   0.610   1.599   3.454
 8691SOL     OW26971   4.744   2.816   6.505
 8691SOL    HW126972   4.671   2.772   6.556
 8691SOL    HW226973   4.744   2.782   6.411
 8692SOL     OW26974   2.590   2.244   3.758
 8692SOL    HW126975   2.521   2.289   3.814
 8692SOL    HW226976   2.668   2.219   3.815
 8693SOL     OW26977   5.845   1.910   1.046
 8693SOL    HW126978   5.851   1.973   0.969
 8693SOL    HW226979   5.865   1.958   1.131
 8694SOL     OW26980   4.614   0.178   6.770
 8694SOL    HW126981   4.621   0.277   6.755
 8694SOL    HW226982   4.558   0.137   6.698
 8695SOL     OW26983   5.304   3.613   5.440
 8695SOL    HW126984   5.389   3.605   5.388
 8695SOL    HW226985   5.274   3.522   5.470
 8696SOL     OW26986   2.607   6.073   1.266
 8696SOL    HW126987   2.544   6.008   1.309
 8696SOL    HW226988   2.695   6.069   1.312
 8697SOL     OW26989   6.499   3.486   0.917
 8697SOL    HW126990   6.531   3.528   1.002
 8697SOL    HW226991   6.399   3.478   0.919
 8698SOL     OW26992   5.291   6.195   4.772
 8698SOL    HW126993   5.359   6.122   4.776
 8698SOL    HW226994   5.319   6.262   4.703
 8699SOL     OW26995   0.919   1.646   5.768
 8699SOL    HW126996   0.981   1.607   5.700
 8699SOL    HW226997   0.924   1.592   5.853
 8700SOL     OW26998   2.342   0.864   4.917
 8700SOL    HW126999   2.251   0.905   4.927
 8700SOL    HW227000   2.398   0.890   4.996
 8701SOL     OW27001   1.158   0.595   4.889
 8701SOL    HW127002   1.060   0.602   4.873
 8701SOL    HW227003   1.192   0.509   4.852
 8702SOL     OW27004   5.528   5.407   0.342
 8702SOL    HW127005   5.430   5.425   0.347
 8702SOL    HW227006   5.576   5.489   0.311
 8703SOL     OW27007   3.005   5.838   1.298
 8703SOL    HW127008   3.022   5.766   1.365
 8703SOL    HW227009   2.940   5.904   1.335
 8704SOL     OW27010   6.707   4.755   2.417
 8704SOL    HW127011   6.639   4.743   2.344
 8704SOL    HW227012   6.742   4.849   2.414
 8705SOL     OW27013   5.253   6.974   6.234
 8705SOL    HW127014   5.236   0.006   6.314
 8705SOL    HW227015   5.166   6.953   6.189
 8706SOL     OW27016   5.143   2.136   6.844
 8706SOL    HW127017   5.086   2.110   6.922
 8706SOL    HW227018   5.224   2.077   6.841
 8707SOL     OW27019   4.360   3.246   6.759
 8707SOL    HW127020   4.450   3.213   6.791
 8707SOL    HW227021   4.314   3.293   6.834
 8708SOL     OW27022   3.703   1.258   1.190
 8708SOL    HW127023   3.678   1.205   1.271
 8708SOL    HW227024   3.724   1.195   1.115
 8709SOL     OW27025   0.111   4.445   0.255
 8709SOL    HW127026   0.175   4.509   0.211
 8709SOL    HW227027   0.131   4.353   0.222
 8710SOL     OW27028   2.063   3.719   2.781
 8710SOL    HW127029   1.981   3.674   2.817
 8710SOL    HW227030   2.057   3.724   2.681
 8711SOL     OW27031   6.330   0.819   2.721
 8711SOL    HW127032   6.412   0.876   2.711
 8711SOL    HW227033   6.357   0.725   2.741
 8712SOL     OW27034   3.085   1.339   5.061
 8712SOL    HW127035   3.063   1.245   5.034
 8712SOL    HW227036   3.156   1.375   5.000
 8713SOL     OW27037   6.438   4.611   3.720
 8713SOL    HW127038   6.419   4.642   3.627
 8713SOL    HW227039   6.375   4.536   3.743
 8714SOL     OW27040   1.292   0.640   5.922
 8714SOL    HW127041   1.257   0.728   5.891
 8714SOL    HW227042   1.252   0.617   6.011
 8715SOL     OW27043   6.487   1.339   1.855
 8715SOL    HW127044   6.420   1.325   1.928
 8715SOL    HW227045   6.569   1.286   1.875
 8716SOL     OW27046   0.728   1.124   1.602
 8716SOL    HW127047   0.669   1.064   1.655
 8716SOL    HW227048   0.675   1.166   1.528
 8717SOL     OW27049   4.149   3.691   2.016
 8717SOL    HW127050   4.221   3.757   2.037
 8717SOL    HW227051   4.117   3.649   2.101
 8718SOL     OW27052   6.880   2.670   4.703
 8718SOL    HW127053   6.876   2.622   4.615
 8718SOL    HW227054   6.801   2.730   4.712
 8719SOL     OW27055   1.000   0.368   5.780
 8719SOL    HW127056   1.046   0.366   5.868
 8719SOL    HW227057   1.052   0.314   5.714
 8720SOL     OW27058   5.517   4.807   5.041
 8720SOL    HW127059   5.493   4.711   5.024
 8720SOL    HW227060   5.516   4.825   5.139
 8721SOL     OW27061   6.881   2.068   4.362
 8721SOL    HW127062   6.905   1.972   4.349
 8721SOL    HW227063   6.958   2.126   4.336
 8722SOL     OW27064   3.750   2.428   0.979
 8722SOL    HW127065   3.761   2.433   0.880
 8722SOL    HW227066   3.803   2.351   1.014
 8723SOL     OW27067   6.682   5.259   0.662
 8723SOL    HW127068   6.682   5.328   0.735
 8723SOL    HW227069   6.776   5.247   0.628
 8724SOL     OW27070   5.316   0.701   6.029
 8724SOL    HW127071   5.336   0.793   6.064
 8724SOL    HW227072   5.367   0.634   6.083
 8725SOL     OW27073   2.040   0.236   0.460
 8725SOL    HW127074   2.098   0.224   0.380
 8725SOL    HW227075   2.094   0.223   0.543
 8726SOL     OW27076   6.076   0.128   1.649
 8726SOL    HW127077   6.161   0.178   1.665
 8726SOL    HW227078   6.049   0.138   1.554
 8727SOL     OW27079   6.412   6.295   1.374
 8727SOL    HW127080   6.411   6.196   1.388
 8727SOL    HW227081   6.505   6.324   1.351
 8728SOL     OW27082   3.387   6.619   4.861
 8728SOL    HW127083   3.482   6.649   4.857
 8728SOL    HW227084   3.339   6.671   4.933
 8729SOL     OW27085   3.995   5.530   3.379
 8729SOL    HW127086   4.047   5.575   3.307
 8729SOL    HW227087   3.980   5.434   3.354
 8730SOL     OW27088   0.405   6.261   2.205
 8730SOL    HW127089   0.467   6.197   2.250
 8730SOL    HW227090   0.397   6.236   2.108
 8731SOL     OW27091   1.234   1.923   3.521
 8731SOL    HW127092   1.217   2.007   3.572
 8731SOL    HW227093   1.157   1.861   3.532
 8732SOL     OW27094   5.721   3.529   1.634
 8732SOL    HW127095   5.731   3.434   1.603
 8732SOL    HW227096   5.639   3.537   1.691
 8733SOL     OW27097   1.166   6.458   1.712
 8733SOL    HW127098   1.082   6.505   1.688
 8733SOL    HW227099   1.190   6.479   1.807
 8734SOL     OW27100   0.464   5.531   1.238
 8734SOL    HW127101   0.497   5.536   1.143
 8734SOL    HW227102   0.364   5.532   1.239
 8735SOL     OW27103   0.282   1.669   6.872
 8735SOL    HW127104   0.240   1.691   6.959
 8735SOL    HW227105   0.354   1.600   6.886
 8736SOL     OW27106   0.818   4.963   6.965
 8736SOL    HW127107   0.831   4.878   6.914
 8736SOL    HW227108   0.820   4.944   0.039
 8737SOL     OW27109   3.571   6.067   5.929
 8737SOL    HW127110   3.655   6.103   5.886
 8737SOL    HW227111   3.562   6.105   6.020
 8738SOL     OW27112   1.435   3.925   3.978
 8738SOL    HW127113   1.480   3.849   4.025
 8738SOL    HW227114   1.392   3.892   3.893
 8739SOL     OW27115   0.019   3.367   5.247
 8739SOL    HW127116   6.968   3.328   5.299
 8739SOL    HW227117   0.087   3.404   5.311
 8740SOL     OW27118   2.717   0.080   6.823
 8740SOL    HW127119   2.657   0.142   6.774
 8740SOL    HW227120   2.740   0.118   6.913
 8741SOL     OW27121   1.098   2.718   2.512
 8741SOL    HW127122   1.180   2.726   2.569
 8741SOL    HW227123   1.016   2.726   2.570
 8742SOL     OW27124   4.538   6.965   1.707
 8742SOL    HW127125   4.582   0.029   1.724
 8742SOL    HW227126   4.488   6.937   1.789
 8743SOL     OW27127   1.924   5.752   2.228
 8743SOL    HW127128   1.958   5.665   2.193
 8743SOL    HW227129   1.929   5.752   2.328
 8744SOL     OW27130   3.933   2.835   6.299
 8744SOL    HW127131   3.935   2.735   6.287
 8744SOL    HW227132   3.907   2.857   6.393
 8745SOL     OW27133   6.014   2.127   5.480
 8745SOL    HW127134   6.076   2.174   5.543
 8745SOL    HW227135   6.066   2.095   5.401
 8746SOL     OW27136   5.095   4.711   5.194
 8746SOL    HW127137   5.167   4.642   5.200
 8746SOL    HW227138   5.020   4.676   5.139
 8747SOL     OW27139   1.362   2.544   4.536
 8747SOL    HW127140   1.447   2.592   4.559
 8747SOL    HW227141   1.382   2.448   4.517
 8748SOL     OW27142   1.394   0.495   6.781
 8748SOL    HW127143   1.395   0.401   6.748
 8748SOL    HW227144   1.407   0.496   6.880
 8749SOL     OW27145   4.119   0.349   3.338
 8749SOL    HW127146   4.064   0.284   3.285
 8749SOL    HW227147   4.085   0.442   3.323
 8750SOL     OW27148   1.972   2.014   5.197
 8750SOL    HW127149   1.991   2.086   5.130
 8750SOL    HW227150   1.876   1.986   5.189
 8751SOL     OW27151   1.020   0.130   2.155
 8751SOL    HW127152   1.016   0.165   2.248
 8751SOL    HW227153   0.937   0.157   2.106
 8752SOL     OW27154   1.754   3.248   6.502
 8752SOL    HW127155   1.747   3.267   6.404
 8752SOL    HW227156   1.807   3.164   6.516
 8753SOL     OW27157   5.533   1.326   5.017
 8753SOL    HW127158   5.622   1.283   5.003
 8753SOL    HW227159   5.542   1.399   5.086
 8754SOL     OW27160   0.966   1.512   6.388
 8754SOL    HW127161   1.053   1.468   6.406
 8754SOL    HW227162   0.927   1.546   6.473
 8755SOL     OW27163   2.541   1.018   0.196
 8755SOL    HW127164   2.584   0.958   0.262
 8755SOL    HW227165   2.574   0.997   0.104
 8756SOL     OW27166   2.151   3.139   4.205
 8756SOL    HW127167   2.167   3.168   4.111
 8756SOL    HW227168   2.155   3.039   4.210
 8757SOL     OW27169   3.885   6.284   4.885
 8757SOL    HW127170   3.931   6.195   4.881
 8757SOL    HW227171   3.920   6.342   4.811
 8758SOL     OW27172   6.390   6.361   2.052
 8758SOL    HW127173   6.369   6.310   1.969
 8758SOL    HW227174   6.472   6.417   2.037
 8759SOL     OW27175   4.749   0.763   6.012
 8759SOL    HW127176   4.743   0.817   6.096
 8759SOL    HW227177   4.660   0.764   5.965
 8760SOL     OW27178   1.915   1.925   4.126
 8760SOL    HW127179   1.875   1.903   4.037
 8760SOL    HW227180   1.976   1.852   4.155
 8761SOL     OW27181   4.858   0.079   6.778
 8761SOL    HW127182   4.772   0.122   6.753
 8761SOL    HW227183   4.865   0.072   6.877
 8762SOL     OW27184   1.155   3.639   1.333
 8762SOL    HW127185   1.160   3.665   1.236
 8762SOL    HW227186   1.146   3.539   1.340
 8763SOL     OW27187   0.242   6.308   5.715
 8763SOL    HW127188   0.236   6.281   5.619
 8763SOL    HW227189   0.282   6.234   5.768
 8764SOL     OW27190   4.617   1.589   4.428
 8764SOL    HW127191   4.629   1.552   4.521
 8764SOL    HW227192   4.593   1.686   4.434
 8765SOL     OW27193   6.002   6.733   4.295
 8765SOL    HW127194   5.928   6.762   4.235
 8765SOL    HW227195   5.974   6.745   4.391
 8766SOL     OW27196   2.307   4.896   2.934
 8766SOL    HW127197   2.241   4.821   2.934
 8766SOL    HW227198   2.332   4.918   3.029
 8767SOL     OW27199   4.512   1.158   3.105
 8767SOL    HW127200   4.438   1.165   3.172
 8767SOL    HW227201   4.584   1.098   3.141
 8768SOL     OW27202   1.961   3.703   0.222
 8768SOL    HW127203   1.872   3.673   0.258
 8768SOL    HW227204   1.946   3.761   0.142
 8769SOL     OW27205   1.331   6.821   5.653
 8769SOL    HW127206   1.368   6.826   5.746
 8769SOL    HW227207   1.276   6.738   5.644
 8770SOL     OW27208   5.361   3.266   1.364
 8770SOL    HW127209   5.311   3.253   1.278
 8770SOL    HW227210   5.392   3.361   1.370
 8771SOL     OW27211   1.596   1.689   6.786
 8771SOL    HW127212   1.531   1.652   6.719
 8771SOL    HW227213   1.674   1.728   6.737
 8772SOL     OW27214   5.588   1.377   6.452
 8772SOL    HW127215   5.681   1.355   6.420
 8772SOL    HW227216   5.585   1.369   6.552
 8773SOL     OW27217   2.925   2.268   3.257
 8773SOL    HW127218   3.023   2.264   3.240
 8773SOL    HW227219   2.878   2.301   3.175
 8774SOL     OW27220   0.901   1.460   0.704
 8774SOL    HW127221   0.981   1.520   0.712
 8774SOL    HW227222   0.895   1.401   0.785
 8775SOL     OW27223   6.057   6.729   3.638
 8775SOL    HW127224   6.105   6.675   3.569
 8775SOL    HW227225   6.095   6.708   3.729
 8776SOL     OW27226   3.236   3.317   4.921
 8776SOL    HW127227   3.240   3.393   4.856
 8776SOL    HW227228   3.210   3.233   4.874
 8777SOL     OW27229   6.195   6.177   2.210
 8777SOL    HW127230   6.250   6.250   2.168
 8777SOL    HW227231   6.195   6.188   2.309
 8778SOL     OW27232   0.171   2.110   3.839
 8778SOL    HW127233   0.075   2.108   3.868
 8778SOL    HW227234   0.218   2.029   3.872
 8779SOL     OW27235   1.806   4.816   0.866
 8779SOL    HW127236   1.772   4.898   0.914
 8779SOL    HW227237   1.879   4.842   0.804
 8780SOL     OW27238   0.602   5.522   4.533
 8780SOL    HW127239   0.665   5.453   4.499
 8780SOL    HW227240   0.542   5.481   4.602
 8781SOL     OW27241   0.335   1.925   2.993
 8781SOL    HW127242   0.242   1.957   2.977
 8781SOL    HW227243   0.391   2.001   3.027
 8782SOL     OW27244   4.294   1.380   2.812
 8782SOL    HW127245   4.366   1.449   2.821
 8782SOL    HW227246   4.241   1.399   2.730
 8783SOL     OW27247   5.810   3.869   4.451
 8783SOL    HW127248   5.859   3.940   4.503
 8783SOL    HW227249   5.746   3.912   4.388
 8784SOL     OW27250   5.515   4.997   5.673
 8784SOL    HW127251   5.573   5.032   5.600
 8784SOL    HW227252   5.540   4.902   5.693
 8785SOL     OW27253   5.916   4.374   6.950
 8785SOL    HW127254   5.882   4.338   0.011
 8785SOL    HW227255   5.850   4.356   6.877
 8786SOL     OW27256   1.681   6.790   6.916
 8786SOL    HW127257   1.654   6.874   6.870
 8786SOL    HW227258   1.600   6.737   6.939
 8787SOL     OW27259   1.803   3.662   1.447
 8787SOL    HW127260   1.737   3.677   1.520
 8787SOL    HW227261   1.843   3.749   1.420
 8788SOL     OW27262   0.197   1.913   5.235
 8788SOL    HW127263   0.223   1.942   5.327
 8788SOL    HW227264   0.276   1.872   5.189
 8789SOL     OW27265   6.592   0.287   6.393
 8789SOL    HW127266   6.635   0.208   6.348
 8789SOL    HW227267   6.506   0.258   6.434
 8790SOL     OW27268   6.161   1.650   6.928
 8790SOL    HW127269   6.100   1.656   7.006
 8790SOL    HW227270   6.128   1.579   6.865
 8791SOL     OW27271   4.956   6.426   5.858
 8791SOL    HW127272   4.858   6.445   5.863
 8791SOL    HW227273   4.988   6.394   5.947
 8792SOL     OW27274   4.611   6.866   2.767
 8792SOL    HW127275   4.626   6.889   2.863
 8792SOL    HW227276   4.536   6.799   2.760
 8793SOL     OW27277   1.875   6.048   3.404
 8793SOL    HW127278   1.795   6.109   3.402
 8793SOL    HW227279   1.873   5.993   3.488
 8794SOL     OW27280   2.044   0.131   2.871
 8794SOL    HW127281   1.985   0.169   2.799
 8794SOL    HW227282   2.028   0.033   2.880
 8795SOL     OW27283   1.573   6.419   5.604
 8795SOL    HW127284   1.597   6.410   5.701
 8795SOL    HW227285   1.607   6.507   5.570
 8796SOL     OW27286   4.609   2.408   5.637
 8796SOL    HW127287   4.530   2.392   5.696
 8796SOL    HW227288   4.583   2.394   5.542
 8797SOL     OW27289   0.304   6.795   6.170
 8797SOL    HW127290   0.260   6.762   6.253
 8797SOL    HW227291   0.261   6.881   6.141
 8798SOL     OW27292   5.633   3.472   5.083
 8798SOL    HW127293   5.567   3.476   5.008
 8798SOL    HW227294   5.664   3.377   5.095
 8799SOL     OW27295   3.129   5.033   3.421
 8799SOL    HW127296   3.202   5.047   3.354
 8799SOL    HW227297   3.163   4.974   3.494
 8800SOL     OW27298   4.493   4.870   6.450
 8800SOL    HW127299   4.467   4.835   6.540
 8800SOL    HW227300   4.563   4.940   6.460
 8801SOL     OW27301   2.591   1.545   4.331
 8801SOL    HW127302   2.624   1.638   4.319
 8801SOL    HW227303   2.623   1.509   4.419
 8802SOL     OW27304   2.472   6.352   2.272
 8802SOL    HW127305   2.471   6.451   2.259
 8802SOL    HW227306   2.489   6.307   2.184
 8803SOL     OW27307   2.957   5.931   0.172
 8803SOL    HW127308   2.966   6.028   0.191
 8803SOL    HW227309   2.916   5.918   0.082
 8804SOL     OW27310   4.511   0.471   1.175
 8804SOL    HW127311   4.458   0.550   1.145
 8804SOL    HW227312   4.550   0.490   1.265
 8805SOL     OW27313   0.461   0.344   3.129
 8805SOL    HW127314   0.528   0.348   3.203
 8805SOL    HW227315   0.435   0.249   3.112
 8806SOL     OW27316   1.482   5.019   0.523
 8806SOL    HW127317   1.471   5.111   0.561
 8806SOL    HW227318   1.393   4.986   0.491
 8807SOL     OW27319   0.394   6.052   5.913
 8807SOL    HW127320   0.321   5.985   5.915
 8807SOL    HW227321   0.464   6.027   5.980
 8808SOL     OW27322   5.008   1.187   0.150
 8808SOL    HW127323   4.910   1.204   0.164
 8808SOL    HW227324   5.058   1.209   0.234
 8809SOL     OW27325   5.702   3.877   1.297
 8809SOL    HW127326   5.708   3.846   1.202
 8809SOL    HW227327   5.794   3.882   1.336
 8810SOL     OW27328   4.133   1.468   3.691
 8810SOL    HW127329   4.083   1.386   3.662
 8810SOL    HW227330   4.222   1.441   3.728
 8811SOL     OW27331   1.772   1.669   2.968
 8811SOL    HW127332   1.688   1.615   2.966
 8811SOL    HW227333   1.851   1.609   2.958
 8812SOL     OW27334   1.368   0.982   0.637
 8812SOL    HW127335   1.317   1.065   0.615
 8812SOL    HW227336   1.398   0.938   0.553
 8813SOL     OW27337   1.516   6.922   2.392
 8813SOL    HW127338   1.613   6.898   2.383
 8813SOL    HW227339   1.503   7.017   2.366
 8814SOL     OW27340   5.968   0.808   6.037
 8814SOL    HW127341   5.990   0.873   6.109
 8814SOL    HW227342   5.964   0.716   6.075
 8815SOL     OW27343   0.257   6.005   2.515
 8815SOL    HW127344   0.220   5.997   2.422
 8815SOL    HW227345   0.211   6.078   2.563
 8816SOL     OW27346   1.289   6.211   1.469
 8816SOL    HW127347   1.329   6.119   1.476
 8816SOL    HW227348   1.319   6.253   1.383
 8817SOL     OW27349   1.760   5.770   4.939
 8817SOL    HW127350   1.802   5.861   4.949
 8817SOL    HW227351   1.761   5.723   5.027
 8818SOL     OW27352   0.402   4.839   3.691
 8818SOL    HW127353   0.337   4.771   3.655
 8818SOL    HW227354   0.495   4.807   3.675
 8819SOL     OW27355   4.684   6.529   4.457
 8819SOL    HW127356   4.748   6.487   4.522
 8819SOL    HW227357   4.689   6.480   4.369
 8820SOL     OW27358   1.379   2.321   4.356
 8820SOL    HW127359   1.344   2.279   4.273
 8820SOL    HW227360   1.473   2.352   4.341
 8821SOL     OW27361   2.569   0.508   6.244
 8821SOL    HW127362   2.549   0.411   6.238
 8821SOL    HW227363   2.545   0.553   6.158
 8822SOL     OW27364   0.851   1.822   3.806
 8822SOL    HW127365   0.768   1.874   3.786
 8822SOL    HW227366   0.897   1.799   3.720
 8823SOL     OW27367   1.791   6.929   0.830
 8823SOL    HW127368   1.847   6.942   0.748
 8823SOL    HW227369   1.701   6.895   0.803
 8824SOL     OW27370   3.453   3.971   0.675
 8824SOL    HW127371   3.421   4.059   0.640
 8824SOL    HW227372   3.550   3.979   0.700
 8825SOL     OW27373   0.961   1.457   2.287
 8825SOL    HW127374   1.048   1.488   2.324
 8825SOL    HW227375   0.937   1.369   2.328
 8826SOL     OW27376   5.607   1.373   6.737
 8826SOL    HW127377   5.681   1.410   6.794
 8826SOL    HW227378   5.565   1.295   6.784
 8827SOL     OW27379   1.888   1.468   3.259
 8827SOL    HW127380   1.797   1.506   3.272
 8827SOL    HW227381   1.900   1.389   3.319
 8828SOL     OW27382   3.235   6.618   2.547
 8828SOL    HW127383   3.243   6.704   2.597
 8828SOL    HW227384   3.164   6.625   2.477
 8829SOL     OW27385   6.962   2.360   0.124
 8829SOL    HW127386   0.008   2.402   0.181
 8829SOL    HW227387   6.881   2.418   0.123
 8830SOL     OW27388   0.960   1.762   0.510
 8830SOL    HW127389   1.009   1.679   0.537
 8830SOL    HW227390   0.862   1.750   0.527
 8831SOL     OW27391   6.299   1.226   3.256
 8831SOL    HW127392   6.366   1.153   3.269
 8831SOL    HW227393   6.340   1.314   3.277
 8832SOL     OW27394   6.479   0.467   2.531
 8832SOL    HW127395   6.562   0.516   2.506
 8832SOL    HW227396   6.406   0.489   2.466
 8833SOL     OW27397   2.538   5.252   4.199
 8833SOL    HW127398   2.574   5.160   4.209
 8833SOL    HW227399   2.566   5.308   4.277
 8834SOL     OW27400   5.971   3.081   4.769
 8834SOL    HW127401   5.874   3.102   4.776
 8834SOL    HW227402   6.014   3.142   4.702
 8835SOL     OW27403   6.988   6.797   5.628
 8835SOL    HW127404   6.927   6.876   5.626
 8835SOL    HW227405   0.010   6.789   5.540
 8836SOL     OW27406   4.229   0.845   6.644
 8836SOL    HW127407   4.165   0.775   6.674
 8836SOL    HW227408   4.310   0.802   6.604
 8837SOL     OW27409   0.388   0.952   2.102
 8837SOL    HW127410   0.364   0.960   2.005
 8837SOL    HW227411   0.461   0.883   2.112
 8838SOL     OW27412   2.447   5.267   3.043
 8838SOL    HW127413   2.497   5.189   3.081
 8838SOL    HW227414   2.355   5.238   3.015
 8839SOL     OW27415   6.277   6.201   3.605
 8839SOL    HW127416   6.328   6.163   3.682
 8839SOL    HW227417   6.330   6.191   3.521
 8840SOL     OW27418   5.898   2.441   1.967
 8840SOL    HW127419   5.814   2.388   1.961
 8840SOL    HW227420   5.977   2.380   1.962
 8841SOL     OW27421   0.883   1.493   5.513
 8841SOL    HW127422   0.855   1.472   5.420
 8841SOL    HW227423   0.833   1.435   5.577
 8842SOL     OW27424   2.480   2.499   1.857
 8842SOL    HW127425   2.444   2.539   1.773
 8842SOL    HW227426   2.487   2.570   1.928
 8843SOL     OW27427   1.268   2.636   5.110
 8843SOL    HW127428   1.242   2.730   5.089
 8843SOL    HW227429   1.355   2.615   5.065
 8844SOL     OW27430   6.521   0.683   6.089
 8844SOL    HW127431   6.492   0.663   6.182
 8844SOL    HW227432   6.466   0.758   6.052
 8845SOL     OW27433   5.343   4.542   6.858
 8845SOL    HW127434   5.369   4.633   6.825
 8845SOL    HW227435   5.244   4.531   6.847
 8846SOL     OW27436   2.212   4.601   4.031
 8846SOL    HW127437   2.253   4.691   4.044
 8846SOL    HW227438   2.116   4.603   4.058
 8847SOL     OW27439   3.243   0.069   2.032
 8847SOL    HW127440   3.191   0.109   1.957
 8847SOL    HW227441   3.340   0.092   2.021
 8848SOL     OW27442   1.647   0.663   2.529
 8848SOL    HW127443   1.571   0.701   2.581
 8848SOL    HW227444   1.725   0.646   2.590
 8849SOL     OW27445   3.098   6.832   1.390
 8849SOL    HW127446   3.185   6.789   1.414
 8849SOL    HW227447   3.032   6.816   1.463
 8850SOL     OW27448   3.605   2.250   6.505
 8850SOL    HW127449   3.612   2.194   6.423
 8850SOL    HW227450   3.694   2.254   6.551
 8851SOL     OW27451   1.430   4.766   2.750
 8851SOL    HW127452   1.363   4.809   2.690
 8851SOL    HW227453   1.450   4.674   2.717
 8852SOL     OW27454   1.218   1.370   6.395
 8852SOL    HW127455   1.247   1.297   6.456
 8852SOL    HW227456   1.299   1.419   6.361
 8853SOL     OW27457   3.772   0.967   0.284
 8853SOL    HW127458   3.799   1.058   0.316
 8853SOL    HW227459   3.845   0.902   0.305
 8854SOL     OW27460   1.027   3.424   4.837
 8854SOL    HW127461   1.095   3.388   4.901
 8854SOL    HW227462   1.059   3.410   4.743
 8855SOL     OW27463   5.893   5.129   0.682
 8855SOL    HW127464   5.922   5.179   0.763
 8855SOL    HW227465   5.921   5.177   0.600
 8856SOL     OW27466   0.636   5.267   6.352
 8856SOL    HW127467   0.578   5.234   6.279
 8856SOL    HW227468   0.702   5.334   6.316
 8857SOL     OW27469   6.299   1.230   5.769
 8857SOL    HW127470   6.280   1.326   5.752
 8857SOL    HW227471   6.393   1.209   5.741
 8858SOL     OW27472   6.247   4.916   4.685
 8858SOL    HW127473   6.235   5.009   4.718
 8858SOL    HW227474   6.252   4.853   4.763
 8859SOL     OW27475   0.704   0.600   3.632
 8859SOL    HW127476   0.747   0.528   3.578
 8859SOL    HW227477   0.641   0.559   3.697
 8860SOL     OW27478   6.748   2.778   2.204
 8860SOL    HW127479   6.824   2.779   2.269
 8860SOL    HW227480   6.768   2.715   2.129
 8861SOL     OW27481   4.743   2.213   1.617
 8861SOL    HW127482   4.752   2.123   1.660
 8861SOL    HW227483   4.759   2.284   1.685
 8862SOL     OW27484   4.570   4.813   5.427
 8862SOL    HW127485   4.611   4.753   5.358
 8862SOL    HW227486   4.473   4.790   5.437
 8863SOL     OW27487   2.013   3.901   3.788
 8863SOL    HW127488   2.102   3.945   3.778
 8863SOL    HW227489   1.952   3.931   3.715
 8864SOL     OW27490   6.087   1.578   5.459
 8864SOL    HW127491   6.134   1.631   5.531
 8864SOL    HW227492   6.151   1.511   5.421
 8865SOL     OW27493   1.846   1.244   6.339
 8865SOL    HW127494   1.784   1.321   6.329
 8865SOL    HW227495   1.940   1.275   6.323
 8866SOL     OW27496   6.133   5.979   2.425
 8866SOL    HW127497   6.132   6.073   2.460
 8866SOL    HW227498   6.064   5.925   2.474
 8867SOL     OW27499   6.355   4.229   2.788
 8867SOL    HW127500   6.434   4.289   2.778
 8867SOL    HW227501   6.271   4.282   2.778
 8868SOL     OW27502   0.140   3.419   3.434
 8868SOL    HW127503   0.157   3.497   3.495
 8868SOL    HW227504   0.088   3.450   3.355
 8869SOL     OW27505   3.252   6.703   3.468
 8869SOL    HW127506   3.192   6.695   3.388
 8869SOL    HW227507   3.225   6.783   3.521
 8870SOL     OW27508   1.888   0.649   2.656
 8870SOL    HW127509   1.967   0.594   2.683
 8870SOL    HW227510   1.880   0.727   2.719
 8871SOL     OW27511   0.341   0.479   2.592
 8871SOL    HW127512   0.294   0.514   2.511
 8871SOL    HW227513   0.272   0.453   2.661
 8872SOL     OW27514   0.301   5.063   4.753
 8872SOL    HW127515   0.223   5.125   4.751
 8872SOL    HW227516   0.348   5.070   4.841
 8873SOL     OW27517   1.599   1.248   2.343
 8873SOL    HW127518   1.581   1.231   2.440
 8873SOL    HW227519   1.640   1.167   2.302
 8874SOL     OW27520   3.220   6.189   0.407
 8874SOL    HW127521   3.210   6.111   0.469
 8874SOL    HW227522   3.300   6.176   0.348
 8875SOL     OW27523   0.170   3.148   3.511
 8875SOL    HW127524   0.145   3.245   3.509
 8875SOL    HW227525   0.235   3.131   3.585
 8876SOL     OW27526   3.381   0.502   6.110
 8876SOL    HW127527   3.422   0.524   6.021
 8876SOL    HW227528   3.283   0.486   6.098
 8877SOL     OW27529   1.793   4.323   1.273
 8877SOL    HW127530   1.852   4.277   1.208
 8877SOL    HW227531   1.799   4.277   1.362
 8878SOL     OW27532   4.630   3.929   0.954
 8878SOL    HW127533   4.726   3.954   0.963
 8878SOL    HW227534   4.573   4.009   0.972
 8879SOL     OW27535   5.962   5.040   2.934
 8879SOL    HW127536   5.984   5.063   2.839
 8879SOL    HW227537   5.875   4.992   2.937
 8880SOL     OW27538   4.220   0.135   4.039
 8880SOL    HW127539   4.171   0.060   3.995
 8880SOL    HW227540   4.260   0.103   4.124
 8881SOL     OW27541   4.489   5.075   4.680
 8881SOL    HW127542   4.503   5.070   4.581
 8881SOL    HW227543   4.412   5.135   4.700
 8882SOL     OW27544   4.437   0.678   0.760
 8882SOL    HW127545   4.419   0.713   0.668
 8882SOL    HW227546   4.381   0.729   0.826
 8883SOL     OW27547   6.842   6.383   4.799
 8883SOL    HW127548   6.837   6.398   4.897
 8883SOL    HW227549   6.793   6.299   4.776
 8884SOL     OW27550   5.426   3.586   4.907
 8884SOL    HW127551   5.363   3.563   4.833
 8884SOL    HW227552   5.380   3.648   4.972
 8885SOL     OW27553   6.262   5.444   0.527
 8885SOL    HW127554   6.224   5.472   0.615
 8885SOL    HW227555   6.302   5.523   0.481
 8886SOL     OW27556   3.517   5.458   6.306
 8886SOL    HW127557   3.588   5.528   6.309
 8886SOL    HW227558   3.431   5.499   6.277
 8887SOL     OW27559   5.306   1.551   1.858
 8887SOL    HW127560   5.296   1.536   1.956
 8887SOL    HW227561   5.215   1.554   1.815
 8888SOL     OW27562   2.336   1.776   3.460
 8888SOL    HW127563   2.326   1.773   3.361
 8888SOL    HW227564   2.405   1.844   3.485
 8889SOL     OW27565   0.083   6.481   5.964
 8889SOL    HW127566   0.101   6.449   6.057
 8889SOL    HW227567   0.168   6.511   5.922
 8890SOL     OW27568   0.536   6.596   0.379
 8890SOL    HW127569   0.510   6.680   0.331
 8890SOL    HW227570   0.516   6.606   0.477
 8891SOL     OW27571   6.109   4.051   0.034
 8891SOL    HW127572   6.138   4.129   7.003
 8891SOL    HW227573   6.061   4.085   0.116
 8892SOL     OW27574   3.214   5.625   3.836
 8892SOL    HW127575   3.198   5.526   3.834
 8892SOL    HW227576   3.237   5.656   3.744
 8893SOL     OW27577   1.397   5.108   4.835
 8893SOL    HW127578   1.466   5.178   4.850
 8893SOL    HW227579   1.365   5.074   4.924
 8894SOL     OW27580   4.564   1.380   0.092
 8894SOL    HW127581   4.468   1.351   0.090
 8894SOL    HW227582   4.572   1.463   0.148
 8895SOL     OW27583   0.142   3.739   1.357
 8895SOL    HW127584   0.193   3.658   1.326
 8895SOL    HW227585   0.132   3.736   1.456
 8896SOL     OW27586   0.372   2.067   4.836
 8896SOL    HW127587   0.389   2.127   4.914
 8896SOL    HW227588   0.389   2.116   4.751
 8897SOL     OW27589   1.772   3.686   3.906
 8897SOL    HW127590   1.702   3.631   3.951
 8897SOL    HW227591   1.859   3.675   3.954
 8898SOL     OW27592   5.031   4.324   2.759
 8898SOL    HW127593   4.974   4.315   2.841
 8898SOL    HW227594   5.108   4.260   2.764
 8899SOL     OW27595   0.105   3.462   5.848
 8899SOL    HW127596   0.126   3.559   5.839
 8899SOL    HW227597   0.177   3.408   5.804
 8900SOL     OW27598   5.057   2.929   4.193
 8900SOL    HW127599   5.117   2.877   4.254
 8900SOL    HW227600   4.962   2.902   4.209
 8901SOL     OW27601   1.427   3.022   4.374
 8901SOL    HW127602   1.331   3.013   4.401
 8901SOL    HW227603   1.444   2.968   4.292
 8902SOL     OW27604   0.697   4.472   0.320
 8902SOL    HW127605   0.737   4.381   0.309
 8902SOL    HW227606   0.602   4.471   0.290
 8903SOL     OW27607   1.521   6.875   5.252
 8903SOL    HW127608   1.573   6.959   5.265
 8903SOL    HW227609   1.511   6.857   5.154
 8904SOL     OW27610   0.450   0.792   3.391
 8904SOL    HW127611   0.444   0.704   3.345
 8904SOL    HW227612   0.541   0.831   3.376
 8905SOL     OW27613   1.091   3.783   2.019
 8905SOL    HW127614   1.053   3.774   2.111
 8905SOL    HW227615   1.138   3.870   2.010
 8906SOL     OW27616   6.710   6.804   0.268
 8906SOL    HW127617   6.669   6.893   0.287
 8906SOL    HW227618   6.651   6.754   0.204
 8907SOL     OW27619   3.244   3.305   4.470
 8907SOL    HW127620   3.181   3.357   4.413
 8907SOL    HW227621   3.191   3.253   4.538
 8908SOL     OW27622   0.971   5.810   0.463
 8908SOL    HW127623   1.012   5.783   0.376
 8908SOL    HW227624   1.002   5.748   0.535
 8909SOL     OW27625   2.826   0.617   0.212
 8909SOL    HW127626   2.778   0.536   0.246
 8909SOL    HW227627   2.913   0.627   0.261
 8910SOL     OW27628   2.049   1.782   3.856
 8910SOL    HW127629   2.078   1.876   3.839
 8910SOL    HW227630   2.016   1.741   3.770
 8911SOL     OW27631   4.762   1.429   4.036
 8911SOL    HW127632   4.733   1.514   3.992
 8911SOL    HW227633   4.862   1.423   4.035
 8912SOL     OW27634   3.306   3.727   5.025
 8912SOL    HW127635   3.299   3.671   5.107
 8912SOL    HW227636   3.250   3.809   5.035
 8913SOL     OW27637   5.770   6.028   6.974
 8913SOL    HW127638   5.698   6.094   6.953
 8913SOL    HW227639   5.858   6.063   6.944
 8914SOL     OW27640   4.982   6.175   6.341
 8914SOL    HW127641   4.996   6.174   6.241
 8914SOL    HW227642   4.987   6.270   6.373
 8915SOL     OW27643   1.030   1.250   4.053
 8915SOL    HW127644   0.933   1.270   4.069
 8915SOL    HW227645   1.085   1.297   4.122
 8916SOL     OW27646   5.071   0.896   0.033
 8916SOL    HW127647   5.058   0.975   0.094
 8916SOL    HW227648   5.081   0.813   0.088
 8917SOL     OW27649   5.773   1.535   0.652
 8917SOL    HW127650   5.794   1.615   0.708
 8917SOL    HW227651   5.800   1.452   0.701
 8918SOL     OW27652   0.789   4.212   2.243
 8918SOL    HW127653   0.703   4.177   2.281
 8918SOL    HW227654   0.796   4.310   2.263
 8919SOL     OW27655   5.732   3.863   0.501
 8919SOL    HW127656   5.649   3.849   0.556
 8919SOL    HW227657   5.812   3.843   0.556
 8920SOL     OW27658   6.365   1.544   0.553
 8920SOL    HW127659   6.346   1.640   0.536
 8920SOL    HW227660   6.356   1.492   0.468
 8921SOL     OW27661   1.538   3.160   1.389
 8921SOL    HW127662   1.519   3.238   1.449
 8921SOL    HW227663   1.507   3.180   1.296
 8922SOL     OW27664   4.009   0.004   3.233
 8922SOL    HW127665   3.951   0.074   3.191
 8922SOL    HW227666   3.960   6.987   3.309
 8923SOL     OW27667   1.777   2.300   5.117
 8923SOL    HW127668   1.690   2.307   5.068
 8923SOL    HW227669   1.761   2.267   5.210
 8924SOL     OW27670   4.941   5.308   4.967
 8924SOL    HW127671   4.963   5.378   5.035
 8924SOL    HW227672   5.005   5.232   4.976
 8925SOL     OW27673   1.427   0.687   3.398
 8925SOL    HW127674   1.327   0.684   3.411
 8925SOL    HW227675   1.465   0.596   3.413
 8926SOL     OW27676   6.445   2.747   5.090
 8926SOL    HW127677   6.493   2.762   5.003
 8926SOL    HW227678   6.513   2.742   5.164
 8927SOL     OW27679   0.010   1.243   6.479
 8927SOL    HW127680   0.099   1.261   6.520
 8927SOL    HW227681   6.996   1.329   6.444
 8928SOL     OW27682   2.041   6.582   5.057
 8928SOL    HW127683   2.016   6.493   5.017
 8928SOL    HW227684   1.958   6.634   5.078
 8929SOL     OW27685   6.914   2.536   4.479
 8929SOL    HW127686   6.839   2.547   4.414
 8929SOL    HW227687   6.991   2.490   4.434
 8930SOL     OW27688   1.467   4.607   3.580
 8930SOL    HW127689   1.520   4.549   3.642
 8930SOL    HW227690   1.516   4.693   3.565
 8931SOL     OW27691   3.694   2.705   1.052
 8931SOL    HW127692   3.617   2.740   0.999
 8931SOL    HW227693   3.714   2.612   1.023
 8932SOL     OW27694   0.612   3.204   2.998
 8932SOL    HW127695   0.614   3.104   2.995
 8932SOL    HW227696   0.624   3.234   3.092
 8933SOL     OW27697   3.826   1.585   5.671
 8933SOL    HW127698   3.843   1.655   5.740
 8933SOL    HW227699   3.895   1.513   5.678
 8934SOL     OW27700   2.624   6.036   3.805
 8934SOL    HW127701   2.666   6.021   3.894
 8934SOL    HW227702   2.535   5.990   3.801
 8935SOL     OW27703   6.891   5.208   1.446
 8935SOL    HW127704   6.796   5.219   1.478
 8935SOL    HW227705   6.952   5.261   1.505
 8936SOL     OW27706   2.139   3.136   0.541
 8936SOL    HW127707   2.127   3.178   0.451
 8936SOL    HW227708   2.051   3.103   0.575
 8937SOL     OW27709   0.919   6.193   5.707
 8937SOL    HW127710   0.831   6.166   5.670
 8937SOL    HW227711   0.912   6.204   5.806
 8938SOL     OW27712   6.464   5.257   1.019
 8938SOL    HW127713   6.389   5.305   1.064
 8938SOL    HW227714   6.432   5.168   0.987
 8939SOL     OW27715   5.275   2.392   4.478
 8939SOL    HW127716   5.316   2.443   4.403
 8939SOL    HW227717   5.207   2.449   4.525
 8940SOL     OW27718   6.493   0.939   3.582
 8940SOL    HW127719   6.473   1.030   3.617
 8940SOL    HW227720   6.557   0.893   3.645
 8941SOL     OW27721   5.280   2.622   6.479
 8941SOL    HW127722   5.220   2.635   6.558
 8941SOL    HW227723   5.292   2.524   6.462
 8942SOL     OW27724   0.458   2.259   5.088
 8942SOL    HW127725   0.452   2.353   5.054
 8942SOL    HW227726   0.373   2.234   5.134
 8943SOL     OW27727   4.842   3.223   1.372
 8943SOL    HW127728   4.894   3.203   1.289
 8943SOL    HW227729   4.819   3.138   1.418
 8944SOL     OW27730   4.084   5.569   0.672
 8944SOL    HW127731   4.058   5.660   0.702
 8944SOL    HW227732   4.172   5.573   0.624
 8945SOL     OW27733   2.300   0.794   4.207
 8945SOL    HW127734   2.214   0.753   4.174
 8945SOL    HW227735   2.371   0.781   4.138
 8946SOL     OW27736   3.623   2.021   4.709
 8946SOL    HW127737   3.537   2.042   4.755
 8946SOL    HW227738   3.700   2.046   4.768
 8947SOL     OW27739   3.994   3.637   5.289
 8947SOL    HW127740   3.908   3.675   5.256
 8947SOL    HW227741   3.977   3.582   5.371
 8948SOL     OW27742   5.287   4.819   3.328
 8948SOL    HW127743   5.197   4.798   3.365
 8948SOL    HW227744   5.331   4.888   3.386
 8949SOL     OW27745   2.050   6.709   0.441
 8949SOL    HW127746   2.134   6.692   0.388
 8949SOL    HW227747   1.978   6.647   0.411
 8950SOL     OW27748   4.685   2.683   4.697
 8950SOL    HW127749   4.704   2.765   4.642
 8950SOL    HW227750   4.703   2.704   4.793
 8951SOL     OW27751   1.505   2.495   5.650
 8951SOL    HW127752   1.581   2.440   5.684
 8951SOL    HW227753   1.466   2.452   5.569
 8952SOL     OW27754   0.512   1.260   2.975
 8952SOL    HW127755   0.429   1.266   2.918
 8952SOL    HW227756   0.524   1.165   3.005
 8953SOL     OW27757   1.804   3.493   0.075
 8953SOL    HW127758   1.826   3.542   7.015
 8953SOL    HW227759   1.840   3.543   0.153
 8954SOL     OW27760   1.808   6.169   6.415
 8954SOL    HW127761   1.896   6.203   6.447
 8954SOL    HW227762   1.758   6.129   6.492
 8955SOL     OW27763   6.697   4.234   3.346
 8955SOL    HW127764   6.786   4.190   3.356
 8955SOL    HW227765   6.709   4.333   3.341
 8956SOL     OW27766   0.312   0.689   6.150
 8956SOL    HW127767   0.348   0.596   6.148
 8956SOL    HW227768   0.354   0.742   6.076
 8957SOL     OW27769   2.609   4.568   2.442
 8957SOL    HW127770   2.597   4.615   2.355
 8957SOL    HW227771   2.552   4.486   2.444
 8958SOL     OW27772   1.837   6.604   4.614
 8958SOL    HW127773   1.917   6.649   4.575
 8958SOL    HW227774   1.811   6.527   4.556
 8959SOL     OW27775   1.417   4.719   0.620
 8959SOL    HW127776   1.469   4.801   0.644
 8959SOL    HW227777   1.463   4.672   0.545
 8960SOL     OW27778   3.715   5.654   1.635
 8960SOL    HW127779   3.620   5.644   1.607
 8960SOL    HW227780   3.745   5.571   1.682
 8961SOL     OW27781   2.012   2.313   3.837
 8961SOL    HW127782   1.917   2.306   3.806
 8961SOL    HW227783   2.020   2.276   3.929
 8962SOL     OW27784   5.928   0.672   3.288
 8962SOL    HW127785   5.867   0.597   3.312
 8962SOL    HW227786   6.001   0.678   3.356
 8963SOL     OW27787   5.990   0.574   4.413
 8963SOL    HW127788   6.061   0.635   4.375
 8963SOL    HW227789   6.013   0.479   4.392
 8964SOL     OW27790   5.279   4.544   2.076
 8964SOL    HW127791   5.262   4.639   2.101
 8964SOL    HW227792   5.288   4.536   1.977
 8965SOL     OW27793   1.575   5.186   1.548
 8965SOL    HW127794   1.672   5.163   1.547
 8965SOL    HW227795   1.555   5.250   1.474
 8966SOL     OW27796   2.064   2.403   6.450
 8966SOL    HW127797   2.032   2.487   6.407
 8966SOL    HW227798   2.155   2.381   6.416
 8967SOL     OW27799   4.121   0.567   0.441
 8967SOL    HW127800   4.189   0.495   0.455
 8967SOL    HW227801   4.042   0.529   0.393
 8968SOL     OW27802   5.097   6.259   1.518
 8968SOL    HW127803   5.041   6.281   1.438
 8968SOL    HW227804   5.038   6.248   1.598
 8969SOL     OW27805   6.426   0.641   3.826
 8969SOL    HW127806   6.488   0.615   3.899
 8969SOL    HW227807   6.475   0.644   3.739
 8970SOL     OW27808   3.495   2.417   1.452
 8970SOL    HW127809   3.431   2.349   1.487
 8970SOL    HW227810   3.561   2.441   1.523
 8971SOL     OW27811   3.680   5.368   1.771
 8971SOL    HW127812   3.721   5.277   1.765
 8971SOL    HW227813   3.659   5.389   1.866
 8972SOL     OW27814   5.198   6.202   5.290
 8972SOL    HW127815   5.278   6.195   5.230
 8972SOL    HW227816   5.227   6.189   5.385
 8973SOL     OW27817   1.520   4.938   0.064
 8973SOL    HW127818   1.457   4.973   0.133
 8973SOL    HW227819   1.584   4.874   0.106
 8974SOL     OW27820   0.662   3.720   6.105
 8974SOL    HW127821   0.716   3.644   6.069
 8974SOL    HW227822   0.686   3.804   6.056
 8975SOL     OW27823   3.223   0.306   0.279
 8975SOL    HW127824   3.158   0.314   0.203
 8975SOL    HW227825   3.187   0.241   0.346
 8976SOL     OW27826   2.065   5.469   4.493
 8976SOL    HW127827   2.147   5.413   4.506
 8976SOL    HW227828   1.992   5.437   4.554
 8977SOL     OW27829   6.615   1.407   6.045
 8977SOL    HW127830   6.708   1.382   6.072
 8977SOL    HW227831   6.558   1.325   6.044
 8978SOL     OW27832   5.806   6.467   0.571
 8978SOL    HW127833   5.870   6.392   0.554
 8978SOL    HW227834   5.841   6.551   0.530
 8979SOL     OW27835   1.877   3.942   4.906
 8979SOL    HW127836   1.855   3.923   4.810
 8979SOL    HW227837   1.962   3.896   4.931
 8980SOL     OW27838   3.804   3.183   4.546
 8980SOL    HW127839   3.824   3.179   4.644
 8980SOL    HW227840   3.819   3.093   4.506
 8981SOL     OW27841   3.408   1.780   4.772
 8981SOL    HW127842   3.418   1.738   4.862
 8981SOL    HW227843   3.435   1.876   4.777
 8982SOL     OW27844   3.195   4.430   0.571
 8982SOL    HW127845   3.163   4.455   0.662
 8982SOL    HW227846   3.121   4.442   0.505
 8983SOL     OW27847   4.327   5.263   0.310
 8983SOL    HW127848   4.307   5.246   0.214
 8983SOL    HW227849   4.339   5.177   0.358
 8984SOL     OW27850   2.512   6.006   3.073
 8984SOL    HW127851   2.500   5.975   2.979
 8984SOL    HW227852   2.593   5.962   3.113
 8985SOL     OW27853   3.849   2.933   0.041
 8985SOL    HW127854   3.837   2.999   0.115
 8985SOL    HW227855   3.900   2.854   0.074
 8986SOL     OW27856   3.775   4.956   2.901
 8986SOL    HW127857   3.792   4.921   2.993
 8986SOL    HW227858   3.728   5.044   2.907
 8987SOL     OW27859   5.278   5.842   2.525
 8987SOL    HW127860   5.204   5.777   2.537
 8987SOL    HW227861   5.285   5.867   2.428
 8988SOL     OW27862   0.618   5.247   4.415
 8988SOL    HW127863   0.582   5.155   4.400
 8988SOL    HW227864   0.704   5.259   4.365
 8989SOL     OW27865   4.411   2.963   6.372
 8989SOL    HW127866   4.387   2.952   6.468
 8989SOL    HW227867   4.506   2.937   6.357
 8990SOL     OW27868   0.299   5.108   3.682
 8990SOL    HW127869   0.327   5.012   3.670
 8990SOL    HW227870   0.360   5.167   3.629
 8991SOL     OW27871   1.523   2.288   5.006
 8991SOL    HW127872   1.540   2.323   4.914
 8991SOL    HW227873   1.429   2.311   5.032
 8992SOL     OW27874   6.216   2.191   0.242
 8992SOL    HW127875   6.165   2.170   0.159
 8992SOL    HW227876   6.157   2.242   0.305
 8993SOL     OW27877   4.102   3.126   5.998
 8993SOL    HW127878   4.033   3.084   5.940
 8993SOL    HW227879   4.123   3.065   6.075
 8994SOL     OW27880   2.096   4.610   4.548
 8994SOL    HW127881   2.033   4.551   4.600
 8994SOL    HW227882   2.101   4.699   4.592
 8995SOL     OW27883   0.209   1.441   1.562
 8995SOL    HW127884   0.251   1.522   1.605
 8995SOL    HW227885   0.111   1.456   1.552
 8996SOL     OW27886   5.306   3.859   6.891
 8996SOL    HW127887   5.231   3.861   6.957
 8996SOL    HW227888   5.295   3.781   6.829
 8997SOL     OW27889   5.429   1.202   5.255
 8997SOL    HW127890   5.483   1.218   5.172
 8997SOL    HW227891   5.465   1.258   5.330
 8998SOL     OW27892   6.095   4.191   3.841
 8998SOL    HW127893   6.049   4.253   3.905
 8998SOL    HW227894   6.191   4.183   3.865
 8999SOL     OW27895   4.807   6.906   5.838
 8999SOL    HW127896   4.804   6.900   5.738
 8999SOL    HW227897   4.817   7.002   5.865
 9000SOL     OW27898   1.866   4.613   1.481
 9000SOL    HW127899   1.879   4.536   1.544
 9000SOL    HW227900   1.776   4.607   1.439
 9001SOL     OW27901   6.850   5.004   2.413
 9001SOL    HW127902   6.855   4.984   2.511
 9001SOL    HW227903   6.919   5.073   2.390
 9002SOL     OW27904   1.254   4.399   5.588
 9002SOL    HW127905   1.272   4.317   5.534
 9002SOL    HW227906   1.332   4.461   5.582
 9003SOL     OW27907   5.326   2.079   1.028
 9003SOL    HW127908   5.277   2.085   1.115
 9003SOL    HW227909   5.397   2.009   1.035
 9004SOL     OW27910   4.424   5.258   0.632
 9004SOL    HW127911   4.354   5.199   0.591
 9004SOL    HW227912   4.500   5.269   0.567
 9005SOL     OW27913   5.424   1.254   6.276
 9005SOL    HW127914   5.469   1.285   6.360
 9005SOL    HW227915   5.376   1.331   6.233
 9006SOL     OW27916   3.483   0.370   0.337
 9006SOL    HW127917   3.500   0.380   0.436
 9006SOL    HW227918   3.400   0.316   0.323
 9007SOL     OW27919   2.516   1.258   2.637
 9007SOL    HW127920   2.539   1.275   2.733
 9007SOL    HW227921   2.577   1.311   2.578
 9008SOL     OW27922   0.386   5.699   2.836
 9008SOL    HW127923   0.477   5.680   2.874
 9008SOL    HW227924   0.361   5.794   2.855
 9009SOL     OW27925   3.578   5.560   0.692
 9009SOL    HW127926   3.497   5.606   0.655
 9009SOL    HW227927   3.623   5.620   0.758
 9010SOL     OW27928   2.409   6.539   4.000
 9010SOL    HW127929   2.330   6.482   3.981
 9010SOL    HW227930   2.412   6.615   3.934
 9011SOL     OW27931   4.752   0.586   2.859
 9011SOL    HW127932   4.802   0.672   2.874
 9011SOL    HW227933   4.705   0.559   2.943
 9012SOL     OW27934   2.381   5.879   0.695
 9012SOL    HW127935   2.440   5.893   0.616
 9012SOL    HW227936   2.305   5.944   0.691
 9013SOL     OW27937   1.622   6.761   4.752
 9013SOL    HW127938   1.684   6.707   4.696
 9013SOL    HW227939   1.528   6.749   4.720
 9014SOL     OW27940   6.324   2.383   1.809
 9014SOL    HW127941   6.347   2.303   1.754
 9014SOL    HW227942   6.279   2.451   1.750
 9015SOL     OW27943   4.826   2.776   0.670
 9015SOL    HW127944   4.732   2.755   0.699
 9015SOL    HW227945   4.830   2.869   0.633
 9016SOL     OW27946   5.867   5.467   5.970
 9016SOL    HW127947   5.836   5.372   5.978
 9016SOL    HW227948   5.789   5.526   5.950
 9017SOL     OW27949   3.375   1.233   4.799
 9017SOL    HW127950   3.460   1.222   4.851
 9017SOL    HW227951   3.303   1.179   4.842
 9018SOL     OW27952   3.767   3.213   6.633
 9018SOL    HW127953   3.811   3.288   6.682
 9018SOL    HW227954   3.788   3.127   6.678
 9019SOL     OW27955   1.208   3.408   3.219
 9019SOL    HW127956   1.289   3.432   3.273
 9019SOL    HW227957   1.236   3.392   3.124
 9020SOL     OW27958   6.466   5.464   1.834
 9020SOL    HW127959   6.562   5.493   1.837
 9020SOL    HW227960   6.435   5.442   1.926
 9021SOL     OW27961   6.930   0.240   3.550
 9021SOL    HW127962   7.007   0.263   3.609
 9021SOL    HW227963   6.847   0.282   3.586
 9022SOL     OW27964   3.832   2.901   6.556
 9022SOL    HW127965   3.769   2.897   6.634
 9022SOL    HW227966   3.925   2.885   6.588
 9023SOL     OW27967   4.181   3.298   1.393
 9023SOL    HW127968   4.209   3.290   1.298
 9023SOL    HW227969   4.092   3.342   1.398
 9024SOL     OW27970   1.159   5.225   5.775
 9024SOL    HW127971   1.182   5.294   5.707
 9024SOL    HW227972   1.228   5.223   5.847
 9025SOL     OW27973   0.214   5.967   0.834
 9025SOL    HW127974   0.117   5.991   0.831
 9025SOL    HW227975   0.229   5.884   0.780
 9026SOL     OW27976   3.963   1.767   6.939
 9026SOL    HW127977   3.975   1.738   0.010
 9026SOL    HW227978   3.981   1.689   6.879
 9027SOL     OW27979   0.796   3.913   3.483
 9027SOL    HW127980   0.713   3.914   3.427
 9027SOL    HW227981   0.861   3.979   3.447
 9028SOL     OW27982   3.757   3.860   5.260
 9028SOL    HW127983   3.814   3.885   5.339
 9028SOL    HW227984   3.758   3.935   5.194
 9029SOL     OW27985   4.460   0.734   4.541
 9029SOL    HW127986   4.422   0.732   4.449
 9029SOL    HW227987   4.532   0.664   4.549
 9030SOL     OW27988   2.391   2.714   4.256
 9030SOL    HW127989   2.414   2.782   4.326
 9030SOL    HW227990   2.296   2.685   4.269
 9031SOL     OW27991   4.696   0.370   4.707
 9031SOL    HW127992   4.638   0.415   4.775
 9031SOL    HW227993   4.708   0.430   4.628
 9032SOL     OW27994   4.834   3.512   1.256
 9032SOL    HW127995   4.801   3.431   1.305
 9032SOL    HW227996   4.922   3.541   1.294
 9033SOL     OW27997   0.667   5.161   2.489
 9033SOL    HW127998   0.688   5.250   2.448
 9033SOL    HW227999   0.703   5.158   2.582
 9034SOL     OW28000   3.238   6.367   4.812
 9034SOL    HW128001   3.294   6.308   4.753
 9034SOL    HW228002   3.284   6.454   4.826
 9035SOL     OW28003   2.433   5.990   0.231
 9035SOL    HW128004   2.374   6.070   0.244
 9035SOL    HW228005   2.429   5.960   0.136
 9036SOL     OW28006   1.296   3.542   4.870
 9036SOL    HW128007   1.218   3.559   4.809
 9036SOL    HW228008   1.349   3.626   4.881
 9037SOL     OW28009   0.737   2.339   3.933
 9037SOL    HW128010   0.787   2.371   3.854
 9037SOL    HW228011   0.653   2.393   3.945
 9038SOL     OW28012   4.912   3.248   6.529
 9038SOL    HW128013   5.006   3.267   6.499
 9038SOL    HW228014   4.852   3.241   6.450
 9039SOL     OW28015   3.357   5.051   6.853
 9039SOL    HW128016   3.434   5.058   6.790
 9039SOL    HW228017   3.344   5.138   6.901
 9040SOL     OW28018   2.019   2.371   1.922
 9040SOL    HW128019   1.938   2.315   1.940
 9040SOL    HW228020   2.072   2.331   1.848
 9041SOL     OW28021   0.354   2.129   0.921
 9041SOL    HW128022   0.335   2.166   0.830
 9041SOL    HW228023   0.451   2.138   0.942
 9042SOL     OW28024   3.304   5.967   5.715
 9042SOL    HW128025   3.276   6.001   5.804
 9042SOL    HW228026   3.377   6.025   5.678
 9043SOL     OW28027   2.774   1.166   6.882
 9043SOL    HW128028   2.867   1.190   6.910
 9043SOL    HW228029   2.712   1.242   6.904
 9044SOL     OW28030   0.361   6.929   0.119
 9044SOL    HW128031   0.298   6.886   0.184
 9044SOL    HW228032   0.348   6.889   0.028
 9045SOL     OW28033   4.490   0.283   3.336
 9045SOL    HW128034   4.463   0.248   3.247
 9045SOL    HW228035   4.410   0.317   3.385
 9046SOL     OW28036   3.228   3.016   2.850
 9046SOL    HW128037   3.155   2.986   2.790
 9046SOL    HW228038   3.286   3.082   2.802
 9047SOL     OW28039   1.476   4.331   5.909
 9047SOL    HW128040   1.456   4.299   5.817
 9047SOL    HW228041   1.485   4.253   5.970
 9048SOL     OW28042   6.024   2.413   6.335
 9048SOL    HW128043   6.031   2.475   6.412
 9048SOL    HW228044   5.963   2.337   6.359
 9049SOL     OW28045   3.206   6.728   6.331
 9049SOL    HW128046   3.143   6.768   6.398
 9049SOL    HW228047   3.255   6.651   6.374
 9050SOL     OW28048   0.701   4.570   1.853
 9050SOL    HW128049   0.622   4.622   1.820
 9050SOL    HW228050   0.781   4.592   1.797
 9051SOL     OW28051   2.896   1.740   1.371
 9051SOL    HW128052   2.896   1.814   1.303
 9051SOL    HW228053   2.988   1.704   1.382
 9052SOL     OW28054   1.755   3.239   4.734
 9052SOL    HW128055   1.775   3.320   4.679
 9052SOL    HW228056   1.714   3.169   4.675
 9053SOL     OW28057   2.046   1.468   1.211
 9053SOL    HW128058   2.069   1.456   1.308
 9053SOL    HW228059   2.000   1.556   1.199
 9054SOL     OW28060   3.057   5.675   4.046
 9054SOL    HW128061   2.970   5.625   4.037
 9054SOL    HW228062   3.118   5.650   3.971
 9055SOL     OW28063   0.402   4.328   4.883
 9055SOL    HW128064   0.318   4.335   4.936
 9055SOL    HW228065   0.381   4.288   4.793
 9056SOL     OW28066   6.001   2.146   2.708
 9056SOL    HW128067   6.040   2.072   2.652
 9056SOL    HW228068   5.902   2.149   2.694
 9057SOL     OW28069   4.285   1.028   4.554
 9057SOL    HW128070   4.277   0.944   4.500
 9057SOL    HW228071   4.315   1.103   4.495
 9058SOL     OW28072   1.371   0.835   6.564
 9058SOL    HW128073   1.281   0.824   6.522
 9058SOL    HW228074   1.422   0.750   6.555
 9059SOL     OW28075   1.579   2.325   2.321
 9059SOL    HW128076   1.612   2.233   2.300
 9059SOL    HW228077   1.653   2.391   2.308
 9060SOL     OW28078   4.813   2.913   4.561
 9060SOL    HW128079   4.872   2.915   4.642
 9060SOL    HW228080   4.831   2.829   4.509
 9061SOL     OW28081   4.774   5.250   2.478
 9061SOL    HW128082   4.700   5.248   2.410
 9061SOL    HW228083   4.742   5.206   2.562
 9062SOL     OW28084   1.409   5.366   1.216
 9062SOL    HW128085   1.430   5.425   1.138
 9062SOL    HW228086   1.478   5.379   1.287
 9063SOL     OW28087   2.633   1.868   3.213
 9063SOL    HW128088   2.712   1.807   3.219
 9063SOL    HW228089   2.587   1.854   3.125
 9064SOL     OW28090   6.402   3.455   6.714
 9064SOL    HW128091   6.385   3.365   6.755
 9064SOL    HW228092   6.496   3.458   6.679
 9065SOL     OW28093   2.718   0.893   0.777
 9065SOL    HW128094   2.650   0.883   0.850
 9065SOL    HW228095   2.803   0.928   0.814
 9066SOL     OW28096   5.026   6.733   6.863
 9066SOL    HW128097   4.967   6.666   6.907
 9066SOL    HW228098   5.106   6.688   6.824
 9067SOL     OW28099   1.606   6.870   3.450
 9067SOL    HW128100   1.510   6.874   3.423
 9067SOL    HW228101   1.620   6.791   3.510
 9068SOL     OW28102   1.517   5.874   6.164
 9068SOL    HW128103   1.473   5.944   6.220
 9068SOL    HW228104   1.616   5.890   6.161
 9069SOL     OW28105   1.981   2.293   6.080
 9069SOL    HW128106   1.883   2.296   6.100
 9069SOL    HW228107   2.020   2.207   6.114
 9070SOL     OW28108   1.567   4.468   4.736
 9070SOL    HW128109   1.507   4.402   4.690
 9070SOL    HW228110   1.581   4.439   4.831
 9071SOL     OW28111   6.154   6.620   0.202
 9071SOL    HW128112   6.221   6.693   0.192
 9071SOL    HW228113   6.168   6.574   0.290
 9072SOL     OW28114   6.620   4.184   0.097
 9072SOL    HW128115   6.589   4.118   0.028
 9072SOL    HW228116   6.688   4.140   0.156
 9073SOL     OW28117   1.851   1.162   2.191
 9073SOL    HW128118   1.895   1.161   2.101
 9073SOL    HW228119   1.839   1.256   2.222
 9074SOL     OW28120   1.409   0.121   3.298
 9074SOL    HW128121   1.337   0.189   3.289
 9074SOL    HW228122   1.409   0.062   3.217
 9075SOL     OW28123   6.622   0.828   2.428
 9075SOL    HW128124   6.616   0.789   2.336
 9075SOL    HW228125   6.659   0.760   2.491
 9076SOL     OW28126   6.720   0.689   5.640
 9076SOL    HW128127   6.662   0.768   5.620
 9076SOL    HW228128   6.684   0.641   5.720
 9077SOL     OW28129   5.790   6.180   2.276
 9077SOL    HW128130   5.859   6.253   2.273
 9077SOL    HW228131   5.745   6.174   2.187
 9078SOL     OW28132   3.929   3.137   4.833
 9078SOL    HW128133   3.990   3.072   4.879
 9078SOL    HW228134   3.946   3.229   4.869
 9079SOL     OW28135   3.352   6.901   5.628
 9079SOL    HW128136   3.318   6.808   5.614
 9079SOL    HW228137   3.294   6.948   5.695
 9080SOL     OW28138   5.302   1.968   0.725
 9080SOL    HW128139   5.295   2.068   0.718
 9080SOL    HW228140   5.214   1.927   0.705
 9081SOL     OW28141   5.574   6.434   1.903
 9081SOL    HW128142   5.553   6.460   1.998
 9081SOL    HW228143   5.667   6.398   1.898
 9082SOL     OW28144   3.176   1.217   3.956
 9082SOL    HW128145   3.110   1.240   3.884
 9082SOL    HW228146   3.262   1.189   3.914
 9083SOL     OW28147   4.928   4.571   4.506
 9083SOL    HW128148   4.916   4.474   4.529
 9083SOL    HW228149   4.839   4.617   4.508
 9084SOL     OW28150   3.560   4.129   3.360
 9084SOL    HW128151   3.523   4.106   3.270
 9084SOL    HW228152   3.485   4.148   3.423
 9085SOL     OW28153   1.788   2.081   1.000
 9085SOL    HW128154   1.848   2.120   0.930
 9085SOL    HW228155   1.727   2.153   1.034
 9086SOL     OW28156   0.779   3.991   1.264
 9086SOL    HW128157   0.799   4.001   1.167
 9086SOL    HW228158   0.787   4.079   1.309
 9087SOL     OW28159   5.004   3.547   1.759
 9087SOL    HW128160   4.932   3.511   1.700
 9087SOL    HW228161   4.999   3.503   1.849
 9088SOL     OW28162   5.130   0.821   6.786
 9088SOL    HW128163   5.223   0.817   6.749
 9088SOL    HW228164   5.133   0.840   6.884
 9089SOL     OW28165   4.306   6.992   5.614
 9089SOL    HW128166   4.305   0.064   5.637
 9089SOL    HW228167   4.400   6.958   5.615
 9090SOL     OW28168   5.456   1.390   4.723
 9090SOL    HW128169   5.535   1.451   4.732
 9090SOL    HW228170   5.488   1.298   4.699
 9091SOL     OW28171   3.289   3.947   6.791
 9091SOL    HW128172   3.323   4.028   6.744
 9091SOL    HW228173   3.346   3.929   6.871
 9092SOL     OW28174   6.856   2.884   0.223
 9092SOL    HW128175   6.794   2.873   0.301
 9092SOL    HW228176   6.896   2.976   0.225
 9093SOL     OW28177   1.260   6.467   6.060
 9093SOL    HW128178   1.204   6.529   6.005
 9093SOL    HW228179   1.356   6.492   6.051
 9094SOL     OW28180   0.272   3.332   2.215
 9094SOL    HW128181   0.223   3.404   2.265
 9094SOL    HW228182   0.340   3.289   2.275
 9095SOL     OW28183   5.432   5.832   5.287
 9095SOL    HW128184   5.427   5.780   5.202
 9095SOL    HW228185   5.350   5.816   5.341
 9096SOL     OW28186   6.406   5.526   2.611
 9096SOL    HW128187   6.468   5.565   2.679
 9096SOL    HW228188   6.328   5.588   2.598
 9097SOL     OW28189   0.978   2.888   6.190
 9097SOL    HW128190   0.878   2.886   6.192
 9097SOL    HW228191   1.013   2.799   6.218
 9098SOL     OW28192   1.471   3.673   4.112
 9098SOL    HW128193   1.568   3.647   4.112
 9098SOL    HW228194   1.446   3.708   4.202
 9099SOL     OW28195   2.148   3.517   6.906
 9099SOL    HW128196   2.122   3.436   6.853
 9099SOL    HW228197   2.248   3.526   6.906
 9100SOL     OW28198   1.025   4.836   3.037
 9100SOL    HW128199   1.005   4.744   3.003
 9100SOL    HW228200   0.981   4.904   2.979
 9101SOL     OW28201   1.425   2.269   1.943
 9101SOL    HW128202   1.454   2.339   2.009
 9101SOL    HW228203   1.371   2.200   1.991
 9102SOL     OW28204   4.448   5.966   2.787
 9102SOL    HW128205   4.457   6.027   2.867
 9102SOL    HW228206   4.352   5.941   2.776
 9103SOL     OW28207   6.272   1.807   0.533
 9103SOL    HW128208   6.183   1.763   0.539
 9103SOL    HW228209   6.277   1.881   0.600
 9104SOL     OW28210   5.746   0.830   6.438
 9104SOL    HW128211   5.770   0.748   6.387
 9104SOL    HW228212   5.747   0.909   6.376
 9105SOL     OW28213   2.159   0.193   6.360
 9105SOL    HW128214   2.065   0.165   6.383
 9105SOL    HW228215   2.201   0.237   6.440
 9106SOL     OW28216   1.682   4.482   0.115
 9106SOL    HW128217   1.750   4.427   0.163
 9106SOL    HW228218   1.594   4.434   0.115
 9107SOL     OW28219   2.286   1.028   6.840
 9107SOL    HW128220   2.378   0.991   6.836
 9107SOL    HW228221   2.245   1.025   6.749
 9108SOL     OW28222   5.790   4.719   6.116
 9108SOL    HW128223   5.867   4.691   6.059
 9108SOL    HW228224   5.712   4.660   6.099
 9109SOL     OW28225   5.048   2.973   2.784
 9109SOL    HW128226   5.108   2.950   2.708
 9109SOL    HW228227   5.095   2.954   2.870
 9110SOL     OW28228   1.473   5.966   4.515
 9110SOL    HW128229   1.384   5.922   4.531
 9110SOL    HW228230   1.458   6.063   4.495
 9111SOL     OW28231   4.120   2.874   5.616
 9111SOL    HW128232   4.061   2.872   5.697
 9111SOL    HW228233   4.147   2.968   5.596
 9112SOL     OW28234   1.207   5.366   2.376
 9112SOL    HW128235   1.267   5.336   2.450
 9112SOL    HW228236   1.154   5.287   2.343
 9113SOL     OW28237   5.372   1.622   3.645
 9113SOL    HW128238   5.424   1.570   3.713
 9113SOL    HW228239   5.317   1.560   3.590
 9114SOL     OW28240   1.257   5.905   5.137
 9114SOL    HW128241   1.342   5.933   5.092
 9114SOL    HW228242   1.277   5.871   5.229
 9115SOL     OW28243   5.477   4.471   4.134
 9115SOL    HW128244   5.546   4.419   4.185
 9115SOL    HW228245   5.522   4.524   4.062
 9116SOL     OW28246   1.012   0.009   3.121
 9116SOL    HW128247   1.112   0.013   3.125
 9116SOL    HW228248   0.982   0.023   3.027
 9117SOL     OW28249   3.894   0.448   6.620
 9117SOL    HW128250   3.902   0.361   6.670
 9117SOL    HW228251   3.847   0.432   6.533
 9118SOL     OW28252   6.495   4.196   1.581
 9118SOL    HW128253   6.465   4.291   1.574
 9118SOL    HW228254   6.595   4.194   1.587
 9119SOL     OW28255   3.969   0.498   1.051
 9119SOL    HW128256   3.962   0.582   1.105
 9119SOL    HW228257   4.034   0.435   1.094
 9120SOL     OW28258   6.169   3.254   5.463
 9120SOL    HW128259   6.242   3.288   5.521
 9120SOL    HW228260   6.083   3.252   5.515
 9121SOL     OW28261   3.281   0.868   4.710
 9121SOL    HW128262   3.226   0.821   4.640
 9121SOL    HW228263   3.239   0.956   4.732
 9122SOL     OW28264   2.187   4.201   2.409
 9122SOL    HW128265   2.158   4.287   2.453
 9122SOL    HW228266   2.178   4.210   2.310
 9123SOL     OW28267   0.931   0.171   3.752
 9123SOL    HW128268   0.912   0.251   3.809
 9123SOL    HW228269   1.029   0.154   3.750
 9124SOL     OW28270   2.787   5.405   1.603
 9124SOL    HW128271   2.802   5.423   1.506
 9124SOL    HW228272   2.690   5.387   1.620
 9125SOL     OW28273   4.800   6.253   1.074
 9125SOL    HW128274   4.811   6.192   0.996
 9125SOL    HW228275   4.753   6.336   1.044
 9126SOL     OW28276   3.902   4.746   0.335
 9126SOL    HW128277   3.874   4.661   0.290
 9126SOL    HW228278   3.828   4.813   0.327
 9127SOL     OW28279   0.432   4.163   5.142
 9127SOL    HW128280   0.509   4.104   5.118
 9127SOL    HW228281   0.427   4.240   5.078
 9128SOL     OW28282   6.010   3.544   5.517
 9128SOL    HW128283   5.988   3.471   5.583
 9128SOL    HW228284   5.925   3.582   5.480
 9129SOL     OW28285   1.512   2.573   0.902
 9129SOL    HW128286   1.599   2.587   0.949
 9129SOL    HW228287   1.445   2.640   0.933
 9130SOL     OW28288   2.604   3.959   5.292
 9130SOL    HW128289   2.528   4.004   5.244
 9130SOL    HW228290   2.691   3.987   5.251
 9131SOL     OW28291   5.150   2.364   0.994
 9131SOL    HW128292   5.092   2.283   0.989
 9131SOL    HW228293   5.122   2.421   1.072
 9132SOL     OW28294   6.981   4.358   3.472
 9132SOL    HW128295   7.006   4.321   3.562
 9132SOL    HW228296   6.946   4.284   3.415
 9133SOL     OW28297   4.535   1.288   0.708
 9133SOL    HW128298   4.624   1.294   0.664
 9133SOL    HW228299   4.463   1.289   0.639
 9134SOL     OW28300   4.179   5.136   0.499
 9134SOL    HW128301   4.084   5.149   0.528
 9134SOL    HW228302   4.207   5.213   0.442
 9135SOL     OW28303   6.843   6.597   2.584
 9135SOL    HW128304   6.813   6.592   2.489
 9135SOL    HW228305   6.855   6.504   2.620
 9136SOL     OW28306   6.025   4.279   6.578
 9136SOL    HW128307   5.940   4.268   6.629
 9136SOL    HW228308   6.044   4.376   6.565
 9137SOL     OW28309   5.484   5.918   6.732
 9137SOL    HW128310   5.546   5.996   6.740
 9137SOL    HW228311   5.489   5.882   6.639
 9138SOL     OW28312   3.308   3.105   1.166
 9138SOL    HW128313   3.243   3.098   1.090
 9138SOL    HW228314   3.297   3.194   1.210
 9139SOL     OW28315   6.638   0.193   0.897
 9139SOL    HW128316   6.670   0.101   0.874
 9139SOL    HW228317   6.582   0.228   0.822
 9140SOL     OW28318   1.294   4.054   3.070
 9140SOL    HW128319   1.209   4.060   3.017
 9140SOL    HW228320   1.276   4.080   3.165
 9141SOL     OW28321   6.705   5.497   5.591
 9141SOL    HW128322   6.627   5.540   5.545
 9141SOL    HW228323   6.724   5.547   5.676
 9142SOL     OW28324   1.324   3.935   4.317
 9142SOL    HW128325   1.285   3.991   4.244
 9142SOL    HW228326   1.422   3.950   4.322
 9143SOL     OW28327   0.320   4.175   3.033
 9143SOL    HW128328   0.258   4.130   2.969
 9143SOL    HW228329   0.287   4.267   3.053
 9144SOL     OW28330   2.372   4.562   5.513
 9144SOL    HW128331   2.320   4.647   5.521
 9144SOL    HW228332   2.363   4.526   5.420
 9145SOL     OW28333   1.282   5.971   5.877
 9145SOL    HW128334   1.310   5.880   5.905
 9145SOL    HW228335   1.363   6.029   5.865
 9146SOL     OW28336   6.058   2.981   3.193
 9146SOL    HW128337   5.961   2.969   3.216
 9146SOL    HW228338   6.108   2.898   3.216
 9147SOL     OW28339   4.131   0.000   4.524
 9147SOL    HW128340   4.202   6.958   4.541
 9147SOL    HW228341   4.055   7.011   4.588
 9148SOL     OW28342   6.177   6.392   1.487
 9148SOL    HW128343   6.267   6.375   1.448
 9148SOL    HW228344   6.139   6.306   1.522
 9149SOL     OW28345   0.569   3.386   2.069
 9149SOL    HW128346   0.542   3.294   2.041
 9149SOL    HW228347   0.666   3.387   2.093
 9150SOL     OW28348   2.507   2.521   0.726
 9150SOL    HW128349   2.594   2.484   0.756
 9150SOL    HW228350   2.468   2.463   0.654
 9151SOL     OW28351   1.884   3.116   3.838
 9151SOL    HW128352   1.822   3.104   3.915
 9151SOL    HW228353   1.871   3.040   3.773
 9152SOL     OW28354   1.474   4.272   2.539
 9152SOL    HW128355   1.390   4.326   2.530
 9152SOL    HW228356   1.489   4.220   2.455
 9153SOL     OW28357   0.174   3.972   6.544
 9153SOL    HW128358   0.160   3.875   6.562
 9153SOL    HW228359   0.271   3.993   6.545
 9154SOL     OW28360   5.541   5.021   2.577
 9154SOL    HW128361   5.491   5.014   2.663
 9154SOL    HW228362   5.616   4.955   2.577
 9155SOL     OW28363   1.358   6.470   2.928
 9155SOL    HW128364   1.265   6.502   2.943
 9155SOL    HW228365   1.359   6.402   2.855
 9156SOL     OW28366   6.925   3.929   6.520
 9156SOL    HW128367   7.013   3.959   6.557
 9156SOL    HW228368   6.936   3.839   6.478
 9157SOL     OW28369   1.473   4.499   6.249
 9157SOL    HW128370   1.429   4.443   6.320
 9157SOL    HW228371   1.573   4.490   6.257
 9158SOL     OW28372   6.926   3.706   4.875
 9158SOL    HW128373   6.930   3.684   4.973
 9158SOL    HW228374   6.984   3.786   4.856
 9159SOL     OW28375   3.357   1.512   3.928
 9159SOL    HW128376   3.312   1.595   3.961
 9159SOL    HW228377   3.304   1.432   3.957
 9160SOL     OW28378   0.152   4.440   1.634
 9160SOL    HW128379   0.185   4.490   1.714
 9160SOL    HW228380   0.123   4.505   1.564
 9161SOL     OW28381   6.620   4.397   2.264
 9161SOL    HW128382   6.600   4.379   2.168
 9161SOL    HW228383   6.594   4.317   2.319
 9162SOL     OW28384   3.923   1.986   1.691
 9162SOL    HW128385   3.972   2.073   1.697
 9162SOL    HW228386   3.827   2.000   1.717
 9163SOL     OW28387   1.707   2.505   4.002
 9163SOL    HW128388   1.658   2.523   3.917
 9163SOL    HW228389   1.652   2.444   4.060
 9164SOL     OW28390   2.634   6.784   0.640
 9164SOL    HW128391   2.546   6.804   0.596
 9164SOL    HW228392   2.665   6.864   0.692
 9165SOL     OW28393   5.428   1.828   6.438
 9165SOL    HW128394   5.337   1.787   6.448
 9165SOL    HW228395   5.497   1.767   6.476
 9166SOL     OW28396   5.532   5.753   1.580
 9166SOL    HW128397   5.615   5.765   1.525
 9166SOL    HW228398   5.555   5.759   1.677
 9167SOL     OW28399   1.736   1.073   4.698
 9167SOL    HW128400   1.668   1.142   4.723
 9167SOL    HW228401   1.826   1.115   4.692
 9168SOL     OW28402   6.827   5.965   4.543
 9168SOL    HW128403   6.917   5.944   4.505
 9168SOL    HW228404   6.776   6.020   4.477
 9169SOL     OW28405   0.013   5.898   1.137
 9169SOL    HW128406   6.941   5.923   1.136
 9169SOL    HW228407   0.066   5.971   1.178
 9170SOL     OW28408   1.001   1.347   6.129
 9170SOL    HW128409   1.069   1.378   6.196
 9170SOL    HW228410   1.047   1.301   6.053
 9171SOL     OW28411   3.222   4.947   6.605
 9171SOL    HW128412   3.292   5.002   6.651
 9171SOL    HW228413   3.144   5.005   6.581
 9172SOL     OW28414   4.469   1.383   4.006
 9172SOL    HW128415   4.566   1.406   4.013
 9172SOL    HW228416   4.415   1.451   4.054
 9173SOL     OW28417   5.580   2.857   4.916
 9173SOL    HW128418   5.653   2.790   4.900
 9173SOL    HW228419   5.569   2.870   5.015
 9174SOL     OW28420   0.401   4.644   0.681
 9174SOL    HW128421   0.422   4.739   0.658
 9174SOL    HW228422   0.486   4.595   0.702
 9175SOL     OW28423   1.822   0.158   0.128
 9175SOL    HW128424   1.873   0.241   0.152
 9175SOL    HW228425   1.734   0.158   0.177
 9176SOL     OW28426   1.826   1.432   2.291
 9176SOL    HW128427   1.734   1.470   2.299
 9176SOL    HW228428   1.859   1.405   2.381
 9177SOL     OW28429   0.179   4.690   3.649
 9177SOL    HW128430   0.132   4.718   3.565
 9177SOL    HW228431   0.112   4.654   3.714
 9178SOL     OW28432   2.030   5.780   0.791
 9178SOL    HW128433   1.998   5.853   0.732
 9178SOL    HW228434   1.973   5.776   0.874
 9179SOL     OW28435   3.422   5.474   4.503
 9179SOL    HW128436   3.411   5.568   4.535
 9179SOL    HW228437   3.440   5.413   4.581
 9180SOL     OW28438   6.822   0.909   5.163
 9180SOL    HW128439   6.900   0.884   5.221
 9180SOL    HW228440   6.832   1.003   5.131
 9181SOL     OW28441   2.560   1.951   3.459
 9181SOL    HW128442   2.530   2.039   3.423
 9181SOL    HW228443   2.605   1.899   3.386
 9182SOL     OW28444   1.120   1.533   3.193
 9182SOL    HW128445   1.172   1.612   3.227
 9182SOL    HW228446   1.023   1.555   3.190
 9183SOL     OW28447   0.911   1.705   6.207
 9183SOL    HW128448   0.908   1.633   6.276
 9183SOL    HW228449   0.820   1.714   6.165
 9184SOL     OW28450   3.826   3.194   0.480
 9184SOL    HW128451   3.873   3.134   0.545
 9184SOL    HW228452   3.882   3.274   0.461
 9185SOL     OW28453   0.673   0.987   6.990
 9185SOL    HW128454   0.726   1.059   0.010
 9185SOL    HW228455   0.589   1.026   6.952
 9186SOL     OW28456   5.537   1.033   6.498
 9186SOL    HW128457   5.470   1.099   6.533
 9186SOL    HW228458   5.581   0.987   6.575
 9187SOL     OW28459   5.906   2.080   0.820
 9187SOL    HW128460   5.825   2.105   0.768
 9187SOL    HW228461   5.986   2.081   0.760
 9188SOL     OW28462   1.793   0.893   2.243
 9188SOL    HW128463   1.865   0.859   2.304
 9188SOL    HW228464   1.813   0.988   2.218
 9189SOL     OW28465   4.013   1.397   4.866
 9189SOL    HW128466   4.059   1.479   4.900
 9189SOL    HW228467   3.943   1.422   4.799
 9190SOL     OW28468   6.706   1.979   5.349
 9190SOL    HW128469   6.752   2.065   5.330
 9190SOL    HW228470   6.730   1.912   5.279
 9191SOL     OW28471   5.735   0.073   0.606
 9191SOL    HW128472   5.748   0.109   0.514
 9191SOL    HW228473   5.638   0.081   0.632
 9192SOL     OW28474   5.256   4.337   4.176
 9192SOL    HW128475   5.340   4.390   4.161
 9192SOL    HW228476   5.201   4.382   4.247
 9193SOL     OW28477   2.864   3.389   3.352
 9193SOL    HW128478   2.806   3.460   3.392
 9193SOL    HW228479   2.891   3.415   3.260
 9194SOL     OW28480   3.848   5.489   2.586
 9194SOL    HW128481   3.874   5.455   2.677
 9194SOL    HW228482   3.792   5.571   2.596
 9195SOL     OW28483   0.510   2.964   2.512
 9195SOL    HW128484   0.564   3.040   2.474
 9195SOL    HW228485   0.418   2.996   2.533
 9196SOL     OW28486   4.551   6.814   3.463
 9196SOL    HW128487   4.615   6.744   3.432
 9196SOL    HW228488   4.591   6.905   3.448
 9197SOL     OW28489   3.400   2.809   5.116
 9197SOL    HW128490   3.493   2.817   5.154
 9197SOL    HW228491   3.353   2.732   5.160
 9198SOL     OW28492   5.472   1.939   5.357
 9198SOL    HW128493   5.475   2.026   5.405
 9198SOL    HW228494   5.393   1.886   5.388
 9199SOL     OW28495   1.674   3.794   6.481
 9199SOL    HW128496   1.668   3.880   6.430
 9199SOL    HW228497   1.673   3.717   6.416
 9200SOL     OW28498   5.957   6.240   0.487
 9200SOL    HW128499   5.897   6.160   0.484
 9200SOL    HW228500   5.965   6.280   0.396
 9201SOL     OW28501   1.742   4.241   2.883
 9201SOL    HW128502   1.642   4.251   2.889
 9201SOL    HW228503   1.776   4.197   2.967
 9202SOL     OW28504   3.532   5.555   3.960
 9202SOL    HW128505   3.484   5.545   4.047
 9202SOL    HW228506   3.470   5.594   3.892
 9203SOL     OW28507   5.378   0.957   6.102
 9203SOL    HW128508   5.470   0.995   6.109
 9203SOL    HW228509   5.333   0.961   6.191
 9204SOL     OW28510   4.928   4.235   1.699
 9204SOL    HW128511   4.849   4.175   1.688
 9204SOL    HW228512   4.898   4.328   1.717
 9205SOL     OW28513   4.829   3.004   2.285
 9205SOL    HW128514   4.814   2.912   2.321
 9205SOL    HW228515   4.813   3.005   2.187
 9206SOL     OW28516   0.609   6.793   3.049
 9206SOL    HW128517   0.586   6.771   2.954
 9206SOL    HW228518   0.547   6.744   3.111
 9207SOL     OW28519   3.833   6.577   6.865
 9207SOL    HW128520   3.912   6.622   6.907
 9207SOL    HW228521   3.765   6.555   6.936
 9208SOL     OW28522   4.820   4.483   2.239
 9208SOL    HW128523   4.789   4.449   2.329
 9208SOL    HW228524   4.843   4.405   2.181
 9209SOL     OW28525   3.921   0.591   2.983
 9209SOL    HW128526   3.853   0.519   2.999
 9209SOL    HW228527   3.994   0.584   3.051
 9210SOL     OW28528   1.344   0.007   0.585
 9210SOL    HW128529   1.433   0.045   0.613
 9210SOL    HW228530   1.285   0.080   0.552
 9211SOL     OW28531   4.971   1.389   6.002
 9211SOL    HW128532   5.014   1.308   6.042
 9211SOL    HW228533   5.020   1.471   6.034
 9212SOL     OW28534   6.069   3.530   4.726
 9212SOL    HW128535   6.128   3.454   4.697
 9212SOL    HW228536   6.014   3.561   4.648
 9213SOL     OW28537   6.739   6.901   2.406
 9213SOL    HW128538   6.671   6.937   2.343
 9213SOL    HW228539   6.793   6.976   2.444
 9214SOL     OW28540   1.926   2.310   5.600
 9214SOL    HW128541   1.957   2.224   5.560
 9214SOL    HW228542   1.998   2.349   5.656
 9215SOL     OW28543   0.360   3.143   2.730
 9215SOL    HW128544   0.323   3.180   2.815
 9215SOL    HW228545   0.460   3.133   2.738
 9216SOL     OW28546   3.217   5.348   4.137
 9216SOL    HW128547   3.269   5.425   4.174
 9216SOL    HW228548   3.220   5.350   4.037
 9217SOL     OW28549   4.708   1.110   5.813
 9217SOL    HW128550   4.798   1.070   5.800
 9217SOL    HW228551   4.699   1.143   5.907
 9218SOL     OW28552   6.048   5.395   6.305
 9218SOL    HW128553   5.956   5.382   6.342
 9218SOL    HW228554   6.107   5.320   6.335
 9219SOL     OW28555   3.579   2.955   5.505
 9219SOL    HW128556   3.645   3.025   5.532
 9219SOL    HW228557   3.498   2.998   5.464
 9220SOL     OW28558   0.735   6.445   3.576
 9220SOL    HW128559   0.828   6.437   3.612
 9220SOL    HW228560   0.722   6.535   3.535
 9221SOL     OW28561   2.088   1.507   0.291
 9221SOL    HW128562   2.087   1.413   0.325
 9221SOL    HW228563   2.063   1.508   0.195
 9222SOL     OW28564   1.863   3.333   4.143
 9222SOL    HW128565   1.932   3.323   4.214
 9222SOL    HW228566   1.908   3.358   4.057
 9223SOL     OW28567   0.407   2.970   4.963
 9223SOL    HW128568   0.433   2.876   4.942
 9223SOL    HW228569   0.308   2.974   4.978
 9224SOL     OW28570   2.416   4.429   3.393
 9224SOL    HW128571   2.326   4.465   3.418
 9224SOL    HW228572   2.485   4.463   3.457
 9225SOL     OW28573   5.564   5.720   6.419
 9225SOL    HW128574   5.635   5.650   6.429
 9225SOL    HW228575   5.604   5.803   6.380
 9226SOL     OW28576   0.810   0.903   0.946
 9226SOL    HW128577   0.846   0.824   0.996
 9226SOL    HW228578   0.713   0.913   0.965
 9227SOL     OW28579   2.420   4.276   0.441
 9227SOL    HW128580   2.439   4.195   0.496
 9227SOL    HW228581   2.504   4.304   0.393
 9228SOL     OW28582   3.349   3.111   5.160
 9228SOL    HW128583   3.330   3.183   5.093
 9228SOL    HW228584   3.349   3.022   5.115
 9229SOL     OW28585   6.864   5.151   0.264
 9229SOL    HW128586   6.848   5.247   0.242
 9229SOL    HW228587   6.867   5.098   0.180
 9230SOL     OW28588   4.476   1.479   4.986
 9230SOL    HW128589   4.530   1.415   5.042
 9230SOL    HW228590   4.379   1.468   5.008
 9231SOL     OW28591   6.715   5.771   3.245
 9231SOL    HW128592   6.730   5.680   3.283
 9231SOL    HW228593   6.792   5.830   3.268
 9232SOL     OW28594   1.014   4.947   2.502
 9232SOL    HW128595   0.952   4.872   2.527
 9232SOL    HW228596   1.007   4.965   2.404
 9233SOL     OW28597   0.505   6.554   0.052
 9233SOL    HW128598   0.449   6.545   6.995
 9233SOL    HW228599   0.594   6.509   0.038
 9234SOL     OW28600   2.033   4.190   0.443
 9234SOL    HW128601   2.084   4.112   0.407
 9234SOL    HW228602   1.947   4.201   0.392
 9235SOL     OW28603   1.861   2.175   2.953
 9235SOL    HW128604   1.826   2.096   3.005
 9235SOL    HW228605   1.841   2.259   3.004
 9236SOL     OW28606   2.309   3.400   6.549
 9236SOL    HW128607   2.320   3.341   6.469
 9236SOL    HW228608   2.216   3.438   6.550
 9237SOL     OW28609   5.162   5.322   3.427
 9237SOL    HW128610   5.136   5.404   3.377
 9237SOL    HW228611   5.220   5.348   3.504
 9238SOL     OW28612   1.142   2.701   4.501
 9238SOL    HW128613   1.218   2.637   4.504
 9238SOL    HW228614   1.105   2.715   4.593
 9239SOL     OW28615   1.577   4.837   6.832
 9239SOL    HW128616   1.511   4.800   6.767
 9239SOL    HW228617   1.531   4.857   6.918
 9240SOL     OW28618   4.250   2.004   2.958
 9240SOL    HW128619   4.246   1.923   3.016
 9240SOL    HW228620   4.338   2.051   2.972
 9241SOL     OW28621   5.728   6.801   1.065
 9241SOL    HW128622   5.678   6.732   1.013
 9241SOL    HW228623   5.719   6.889   1.019
 9242SOL     OW28624   1.338   2.468   0.707
 9242SOL    HW128625   1.400   2.521   0.765
 9242SOL    HW228626   1.250   2.514   0.701
 9243SOL     OW28627   1.126   0.801   0.149
 9243SOL    HW128628   1.100   0.846   0.063
 9243SOL    HW228629   1.211   0.840   0.183
 9244SOL     OW28630   3.565   6.638   5.837
 9244SOL    HW128631   3.508   6.615   5.758
 9244SOL    HW228632   3.649   6.681   5.806
 9245SOL     OW28633   1.205   4.843   3.644
 9245SOL    HW128634   1.290   4.880   3.605
 9245SOL    HW228635   1.203   4.744   3.632
 9246SOL     OW28636   5.713   0.260   6.641
 9246SOL    HW128637   5.689   0.205   6.721
 9246SOL    HW228638   5.629   0.292   6.596
 9247SOL     OW28639   3.858   6.235   3.324
 9247SOL    HW128640   3.821   6.211   3.414
 9247SOL    HW228641   3.902   6.154   3.284
 9248SOL     OW28642   2.366   0.550   6.857
 9248SOL    HW128643   2.359   0.599   6.770
 9248SOL    HW228644   2.363   0.615   6.933
 9249SOL     OW28645   3.206   6.339   1.003
 9249SOL    HW128646   3.280   6.273   1.015
 9249SOL    HW228647   3.208   6.375   0.910
 9250SOL     OW28648   0.203   2.636   4.048
 9250SOL    HW128649   0.257   2.653   3.965
 9250SOL    HW228650   0.240   2.558   4.097
 9251SOL     OW28651   3.144   2.877   0.726
 9251SOL    HW128652   3.213   2.813   0.691
 9251SOL    HW228653   3.064   2.827   0.758
 9252SOL     OW28654   5.516   1.835   5.102
 9252SOL    HW128655   5.424   1.798   5.086
 9252SOL    HW228656   5.516   1.889   5.185
 9253SOL     OW28657   0.807   5.817   5.056
 9253SOL    HW128658   0.753   5.823   4.972
 9253SOL    HW228659   0.747   5.825   5.135
 9254SOL     OW28660   0.090   4.425   2.839
 9254SOL    HW128661   0.085   4.366   2.919
 9254SOL    HW228662   0.102   4.370   2.757
 9255SOL     OW28663   6.809   4.123   0.459
 9255SOL    HW128664   6.755   4.059   0.514
 9255SOL    HW228665   6.826   4.206   0.512
 9256SOL     OW28666   3.052   6.501   1.166
 9256SOL    HW128667   3.103   6.441   1.104
 9256SOL    HW228668   3.059   6.596   1.134
 9257SOL     OW28669   6.681   5.881   4.042
 9257SOL    HW128670   6.764   5.826   4.056
 9257SOL    HW228671   6.616   5.862   4.115
 9258SOL     OW28672   3.152   4.933   1.285
 9258SOL    HW128673   3.054   4.943   1.267
 9258SOL    HW228674   3.167   4.851   1.341
 9259SOL     OW28675   1.931   1.959   6.979
 9259SOL    HW128676   1.993   1.911   6.916
 9259SOL    HW228677   1.867   1.894   7.019
 9260SOL     OW28678   5.447   3.966   4.771
 9260SOL    HW128679   5.390   4.017   4.835
 9260SOL    HW228680   5.511   3.908   4.822
 9261SOL     OW28681   3.629   2.478   1.724
 9261SOL    HW128682   3.707   2.497   1.665
 9261SOL    HW228683   3.654   2.409   1.792
 9262SOL     OW28684   6.753   6.395   5.278
 9262SOL    HW128685   6.665   6.361   5.246
 9262SOL    HW228686   6.817   6.399   5.201
 9263SOL     OW28687   2.172   4.494   3.529
 9263SOL    HW128688   2.121   4.431   3.586
 9263SOL    HW228689   2.113   4.570   3.501
 9264SOL     OW28690   5.084   4.283   6.884
 9264SOL    HW128691   5.023   4.224   6.831
 9264SOL    HW228692   5.077   4.377   6.851
 9265SOL     OW28693   5.750   1.446   0.995
 9265SOL    HW128694   5.688   1.467   1.071
 9265SOL    HW228695   5.698   1.406   0.920
 9266SOL     OW28696   1.319   4.858   1.191
 9266SOL    HW128697   1.254   4.816   1.128
 9266SOL    HW228698   1.384   4.789   1.223
 9267SOL     OW28699   6.869   0.817   4.410
 9267SOL    HW128700   6.774   0.807   4.440
 9267SOL    HW228701   6.918   0.877   4.473
 9268SOL     OW28702   0.554   0.097   1.450
 9268SOL    HW128703   0.629   0.146   1.495
 9268SOL    HW228704   0.590   0.014   1.408
 9269SOL     OW28705   3.742   1.350   0.056
 9269SOL    HW128706   3.836   1.334   0.024
 9269SOL    HW228707   3.682   1.280   0.018
 9270SOL     OW28708   1.823   0.378   6.319
 9270SOL    HW128709   1.817   0.376   6.419
 9270SOL    HW228710   1.739   0.340   6.280
 9271SOL     OW28711   1.308   5.714   4.825
 9271SOL    HW128712   1.372   5.789   4.841
 9271SOL    HW228713   1.275   5.718   4.731
 9272SOL     OW28714   6.547   6.419   6.452
 9272SOL    HW128715   6.491   6.466   6.384
 9272SOL    HW228716   6.635   6.394   6.412
 9273SOL     OW28717   4.713   4.750   3.537
 9273SOL    HW128718   4.730   4.834   3.487
 9273SOL    HW228719   4.615   4.743   3.558
 9274SOL     OW28720   0.371   2.925   0.778
 9274SOL    HW128721   0.353   2.832   0.745
 9274SOL    HW228722   0.466   2.931   0.810
 9275SOL     OW28723   6.771   0.827   0.433
 9275SOL    HW128724   6.825   0.893   0.486
 9275SOL    HW228725   6.679   0.863   0.418
 9276SOL     OW28726   2.694   5.682   0.362
 9276SOL    HW128727   2.747   5.624   0.423
 9276SOL    HW228728   2.707   5.778   0.387
 9277SOL     OW28729   5.323   5.758   1.396
 9277SOL    HW128730   5.397   5.784   1.458
 9277SOL    HW228731   5.338   5.665   1.365
 9278SOL     OW28732   0.837   0.375   5.559
 9278SOL    HW128733   0.892   0.439   5.505
 9278SOL    HW228734   0.877   0.365   5.650
 9279SOL     OW28735   4.152   5.851   1.462
 9279SOL    HW128736   4.204   5.819   1.382
 9279SOL    HW228737   4.060   5.813   1.458
 9280SOL     OW28738   1.160   6.816   2.632
 9280SOL    HW128739   1.259   6.809   2.625
 9280SOL    HW228740   1.118   6.742   2.580
 9281SOL     OW28741   2.432   5.468   0.130
 9281SOL    HW128742   2.428   5.423   0.041
 9281SOL    HW228743   2.503   5.539   0.129
 9282SOL     OW28744   3.446   0.179   5.271
 9282SOL    HW128745   3.493   0.210   5.189
 9282SOL    HW228746   3.490   0.219   5.352
 9283SOL     OW28747   4.413   6.551   1.129
 9283SOL    HW128748   4.512   6.566   1.137
 9283SOL    HW228749   4.374   6.620   1.068
 9284SOL     OW28750   4.108   3.869   5.152
 9284SOL    HW128751   4.206   3.888   5.147
 9284SOL    HW228752   4.093   3.780   5.195
 9285SOL     OW28753   0.419   5.359   2.688
 9285SOL    HW128754   0.495   5.416   2.719
 9285SOL    HW228755   0.418   5.355   2.588
 9286SOL     OW28756   4.945   6.478   1.412
 9286SOL    HW128757   4.955   6.553   1.477
 9286SOL    HW228758   4.853   6.439   1.420
 9287SOL     OW28759   3.893   3.915   5.475
 9287SOL    HW128760   3.979   3.864   5.479
 9287SOL    HW228761   3.835   3.887   5.551
 9288SOL     OW28762   3.468   2.109   2.524
 9288SOL    HW128763   3.484   2.126   2.621
 9288SOL    HW228764   3.404   2.177   2.488
 9289SOL     OW28765   5.115   6.597   0.573
 9289SOL    HW128766   5.142   6.604   0.477
 9289SOL    HW228767   5.173   6.529   0.619
 9290SOL     OW28768   4.937   1.141   3.886
 9290SOL    HW128769   4.855   1.183   3.848
 9290SOL    HW228770   4.922   1.042   3.895
 9291SOL     OW28771   0.881   4.459   6.272
 9291SOL    HW128772   0.970   4.451   6.226
 9291SOL    HW228773   0.815   4.400   6.226
 9292SOL     OW28774   0.813   1.423   6.965
 9292SOL    HW128775   0.847   1.487   0.009
 9292SOL    HW228776   0.800   1.333   7.006
 9293SOL     OW28777   4.624   2.660   4.259
 9293SOL    HW128778   4.716   2.623   4.268
 9293SOL    HW228779   4.558   2.586   4.255
 9294SOL     OW28780   4.729   0.413   6.645
 9294SOL    HW128781   4.771   0.503   6.656
 9294SOL    HW228782   4.702   0.400   6.550
 9295SOL     OW28783   0.368   0.870   5.350
 9295SOL    HW128784   0.357   0.775   5.380
 9295SOL    HW228785   0.282   0.919   5.361
 9296SOL     OW28786   2.135   4.751   6.458
 9296SOL    HW128787   2.193   4.803   6.395
 9296SOL    HW228788   2.099   4.671   6.411
 9297SOL     OW28789   6.352   5.792   2.367
 9297SOL    HW128790   6.387   5.759   2.280
 9297SOL    HW228791   6.301   5.877   2.353
 9298SOL     OW28792   1.647   5.106   6.641
 9298SOL    HW128793   1.672   5.012   6.662
 9298SOL    HW228794   1.730   5.162   6.632
 9299SOL     OW28795   2.493   2.519   4.732
 9299SOL    HW128796   2.580   2.471   4.744
 9299SOL    HW228797   2.439   2.513   4.817
 9300SOL     OW28798   1.799   5.516   4.891
 9300SOL    HW128799   1.868   5.506   4.963
 9300SOL    HW228800   1.766   5.611   4.889
 9301SOL     OW28801   0.136   4.721   4.714
 9301SOL    HW128802   0.112   4.680   4.626
 9301SOL    HW228803   0.090   4.810   4.723
 9302SOL     OW28804   2.222   3.539   5.306
 9302SOL    HW128805   2.274   3.622   5.328
 9302SOL    HW228806   2.160   3.558   5.229
 9303SOL     OW28807   2.334   4.427   0.228
 9303SOL    HW128808   2.354   4.377   0.312
 9303SOL    HW228809   2.377   4.380   0.150
 9304SOL     OW28810   4.671   4.852   6.741
 9304SOL    HW128811   4.625   4.913   6.676
 9304SOL    HW228812   4.614   4.842   6.823
 9305SOL     OW28813   2.195   1.924   1.516
 9305SOL    HW128814   2.211   1.990   1.589
 9305SOL    HW228815   2.150   1.843   1.553
 9306SOL     OW28816   6.826   6.028   5.213
 9306SOL    HW128817   6.868   6.118   5.201
 9306SOL    HW228818   6.767   6.029   5.294
 9307SOL     OW28819   2.003   3.473   1.460
 9307SOL    HW128820   1.930   3.541   1.454
 9307SOL    HW228821   2.041   3.473   1.553
 9308SOL     OW28822   2.089   3.617   2.157
 9308SOL    HW128823   2.005   3.648   2.113
 9308SOL    HW228824   2.148   3.573   2.089
 9309SOL     OW28825   4.856   5.047   6.316
 9309SOL    HW128826   4.871   4.970   6.254
 9309SOL    HW228827   4.788   5.109   6.276
 9310SOL     OW28828   6.003   6.653   6.996
 9310SOL    HW128829   6.051   6.605   0.045
 9310SOL    HW228830   5.910   6.620   6.989
 9311SOL     OW28831   4.405   3.646   1.228
 9311SOL    HW128832   4.495   3.684   1.248
 9311SOL    HW228833   4.405   3.548   1.246
 9312SOL     OW28834   0.734   2.795   3.299
 9312SOL    HW128835   0.808   2.835   3.352
 9312SOL    HW228836   0.661   2.765   3.360
 9313SOL     OW28837   0.509   0.995   2.385
 9313SOL    HW128838   0.482   1.038   2.471
 9313SOL    HW228839   0.470   1.047   2.308
 9314SOL     OW28840   5.228   3.855   0.480
 9314SOL    HW128841   5.248   3.807   0.395
 9314SOL    HW228842   5.272   3.945   0.479
 9315SOL     OW28843   5.000   6.798   6.205
 9315SOL    HW128844   4.971   6.893   6.196
 9315SOL    HW228845   5.004   6.755   6.115
 9316SOL     OW28846   4.815   0.787   5.612
 9316SOL    HW128847   4.718   0.810   5.623
 9316SOL    HW228848   4.870   0.847   5.669
 9317SOL     OW28849   3.987   6.012   3.263
 9317SOL    HW128850   3.962   5.922   3.299
 9317SOL    HW228851   4.051   6.001   3.187
 9318SOL     OW28852   4.040   6.495   1.666
 9318SOL    HW128853   4.097   6.458   1.740
 9318SOL    HW228854   4.053   6.440   1.584
 9319SOL     OW28855   3.008   2.824   6.795
 9319SOL    HW128856   3.052   2.734   6.792
 9319SOL    HW228857   2.984   2.846   6.889
 9320SOL     OW28858   6.378   6.543   0.006
 9320SOL    HW128859   6.392   6.619   0.070
 9320SOL    HW228860   6.400   6.573   6.938
 9321SOL     OW28861   0.430   3.157   4.682
 9321SOL    HW128862   0.520   3.191   4.709
 9321SOL    HW228863   0.396   3.093   4.751
 9322SOL     OW28864   6.066   3.299   6.880
 9322SOL    HW128865   5.997   3.341   6.939
 9322SOL    HW228866   6.034   3.209   6.850
 9323SOL     OW28867   0.584   1.936   5.678
 9323SOL    HW128868   0.633   2.007   5.728
 9323SOL    HW228869   0.490   1.967   5.661
 9324SOL     OW28870   0.935   4.666   2.169
 9324SOL    HW128871   0.837   4.651   2.176
 9324SOL    HW228872   0.983   4.579   2.160
 9325SOL     OW28873   0.899   4.370   3.300
 9325SOL    HW128874   0.806   4.405   3.294
 9325SOL    HW228875   0.957   4.419   3.235
 9326SOL     OW28876   4.617   4.340   1.695
 9326SOL    HW128877   4.684   4.390   1.750
 9326SOL    HW228878   4.558   4.286   1.755
 9327SOL     OW28879   3.900   0.834   3.432
 9327SOL    HW128880   3.828   0.886   3.385
 9327SOL    HW228881   3.989   0.857   3.392
 9328SOL     OW28882   2.480   0.071   4.223
 9328SOL    HW128883   2.382   0.058   4.238
 9328SOL    HW228884   2.532   0.008   4.281
 9329SOL     OW28885   0.487   5.397   6.544
 9329SOL    HW128886   0.540   5.342   6.480
 9329SOL    HW228887   0.438   5.469   6.494
 9330SOL     OW28888   6.527   6.318   7.006
 9330SOL    HW128889   6.461   6.392   6.987
 9330SOL    HW228890   6.528   6.254   6.929
 9331SOL     OW28891   1.757   3.581   3.631
 9331SOL    HW128892   1.729   3.642   3.706
 9331SOL    HW228893   1.766   3.634   3.547
 9332SOL     OW28894   4.802   5.732   0.635
 9332SOL    HW128895   4.703   5.747   0.640
 9332SOL    HW228896   4.824   5.643   0.676
 9333SOL     OW28897   4.399   4.104   0.661
 9333SOL    HW128898   4.492   4.113   0.695
 9333SOL    HW228899   4.393   4.145   0.570
 9334SOL     OW28900   5.935   5.926   5.892
 9334SOL    HW128901   5.995   5.906   5.970
 9334SOL    HW228902   5.972   5.884   5.809
 9335SOL     OW28903   0.847   3.727   1.714
 9335SOL    HW128904   0.794   3.795   1.664
 9335SOL    HW228905   0.936   3.765   1.739
 9336SOL     OW28906   6.018   6.606   5.496
 9336SOL    HW128907   5.964   6.540   5.550
 9336SOL    HW228908   5.989   6.602   5.401
 9337SOL     OW28909   2.447   0.223   6.197
 9337SOL    HW128910   2.415   0.193   6.288
 9337SOL    HW228911   2.503   0.151   6.156
 9338SOL     OW28912   5.702   6.797   0.231
 9338SOL    HW128913   5.658   6.845   0.308
 9338SOL    HW228914   5.641   6.796   0.153
 9339SOL     OW28915   6.021   3.880   5.638
 9339SOL    HW128916   6.073   3.795   5.628
 9339SOL    HW228917   6.084   3.958   5.638
 9340SOL     OW28918   3.760   5.176   0.908
 9340SOL    HW128919   3.676   5.176   0.963
 9340SOL    HW228920   3.797   5.269   0.905
 9341SOL     OW28921   5.307   4.173   6.729
 9341SOL    HW128922   5.275   4.216   6.814
 9341SOL    HW228923   5.232   4.121   6.688
 9342SOL     OW28924   3.412   0.449   4.069
 9342SOL    HW128925   3.480   0.520   4.085
 9342SOL    HW228926   3.399   0.396   4.154
 9343SOL     OW28927   4.635   4.075   1.281
 9343SOL    HW128928   4.674   4.165   1.302
 9343SOL    HW228929   4.691   4.004   1.323
 9344SOL     OW28930   6.115   6.475   5.097
 9344SOL    HW128931   6.205   6.515   5.077
 9344SOL    HW228932   6.052   6.547   5.126
 9345SOL     OW28933   1.046   5.774   0.182
 9345SOL    HW128934   1.103   5.704   0.224
 9345SOL    HW228935   0.991   5.733   0.109
 9346SOL     OW28936   5.706   5.922   0.757
 9346SOL    HW128937   5.725   5.964   0.845
 9346SOL    HW228938   5.607   5.906   0.749
 9347SOL     OW28939   3.432   5.384   0.825
 9347SOL    HW128940   3.494   5.452   0.785
 9347SOL    HW228941   3.341   5.426   0.836
 9348SOL     OW28942   2.660   5.751   1.829
 9348SOL    HW128943   2.692   5.845   1.819
 9348SOL    HW228944   2.560   5.751   1.839
 9349SOL     OW28945   6.716   5.552   1.862
 9349SOL    HW128946   6.733   5.599   1.948
 9349SOL    HW228947   6.739   5.613   1.786
 9350SOL     OW28948   6.646   0.536   5.879
 9350SOL    HW128949   6.655   0.448   5.926
 9350SOL    HW228950   6.622   0.606   5.946
 9351SOL     OW28951   3.403   2.495   5.799
 9351SOL    HW128952   3.492   2.537   5.780
 9351SOL    HW228953   3.334   2.568   5.807
 9352SOL     OW28954   3.169   2.636   5.795
 9352SOL    HW128955   3.137   2.726   5.822
 9352SOL    HW228956   3.120   2.606   5.713
 9353SOL     OW28957   0.814   3.477   1.620
 9353SOL    HW128958   0.731   3.489   1.565
 9353SOL    HW228959   0.835   3.562   1.668
 9354SOL     OW28960   5.088   1.898   1.472
 9354SOL    HW128961   4.993   1.867   1.462
 9354SOL    HW228962   5.121   1.934   1.385
 9355SOL     OW28963   6.394   0.430   3.158
 9355SOL    HW128964   6.326   0.439   3.086
 9355SOL    HW228965   6.452   0.350   3.140
 9356SOL     OW28966   4.387   4.608   2.359
 9356SOL    HW128967   4.294   4.612   2.323
 9356SOL    HW228968   4.438   4.535   2.312
 9357SOL     OW28969   3.785   3.348   0.852
 9357SOL    HW128970   3.773   3.258   0.810
 9357SOL    HW228971   3.736   3.351   0.940
 9358SOL     OW28972   5.917   4.648   2.073
 9358SOL    HW128973   5.931   4.561   2.121
 9358SOL    HW228974   5.843   4.698   2.117
 9359SOL     OW28975   6.352   3.625   5.920
 9359SOL    HW128976   6.425   3.641   5.987
 9359SOL    HW228977   6.283   3.564   5.959
 9360SOL     OW28978   1.897   0.743   6.962
 9360SOL    HW128979   1.859   0.737   0.029
 9360SOL    HW228980   1.822   0.742   6.895
 9361SOL     OW28981   3.004   0.043   2.166
 9361SOL    HW128982   3.062   0.053   2.085
 9361SOL    HW228983   2.944   6.990   2.154
 9362SOL     OW28984   2.235   1.351   3.067
 9362SOL    HW128985   2.288   1.340   3.151
 9362SOL    HW228986   2.252   1.272   3.008
 9363SOL     OW28987   3.115   5.966   2.090
 9363SOL    HW128988   3.211   5.982   2.068
 9363SOL    HW228989   3.103   5.871   2.120
 9364SOL     OW28990   4.583   4.907   0.172
 9364SOL    HW128991   4.664   4.961   0.150
 9364SOL    HW228992   4.561   4.845   0.096
 9365SOL     OW28993   2.597   1.497   4.990
 9365SOL    HW128994   2.513   1.442   4.991
 9365SOL    HW228995   2.579   1.586   5.031
 9366SOL     OW28996   2.727   1.796   0.614
 9366SOL    HW128997   2.762   1.876   0.663
 9366SOL    HW228998   2.627   1.796   0.618
 9367SOL     OW28999   6.868   5.553   3.339
 9367SOL    HW129000   6.825   5.477   3.388
 9367SOL    HW229001   6.931   5.601   3.400
 9368SOL     OW29002   3.140   2.431   1.438
 9368SOL    HW129003   3.226   2.470   1.470
 9368SOL    HW229004   3.109   2.481   1.357
 9369SOL     OW29005   0.116   2.180   4.544
 9369SOL    HW129006   0.105   2.221   4.453
 9369SOL    HW229007   0.069   2.236   4.612
 9370SOL     OW29008   6.107   1.371   2.924
 9370SOL    HW129009   6.042   1.445   2.910
 9370SOL    HW229010   6.114   1.316   2.841
 9371SOL     OW29011   0.517   6.378   0.645
 9371SOL    HW129012   0.559   6.315   0.579
 9371SOL    HW229013   0.431   6.339   0.677
 9372SOL     OW29014   5.968   6.740   4.761
 9372SOL    HW129015   6.051   6.696   4.727
 9372SOL    HW229016   5.987   6.785   4.848
 9373SOL     OW29017   3.716   1.889   3.423
 9373SOL    HW129018   3.704   1.839   3.337
 9373SOL    HW229019   3.657   1.849   3.493
 9374SOL     OW29020   5.242   3.658   0.291
 9374SOL    HW129021   5.287   3.594   0.229
 9374SOL    HW229022   5.197   3.606   0.364
 9375SOL     OW29023   0.640   1.458   3.787
 9375SOL    HW129024   0.716   1.420   3.734
 9375SOL    HW229025   0.553   1.431   3.744
 9376SOL     OW29026   2.192   3.996   1.780
 9376SOL    HW129027   2.177   4.034   1.872
 9376SOL    HW229028   2.203   3.897   1.787
 9377SOL     OW29029   5.927   5.121   4.519
 9377SOL    HW129030   5.975   5.063   4.454
 9377SOL    HW229031   5.852   5.168   4.473
 9378SOL     OW29032   2.716   0.040   0.450
 9378SOL    HW129033   2.764   0.095   0.382
 9378SOL    HW229034   2.696   0.096   0.530
 9379SOL     OW29035   5.076   4.780   4.183
 9379SOL    HW129036   4.996   4.811   4.234
 9379SOL    HW229037   5.157   4.829   4.215
 9380SOL     OW29038   5.801   6.737   5.684
 9380SOL    HW129039   5.849   6.649   5.678
 9380SOL    HW229040   5.848   6.795   5.750
 9381SOL     OW29041   2.317   1.605   5.787
 9381SOL    HW129042   2.298   1.692   5.833
 9381SOL    HW229043   2.259   1.597   5.705
 9382SOL     OW29044   5.139   2.200   2.943
 9382SOL    HW129045   5.094   2.263   3.006
 9382SOL    HW229046   5.152   2.245   2.854
 9383SOL     OW29047   3.985   5.869   4.524
 9383SOL    HW129048   4.041   5.813   4.464
 9383SOL    HW229049   3.894   5.828   4.534
 9384SOL     OW29050   4.751   5.784   1.637
 9384SOL    HW129051   4.845   5.802   1.607
 9384SOL    HW229052   4.748   5.776   1.737
 9385SOL     OW29053   3.680   1.218   3.159
 9385SOL    HW129054   3.739   1.234   3.080
 9385SOL    HW229055   3.650   1.305   3.198
 9386SOL     OW29056   2.671   0.015   5.442
 9386SOL    HW129057   2.638   0.101   5.404
 9386SOL    HW229058   2.668   0.019   5.542
 9387SOL     OW29059   3.656   6.881   6.913
 9387SOL    HW129060   3.656   6.847   6.819
 9387SOL    HW229061   3.662   6.804   6.976
 9388SOL     OW29062   6.620   0.607   3.163
 9388SOL    HW129063   6.530   0.567   3.152
 9388SOL    HW229064   6.622   0.663   3.247
 9389SOL     OW29065   2.792   0.659   5.754
 9389SOL    HW129066   2.746   0.685   5.668
 9389SOL    HW229067   2.889   0.641   5.736
 9390SOL     OW29068   2.822   5.096   2.625
 9390SOL    HW129069   2.810   5.190   2.592
 9390SOL    HW229070   2.849   5.099   2.722
 9391SOL     OW29071   0.772   1.252   6.250
 9391SOL    HW129072   0.698   1.264   6.184
 9391SOL    HW229073   0.857   1.288   6.212
 9392SOL     OW29074   1.566   6.115   4.273
 9392SOL    HW129075   1.658   6.155   4.280
 9392SOL    HW229076   1.552   6.050   4.348
 9393SOL     OW29077   3.643   2.151   5.334
 9393SOL    HW129078   3.547   2.123   5.339
 9393SOL    HW229079   3.693   2.091   5.271
 9394SOL     OW29080   6.281   2.652   2.410
 9394SOL    HW129081   6.360   2.681   2.355
 9394SOL    HW229082   6.217   2.603   2.352
 9395SOL     OW29083   2.275   3.474   0.501
 9395SOL    HW129084   2.333   3.429   0.569
 9395SOL    HW229085   2.179   3.465   0.528
 9396SOL     OW29086   6.423   0.376   6.078
 9396SOL    HW129087   6.403   0.449   6.013
 9396SOL    HW229088   6.522   0.366   6.088
 9397SOL     OW29089   2.749   0.252   1.253
 9397SOL    HW129090   2.663   0.235   1.205
 9397SOL    HW229091   2.730   0.289   1.344
 9398SOL     OW29092   2.714   1.734   6.257
 9398SOL    HW129093   2.812   1.742   6.242
 9398SOL    HW229094   2.692   1.642   6.291
 9399SOL     OW29095   6.874   0.491   5.523
 9399SOL    HW129096   6.837   0.576   5.560
 9399SOL    HW229097   6.855   0.416   5.586
 9400SOL     OW29098   5.859   3.109   2.221
 9400SOL    HW129099   5.949   3.142   2.191
 9400SOL    HW229100   5.852   3.011   2.203
 9401SOL     OW29101   3.133   6.980   2.896
 9401SOL    HW129102   3.220   7.020   2.926
 9401SOL    HW229103   3.121   6.890   2.938
 9402SOL     OW29104   1.935   5.242   6.375
 9402SOL    HW129105   2.006   5.234   6.445
 9402SOL    HW229106   1.902   5.151   6.350
 9403SOL     OW29107   5.280   1.711   3.964
 9403SOL    HW129108   5.271   1.783   4.033
 9403SOL    HW229109   5.263   1.750   3.874
 9404SOL     OW29110   1.185   4.699   6.463
 9404SOL    HW129111   1.242   4.720   6.542
 9404SOL    HW229112   1.229   4.629   6.407
 9405SOL     OW29113   6.272   6.812   1.130
 9405SOL    HW129114   6.297   6.753   1.053
 9405SOL    HW229115   6.299   6.768   1.216
 9406SOL     OW29116   0.430   1.447   4.941
 9406SOL    HW129117   0.376   1.398   4.873
 9406SOL    HW229118   0.390   1.432   5.032
 9407SOL     OW29119   3.501   5.833   3.091
 9407SOL    HW129120   3.502   5.733   3.090
 9407SOL    HW229121   3.451   5.867   3.011
 9408SOL     OW29122   4.092   1.697   6.248
 9408SOL    HW129123   4.060   1.674   6.156
 9408SOL    HW229124   4.063   1.789   6.272
 9409SOL     OW29125   5.922   3.996   3.751
 9409SOL    HW129126   5.826   4.018   3.762
 9409SOL    HW229127   5.978   4.077   3.768
 9410SOL     OW29128   4.075   6.109   2.444
 9410SOL    HW129129   4.133   6.155   2.377
 9410SOL    HW229130   4.120   6.110   2.533
 9411SOL     OW29131   3.933   5.197   0.279
 9411SOL    HW129132   3.859   5.155   0.226
 9411SOL    HW229133   3.910   5.292   0.299
 9412SOL     OW29134   7.008   2.355   1.400
 9412SOL    HW129135   6.969   2.447   1.404
 9412SOL    HW229136   0.027   2.340   1.312
 9413SOL     OW29137   3.904   6.039   5.582
 9413SOL    HW129138   3.878   5.954   5.627
 9413SOL    HW229139   3.885   6.032   5.484
 9414SOL     OW29140   2.893   1.700   2.289
 9414SOL    HW129141   2.849   1.784   2.257
 9414SOL    HW229142   2.932   1.651   2.211
 9415SOL     OW29143   2.512   6.620   2.216
 9415SOL    HW129144   2.445   6.669   2.159
 9415SOL    HW229145   2.511   6.659   2.308
 9416SOL     OW29146   1.063   2.138   1.649
 9416SOL    HW129147   1.068   2.075   1.726
 9416SOL    HW229148   1.152   2.181   1.634
 9417SOL     OW29149   2.655   5.429   5.399
 9417SOL    HW129150   2.597   5.350   5.379
 9417SOL    HW229151   2.664   5.486   5.317
 9418SOL     OW29152   3.039   5.192   1.093
 9418SOL    HW129153   2.988   5.109   1.071
 9418SOL    HW229154   3.075   5.185   1.186
 9419SOL     OW29155   2.851   6.633   5.142
 9419SOL    HW129156   2.797   6.715   5.159
 9419SOL    HW229157   2.884   6.596   5.229
 9420SOL     OW29158   0.333   1.366   4.479
 9420SOL    HW129159   0.277   1.310   4.420
 9420SOL    HW229160   0.322   1.337   4.574
 9421SOL     OW29161   1.005   4.263   5.569
 9421SOL    HW129162   1.009   4.239   5.472
 9421SOL    HW229163   1.078   4.328   5.591
 9422SOL     OW29164   4.938   0.849   2.273
 9422SOL    HW129165   4.950   0.937   2.318
 9422SOL    HW229166   4.890   0.786   2.335
 9423SOL     OW29167   3.804   0.785   3.953
 9423SOL    HW129168   3.847   0.820   3.870
 9423SOL    HW229169   3.783   0.861   4.014
 9424SOL     OW29170   3.559   6.228   4.479
 9424SOL    HW129171   3.575   6.326   4.475
 9424SOL    HW229172   3.644   6.182   4.506
 9425SOL     OW29173   1.011   3.108   4.694
 9425SOL    HW129174   0.923   3.079   4.657
 9425SOL    HW229175   0.999   3.134   4.790
 9426SOL     OW29176   3.224   0.197   6.763
 9426SOL    HW129177   3.131   0.195   6.725
 9426SOL    HW229178   3.278   0.267   6.717
 9427SOL     OW29179   3.045   5.334   4.860
 9427SOL    HW129180   3.084   5.357   4.949
 9427SOL    HW229181   2.999   5.414   4.822
 9428SOL     OW29182   5.598   0.459   2.907
 9428SOL    HW129183   5.688   0.440   2.867
 9428SOL    HW229184   5.542   0.376   2.904
 9429SOL     OW29185   0.537   4.105   2.367
 9429SOL    HW129186   0.602   4.097   2.443
 9429SOL    HW229187   0.503   4.014   2.343
 9430SOL     OW29188   6.793   0.011   2.041
 9430SOL    HW129189   6.732   6.956   2.049
 9430SOL    HW229190   6.755   0.087   2.094
 9431SOL     OW29191   6.635   4.228   1.249
 9431SOL    HW129192   6.680   4.235   1.160
 9431SOL    HW229193   6.647   4.313   1.299
 9432SOL     OW29194   6.589   6.728   3.033
 9432SOL    HW129195   6.635   6.648   3.070
 9432SOL    HW229196   6.491   6.722   3.051
 9433SOL     OW29197   3.409   4.692   5.350
 9433SOL    HW129198   3.317   4.675   5.314
 9433SOL    HW229199   3.440   4.782   5.319
 9434SOL     OW29200   5.323   4.903   2.726
 9434SOL    HW129201   5.254   4.968   2.695
 9434SOL    HW229202   5.317   4.894   2.826
 9435SOL     OW29203   1.243   0.841   4.247
 9435SOL    HW129204   1.250   0.788   4.331
 9435SOL    HW229205   1.291   0.928   4.259
 9436SOL     OW29206   2.445   3.545   0.211
 9436SOL    HW129207   2.539   3.572   0.232
 9436SOL    HW229208   2.384   3.577   0.285
 9437SOL     OW29209   1.561   5.127   3.546
 9437SOL    HW129210   1.463   5.144   3.545
 9437SOL    HW229211   1.604   5.174   3.469
 9438SOL     OW29212   1.052   6.501   2.167
 9438SOL    HW129213   0.983   6.540   2.106
 9438SOL    HW229214   1.041   6.401   2.170
 9439SOL     OW29215   0.418   2.514   2.306
 9439SOL    HW129216   0.439   2.608   2.333
 9439SOL    HW229217   0.498   2.456   2.322
 9440SOL     OW29218   5.306   6.300   6.163
 9440SOL    HW129219   5.339   6.387   6.126
 9440SOL    HW229220   5.340   6.289   6.256
 9441SOL     OW29221   1.576   4.955   5.184
 9441SOL    HW129222   1.632   5.017   5.128
 9441SOL    HW229223   1.480   4.969   5.163
 9442SOL     OW29224   0.028   3.230   1.100
 9442SOL    HW129225   0.074   3.161   1.155
 9442SOL    HW229226   6.955   3.209   1.095
 9443SOL     OW29227   2.048   4.116   1.361
 9443SOL    HW129228   2.044   4.070   1.272
 9443SOL    HW229229   2.144   4.131   1.386
 9444SOL     OW29230   0.266   3.536   0.217
 9444SOL    HW129231   0.274   3.634   0.239
 9444SOL    HW229232   0.357   3.498   0.201
 9445SOL     OW29233   5.376   3.587   1.416
 9445SOL    HW129234   5.396   3.608   1.512
 9445SOL    HW229235   5.283   3.618   1.394
 9446SOL     OW29236   6.445   5.971   1.982
 9446SOL    HW129237   6.355   6.013   1.972
 9446SOL    HW229238   6.467   5.918   1.900
 9447SOL     OW29239   5.761   3.859   2.280
 9447SOL    HW129240   5.732   3.873   2.185
 9447SOL    HW229241   5.803   3.769   2.289
 9448SOL     OW29242   5.758   6.510   0.236
 9448SOL    HW129243   5.684   6.448   0.264
 9448SOL    HW229244   5.747   6.598   0.283
 9449SOL     OW29245   5.895   5.114   5.789
 9449SOL    HW129246   5.854   5.025   5.770
 9449SOL    HW229247   5.856   5.151   5.873
 9450SOL     OW29248   2.951   4.803   4.603
 9450SOL    HW129249   2.876   4.754   4.559
 9450SOL    HW229250   2.935   4.807   4.702
 9451SOL     OW29251   4.415   5.365   6.354
 9451SOL    HW129252   4.421   5.312   6.269
 9451SOL    HW229253   4.506   5.398   6.379
 9452SOL     OW29254   2.494   4.819   1.607
 9452SOL    HW129255   2.524   4.912   1.627
 9452SOL    HW229256   2.537   4.755   1.671
 9453SOL     OW29257   2.638   5.313   2.842
 9453SOL    HW129258   2.620   5.243   2.773
 9453SOL    HW229259   2.564   5.314   2.909
 9454SOL     OW29260   1.486   3.390   5.965
 9454SOL    HW129261   1.566   3.434   5.923
 9454SOL    HW229262   1.516   3.330   6.038
 9455SOL     OW29263   3.498   1.568   1.983
 9455SOL    HW129264   3.518   1.658   2.022
 9455SOL    HW229265   3.467   1.579   1.888
 9456SOL     OW29266   1.128   3.628   0.998
 9456SOL    HW129267   1.119   3.623   0.899
 9456SOL    HW229268   1.041   3.605   1.041
 9457SOL     OW29269   1.044   3.333   0.204
 9457SOL    HW129270   1.074   3.242   0.177
 9457SOL    HW229271   1.108   3.401   0.169
 9458SOL     OW29272   7.011   5.498   5.030
 9458SOL    HW129273   6.974   5.408   5.006
 9458SOL    HW229274   0.027   5.495   5.121
 9459SOL     OW29275   6.358   5.790   1.790
 9459SOL    HW129276   6.292   5.857   1.823
 9459SOL    HW229277   6.321   5.698   1.804
 9460SOL     OW29278   0.952   1.767   5.251
 9460SOL    HW129279   0.980   1.771   5.347
 9460SOL    HW229280   0.950   1.860   5.213
 9461SOL     OW29281   0.758   0.872   4.013
 9461SOL    HW129282   0.843   0.908   4.051
 9461SOL    HW229283   0.758   0.773   4.019
 9462SOL     OW29284   1.189   2.593   2.175
 9462SOL    HW129285   1.096   2.601   2.213
 9462SOL    HW229286   1.227   2.684   2.162
 9463SOL     OW29287   5.839   1.439   0.218
 9463SOL    HW129288   5.754   1.429   0.270
 9463SOL    HW229289   5.869   1.349   0.186
 9464SOL     OW29290   5.873   6.866   5.892
 9464SOL    HW129291   5.966   6.884   5.924
 9464SOL    HW229292   5.822   6.816   5.962
 9465SOL     OW29293   6.357   0.516   4.290
 9465SOL    HW129294   6.382   0.474   4.203
 9465SOL    HW229295   6.439   0.537   4.343
 9466SOL     OW29296   2.292   2.669   6.295
 9466SOL    HW129297   2.362   2.710   6.236
 9466SOL    HW229298   2.214   2.731   6.302
 9467SOL     OW29299   1.949   2.865   2.321
 9467SOL    HW129300   1.897   2.884   2.237
 9467SOL    HW229301   2.002   2.945   2.346
 9468SOL     OW29302   0.057   3.117   5.747
 9468SOL    HW129303   0.074   3.061   5.666
 9468SOL    HW229304   0.127   3.098   5.817
 9469SOL     OW29305   6.044   5.387   2.429
 9469SOL    HW129306   6.050   5.379   2.529
 9469SOL    HW229307   6.137   5.390   2.391
 9470SOL     OW29308   4.320   3.703   0.484
 9470SOL    HW129309   4.414   3.700   0.449
 9470SOL    HW229310   4.306   3.631   0.551
 9471SOL     OW29311   0.127   1.995   5.595
 9471SOL    HW129312   0.214   2.045   5.587
 9471SOL    HW229313   0.054   2.059   5.618
 9472SOL     OW29314   5.384   4.672   4.348
 9472SOL    HW129315   5.294   4.657   4.386
 9472SOL    HW229316   5.399   4.609   4.271
 9473SOL     OW29317   2.389   5.805   6.123
 9473SOL    HW129318   2.354   5.776   6.034
 9473SOL    HW229319   2.488   5.788   6.127
 9474SOL     OW29320   4.559   5.203   2.326
 9474SOL    HW129321   4.495   5.155   2.386
 9474SOL    HW229322   4.605   5.137   2.267
 9475SOL     OW29323   2.685   3.849   1.262
 9475SOL    HW129324   2.750   3.920   1.288
 9475SOL    HW229325   2.696   3.770   1.322
 9476SOL     OW29326   3.932   3.225   5.138
 9476SOL    HW129327   3.863   3.296   5.151
 9476SOL    HW229328   3.887   3.142   5.105
 9477SOL     OW29329   1.012   2.538   1.305
 9477SOL    HW129330   1.100   2.523   1.261
 9477SOL    HW229331   1.019   2.514   1.402
 9478SOL     OW29332   5.740   4.723   5.360
 9478SOL    HW129333   5.664   4.788   5.359
 9478SOL    HW229334   5.706   4.633   5.384
 9479SOL     OW29335   6.241   5.838   6.500
 9479SOL    HW129336   6.221   5.743   6.478
 9479SOL    HW229337   6.157   5.882   6.533
 9480SOL     OW29338   5.798   4.792   0.036
 9480SOL    HW129339   5.724   4.858   0.045
 9480SOL    HW229340   5.786   4.737   6.979
 9481SOL     OW29341   6.943   3.455   1.755
 9481SOL    HW129342   6.928   3.364   1.793
 9481SOL    HW229343   6.949   3.522   1.830
 9482SOL     OW29344   4.824   1.197   2.092
 9482SOL    HW129345   4.821   1.097   2.086
 9482SOL    HW229346   4.820   1.225   2.188
 9483SOL     OW29347   1.946   1.787   0.290
 9483SOL    HW129348   2.024   1.848   0.304
 9483SOL    HW229349   1.973   1.708   0.235
 9484SOL     OW29350   6.478   1.453   4.024
 9484SOL    HW129351   6.407   1.449   3.955
 9484SOL    HW229352   6.437   1.459   4.115
 9485SOL     OW29353   1.026   0.441   2.449
 9485SOL    HW129354   0.989   0.520   2.497
 9485SOL    HW229355   1.056   0.373   2.516
 9486SOL     OW29356   3.024   6.179   1.551
 9486SOL    HW129357   2.990   6.228   1.471
 9486SOL    HW229358   3.113   6.139   1.531
 9487SOL     OW29359   3.550   3.686   3.787
 9487SOL    HW129360   3.567   3.605   3.843
 9487SOL    HW229361   3.540   3.658   3.691
 9488SOL     OW29362   1.105   6.518   1.223
 9488SOL    HW129363   1.110   6.573   1.140
 9488SOL    HW229364   1.178   6.450   1.223
 9489SOL     OW29365   4.041   4.896   1.166
 9489SOL    HW129366   4.017   4.882   1.263
 9489SOL    HW229367   4.048   4.807   1.121
 9490SOL     OW29368   5.168   1.094   1.534
 9490SOL    HW129369   5.130   1.150   1.461
 9490SOL    HW229370   5.237   1.147   1.584
 9491SOL     OW29371   5.823   5.024   5.233
 9491SOL    HW129372   5.887   4.951   5.207
 9491SOL    HW229373   5.834   5.102   5.172
 9492SOL     OW29374   3.462   4.208   1.601
 9492SOL    HW129375   3.527   4.132   1.608
 9492SOL    HW229376   3.381   4.178   1.550
 9493SOL     OW29377   4.685   5.818   2.863
 9493SOL    HW129378   4.598   5.867   2.861
 9493SOL    HW229379   4.760   5.883   2.867
 9494SOL     OW29380   4.972   3.112   5.936
 9494SOL    HW129381   5.055   3.094   5.989
 9494SOL    HW229382   4.902   3.044   5.960
 9495SOL     OW29383   6.028   1.964   5.022
 9495SOL    HW129384   6.037   2.029   4.946
 9495SOL    HW229385   5.931   1.954   5.045
 9496SOL     OW29386   5.572   3.850   0.088
 9496SOL    HW129387   5.502   3.915   0.057
 9496SOL    HW229388   5.601   3.793   0.010
 9497SOL     OW29389   5.577   5.670   6.814
 9497SOL    HW129390   5.541   5.587   6.771
 9497SOL    HW229391   5.518   5.748   6.792
 9498SOL     OW29392   3.702   7.000   5.936
 9498SOL    HW129393   3.641   0.009   5.864
 9498SOL    HW229394   3.791   6.977   5.896
 9499SOL     OW29395   2.715   3.916   5.552
 9499SOL    HW129396   2.693   3.938   5.456
 9499SOL    HW229397   2.746   3.821   5.558
 9500SOL     OW29398   4.328   6.053   1.531
 9500SOL    HW129399   4.237   6.021   1.504
 9500SOL    HW229400   4.388   5.975   1.546
 9501SOL     OW29401   3.377   1.306   4.266
 9501SOL    HW129402   3.371   1.326   4.364
 9501SOL    HW229403   3.301   1.349   4.218
 9502SOL     OW29404   6.409   2.403   5.006
 9502SOL    HW129405   6.492   2.447   4.971
 9502SOL    HW229406   6.403   2.310   4.971
 9503SOL     OW29407   0.928   0.017   1.789
 9503SOL    HW129408   0.979   0.094   1.827
 9503SOL    HW229409   0.836   0.016   1.827
 9504SOL     OW29410   0.446   3.133   0.251
 9504SOL    HW129411   0.489   3.074   0.319
 9504SOL    HW229412   0.349   3.112   0.245
 9505SOL     OW29413   6.368   3.230   3.237
 9505SOL    HW129414   6.434   3.183   3.296
 9505SOL    HW229415   6.342   3.317   3.279
 9506SOL     OW29416   6.923   3.628   0.309
 9506SOL    HW129417   6.869   3.606   0.228
 9506SOL    HW229418   6.868   3.683   0.372
 9507SOL     OW29419   1.015   1.464   3.527
 9507SOL    HW129420   1.112   1.485   3.510
 9507SOL    HW229421   1.008   1.372   3.566
 9508SOL     OW29422   5.426   1.570   0.781
 9508SOL    HW129423   5.377   1.602   0.862
 9508SOL    HW229424   5.487   1.642   0.749
 9509SOL     OW29425   2.431   6.640   5.507
 9509SOL    HW129426   2.400   6.734   5.495
 9509SOL    HW229427   2.379   6.598   5.582
 9510SOL     OW29428   6.361   4.728   2.862
 9510SOL    HW129429   6.365   4.630   2.885
 9510SOL    HW229430   6.317   4.778   2.936
 9511SOL     OW29431   0.695   2.295   0.027
 9511SOL    HW129432   0.695   2.230   0.102
 9511SOL    HW229433   0.775   2.279   6.994
 9512SOL     OW29434   0.992   2.258   3.992
 9512SOL    HW129435   0.894   2.263   3.973
 9512SOL    HW229436   1.007   2.260   4.091
 9513SOL     OW29437   1.974   3.754   4.054
 9513SOL    HW129438   2.038   3.785   3.983
 9513SOL    HW229439   2.025   3.702   4.123
 9514SOL     OW29440   1.832   3.480   0.391
 9514SOL    HW129441   1.766   3.555   0.396
 9514SOL    HW229442   1.909   3.499   0.452
 9515SOL     OW29443   1.809   6.427   6.284
 9515SOL    HW129444   1.850   6.503   6.334
 9515SOL    HW229445   1.784   6.354   6.348
 9516SOL     OW29446   5.544   3.931   4.030
 9516SOL    HW129447   5.498   3.844   4.014
 9516SOL    HW229448   5.475   4.004   4.039
 9517SOL     OW29449   0.653   5.481   1.460
 9517SOL    HW129450   0.593   5.525   1.394
 9517SOL    HW229451   0.748   5.488   1.430
 9518SOL     OW29452   0.767   2.547   6.576
 9518SOL    HW129453   0.738   2.643   6.573
 9518SOL    HW229454   0.804   2.526   6.666
 9519SOL     OW29455   3.248   3.553   2.852
 9519SOL    HW129456   3.271   3.630   2.912
 9519SOL    HW229457   3.332   3.506   2.825
 9520SOL     OW29458   6.882   0.402   5.244
 9520SOL    HW129459   6.818   0.326   5.257
 9520SOL    HW229460   6.895   0.450   5.331
 9521SOL     OW29461   3.275   0.347   0.754
 9521SOL    HW129462   3.205   0.388   0.696
 9521SOL    HW229463   3.301   0.258   0.717
 9522SOL     OW29464   4.171   6.026   1.107
 9522SOL    HW129465   4.190   5.963   1.182
 9522SOL    HW229466   4.084   6.003   1.065
 9523SOL     OW29467   2.600   5.504   4.455
 9523SOL    HW129468   2.682   5.465   4.412
 9523SOL    HW229469   2.620   5.596   4.489
 9524SOL     OW29470   1.809   4.184   1.504
 9524SOL    HW129471   1.823   4.233   1.590
 9524SOL    HW229472   1.897   4.153   1.469
 9525SOL     OW29473   1.953   2.578   5.968
 9525SOL    HW129474   1.892   2.533   6.034
 9525SOL    HW229475   1.925   2.554   5.875
 9526SOL     OW29476   5.171   5.141   6.654
 9526SOL    HW129477   5.191   5.233   6.622
 9526SOL    HW229478   5.081   5.112   6.621
 9527SOL     OW29479   3.656   6.852   3.262
 9527SOL    HW129480   3.657   6.887   3.356
 9527SOL    HW229481   3.742   6.873   3.217
 9528SOL     OW29482   6.081   1.360   0.915
 9528SOL    HW129483   6.165   1.410   0.892
 9528SOL    HW229484   6.016   1.367   0.840
 9529SOL     OW29485   6.057   1.791   1.548
 9529SOL    HW129486   6.146   1.802   1.504
 9529SOL    HW229487   5.992   1.855   1.508
 9530SOL     OW29488   0.732   5.426   3.747
 9530SOL    HW129489   0.786   5.342   3.755
 9530SOL    HW229490   0.785   5.504   3.781
 9531SOL     OW29491   3.900   4.834   3.172
 9531SOL    HW129492   3.906   4.753   3.231
 9531SOL    HW229493   3.833   4.897   3.210
 9532SOL     OW29494   5.873   5.605   2.363
 9532SOL    HW129495   5.802   5.556   2.312
 9532SOL    HW229496   5.943   5.540   2.392
 9533SOL     OW29497   2.071   5.664   3.726
 9533SOL    HW129498   2.026   5.594   3.782
 9533SOL    HW229499   2.159   5.629   3.693
 9534SOL     OW29500   5.899   4.434   4.850
 9534SOL    HW129501   5.986   4.472   4.880
 9534SOL    HW229502   5.845   4.505   4.804
 9535SOL     OW29503   1.075   1.254   5.782
 9535SOL    HW129504   1.057   1.171   5.729
 9535SOL    HW229505   1.082   1.333   5.720
 9536SOL     OW29506   3.529   3.850   4.498
 9536SOL    HW129507   3.565   3.834   4.406
 9536SOL    HW229508   3.547   3.945   4.525
 9537SOL     OW29509   1.218   0.964   3.808
 9537SOL    HW129510   1.199   1.051   3.763
 9537SOL    HW229511   1.132   0.912   3.818
 9538SOL     OW29512   3.519   0.618   4.662
 9538SOL    HW129513   3.493   0.634   4.567
 9538SOL    HW229514   3.548   0.704   4.704
 9539SOL     OW29515   3.742   2.892   3.520
 9539SOL    HW129516   3.825   2.943   3.496
 9539SOL    HW229517   3.712   2.839   3.441
 9540SOL     OW29518   4.834   5.098   4.082
 9540SOL    HW129519   4.928   5.104   4.116
 9540SOL    HW229520   4.834   5.054   3.992
 9541SOL     OW29521   1.833   6.001   5.047
 9541SOL    HW129522   1.821   6.095   5.081
 9541SOL    HW229523   1.820   5.936   5.122
 9542SOL     OW29524   5.546   4.814   4.169
 9542SOL    HW129525   5.491   4.771   4.240
 9542SOL    HW229526   5.533   4.765   4.083
 9543SOL     OW29527   2.733   1.046   5.758
 9543SOL    HW129528   2.669   1.065   5.833
 9543SOL    HW229529   2.683   1.043   5.672
 9544SOL     OW29530   5.485   3.965   3.544
 9544SOL    HW129531   5.402   3.919   3.575
 9544SOL    HW229532   5.462   4.035   3.477
 9545SOL     OW29533   1.167   4.818   2.005
 9545SOL    HW129534   1.146   4.872   1.924
 9545SOL    HW229535   1.082   4.781   2.043
 9546SOL     OW29536   3.081   1.350   6.084
 9546SOL    HW129537   3.010   1.400   6.034
 9546SOL    HW229538   3.099   1.263   6.038
 9547SOL     OW29539   3.293   6.406   3.942
 9547SOL    HW129540   3.265   6.499   3.963
 9547SOL    HW229541   3.305   6.396   3.844
 9548SOL     OW29542   1.062   5.073   6.527
 9548SOL    HW129543   1.034   5.030   6.441
 9548SOL    HW229544   1.095   5.003   6.590
 9549SOL     OW29545   3.981   2.002   2.328
 9549SOL    HW129546   3.961   1.975   2.234
 9549SOL    HW229547   3.915   2.070   2.358
 9550SOL     OW29548   5.274   2.531   1.430
 9550SOL    HW129549   5.342   2.499   1.497
 9550SOL    HW229550   5.314   2.604   1.375
 9551SOL     OW29551   6.308   2.061   6.551
 9551SOL    HW129552   6.324   2.136   6.487
 9551SOL    HW229553   6.391   2.007   6.560
 9552SOL     OW29554   2.179   0.937   6.571
 9552SOL    HW129555   2.220   1.006   6.512
 9552SOL    HW229556   2.145   0.861   6.515
 9553SOL     OW29557   5.334   2.231   0.319
 9553SOL    HW129558   5.344   2.138   0.283
 9553SOL    HW229559   5.293   2.290   0.249
 9554SOL     OW29560   2.394   6.495   4.279
 9554SOL    HW129561   2.447   6.552   4.341
 9554SOL    HW229562   2.363   6.551   4.201
 9555SOL     OW29563   6.573   1.219   3.686
 9555SOL    HW129564   6.605   1.251   3.775
 9555SOL    HW229565   6.627   1.261   3.614
 9556SOL     OW29566   1.966   4.198   1.036
 9556SOL    HW129567   1.986   4.296   1.041
 9556SOL    HW229568   2.010   4.159   0.956
 9557SOL     OW29569   4.986   0.476   1.748
 9557SOL    HW129570   4.949   0.386   1.725
 9557SOL    HW229571   4.963   0.541   1.675
 9558SOL     OW29572   5.869   6.157   5.679
 9558SOL    HW129573   5.908   6.116   5.761
 9558SOL    HW229574   5.783   6.111   5.656
 9559SOL     OW29575   1.343   3.760   6.900
 9559SOL    HW129576   1.415   3.777   6.967
 9559SOL    HW229577   1.257   3.740   6.947
 9560SOL     OW29578   3.641   0.429   1.803
 9560SOL    HW129579   3.726   0.415   1.751
 9560SOL    HW229580   3.585   0.346   1.799
 9561SOL     OW29581   0.693   1.000   1.309
 9561SOL    HW129582   0.786   0.998   1.347
 9561SOL    HW229583   0.669   0.909   1.275
 9562SOL     OW29584   2.574   5.486   3.790
 9562SOL    HW129585   2.595   5.526   3.879
 9562SOL    HW229586   2.559   5.387   3.801
 9563SOL     OW29587   0.713   6.374   0.287
 9563SOL    HW129588   0.731   6.376   0.188
 9563SOL    HW229589   0.638   6.436   0.309
 9564SOL     OW29590   1.658   0.828   0.972
 9564SOL    HW129591   1.563   0.810   0.998
 9564SOL    HW229592   1.717   0.817   1.052
 9565SOL     OW29593   3.434   1.126   3.848
 9565SOL    HW129594   3.411   1.176   3.765
 9565SOL    HW229595   3.494   1.182   3.906
 9566SOL     OW29596   2.350   6.841   0.811
 9566SOL    HW129597   2.381   6.841   0.716
 9566SOL    HW229598   2.255   6.812   0.815
 9567SOL     OW29599   6.945   4.893   0.343
 9567SOL    HW129600   6.997   4.884   0.258
 9567SOL    HW229601   6.912   4.987   0.352
 9568SOL     OW29602   4.148   1.893   6.762
 9568SOL    HW129603   4.087   1.856   6.833
 9568SOL    HW229604   4.095   1.913   6.680
 9569SOL     OW29605   6.000   0.378   1.825
 9569SOL    HW129606   6.019   0.427   1.740
 9569SOL    HW229607   5.966   0.286   1.804
 9570SOL     OW29608   0.444   3.343   0.930
 9570SOL    HW129609   0.492   3.420   0.972
 9570SOL    HW229610   0.347   3.366   0.920
 9571SOL     OW29611   2.451   2.884   6.542
 9571SOL    HW129612   2.489   2.940   6.469
 9571SOL    HW229613   2.351   2.883   6.535
 9572SOL     OW29614   2.240   4.037   3.456
 9572SOL    HW129615   2.216   4.131   3.429
 9572SOL    HW229616   2.238   3.978   3.375
 9573SOL     OW29617   6.698   0.692   5.341
 9573SOL    HW129618   6.654   0.627   5.279
 9573SOL    HW229619   6.727   0.645   5.424
 9574SOL     OW29620   4.041   2.903   1.446
 9574SOL    HW129621   3.979   2.957   1.388
 9574SOL    HW229622   4.046   2.945   1.537
 9575SOL     OW29623   5.866   6.657   2.077
 9575SOL    HW129624   5.911   6.584   2.130
 9575SOL    HW229625   5.771   6.665   2.106
 9576SOL     OW29626   1.437   1.762   0.127
 9576SOL    HW129627   1.348   1.723   0.105
 9576SOL    HW229628   1.476   1.714   0.206
 9577SOL     OW29629   0.143   6.347   0.995
 9577SOL    HW129630   0.123   6.305   1.083
 9577SOL    HW229631   0.222   6.407   1.003
 9578SOL     OW29632   1.558   2.934   3.109
 9578SOL    HW129633   1.574   2.907   3.204
 9578SOL    HW229634   1.461   2.923   3.087
 9579SOL     OW29635   5.658   6.956   2.185
 9579SOL    HW129636   5.631   6.894   2.111
 9579SOL    HW229637   5.627   6.920   2.273
 9580SOL     OW29638   5.285   4.618   1.021
 9580SOL    HW129639   5.294   4.583   1.114
 9580SOL    HW229640   5.295   4.543   0.956
 9581SOL     OW29641   6.493   0.629   6.776
 9581SOL    HW129642   6.546   0.549   6.746
 9581SOL    HW229643   6.553   0.694   6.822
 9582SOL     OW29644   3.773   5.790   4.325
 9582SOL    HW129645   3.779   5.726   4.248
 9582SOL    HW229646   3.807   5.880   4.296
 9583SOL     OW29647   3.355   4.570   1.595
 9583SOL    HW129648   3.430   4.562   1.661
 9583SOL    HW229649   3.268   4.558   1.642
 9584SOL     OW29650   1.713   4.148   4.581
 9584SOL    HW129651   1.798   4.183   4.620
 9584SOL    HW229652   1.654   4.113   4.654
 9585SOL     OW29653   5.257   6.000   1.497
 9585SOL    HW129654   5.220   5.910   1.473
 9585SOL    HW229655   5.191   6.050   1.552
 9586SOL     OW29656   4.427   5.083   1.436
 9586SOL    HW129657   4.387   5.127   1.517
 9586SOL    HW229658   4.444   5.152   1.366
 9587SOL     OW29659   2.554   6.261   1.991
 9587SOL    HW129660   2.615   6.310   1.929
 9587SOL    HW229661   2.595   6.173   2.016
 9588SOL     OW29662   6.161   6.184   0.661
 9588SOL    HW129663   6.128   6.164   0.753
 9588SOL    HW229664   6.088   6.228   0.609
 9589SOL     OW29665   1.550   3.271   6.229
 9589SOL    HW129666   1.470   3.285   6.288
 9589SOL    HW229667   1.581   3.176   6.237
 9590SOL     OW29668   5.571   1.750   2.060
 9590SOL    HW129669   5.635   1.757   2.136
 9590SOL    HW229670   5.600   1.676   1.999
 9591SOL     OW29671   3.603   6.730   6.275
 9591SOL    HW129672   3.647   6.646   6.241
 9591SOL    HW229673   3.542   6.766   6.205
 9592SOL     OW29674   2.719   4.359   6.489
 9592SOL    HW129675   2.763   4.449   6.486
 9592SOL    HW229676   2.763   4.303   6.559
 9593SOL     OW29677   2.080   1.280   5.619
 9593SOL    HW129678   1.984   1.251   5.623
 9593SOL    HW229679   2.132   1.234   5.691
 9594SOL     OW29680   2.176   6.400   3.850
 9594SOL    HW129681   2.151   6.377   3.944
 9594SOL    HW229682   2.193   6.316   3.798
 9595SOL     OW29683   0.348   3.101   3.719
 9595SOL    HW129684   0.303   3.020   3.756
 9595SOL    HW229685   0.442   3.105   3.751
 9596SOL     OW29686   0.798   5.449   1.059
 9596SOL    HW129687   0.863   5.375   1.043
 9596SOL    HW229688   0.706   5.416   1.041
 9597SOL     OW29689   0.887   4.398   2.019
 9597SOL    HW129690   0.893   4.308   2.062
 9597SOL    HW229691   0.796   4.410   1.980
 9598SOL     OW29692   1.701   3.771   2.767
 9598SOL    HW129693   1.760   3.842   2.730
 9598SOL    HW229694   1.632   3.812   2.826
 9599SOL     OW29695   3.448   0.088   3.661
 9599SOL    HW129696   3.404   0.050   3.743
 9599SOL    HW229697   3.419   0.037   3.581
 9600SOL     OW29698   2.850   0.490   1.021
 9600SOL    HW129699   2.881   0.580   0.989
 9600SOL    HW229700   2.923   0.448   1.076
 9601SOL     OW29701   6.737   4.722   1.077
 9601SOL    HW129702   6.789   4.641   1.049
 9601SOL    HW229703   6.662   4.695   1.136
 9602SOL     OW29704   4.523   4.659   5.711
 9602SOL    HW129705   4.447   4.661   5.647
 9602SOL    HW229706   4.575   4.745   5.704
 9603SOL     OW29707   5.716   6.265   6.024
 9603SOL    HW129708   5.738   6.232   6.116
 9603SOL    HW229709   5.625   6.232   5.997
 9604SOL     OW29710   4.863   0.650   1.585
 9604SOL    HW129711   4.780   0.594   1.588
 9604SOL    HW229712   4.848   0.734   1.638
 9605SOL     OW29713   0.066   5.327   3.029
 9605SOL    HW129714   6.996   5.330   3.058
 9605SOL    HW229715   0.091   5.234   3.004
 9606SOL     OW29716   1.353   1.484   7.012
 9606SOL    HW129717   1.421   1.540   6.964
 9606SOL    HW229718   1.268   1.536   7.020
 9607SOL     OW29719   3.065   1.772   6.642
 9607SOL    HW129720   3.086   1.794   6.737
 9607SOL    HW229721   2.971   1.739   6.634
 9608SOL     OW29722   6.912   4.613   2.874
 9608SOL    HW129723   6.980   4.540   2.864
 9608SOL    HW229724   6.945   4.696   2.828
 9609SOL     OW29725   3.482   2.668   6.258
 9609SOL    HW129726   3.573   2.689   6.222
 9609SOL    HW229727   3.481   2.681   6.357
 9610SOL     OW29728   1.804   4.722   2.668
 9610SOL    HW129729   1.869   4.798   2.678
 9610SOL    HW229730   1.781   4.686   2.759
 9611SOL     OW29731   2.103   6.775   0.772
 9611SOL    HW129732   2.083   6.678   0.763
 9611SOL    HW229733   2.095   6.820   0.682
 9612SOL     OW29734   0.979   3.164   2.030
 9612SOL    HW129735   1.053   3.150   1.965
 9612SOL    HW229736   0.905   3.214   1.986
 9613SOL     OW29737   6.001   6.343   3.490
 9613SOL    HW129738   6.048   6.275   3.434
 9613SOL    HW229739   6.066   6.388   3.550
 9614SOL     OW29740   3.976   2.184   2.690
 9614SOL    HW129741   4.013   2.215   2.602
 9614SOL    HW229742   3.885   2.144   2.676
 9615SOL     OW29743   2.406   2.259   0.840
 9615SOL    HW129744   2.398   2.195   0.765
 9615SOL    HW229745   2.501   2.286   0.852
 9616SOL     OW29746   3.526   3.097   0.936
 9616SOL    HW129747   3.527   3.141   1.026
 9616SOL    HW229748   3.467   3.148   0.874
 9617SOL     OW29749   2.193   2.940   3.825
 9617SOL    HW129750   2.243   2.881   3.761
 9617SOL    HW229751   2.163   3.023   3.778
 9618SOL     OW29752   2.908   0.985   0.951
 9618SOL    HW129753   2.942   1.079   0.951
 9618SOL    HW229754   2.857   0.967   1.035
 9619SOL     OW29755   1.798   0.320   5.499
 9619SOL    HW129756   1.751   0.408   5.506
 9619SOL    HW229757   1.856   0.307   5.580
 9620SOL     OW29758   4.777   0.796   5.015
 9620SOL    HW129759   4.852   0.828   5.072
 9620SOL    HW229760   4.756   0.865   4.945
 9621SOL     OW29761   1.771   2.963   2.121
 9621SOL    HW129762   1.762   2.932   2.026
 9621SOL    HW229763   1.796   3.060   2.122
 9622SOL     OW29764   5.711   1.152   0.558
 9622SOL    HW129765   5.661   1.066   0.572
 9622SOL    HW229766   5.679   1.220   0.624
 9623SOL     OW29767   2.708   2.948   6.682
 9623SOL    HW129768   2.777   2.917   6.617
 9623SOL    HW229769   2.618   2.944   6.639
 9624SOL     OW29770   5.989   3.384   2.968
 9624SOL    HW129771   6.034   3.295   2.980
 9624SOL    HW229772   6.025   3.428   2.886
 9625SOL     OW29773   5.548   5.920   0.158
 9625SOL    HW129774   5.514   5.828   0.174
 9625SOL    HW229775   5.623   5.918   0.092
 9626SOL     OW29776   3.788   4.964   0.717
 9626SOL    HW129777   3.742   4.896   0.773
 9626SOL    HW229778   3.764   5.056   0.749
 9627SOL     OW29779   0.856   6.195   6.565
 9627SOL    HW129780   0.935   6.142   6.535
 9627SOL    HW229781   0.865   6.290   6.535
 9628SOL     OW29782   5.156   5.564   0.934
 9628SOL    HW129783   5.118   5.472   0.943
 9628SOL    HW229784   5.170   5.585   0.837
 9629SOL     OW29785   1.860   0.649   1.447
 9629SOL    HW129786   1.895   0.703   1.371
 9629SOL    HW229787   1.800   0.706   1.503
 9630SOL     OW29788   6.387   0.289   5.325
 9630SOL    HW129789   6.475   0.329   5.302
 9630SOL    HW229790   6.313   0.350   5.297
 9631SOL     OW29791   6.272   0.189   6.200
 9631SOL    HW129792   6.315   0.258   6.141
 9631SOL    HW229793   6.302   0.203   6.294
 9632SOL     OW29794   1.558   6.564   2.576
 9632SOL    HW129795   1.636   6.536   2.631
 9632SOL    HW229796   1.515   6.484   2.534
 9633SOL     OW29797   5.930   5.582   6.736
 9633SOL    HW129798   5.993   5.557   6.662
 9633SOL    HW229799   5.922   5.682   6.740
 9634SOL     OW29800   1.395   6.404   4.745
 9634SOL    HW129801   1.402   6.346   4.827
 9634SOL    HW229802   1.378   6.347   4.665
 9635SOL     OW29803   2.353   5.650   5.053
 9635SOL    HW129804   2.416   5.583   5.092
 9635SOL    HW229805   2.398   5.739   5.051
 9636SOL     OW29806   3.960   1.703   5.192
 9636SOL    HW129807   4.005   1.685   5.279
 9636SOL    HW229808   3.909   1.789   5.197
 9637SOL     OW29809   2.077   1.758   6.404
 9637SOL    HW129810   2.052   1.846   6.445
 9637SOL    HW229811   2.040   1.753   6.312
 9638SOL     OW29812   6.756   3.252   5.120
 9638SOL    HW129813   6.703   3.289   5.196
 9638SOL    HW229814   6.734   3.304   5.037
 9639SOL     OW29815   3.921   1.849   2.679
 9639SOL    HW129816   3.991   1.899   2.729
 9639SOL    HW229817   3.847   1.912   2.654
 9640SOL     OW29818   2.399   2.708   3.132
 9640SOL    HW129819   2.469   2.637   3.146
 9640SOL    HW229820   2.353   2.692   3.045
 9641SOL     OW29821   4.796   6.861   0.469
 9641SOL    HW129822   4.823   6.841   0.564
 9641SOL    HW229823   4.878   6.877   0.414
 9642SOL     OW29824   3.326   0.258   4.675
 9642SOL    HW129825   3.348   0.315   4.754
 9642SOL    HW229826   3.410   0.229   4.630
 9643SOL     OW29827   5.104   4.196   3.250
 9643SOL    HW129828   5.131   4.100   3.247
 9643SOL    HW229829   5.084   4.228   3.157
 9644SOL     OW29830   0.935   3.318   6.283
 9644SOL    HW129831   0.968   3.393   6.340
 9644SOL    HW229832   1.011   3.256   6.262
 9645SOL     OW29833   3.100   5.124   5.182
 9645SOL    HW129834   3.197   5.146   5.172
 9645SOL    HW229835   3.049   5.207   5.201
 9646SOL     OW29836   4.323   4.933   2.161
 9646SOL    HW129837   4.255   5.005   2.174
 9646SOL    HW229838   4.312   4.864   2.233
 9647SOL     OW29839   6.461   3.249   1.330
 9647SOL    HW129840   6.462   3.240   1.230
 9647SOL    HW229841   6.541   3.303   1.359
 9648SOL     OW29842   4.468   2.313   1.305
 9648SOL    HW129843   4.470   2.413   1.300
 9648SOL    HW229844   4.421   2.284   1.389
 9649SOL     OW29845   2.315   6.437   0.358
 9649SOL    HW129846   2.288   6.521   0.312
 9649SOL    HW229847   2.415   6.433   0.365
 9650SOL     OW29848   6.897   5.734   2.271
 9650SOL    HW129849   6.945   5.728   2.358
 9650SOL    HW229850   6.906   5.826   2.233
 9651SOL     OW29851   0.818   1.517   5.984
 9651SOL    HW129852   0.869   1.449   6.037
 9651SOL    HW229853   0.737   1.475   5.944
 9652SOL     OW29854   0.815   4.758   2.561
 9652SOL    HW129855   0.756   4.832   2.529
 9652SOL    HW229856   0.761   4.676   2.575
 9653SOL     OW29857   4.848   4.878   4.309
 9653SOL    HW129858   4.839   4.962   4.256
 9653SOL    HW229859   4.814   4.894   4.402
 9654SOL     OW29860   2.427   2.604   2.166
 9654SOL    HW129861   2.341   2.569   2.129
 9654SOL    HW229862   2.411   2.694   2.206
 9655SOL     OW29863   0.124   1.724   6.174
 9655SOL    HW129864   0.120   1.742   6.272
 9655SOL    HW229865   0.037   1.748   6.131
 9656SOL     OW29866   3.375   6.876   2.193
 9656SOL    HW129867   3.414   6.815   2.124
 9656SOL    HW229868   3.297   6.925   2.155
 9657SOL     OW29869   6.226   1.368   5.329
 9657SOL    HW129870   6.200   1.406   5.240
 9657SOL    HW229871   6.237   1.269   5.321
 9658SOL     OW29872   6.101   3.261   1.987
 9658SOL    HW129873   6.136   3.193   2.051
 9658SOL    HW229874   6.016   3.301   2.023
 9659SOL     OW29875   0.840   4.901   0.182
 9659SOL    HW129876   0.882   4.812   0.202
 9659SOL    HW229877   0.840   4.957   0.265
 9660SOL     OW29878   1.073   5.306   0.713
 9660SOL    HW129879   0.989   5.356   0.691
 9660SOL    HW229880   1.128   5.361   0.776
 9661SOL     OW29881   4.525   7.008   0.672
 9661SOL    HW129882   4.566   6.945   0.737
 9661SOL    HW229883   4.516   0.073   0.714
 9662SOL     OW29884   6.026   1.644   4.429
 9662SOL    HW129885   6.084   1.605   4.358
 9662SOL    HW229886   5.936   1.665   4.391
 9663SOL     OW29887   1.666   5.546   2.885
 9663SOL    HW129888   1.711   5.573   2.970
 9663SOL    HW229889   1.697   5.454   2.859
 9664SOL     OW29890   4.347   6.554   2.315
 9664SOL    HW129891   4.257   6.554   2.273
 9664SOL    HW229892   4.386   6.461   2.311
 9665SOL     OW29893   5.418   4.094   5.052
 9665SOL    HW129894   5.465   4.170   5.098
 9665SOL    HW229895   5.430   4.011   5.106
 9666SOL     OW29896   5.344   4.319   2.536
 9666SOL    HW129897   5.308   4.337   2.445
 9666SOL    HW229898   5.268   4.310   2.601
 9667SOL     OW29899   3.956   3.865   4.147
 9667SOL    HW129900   3.922   3.879   4.055
 9667SOL    HW229901   3.977   3.768   4.160
 9668SOL     OW29902   0.381   1.169   5.806
 9668SOL    HW129903   0.361   1.071   5.795
 9668SOL    HW229904   0.456   1.194   5.745
 9669SOL     OW29905   0.221   6.818   0.368
 9669SOL    HW129906   0.213   6.893   0.433
 9669SOL    HW229907   0.192   6.733   0.411
 9670SOL     OW29908   4.812   4.480   6.526
 9670SOL    HW129909   4.755   4.494   6.606
 9670SOL    HW229910   4.754   4.474   6.444
 9671SOL     OW29911   6.952   5.133   5.373
 9671SOL    HW129912   6.906   5.210   5.417
 9671SOL    HW229913   0.015   5.116   5.417
 9672SOL     OW29914   0.552   6.060   4.927
 9672SOL    HW129915   0.650   6.064   4.913
 9672SOL    HW229916   0.505   6.113   4.856
 9673SOL     OW29917   3.528   4.356   6.523
 9673SOL    HW129918   3.602   4.355   6.590
 9673SOL    HW229919   3.529   4.443   6.474
 9674SOL     OW29920   3.102   6.346   1.883
 9674SOL    HW129921   3.036   6.333   1.809
 9674SOL    HW229922   3.060   6.320   1.970
 9675SOL     OW29923   6.591   1.976   2.292
 9675SOL    HW129924   6.529   1.939   2.224
 9675SOL    HW229925   6.662   2.030   2.247
 9676SOL     OW29926   0.989   3.641   5.142
 9676SOL    HW129927   0.970   3.723   5.088
 9676SOL    HW229928   0.926   3.569   5.116
 9677SOL     OW29929   1.991   3.789   5.961
 9677SOL    HW129930   2.087   3.764   5.960
 9677SOL    HW229931   1.934   3.707   5.956
 9678SOL     OW29932   4.089   3.641   3.368
 9678SOL    HW129933   4.137   3.607   3.448
 9678SOL    HW229934   4.070   3.738   3.379
 9679SOL     OW29935   1.551   2.657   1.905
 9679SOL    HW129936   1.506   2.594   1.968
 9679SOL    HW229937   1.509   2.648   1.814
 9680SOL     OW29938   6.122   6.084   3.373
 9680SOL    HW129939   6.218   6.080   3.347
 9680SOL    HW229940   6.112   6.054   3.467
 9681SOL     OW29941   2.230   0.926   2.339
 9681SOL    HW129942   2.181   0.839   2.329
 9681SOL    HW229943   2.301   0.933   2.269
 9682SOL     OW29944   5.774   4.269   3.634
 9682SOL    HW129945   5.708   4.322   3.688
 9682SOL    HW229946   5.735   4.180   3.613
 9683SOL     OW29947   4.039   5.815   0.238
 9683SOL    HW129948   3.975   5.833   0.163
 9683SOL    HW229949   4.133   5.829   0.207
 9684SOL     OW29950   0.351   4.041   5.436
 9684SOL    HW129951   0.405   4.099   5.375
 9684SOL    HW229952   0.372   3.945   5.418
 9685SOL     OW29953   1.458   3.054   1.003
 9685SOL    HW129954   1.408   2.968   0.996
 9685SOL    HW229955   1.556   3.037   0.991
 9686SOL     OW29956   6.629   0.423   1.810
 9686SOL    HW129957   6.707   0.363   1.789
 9686SOL    HW229958   6.639   0.509   1.760
 9687SOL     OW29959   2.351   0.264   3.640
 9687SOL    HW129960   2.341   0.358   3.609
 9687SOL    HW229961   2.442   0.230   3.616
 9688SOL     OW29962   0.135   1.298   3.097
 9688SOL    HW129963   0.039   1.273   3.089
 9688SOL    HW229964   0.156   1.318   3.193
 9689SOL     OW29965   2.820   6.303   6.371
 9689SOL    HW129966   2.770   6.221   6.343
 9689SOL    HW229967   2.906   6.308   6.321
 9690SOL     OW29968   6.347   4.986   0.947
 9690SOL    HW129969   6.430   4.952   0.991
 9690SOL    HW229970   6.359   4.986   0.848
 9691SOL     OW29971   1.674   5.165   1.978
 9691SOL    HW129972   1.591   5.168   2.034
 9691SOL    HW229973   1.658   5.106   1.899
 9692SOL     OW29974   2.989   5.528   1.756
 9692SOL    HW129975   2.954   5.469   1.683
 9692SOL    HW229976   2.930   5.520   1.836
 9693SOL     OW29977   6.898   5.977   2.104
 9693SOL    HW129978   6.816   6.034   2.111
 9693SOL    HW229979   6.951   6.004   2.023
 9694SOL     OW29980   1.579   2.633   6.990
 9694SOL    HW129981   1.621   2.613   0.054
 9694SOL    HW229982   1.622   2.714   6.950
 9695SOL     OW29983   6.377   4.118   1.280
 9695SOL    HW129984   6.376   4.058   1.359
 9695SOL    HW229985   6.464   4.166   1.276
 9696SOL     OW29986   4.000   2.937   1.744
 9696SOL    HW129987   4.016   3.030   1.711
 9696SOL    HW229988   3.948   2.940   1.830
 9697SOL     OW29989   0.487   5.198   0.083
 9697SOL    HW129990   0.470   5.294   0.062
 9697SOL    HW229991   0.451   5.141   0.009
 9698SOL     OW29992   5.559   1.511   5.208
 9698SOL    HW129993   5.552   1.474   5.301
 9698SOL    HW229994   5.654   1.535   5.189
 9699SOL     OW29995   1.492   3.582   6.733
 9699SOL    HW129996   1.424   3.653   6.752
 9699SOL    HW229997   1.582   3.612   6.767
 9700SOL     OW29998   3.622   4.411   5.631
 9700SOL    HW129999   3.640   4.464   5.548
 9700SOL    HW230000   3.604   4.316   5.606
 9701SOL     OW30001   4.576   4.836   4.767
 9701SOL    HW130002   4.656   4.875   4.813
 9701SOL    HW230003   4.523   4.910   4.726
 9702SOL     OW30004   4.778   1.051   1.007
 9702SOL    HW130005   4.705   1.044   0.939
 9702SOL    HW230006   4.738   1.059   1.099
 9703SOL     OW30007   3.059   6.309   4.168
 9703SOL    HW130008   3.089   6.341   4.258
 9703SOL    HW230009   3.132   6.255   4.125
 9704SOL     OW30010   4.096   6.839   3.078
 9704SOL    HW130011   4.090   6.925   3.129
 9704SOL    HW230012   4.052   6.766   3.130
 9705SOL     OW30013   3.257   4.878   0.653
 9705SOL    HW130014   3.281   4.936   0.731
 9705SOL    HW230015   3.292   4.786   0.668
 9706SOL     OW30016   6.141   3.215   2.264
 9706SOL    HW130017   6.116   3.305   2.300
 9706SOL    HW230018   6.165   3.154   2.339
 9707SOL     OW30019   1.469   4.520   1.802
 9707SOL    HW130020   1.414   4.461   1.743
 9707SOL    HW230021   1.537   4.465   1.850
 9708SOL     OW30022   2.112   1.567   3.633
 9708SOL    HW130023   2.062   1.621   3.565
 9708SOL    HW230024   2.207   1.599   3.637
 9709SOL     OW30025   1.713   6.368   3.031
 9709SOL    HW130026   1.713   6.396   2.935
 9709SOL    HW230027   1.626   6.393   3.073
 9710SOL     OW30028   0.332   1.123   3.176
 9710SOL    HW130029   0.404   1.191   3.192
 9710SOL    HW230030   0.260   1.163   3.119
 9711SOL     OW30031   1.149   3.721   5.985
 9711SOL    HW130032   1.199   3.722   5.898
 9711SOL    HW230033   1.172   3.637   6.035
 9712SOL     OW30034   5.581   1.953   4.140
 9712SOL    HW130035   5.564   1.874   4.199
 9712SOL    HW230036   5.660   2.004   4.176
 9713SOL     OW30037   6.979   4.901   3.181
 9713SOL    HW130038   6.895   4.872   3.137
 9713SOL    HW230039   7.006   4.991   3.148
 9714SOL     OW30040   1.805   2.613   1.993
 9714SOL    HW130041   1.846   2.529   1.958
 9714SOL    HW230042   1.715   2.626   1.951
 9715SOL     OW30043   5.269   5.431   5.137
 9715SOL    HW130044   5.308   5.444   5.228
 9715SOL    HW230045   5.248   5.334   5.124
 9716SOL     OW30046   4.400   1.864   6.482
 9716SOL    HW130047   4.441   1.788   6.532
 9716SOL    HW230048   4.467   1.938   6.473
 9717SOL     OW30049   5.793   5.647   3.975
 9717SOL    HW130050   5.753   5.588   3.904
 9717SOL    HW230051   5.841   5.590   4.042
 9718SOL     OW30052   3.698   3.645   1.098
 9718SOL    HW130053   3.735   3.557   1.128
 9718SOL    HW230054   3.748   3.676   1.018
 9719SOL     OW30055   0.423   2.519   0.090
 9719SOL    HW130056   0.467   2.573   0.017
 9719SOL    HW230057   0.372   2.444   0.049
 9720SOL     OW30058   0.746   6.533   2.290
 9720SOL    HW130059   0.780   6.591   2.216
 9720SOL    HW230060   0.770   6.574   2.378
 9721SOL     OW30061   6.904   3.943   2.514
 9721SOL    HW130062   6.826   3.881   2.506
 9721SOL    HW230063   6.889   4.006   2.591
 9722SOL     OW30064   0.489   0.499   3.798
 9722SOL    HW130065   0.416   0.501   3.867
 9722SOL    HW230066   0.451   0.468   3.711
 9723SOL     OW30067   0.013   0.709   3.257
 9723SOL    HW130068   7.003   0.678   3.169
 9723SOL    HW230069   0.066   0.635   3.300
 9724SOL     OW30070   3.029   2.359   1.071
 9724SOL    HW130071   2.986   2.432   1.124
 9724SOL    HW230072   3.111   2.326   1.118
 9725SOL     OW30073   5.216   3.422   5.624
 9725SOL    HW130074   5.236   3.483   5.701
 9725SOL    HW230075   5.117   3.413   5.614
 9726SOL     OW30076   4.954   6.786   4.885
 9726SOL    HW130077   4.918   6.696   4.908
 9726SOL    HW230078   5.053   6.781   4.875
 9727SOL     OW30079   0.770   3.325   5.867
 9727SOL    HW130080   0.796   3.277   5.951
 9727SOL    HW230081   0.689   3.280   5.827
 9728SOL     OW30082   2.364   6.113   6.405
 9728SOL    HW130083   2.365   6.199   6.456
 9728SOL    HW230084   2.282   6.109   6.347
 9729SOL     OW30085   1.261   4.630   3.379
 9729SOL    HW130086   1.225   4.574   3.304
 9729SOL    HW230087   1.358   4.609   3.392
 9730SOL     OW30088   6.550   3.379   2.535
 9730SOL    HW130089   6.572   3.383   2.437
 9730SOL    HW230090   6.536   3.284   2.562
 9731SOL     OW30091   3.501   5.172   0.672
 9731SOL    HW130092   3.486   5.262   0.712
 9731SOL    HW230093   3.435   5.155   0.599
 9732SOL     OW30094   6.910   6.080   2.483
 9732SOL    HW130095   6.924   6.097   2.385
 9732SOL    HW230096   6.820   6.116   2.510
 9733SOL     OW30097   4.791   4.926   4.570
 9733SOL    HW130098   4.867   4.866   4.595
 9733SOL    HW230099   4.732   4.939   4.649
 9734SOL     OW30100   5.340   2.285   4.085
 9734SOL    HW130101   5.282   2.231   4.147
 9734SOL    HW230102   5.300   2.285   3.993
 9735SOL     OW30103   2.340   5.440   1.807
 9735SOL    HW130104   2.331   5.410   1.902
 9735SOL    HW230105   2.390   5.371   1.755
 9736SOL     OW30106   4.613   1.097   6.495
 9736SOL    HW130107   4.654   1.026   6.552
 9736SOL    HW230108   4.539   1.057   6.440
 9737SOL     OW30109   4.064   2.224   5.177
 9737SOL    HW130110   4.087   2.317   5.151
 9737SOL    HW230111   4.147   2.175   5.203
 9738SOL     OW30112   1.808   1.136   3.273
 9738SOL    HW130113   1.897   1.100   3.246
 9738SOL    HW230114   1.754   1.158   3.192
 9739SOL     OW30115   6.333   5.018   1.822
 9739SOL    HW130116   6.338   4.976   1.732
 9739SOL    HW230117   6.321   4.946   1.891
 9740SOL     OW30118   6.014   4.654   2.836
 9740SOL    HW130119   6.072   4.720   2.789
 9740SOL    HW230120   5.937   4.629   2.777
 9741SOL     OW30121   4.592   1.845   1.861
 9741SOL    HW130122   4.565   1.840   1.957
 9741SOL    HW230123   4.524   1.899   1.811
 9742SOL     OW30124   5.599   0.942   3.536
 9742SOL    HW130125   5.687   0.910   3.571
 9742SOL    HW230126   5.586   0.908   3.442
 9743SOL     OW30127   1.717   2.934   5.963
 9743SOL    HW130128   1.779   2.912   5.887
 9743SOL    HW230129   1.623   2.937   5.929
 9744SOL     OW30130   1.765   1.355   1.808
 9744SOL    HW130131   1.682   1.375   1.860
 9744SOL    HW230132   1.832   1.311   1.867
 9745SOL     OW30133   0.698   2.302   5.283
 9745SOL    HW130134   0.687   2.401   5.274
 9745SOL    HW230135   0.667   2.257   5.200
 9746SOL     OW30136   5.790   0.775   4.930
 9746SOL    HW130137   5.880   0.736   4.912
 9746SOL    HW230138   5.747   0.725   5.006
 9747SOL     OW30139   0.918   0.133   6.713
 9747SOL    HW130140   0.893   0.218   6.667
 9747SOL    HW230141   1.014   0.136   6.740
 9748SOL     OW30142   1.321   6.231   4.228
 9748SOL    HW130143   1.408   6.193   4.259
 9748SOL    HW230144   1.307   6.321   4.269
 9749SOL     OW30145   0.799   3.549   4.289
 9749SOL    HW130146   0.806   3.454   4.317
 9749SOL    HW230147   0.831   3.608   4.364
 9750SOL     OW30148   4.612   5.279   3.815
 9750SOL    HW130149   4.675   5.220   3.765
 9750SOL    HW230150   4.587   5.358   3.759
 9751SOL     OW30151   1.811   2.365   0.617
 9751SOL    HW130152   1.837   2.317   0.534
 9751SOL    HW230153   1.844   2.314   0.697
 9752SOL     OW30154   4.287   0.623   5.533
 9752SOL    HW130155   4.238   0.545   5.496
 9752SOL    HW230156   4.243   0.708   5.503
 9753SOL     OW30157   6.627   5.886   5.505
 9753SOL    HW130158   6.648   5.981   5.481
 9753SOL    HW230159   6.577   5.884   5.592
 9754SOL     OW30160   1.563   2.185   6.940
 9754SOL    HW130161   1.591   2.112   7.002
 9754SOL    HW230162   1.539   2.266   6.994
 9755SOL     OW30163   4.066   3.733   4.896
 9755SOL    HW130164   3.979   3.747   4.847
 9755SOL    HW230165   4.081   3.809   4.959
 9756SOL     OW30166   5.956   2.595   6.538
 9756SOL    HW130167   5.934   2.507   6.581
 9756SOL    HW230168   5.882   2.660   6.556
 9757SOL     OW30169   5.756   2.498   4.261
 9757SOL    HW130170   5.850   2.465   4.261
 9757SOL    HW230171   5.698   2.434   4.210
 9758SOL     OW30172   2.877   0.619   6.935
 9758SOL    HW130173   2.815   0.540   6.929
 9758SOL    HW230174   2.872   0.657   0.003
 9759SOL     OW30175   3.078   6.762   0.984
 9759SOL    HW130176   3.149   6.735   0.920
 9759SOL    HW230177   3.100   6.851   1.023
 9760SOL     OW30178   5.725   4.220   5.682
 9760SOL    HW130179   5.698   4.144   5.741
 9760SOL    HW230180   5.823   4.215   5.664
 9761SOL     OW30181   5.578   5.480   1.884
 9761SOL    HW130182   5.501   5.447   1.938
 9761SOL    HW230183   5.562   5.574   1.856
 9762SOL     OW30184   2.700   2.387   5.087
 9762SOL    HW130185   2.756   2.461   5.124
 9762SOL    HW230186   2.611   2.423   5.058
 9763SOL     OW30187   3.061   2.008   1.699
 9763SOL    HW130188   3.129   1.957   1.751
 9763SOL    HW230189   3.000   2.055   1.763
 9764SOL     OW30190   1.202   1.769   3.278
 9764SOL    HW130191   1.192   1.846   3.215
 9764SOL    HW230192   1.224   1.803   3.369
 9765SOL     OW30193   0.227   2.323   5.780
 9765SOL    HW130194   0.302   2.261   5.805
 9765SOL    HW230195   0.247   2.366   5.692
 9766SOL     OW30196   2.634   0.072   3.018
 9766SOL    HW130197   2.615   0.170   3.007
 9766SOL    HW230198   2.564   0.019   2.970
 9767SOL     OW30199   5.006   0.765   5.384
 9767SOL    HW130200   4.931   0.749   5.449
 9767SOL    HW230201   5.016   0.686   5.324
 9768SOL     OW30202   4.419   2.168   2.648
 9768SOL    HW130203   4.399   2.230   2.724
 9768SOL    HW230204   4.493   2.206   2.592
 9769SOL     OW30205   1.068   2.007   0.801
 9769SOL    HW130206   1.099   1.923   0.845
 9769SOL    HW230207   1.120   2.084   0.837
 9770SOL     OW30208   5.656   4.467   5.426
 9770SOL    HW130209   5.669   4.417   5.512
 9770SOL    HW230210   5.628   4.403   5.355
 9771SOL     OW30211   3.855   5.600   6.115
 9771SOL    HW130212   3.812   5.609   6.205
 9771SOL    HW230213   3.811   5.664   6.051
 9772SOL     OW30214   0.165   0.486   2.006
 9772SOL    HW130215   0.173   0.461   2.102
 9772SOL    HW230216   0.221   0.425   1.951
 9773SOL     OW30217   6.364   5.425   3.885
 9773SOL    HW130218   6.329   5.341   3.926
 9773SOL    HW230219   6.452   5.448   3.925
 9774SOL     OW30220   6.167   4.848   3.847
 9774SOL    HW130221   6.133   4.754   3.858
 9774SOL    HW230222   6.227   4.870   3.924
 9775SOL     OW30223   1.994   2.451   4.832
 9775SOL    HW130224   1.946   2.522   4.883
 9775SOL    HW230225   1.930   2.380   4.805
 9776SOL     OW30226   0.067   5.873   4.479
 9776SOL    HW130227   0.102   5.874   4.386
 9776SOL    HW230228   0.132   5.828   4.540
 9777SOL     OW30229   5.406   4.379   6.177
 9777SOL    HW130230   5.346   4.351   6.252
 9777SOL    HW230231   5.494   4.333   6.187
 9778SOL     OW30232   5.071   6.886   2.859
 9778SOL    HW130233   5.161   6.881   2.816
 9778SOL    HW230234   5.005   6.831   2.807
 9779SOL     OW30235   2.891   1.900   5.534
 9779SOL    HW130236   2.911   1.881   5.630
 9779SOL    HW230237   2.861   1.995   5.524
 9780SOL     OW30238   2.669   4.328   0.316
 9780SOL    HW130239   2.704   4.326   0.223
 9780SOL    HW230240   2.683   4.238   0.359
 9781SOL     OW30241   2.333   4.991   4.818
 9781SOL    HW130242   2.287   5.079   4.808
 9781SOL    HW230243   2.399   4.996   4.893
 9782SOL     OW30244   6.361   0.239   1.675
 9782SOL    HW130245   6.405   0.299   1.741
 9782SOL    HW230246   6.428   0.177   1.635
 9783SOL     OW30247   5.572   1.512   1.875
 9783SOL    HW130248   5.573   1.421   1.916
 9783SOL    HW230249   5.477   1.541   1.862
 9784SOL     OW30250   4.707   0.780   3.122
 9784SOL    HW130251   4.803   0.757   3.140
 9784SOL    HW230252   4.650   0.699   3.138
 9785SOL     OW30253   0.749   2.532   2.059
 9785SOL    HW130254   0.728   2.630   2.054
 9785SOL    HW230255   0.668   2.480   2.031
 9786SOL     OW30256   3.117   5.749   5.234
 9786SOL    HW130257   3.154   5.730   5.325
 9786SOL    HW230258   3.100   5.847   5.224
 9787SOL     OW30259   5.044   4.352   2.019
 9787SOL    HW130260   5.057   4.254   2.027
 9787SOL    HW230261   5.131   4.399   2.035
 9788SOL     OW30262   6.333   0.752   5.432
 9788SOL    HW130263   6.365   0.660   5.457
 9788SOL    HW230264   6.243   0.746   5.389
 9789SOL     OW30265   2.219   5.191   5.066
 9789SOL    HW130266   2.264   5.273   5.031
 9789SOL    HW230267   2.145   5.217   5.128
 9790SOL     OW30268   5.770   2.122   4.242
 9790SOL    HW130269   5.834   2.095   4.313
 9790SOL    HW230270   5.810   2.196   4.187
 9791SOL     OW30271   0.600   1.963   1.884
 9791SOL    HW130272   0.510   1.944   1.844
 9791SOL    HW230273   0.628   2.057   1.863
 9792SOL     OW30274   4.447   4.869   0.944
 9792SOL    HW130275   4.364   4.905   0.986
 9792SOL    HW230276   4.493   4.941   0.893
 9793SOL     OW30277   5.836   5.893   2.230
 9793SOL    HW130278   5.928   5.914   2.197
 9793SOL    HW230279   5.781   5.977   2.231
 9794SOL     OW30280   4.878   2.919   6.288
 9794SOL    HW130281   4.878   3.012   6.251
 9794SOL    HW230282   4.846   2.921   6.383
 9795SOL     OW30283   1.862   3.375   3.849
 9795SOL    HW130284   1.803   3.423   3.784
 9795SOL    HW230285   1.854   3.277   3.836
 9796SOL     OW30286   2.981   5.182   0.219
 9796SOL    HW130287   2.882   5.187   0.220
 9796SOL    HW230288   3.014   5.192   0.125
 9797SOL     OW30289   4.731   3.497   5.995
 9797SOL    HW130290   4.699   3.531   5.906
 9797SOL    HW230291   4.822   3.457   5.984
 9798SOL     OW30292   2.594   1.660   1.205
 9798SOL    HW130293   2.636   1.654   1.296
 9798SOL    HW230294   2.507   1.611   1.205
 9799SOL     OW30295   2.959   3.508   2.684
 9799SOL    HW130296   2.957   3.606   2.663
 9799SOL    HW230297   2.931   3.456   2.603
 9800SOL     OW30298   4.209   4.949   6.367
 9800SOL    HW130299   4.302   4.921   6.392
 9800SOL    HW230300   4.214   5.011   6.288
 9801SOL     OW30301   3.962   5.935   6.494
 9801SOL    HW130302   4.000   5.879   6.568
 9801SOL    HW230303   4.023   5.933   6.416
 9802SOL     OW30304   6.560   3.551   0.488
 9802SOL    HW130305   6.525   3.466   0.449
 9802SOL    HW230306   6.575   3.539   0.586
 9803SOL     OW30307   5.909   0.697   6.673
 9803SOL    HW130308   6.004   0.678   6.697
 9803SOL    HW230309   5.892   0.667   6.579
 9804SOL     OW30310   6.269   5.993   4.385
 9804SOL    HW130311   6.314   5.946   4.461
 9804SOL    HW230312   6.173   5.968   4.382
 9805SOL     OW30313   1.642   5.188   0.184
 9805SOL    HW130314   1.550   5.192   0.144
 9805SOL    HW230315   1.641   5.126   0.263
 9806SOL     OW30316   0.104   2.039   2.947
 9806SOL    HW130317   0.004   2.037   2.942
 9806SOL    HW230318   0.142   2.067   2.859
 9807SOL     OW30319   4.146   2.409   0.912
 9807SOL    HW130320   4.100   2.323   0.935
 9807SOL    HW230321   4.149   2.468   0.993
 9808SOL     OW30322   0.567   1.633   4.794
 9808SOL    HW130323   0.541   1.557   4.854
 9808SOL    HW230324   0.557   1.604   4.698
 9809SOL     OW30325   0.668   0.847   4.884
 9809SOL    HW130326   0.685   0.922   4.819
 9809SOL    HW230327   0.751   0.794   4.896
 9810SOL     OW30328   3.703   0.935   3.235
 9810SOL    HW130329   3.690   1.034   3.233
 9810SOL    HW230330   3.699   0.898   3.143
 9811SOL     OW30331   0.358   6.921   2.267
 9811SOL    HW130332   0.446   6.943   2.310
 9811SOL    HW230333   0.369   6.844   2.204
 9812SOL     OW30334   4.911   2.657   6.214
 9812SOL    HW130335   4.837   2.598   6.245
 9812SOL    HW230336   4.888   2.753   6.233
 9813SOL     OW30337   6.555   4.443   0.404
 9813SOL    HW130338   6.638   4.437   0.459
 9813SOL    HW230339   6.579   4.446   0.307
 9814SOL     OW30340   6.850   0.023   5.699
 9814SOL    HW130341   6.847   6.995   5.784
 9814SOL    HW230342   6.778   7.015   5.638
 9815SOL     OW30343   5.909   3.577   2.125
 9815SOL    HW130344   5.883   3.511   2.055
 9815SOL    HW230345   5.943   3.660   2.082
 9816SOL     OW30346   6.764   6.727   6.903
 9816SOL    HW130347   6.843   6.780   6.871
 9816SOL    HW230348   6.796   6.641   6.944
 9817SOL     OW30349   2.741   6.431   6.962
 9817SOL    HW130350   2.798   6.467   0.011
 9817SOL    HW230351   2.682   6.358   6.998
 9818SOL     OW30352   1.026   6.650   3.622
 9818SOL    HW130353   0.990   6.655   3.529
 9818SOL    HW230354   1.019   6.741   3.664
 9819SOL     OW30355   0.149   3.528   4.910
 9819SOL    HW130356   0.054   3.507   4.932
 9819SOL    HW230357   0.186   3.457   4.849
 9820SOL     OW30358   3.584   1.938   5.750
 9820SOL    HW130359   3.672   1.914   5.792
 9820SOL    HW230360   3.518   1.962   5.822
 9821SOL     OW30361   4.381   2.522   1.664
 9821SOL    HW130362   4.302   2.570   1.625
 9821SOL    HW230363   4.465   2.567   1.633
 9822SOL     OW30364   3.427   6.377   5.220
 9822SOL    HW130365   3.494   6.389   5.147
 9822SOL    HW230366   3.400   6.280   5.224
 9823SOL     OW30367   2.121   0.427   3.293
 9823SOL    HW130368   2.044   0.454   3.350
 9823SOL    HW230369   2.088   0.395   3.204
 9824SOL     OW30370   0.978   6.021   5.179
 9824SOL    HW130371   0.931   5.935   5.197
 9824SOL    HW230372   1.006   6.024   5.083
 9825SOL     OW30373   5.343   6.198   5.563
 9825SOL    HW130374   5.278   6.250   5.618
 9825SOL    HW230375   5.426   6.251   5.550
 9826SOL     OW30376   1.945   6.269   5.393
 9826SOL    HW130377   2.032   6.280   5.441
 9826SOL    HW230378   1.902   6.359   5.381
 9827SOL     OW30379   1.320   5.810   1.814
 9827SOL    HW130380   1.337   5.749   1.736
 9827SOL    HW230381   1.307   5.756   1.897
 9828SOL     OW30382   4.038   2.245   4.622
 9828SOL    HW130383   4.113   2.271   4.683
 9828SOL    HW230384   4.065   2.260   4.527
 9829SOL     OW30385   4.698   5.264   5.128
 9829SOL    HW130386   4.730   5.352   5.093
 9829SOL    HW230387   4.624   5.230   5.070
 9830SOL     OW30388   6.145   2.401   2.728
 9830SOL    HW130389   6.073   2.469   2.720
 9830SOL    HW230390   6.104   2.311   2.747
 9831SOL     OW30391   0.434   4.018   2.707
 9831SOL    HW130392   0.453   4.058   2.797
 9831SOL    HW230393   0.474   4.077   2.637
 9832SOL     OW30394   4.666   4.671   4.517
 9832SOL    HW130395   4.617   4.720   4.446
 9832SOL    HW230396   4.660   4.722   4.603
 9833SOL     OW30397   3.663   4.131   4.168
 9833SOL    HW130398   3.580   4.172   4.129
 9833SOL    HW230399   3.654   4.125   4.267
 9834SOL     OW30400   2.602   6.176   6.051
 9834SOL    HW130401   2.631   6.171   6.147
 9834SOL    HW230402   2.562   6.267   6.034
 9835SOL     OW30403   3.897   4.071   4.310
 9835SOL    HW130404   3.908   3.989   4.255
 9835SOL    HW230405   3.866   4.146   4.252
 9836SOL     OW30406   0.180   3.735   5.759
 9836SOL    HW130407   0.162   3.784   5.845
 9836SOL    HW230408   0.157   3.793   5.682
 9837SOL     OW30409   5.310   2.200   3.175
 9837SOL    HW130410   5.279   2.110   3.205
 9837SOL    HW230411   5.284   2.214   3.079
 9838SOL     OW30412   1.491   6.845   1.225
 9838SOL    HW130413   1.448   6.923   1.180
 9838SOL    HW230414   1.581   6.872   1.258
 9839SOL     OW30415   4.715   0.375   3.556
 9839SOL    HW130416   4.810   0.357   3.579
 9839SOL    HW230417   4.695   0.337   3.466
 9840SOL     OW30418   6.116   0.872   6.815
 9840SOL    HW130419   6.074   0.848   6.902
 9840SOL    HW230420   6.052   0.928   6.762
 9841SOL     OW30421   0.407   6.356   3.545
 9841SOL    HW130422   0.386   6.336   3.641
 9841SOL    HW230423   0.506   6.362   3.533
 9842SOL     OW30424   2.614   1.972   6.956
 9842SOL    HW130425   2.529   1.926   6.929
 9842SOL    HW230426   2.663   2.002   6.875
 9843SOL     OW30427   0.983   0.520   1.417
 9843SOL    HW130428   0.938   0.491   1.332
 9843SOL    HW230429   0.915   0.553   1.482
 9844SOL     OW30430   4.575   6.773   4.411
 9844SOL    HW130431   4.533   6.807   4.494
 9844SOL    HW230432   4.617   6.684   4.429
 9845SOL     OW30433   1.961   3.761   1.744
 9845SOL    HW130434   1.952   3.781   1.647
 9845SOL    HW230435   1.954   3.846   1.797
 9846SOL     OW30436   5.796   2.293   1.023
 9846SOL    HW130437   5.849   2.209   1.014
 9846SOL    HW230438   5.710   2.283   0.974
 9847SOL     OW30439   4.293   4.084   0.006
 9847SOL    HW130440   4.310   3.986   7.024
 9847SOL    HW230441   4.357   4.133   6.973
 9848SOL     OW30442   3.305   3.731   5.564
 9848SOL    HW130443   3.318   3.777   5.652
 9848SOL    HW230444   3.390   3.734   5.511
 9849SOL     OW30445   0.707   1.855   4.583
 9849SOL    HW130446   0.615   1.819   4.594
 9849SOL    HW230447   0.737   1.843   4.488
 9850SOL     OW30448   1.197   0.300   4.434
 9850SOL    HW130449   1.147   0.322   4.517
 9850SOL    HW230450   1.144   0.236   4.379
 9851SOL     OW30451   3.700   5.108   4.387
 9851SOL    HW130452   3.763   5.116   4.465
 9851SOL    HW230453   3.748   5.066   4.310
 9852SOL     OW30454   2.135   0.753   0.095
 9852SOL    HW130455   2.225   0.775   0.056
 9852SOL    HW230456   2.072   0.729   0.022
 9853SOL     OW30457   6.676   4.647   3.536
 9853SOL    HW130458   6.757   4.640   3.594
 9853SOL    HW230459   6.594   4.628   3.592
 9854SOL     OW30460   0.804   4.421   5.971
 9854SOL    HW130461   0.715   4.466   5.979
 9854SOL    HW230462   0.874   4.491   5.955
 9855SOL     OW30463   1.155   4.845   1.400
 9855SOL    HW130464   1.125   4.752   1.377
 9855SOL    HW230465   1.254   4.851   1.387
 9856SOL     OW30466   5.841   4.145   3.307
 9856SOL    HW130467   5.901   4.222   3.287
 9856SOL    HW230468   5.746   4.176   3.304
 9857SOL     OW30469   3.560   0.870   5.108
 9857SOL    HW130470   3.596   0.777   5.115
 9857SOL    HW230471   3.464   0.867   5.081
 9858SOL     OW30472   6.028   6.458   2.746
 9858SOL    HW130473   5.995   6.477   2.838
 9858SOL    HW230474   5.951   6.456   2.682
 9859SOL     OW30475   0.231   6.099   3.460
 9859SOL    HW130476   0.277   6.141   3.383
 9859SOL    HW230477   0.133   6.121   3.456
 9860SOL     OW30478   1.456   2.978   3.996
 9860SOL    HW130479   1.478   3.076   3.994
 9860SOL    HW230480   1.360   2.967   4.022
 9861SOL     OW30481   3.354   1.719   3.510
 9861SOL    HW130482   3.393   1.731   3.601
 9861SOL    HW230483   3.429   1.716   3.443
 9862SOL     OW30484   1.218   4.924   0.474
 9862SOL    HW130485   1.163   5.001   0.441
 9862SOL    HW230486   1.185   4.897   0.565
 9863SOL     OW30487   3.374   5.769   0.805
 9863SOL    HW130488   3.345   5.695   0.867
 9863SOL    HW230489   3.326   5.853   0.829
 9864SOL     OW30490   2.842   5.360   5.827
 9864SOL    HW130491   2.773   5.432   5.831
 9864SOL    HW230492   2.882   5.357   5.735
 9865SOL     OW30493   0.340   6.063   5.427
 9865SOL    HW130494   0.248   6.023   5.419
 9865SOL    HW230495   0.390   6.048   5.341
 9866SOL     OW30496   6.106   4.188   5.220
 9866SOL    HW130497   6.140   4.096   5.240
 9866SOL    HW230498   6.060   4.225   5.301
 9867SOL     OW30499   4.424   2.034   1.738
 9867SOL    HW130500   4.420   2.097   1.661
 9867SOL    HW230501   4.353   2.058   1.805
 9868SOL     OW30502   2.159   3.689   3.645
 9868SOL    HW130503   2.254   3.721   3.636
 9868SOL    HW230504   2.105   3.759   3.691
 9869SOL     OW30505   6.190   3.054   1.148
 9869SOL    HW130506   6.271   2.996   1.153
 9869SOL    HW230507   6.196   3.126   1.216
 9870SOL     OW30508   2.855   1.235   2.684
 9870SOL    HW130509   2.952   1.214   2.684
 9870SOL    HW230510   2.803   1.152   2.701
 9871SOL     OW30511   6.845   4.395   4.374
 9871SOL    HW130512   6.778   4.322   4.360
 9871SOL    HW230513   6.798   4.483   4.379
 9872SOL     OW30514   0.883   4.847   6.012
 9872SOL    HW130515   0.849   4.817   5.922
 9872SOL    HW230516   0.946   4.923   5.999
 9873SOL     OW30517   1.208   1.734   6.117
 9873SOL    HW130518   1.113   1.714   6.143
 9873SOL    HW230519   1.265   1.655   6.137
 9874SOL     OW30520   0.220   2.517   4.716
 9874SOL    HW130521   0.309   2.524   4.760
 9874SOL    HW230522   0.229   2.536   4.619
 9875SOL     OW30523   6.525   5.567   1.026
 9875SOL    HW130524   6.493   5.508   1.101
 9875SOL    HW230525   6.585   5.514   0.966
 9876SOL     OW30526   1.677   6.460   4.200
 9876SOL    HW130527   1.667   6.560   4.200
 9876SOL    HW230528   1.632   6.421   4.120
 9877SOL     OW30529   0.843   4.943   5.238
 9877SOL    HW130530   0.817   4.944   5.142
 9877SOL    HW230531   0.890   5.028   5.261
 9878SOL     OW30532   2.496   2.810   6.857
 9878SOL    HW130533   2.562   2.841   6.789
 9878SOL    HW230534   2.417   2.871   6.857
 9879SOL     OW30535   6.758   5.378   6.264
 9879SOL    HW130536   6.718   5.307   6.322
 9879SOL    HW230537   6.775   5.460   6.318
 9880SOL     OW30538   3.006   1.625   0.089
 9880SOL    HW130539   2.907   1.644   0.085
 9880SOL    HW230540   3.040   1.644   0.181
 9881SOL     OW30541   5.882   0.867   4.046
 9881SOL    HW130542   5.939   0.933   4.095
 9881SOL    HW230543   5.843   0.802   4.110
 9882SOL     OW30544   3.164   3.132   4.691
 9882SOL    HW130545   3.076   3.150   4.735
 9882SOL    HW230546   3.170   3.036   4.665
 9883SOL     OW30547   2.422   6.975   1.947
 9883SOL    HW130548   2.356   6.912   1.989
 9883SOL    HW230549   2.456   6.936   1.862
 9884SOL     OW30550   2.657   3.540   5.724
 9884SOL    HW130551   2.601   3.541   5.641
 9884SOL    HW230552   2.748   3.506   5.702
 9885SOL     OW30553   5.561   2.969   5.206
 9885SOL    HW130554   5.637   2.915   5.241
 9885SOL    HW230555   5.476   2.943   5.253
 9886SOL     OW30556   4.287   5.752   1.230
 9886SOL    HW130557   4.383   5.777   1.242
 9886SOL    HW230558   4.275   5.714   1.138
 9887SOL     OW30559   3.096   7.024   6.499
 9887SOL    HW130560   3.186   0.012   6.541
 9887SOL    HW230561   3.097   0.036   6.406
 9888SOL     OW30562   6.695   6.485   3.109
 9888SOL    HW130563   6.772   6.538   3.144
 9888SOL    HW230564   6.641   6.450   3.186
 9889SOL     OW30565   7.024   5.637   3.547
 9889SOL    HW130566   0.079   5.691   3.522
 9889SOL    HW230567   0.028   5.551   3.588
 9890SOL     OW30568   0.544   3.792   1.937
 9890SOL    HW130569   0.625   3.851   1.937
 9890SOL    HW230570   0.485   3.817   1.860
 9891SOL     OW30571   5.257   5.549   0.688
 9891SOL    HW130572   5.324   5.477   0.710
 9891SOL    HW230573   5.286   5.597   0.605
 9892SOL     OW30574   2.003   4.828   3.915
 9892SOL    HW130575   1.966   4.747   3.959
 9892SOL    HW230576   2.051   4.884   3.982
 9893SOL     OW30577   5.374   5.309   3.611
 9893SOL    HW130578   5.322   5.224   3.596
 9893SOL    HW230579   5.467   5.297   3.578
 9894SOL     OW30580   3.927   3.387   5.825
 9894SOL    HW130581   3.922   3.377   5.924
 9894SOL    HW230582   4.023   3.394   5.797
 9895SOL     OW30583   5.597   1.992   6.664
 9895SOL    HW130584   5.675   1.965   6.721
 9895SOL    HW230585   5.622   1.985   6.568
 9896SOL     OW30586   4.058   4.095   0.369
 9896SOL    HW130587   4.070   4.007   0.416
 9896SOL    HW230588   4.068   4.170   0.434
 9897SOL     OW30589   6.901   1.890   3.594
 9897SOL    HW130590   6.931   1.958   3.526
 9897SOL    HW230591   6.817   1.921   3.638
 9898SOL     OW30592   1.169   5.368   5.391
 9898SOL    HW130593   1.195   5.436   5.460
 9898SOL    HW230594   1.095   5.404   5.335
 9899SOL     OW30595   5.731   4.885   1.934
 9899SOL    HW130596   5.700   4.978   1.915
 9899SOL    HW230597   5.824   4.872   1.898
 9900SOL     OW30598   0.865   3.486   3.505
 9900SOL    HW130599   0.850   3.485   3.603
 9900SOL    HW230600   0.781   3.459   3.458
 9901SOL     OW30601   3.062   1.806   5.334
 9901SOL    HW130602   3.074   1.855   5.248
 9901SOL    HW230603   2.991   1.851   5.388
 9902SOL     OW30604   4.493   4.108   6.819
 9902SOL    HW130605   4.545   4.067   6.894
 9902SOL    HW230606   4.478   4.040   6.747
 9903SOL     OW30607   4.019   1.510   1.486
 9903SOL    HW130608   4.032   1.470   1.577
 9903SOL    HW230609   3.992   1.605   1.495
 9904SOL     OW30610   6.465   0.312   1.992
 9904SOL    HW130611   6.531   0.348   1.926
 9904SOL    HW230612   6.386   0.373   1.996
 9905SOL     OW30613   1.403   6.364   5.353
 9905SOL    HW130614   1.385   6.462   5.366
 9905SOL    HW230615   1.399   6.317   5.441
 9906SOL     OW30616   3.040   3.194   6.123
 9906SOL    HW130617   3.135   3.167   6.108
 9906SOL    HW230618   3.009   3.162   6.212
 9907SOL     OW30619   2.152   6.572   2.682
 9907SOL    HW130620   2.116   6.534   2.597
 9907SOL    HW230621   2.164   6.670   2.672
 9908SOL     OW30622   1.077   3.299   5.398
 9908SOL    HW130623   1.009   3.317   5.469
 9908SOL    HW230624   1.166   3.285   5.441
 9909SOL     OW30625   4.148   6.644   2.528
 9909SOL    HW130626   4.228   6.632   2.469
 9909SOL    HW230627   4.089   6.563   2.520
 9910SOL     OW30628   0.213   4.023   1.507
 9910SOL    HW130629   0.176   3.957   1.572
 9910SOL    HW230630   0.309   4.041   1.529
 9911SOL     OW30631   2.881   4.902   3.711
 9911SOL    HW130632   2.827   4.957   3.646
 9911SOL    HW230633   2.977   4.906   3.685
 9912SOL     OW30634   4.922   0.204   1.451
 9912SOL    HW130635   4.984   0.131   1.423
 9912SOL    HW230636   4.828   0.171   1.448
 9913SOL     OW30637   4.693   2.024   2.675
 9913SOL    HW130638   4.661   2.115   2.703
 9913SOL    HW230639   4.746   2.033   2.591
 9914SOL     OW30640   1.701   6.176   5.537
 9914SOL    HW130641   1.784   6.192   5.483
 9914SOL    HW230642   1.645   6.259   5.537
 9915SOL     OW30643   5.184   3.786   4.572
 9915SOL    HW130644   5.229   3.873   4.550
 9915SOL    HW230645   5.085   3.800   4.575
 9916SOL     OW30646   2.262   3.187   1.390
 9916SOL    HW130647   2.320   3.194   1.471
 9916SOL    HW230648   2.265   3.273   1.339
 9917SOL     OW30649   2.011   3.384   5.586
 9917SOL    HW130650   1.946   3.331   5.531
 9917SOL    HW230651   2.004   3.481   5.561
 9918SOL     OW30652   1.510   1.073   5.033
 9918SOL    HW130653   1.596   1.105   5.074
 9918SOL    HW230654   1.433   1.103   5.090
 9919SOL     OW30655   0.244   5.447   3.208
 9919SOL    HW130656   0.192   5.389   3.146
 9919SOL    HW230657   0.275   5.393   3.286
 9920SOL     OW30658   4.641   6.819   1.503
 9920SOL    HW130659   4.729   6.799   1.546
 9920SOL    HW230660   4.590   6.884   1.560
 9921SOL     OW30661   5.223   0.052   2.537
 9921SOL    HW130662   5.223   7.011   2.612
 9921SOL    HW230663   5.271   0.135   2.566
 9922SOL     OW30664   4.467   3.032   1.393
 9922SOL    HW130665   4.451   3.094   1.470
 9922SOL    HW230666   4.563   3.003   1.393
 9923SOL     OW30667   6.786   1.995   6.292
 9923SOL    HW130668   6.779   2.072   6.356
 9923SOL    HW230669   6.695   1.959   6.274
 9924SOL     OW30670   6.036   0.583   2.993
 9924SOL    HW130671   5.985   0.600   3.078
 9924SOL    HW230672   6.081   0.668   2.964
 9925SOL     OW30673   2.196   2.769   4.914
 9925SOL    HW130674   2.234   2.835   4.980
 9925SOL    HW230675   2.233   2.787   4.824
 9926SOL     OW30676   1.218   1.090   0.267
 9926SOL    HW130677   1.251   1.173   0.222
 9926SOL    HW230678   1.282   1.015   0.249
 9927SOL     OW30679   0.835   2.440   2.565
 9927SOL    HW130680   0.879   2.358   2.528
 9927SOL    HW230681   0.736   2.431   2.556
 9928SOL     OW30682   0.095   3.054   2.904
 9928SOL    HW130683   0.138   2.964   2.897
 9928SOL    HW230684   0.149   3.112   2.964
 9929SOL     OW30685   2.061   4.266   6.359
 9929SOL    HW130686   2.017   4.339   6.307
 9929SOL    HW230687   2.159   4.284   6.366
 9930SOL     OW30688   0.369   5.837   6.928
 9930SOL    HW130689   0.350   5.747   6.967
 9930SOL    HW230690   0.283   5.877   6.895
 9931SOL     OW30691   2.473   5.859   6.429
 9931SOL    HW130692   2.435   5.782   6.378
 9931SOL    HW230693   2.415   5.940   6.417
 9932SOL     OW30694   2.061   2.383   6.984
 9932SOL    HW130695   2.131   2.347   0.021
 9932SOL    HW230696   2.094   2.467   6.941
 9933SOL     OW30697   1.099   2.214   3.532
 9933SOL    HW130698   1.029   2.163   3.582
 9933SOL    HW230699   1.190   2.188   3.565
 9934SOL     OW30700   3.712   0.928   5.932
 9934SOL    HW130701   3.632   0.977   5.966
 9934SOL    HW230702   3.736   0.854   5.995
 9935SOL     OW30703   2.707   2.074   0.989
 9935SOL    HW130704   2.619   2.074   1.037
 9935SOL    HW230705   2.773   2.020   1.041
 9936SOL     OW30706   5.911   6.455   5.694
 9936SOL    HW130707   5.879   6.486   5.783
 9936SOL    HW230708   5.879   6.362   5.677
 9937SOL     OW30709   0.380   0.325   3.591
 9937SOL    HW130710   0.284   0.333   3.618
 9937SOL    HW230711   0.405   0.228   3.589
 9938SOL     OW30712   6.948   1.509   3.772
 9938SOL    HW130713   0.001   1.458   3.736
 9938SOL    HW230714   6.888   1.537   3.696
 9939SOL     OW30715   3.262   4.319   1.009
 9939SOL    HW130716   3.271   4.378   1.089
 9939SOL    HW230717   3.229   4.229   1.037
 9940SOL     OW30718   0.295   0.993   3.432
 9940SOL    HW130719   0.340   0.912   3.393
 9940SOL    HW230720   0.324   1.074   3.381
 9941SOL     OW30721   5.406   5.033   6.792
 9941SOL    HW130722   5.418   5.098   6.867
 9941SOL    HW230723   5.310   5.030   6.765
 9942SOL     OW30724   4.749   4.762   2.917
 9942SOL    HW130725   4.663   4.775   2.968
 9942SOL    HW230726   4.730   4.763   2.819
 9943SOL     OW30727   2.283   3.954   6.364
 9943SOL    HW130728   2.293   3.975   6.462
 9943SOL    HW230729   2.326   3.866   6.345
 9944SOL     OW30730   0.529   4.810   6.206
 9944SOL    HW130731   0.458   4.808   6.277
 9944SOL    HW230732   0.616   4.782   6.245
 9945SOL     OW30733   6.432   3.291   5.999
 9945SOL    HW130734   6.489   3.373   5.990
 9945SOL    HW230735   6.465   3.221   5.936
 9946SOL     OW30736   5.718   1.640   1.680
 9946SOL    HW130737   5.642   1.684   1.632
 9946SOL    HW230738   5.682   1.586   1.756
 9947SOL     OW30739   1.289   1.819   3.811
 9947SOL    HW130740   1.203   1.870   3.799
 9947SOL    HW230741   1.315   1.777   3.724
 9948SOL     OW30742   5.678   0.242   4.307
 9948SOL    HW130743   5.619   0.252   4.226
 9948SOL    HW230744   5.646   0.304   4.379
 9949SOL     OW30745   6.097   5.121   4.273
 9949SOL    HW130746   6.152   5.058   4.328
 9949SOL    HW230747   6.065   5.073   4.191
 9950SOL     OW30748   5.821   4.091   5.299
 9950SOL    HW130749   5.850   3.995   5.297
 9950SOL    HW230750   5.851   4.133   5.385
 9951SOL     OW30751   0.353   2.013   3.605
 9951SOL    HW130752   0.268   2.045   3.646
 9951SOL    HW230753   0.337   1.985   3.511
 9952SOL     OW30754   0.627   5.163   1.924
 9952SOL    HW130755   0.612   5.255   1.959
 9952SOL    HW230756   0.719   5.132   1.950
 9953SOL     OW30757   5.759   2.249   3.640
 9953SOL    HW130758   5.841   2.207   3.601
 9953SOL    HW230759   5.715   2.306   3.571
 9954SOL     OW30760   3.624   1.352   6.012
 9954SOL    HW130761   3.565   1.432   6.022
 9954SOL    HW230762   3.609   1.290   6.088
 9955SOL     OW30763   5.595   4.156   1.108
 9955SOL    HW130764   5.622   4.115   1.195
 9955SOL    HW230765   5.599   4.087   1.036
 9956SOL     OW30766   2.212   3.207   3.251
 9956SOL    HW130767   2.245   3.145   3.179
 9956SOL    HW230768   2.163   3.154   3.320
 9957SOL     OW30769   4.999   0.022   1.042
 9957SOL    HW130770   4.964   0.116   1.049
 9957SOL    HW230771   5.010   7.009   1.134
 9958SOL     OW30772   5.313   6.034   0.207
 9958SOL    HW130773   5.394   5.985   0.175
 9958SOL    HW230774   5.247   5.969   0.243
 9959SOL     OW30775   4.942   4.526   0.552
 9959SOL    HW130776   5.006   4.591   0.593
 9959SOL    HW230777   4.926   4.450   0.615
 9960SOL     OW30778   0.368   0.380   6.925
 9960SOL    HW130779   0.387   0.352   7.019
 9960SOL    HW230780   0.269   0.382   6.910
 9961SOL     OW30781   2.756   5.212   1.330
 9961SOL    HW130782   2.815   5.132   1.342
 9961SOL    HW230783   2.812   5.291   1.303
 9962SOL     OW30784   3.263   0.503   1.445
 9962SOL    HW130785   3.182   0.456   1.478
 9962SOL    HW230786   3.344   0.447   1.462
 9963SOL     OW30787   0.746   1.056   6.460
 9963SOL    HW130788   0.703   0.971   6.430
 9963SOL    HW230789   0.764   1.114   6.380
 9964SOL     OW30790   4.467   4.138   6.109
 9964SOL    HW130791   4.438   4.172   6.020
 9964SOL    HW230792   4.387   4.128   6.168
 9965SOL     OW30793   2.798   5.537   4.153
 9965SOL    HW130794   2.831   5.596   4.228
 9965SOL    HW230795   2.778   5.446   4.189
 9966SOL     OW30796   3.881   4.914   2.230
 9966SOL    HW130797   3.849   4.958   2.314
 9966SOL    HW230798   3.803   4.892   2.172
 9967SOL     OW30799   6.818   0.495   2.762
 9967SOL    HW130800   6.784   0.555   2.834
 9967SOL    HW230801   6.912   0.519   2.739
 9968SOL     OW30802   3.283   6.691   0.165
 9968SOL    HW130803   3.361   6.752   0.177
 9968SOL    HW230804   3.293   6.613   0.228
 9969SOL     OW30805   1.738   5.871   3.184
 9969SOL    HW130806   1.772   5.965   3.175
 9969SOL    HW230807   1.763   5.836   3.275
 9970SOL     OW30808   6.375   3.735   1.317
 9970SOL    HW130809   6.295   3.693   1.361
 9970SOL    HW230810   6.407   3.811   1.373
 9971SOL     OW30811   0.765   5.236   3.308
 9971SOL    HW130812   0.718   5.175   3.372
 9971SOL    HW230813   0.738   5.213   3.214
 9972SOL     OW30814   2.876   3.857   6.595
 9972SOL    HW130815   2.953   3.907   6.634
 9972SOL    HW230816   2.869   3.877   6.498
 9973SOL     OW30817   2.755   2.053   3.617
 9973SOL    HW130818   2.726   2.084   3.708
 9973SOL    HW230819   2.674   2.027   3.564
 9974SOL     OW30820   1.430   2.941   2.792
 9974SOL    HW130821   1.375   2.871   2.745
 9974SOL    HW230822   1.428   2.923   2.891
 9975SOL     OW30823   2.131   5.197   6.905
 9975SOL    HW130824   2.135   5.291   6.939
 9975SOL    HW230825   2.144   5.133   6.981
 9976SOL     OW30826   3.353   4.221   6.359
 9976SOL    HW130827   3.322   4.288   6.292
 9976SOL    HW230828   3.417   4.263   6.423
 9977SOL     OW30829   4.844   6.466   5.449
 9977SOL    HW130830   4.810   6.523   5.524
 9977SOL    HW230831   4.937   6.493   5.426
 9978SOL     OW30832   0.977   3.494   6.597
 9978SOL    HW130833   1.051   3.560   6.609
 9978SOL    HW230834   0.894   3.528   6.641
 9979SOL     OW30835   3.750   3.439   4.850
 9979SOL    HW130836   3.763   3.531   4.814
 9979SOL    HW230837   3.838   3.393   4.858
 9980SOL     OW30838   1.996   1.741   0.739
 9980SOL    HW130839   1.912   1.783   0.705
 9980SOL    HW230840   2.042   1.805   0.800
 9981SOL     OW30841   6.877   2.921   1.624
 9981SOL    HW130842   6.832   2.978   1.555
 9981SOL    HW230843   6.858   2.825   1.605
 9982SOL     OW30844   2.074   2.045   4.770
 9982SOL    HW130845   1.999   1.981   4.752
 9982SOL    HW230846   2.056   2.094   4.855
 9983SOL     OW30847   0.961   2.634   2.298
 9983SOL    HW130848   0.863   2.620   2.278
 9983SOL    HW230849   0.974   2.642   2.397
 9984SOL     OW30850   0.451   5.847   1.165
 9984SOL    HW130851   0.463   5.768   1.105
 9984SOL    HW230852   0.529   5.852   1.228
 9985SOL     OW30853   4.076   4.755   0.558
 9985SOL    HW130854   3.995   4.763   0.499
 9985SOL    HW230855   4.053   4.786   0.650
 9986SOL     OW30856   5.501   5.353   7.025
 9986SOL    HW130857   5.415   5.375   0.047
 9986SOL    HW230858   5.566   5.428   0.014
 9987SOL     OW30859   5.177   2.760   1.038
 9987SOL    HW130860   5.137   2.732   0.950
 9987SOL    HW230861   5.179   2.681   1.100
 9988SOL     OW30862   5.346   6.361   4.563
 9988SOL    HW130863   5.438   6.364   4.523
 9988SOL    HW230864   5.303   6.451   4.554
 9989SOL     OW30865   6.347   5.319   2.381
 9989SOL    HW130866   6.446   5.324   2.390
 9989SOL    HW230867   6.320   5.225   2.359
 9990SOL     OW30868   0.836   6.859   3.662
 9990SOL    HW130869   0.808   6.955   3.661
 9990SOL    HW230870   0.764   6.803   3.619
 9991SOL     OW30871   1.582   4.792   3.263
 9991SOL    HW130872   1.539   4.715   3.216
 9991SOL    HW230873   1.676   4.803   3.231
 9992SOL     OW30874   3.434   4.975   0.848
 9992SOL    HW130875   3.456   5.044   0.779
 9992SOL    HW230876   3.514   4.917   0.864
 9993SOL     OW30877   3.655   6.752   4.535
 9993SOL    HW130878   3.725   6.781   4.471
 9993SOL    HW230879   3.565   6.754   4.491
 9994SOL     OW30880   6.460   4.500   4.814
 9994SOL    HW130881   6.395   4.437   4.857
 9994SOL    HW230882   6.498   4.561   4.884
 9995SOL     OW30883   2.966   0.767   4.825
 9995SOL    HW130884   2.999   0.747   4.733
 9995SOL    HW230885   3.032   0.735   4.892
 9996SOL     OW30886   2.652   3.268   0.983
 9996SOL    HW130887   2.710   3.332   0.932
 9996SOL    HW230888   2.576   3.318   1.024
 9997SOL     OW30889   6.085   2.809   3.578
 9997SOL    HW130890   6.171   2.858   3.565
 9997SOL    HW230891   6.085   2.765   3.668
 9998SOL     OW30892   5.192   4.538   2.718
 9998SOL    HW130893   5.256   4.571   2.788
 9998SOL    HW230894   5.125   4.477   2.760
 9999SOL     OW30895   1.374   5.975   3.590
 9999SOL    HW130896   1.326   6.005   3.507
 9999SOL    HW230897   1.308   5.962   3.664
10000SOL     OW30898   5.627   2.116   1.566
10000SOL    HW130899   5.667   2.208   1.564
10000SOL    HW230900   5.547   2.116   1.626
10001SOL     OW30901   4.016   6.223   1.823
10001SOL    HW130902   4.064   6.304   1.858
10001SOL    HW230903   3.927   6.216   1.868
10002SOL     OW30904   2.847   0.929   1.799
10002SOL    HW130905   2.935   0.966   1.769
10002SOL    HW230906   2.858   0.834   1.826
10003SOL     OW30907   1.366   0.769   3.969
10003SOL    HW130908   1.338   0.802   4.059
10003SOL    HW230909   1.329   0.829   3.899
10004SOL     OW30910   6.420   3.778   5.015
10004SOL    HW130911   6.324   3.779   4.987
10004SOL    HW230912   6.429   3.824   5.103
10005SOL     OW30913   1.952   5.481   3.347
10005SOL    HW130914   1.992   5.444   3.264
10005SOL    HW230915   1.935   5.579   3.335
10006SOL     OW30916   5.347   0.212   5.155
10006SOL    HW130917   5.251   0.241   5.158
10006SOL    HW230918   5.393   0.241   5.238
10007SOL     OW30919   1.710   5.026   4.412
10007SOL    HW130920   1.673   5.039   4.320
10007SOL    HW230921   1.743   4.932   4.422
10008SOL     OW30922   4.503   1.488   6.081
10008SOL    HW130923   4.538   1.531   6.165
10008SOL    HW230924   4.579   1.448   6.030
10009SOL     OW30925   1.154   3.223   1.841
10009SOL    HW130926   1.231   3.273   1.880
10009SOL    HW230927   1.139   3.253   1.746
10010SOL     OW30928   2.446   3.995   0.150
10010SOL    HW130929   2.429   3.947   0.064
10010SOL    HW230930   2.365   3.990   0.208
10011SOL     OW30931   1.041   3.616   0.395
10011SOL    HW130932   0.984   3.590   0.316
10011SOL    HW230933   1.003   3.576   0.478
10012SOL     OW30934   4.938   1.453   2.612
10012SOL    HW130935   5.006   1.510   2.565
10012SOL    HW230936   4.907   1.499   2.694
10013SOL     OW30937   0.480   6.206   4.662
10013SOL    HW130938   0.385   6.177   4.676
10013SOL    HW230939   0.502   6.282   4.722
10014SOL     OW30940   0.661   0.039   2.963
10014SOL    HW130941   0.682   6.976   3.006
10014SOL    HW230942   0.562   0.049   2.955
10015SOL     OW30943   4.183   4.528   5.795
10015SOL    HW130944   4.106   4.493   5.742
10015SOL    HW230945   4.238   4.452   5.830
10016SOL     OW30946   2.582   0.146   2.678
10016SOL    HW130947   2.631   0.062   2.701
10016SOL    HW230948   2.616   0.181   2.591
10017SOL     OW30949   2.879   1.710   2.836
10017SOL    HW130950   2.920   1.654   2.764
10017SOL    HW230951   2.817   1.653   2.890
10018SOL     OW30952   6.341   2.636   6.256
10018SOL    HW130953   6.340   2.588   6.344
10018SOL    HW230954   6.431   2.628   6.214
10019SOL     OW30955   0.382   1.763   2.758
10019SOL    HW130956   0.420   1.690   2.814
10019SOL    HW230957   0.336   1.830   2.816
10020SOL     OW30958   6.493   0.640   2.176
10020SOL    HW130959   6.438   0.566   2.214
10020SOL    HW230960   6.573   0.602   2.130
10021SOL     OW30961   1.030   4.043   2.161
10021SOL    HW130962   1.041   4.050   2.062
10021SOL    HW230963   0.934   4.060   2.185
10022SOL     OW30964   2.615   6.094   0.398
10022SOL    HW130965   2.646   6.185   0.369
10022SOL    HW230966   2.532   6.069   0.348
10023SOL     OW30967   1.675   6.686   5.606
10023SOL    HW130968   1.735   6.757   5.568
10023SOL    HW230969   1.599   6.729   5.655
10024SOL     OW30970   1.788   4.574   2.939
10024SOL    HW130971   1.712   4.617   2.989
10024SOL    HW230972   1.768   4.477   2.926
10025SOL     OW30973   1.066   4.477   1.818
10025SOL    HW130974   1.014   4.448   1.899
10025SOL    HW230975   1.145   4.416   1.806
10026SOL     OW30976   5.366   1.611   4.207
10026SOL    HW130977   5.385   1.685   4.271
10026SOL    HW230978   5.378   1.644   4.113
10027SOL     OW30979   1.815   1.761   5.909
10027SOL    HW130980   1.840   1.858   5.908
10027SOL    HW230981   1.849   1.717   5.825
10028SOL     OW30982   4.585   0.484   1.626
10028SOL    HW130983   4.564   0.507   1.721
10028SOL    HW230984   4.550   0.555   1.566
10029SOL     OW30985   6.963   3.320   4.797
10029SOL    HW130986   6.965   3.251   4.869
10029SOL    HW230987   0.024   3.316   4.745
10030SOL     OW30988   2.767   0.119   4.820
10030SOL    HW130989   2.687   0.117   4.760
10030SOL    HW230990   2.812   0.030   4.819
10031SOL     OW30991   3.047   4.956   4.293
10031SOL    HW130992   3.114   4.904   4.240
10031SOL    HW230993   3.084   4.975   4.384
10032SOL     OW30994   3.005   6.112   4.567
10032SOL    HW130995   3.024   6.076   4.476
10032SOL    HW230996   3.056   6.059   4.635
10033SOL     OW30997   3.923   1.563   2.647
10033SOL    HW130998   3.891   1.474   2.680
10033SOL    HW230999   3.869   1.635   2.690
10034SOL     OW31000   2.750   0.490   3.479
10034SOL    HW131001   2.743   0.558   3.552
10034SOL    HW231002   2.846   0.471   3.459
10035SOL     OW31003   5.960   3.128   1.795
10035SOL    HW131004   5.882   3.102   1.852
10035SOL    HW231005   6.031   3.169   1.852
10036SOL     OW31006   6.376   0.559   6.318
10036SOL    HW131007   6.279   0.534   6.321
10036SOL    HW231008   6.424   0.497   6.256
10037SOL     OW31009   6.375   6.943   6.796
10037SOL    HW131010   6.417   6.876   6.857
10037SOL    HW231011   6.316   7.004   6.849
10038SOL     OW31012   4.422   0.252   6.946
10038SOL    HW131013   4.354   0.182   6.970
10038SOL    HW231014   4.508   0.208   6.922
10039SOL     OW31015   6.080   5.355   3.614
10039SOL    HW131016   6.149   5.402   3.559
10039SOL    HW231017   5.991   5.397   3.600
10040SOL     OW31018   3.733   0.360   6.926
10040SOL    HW131019   3.830   0.376   6.943
10040SOL    HW231020   3.713   0.262   6.935
10041SOL     OW31021   6.854   4.709   4.881
10041SOL    HW131022   6.903   4.761   4.812
10041SOL    HW231023   6.793   4.643   4.836
10042SOL     OW31024   0.144   0.304   4.802
10042SOL    HW131025   0.229   0.345   4.836
10042SOL    HW231026   0.118   0.226   4.860
10043SOL     OW31027   1.082   1.106   3.132
10043SOL    HW131028   1.162   1.046   3.130
10043SOL    HW231029   1.089   1.173   3.058
10044SOL     OW31030   2.528   1.418   5.703
10044SOL    HW131031   2.440   1.451   5.737
10044SOL    HW231032   2.550   1.465   5.618
10045SOL     OW31033   4.059   6.464   4.749
10045SOL    HW131034   4.123   6.396   4.714
10045SOL    HW231035   4.104   6.521   4.818
10046SOL     OW31036   7.012   2.433   1.741
10046SOL    HW131037   6.973   2.396   1.825
10046SOL    HW231038   0.048   2.365   1.700
10047SOL     OW31039   6.713   1.710   5.165
10047SOL    HW131040   6.806   1.679   5.183
10047SOL    HW231041   6.667   1.643   5.107
10048SOL     OW31042   3.425   1.997   1.592
10048SOL    HW131043   3.381   1.950   1.515
10048SOL    HW231044   3.390   1.961   1.678
10049SOL     OW31045   2.046   0.541   6.382
10049SOL    HW131046   1.973   0.476   6.359
10049SOL    HW231047   2.035   0.624   6.327
10050SOL     OW31048   4.890   2.652   4.442
10050SOL    HW131049   4.971   2.706   4.420
10050SOL    HW231050   4.907   2.597   4.524
10051SOL     OW31051   6.095   2.528   4.712
10051SOL    HW131052   6.075   2.451   4.650
10051SOL    HW231053   6.034   2.604   4.690
10052SOL     OW31054   1.426   3.425   1.491
10052SOL    HW131055   1.471   3.463   1.571
10052SOL    HW231056   1.487   3.431   1.412
10053SOL     OW31057   3.399   4.913   3.784
10053SOL    HW131058   3.462   4.864   3.846
10053SOL    HW231059   3.440   4.918   3.693
10054SOL     OW31060   3.686   5.403   5.194
10054SOL    HW131061   3.734   5.491   5.195
10054SOL    HW231062   3.635   5.395   5.108
10055SOL     OW31063   6.586   1.945   4.993
10055SOL    HW131064   6.510   1.982   5.046
10055SOL    HW231065   6.670   1.949   5.047
10056SOL     OW31066   6.596   4.631   1.645
10056SOL    HW131067   6.640   4.678   1.569
10056SOL    HW231068   6.600   4.689   1.727
10057SOL     OW31069   4.053   1.900   4.159
10057SOL    HW131070   4.090   1.882   4.250
10057SOL    HW231071   3.996   1.823   4.129
10058SOL     OW31072   0.174   5.385   4.250
10058SOL    HW131073   0.103   5.422   4.190
10058SOL    HW231074   0.228   5.316   4.202
10059SOL     OW31075   5.208   0.814   0.857
10059SOL    HW131076   5.231   0.908   0.883
10059SOL    HW231077   5.243   0.751   0.926
10060SOL     OW31078   3.146   2.304   1.724
10060SOL    HW131079   3.100   2.359   1.794
10060SOL    HW231080   3.115   2.209   1.731
10061SOL     OW31081   6.237   1.310   4.388
10061SOL    HW131082   6.184   1.321   4.473
10061SOL    HW231083   6.179   1.332   4.310
10062SOL     OW31084   6.302   5.768   3.525
10062SOL    HW131085   6.292   5.698   3.596
10062SOL    HW231086   6.213   5.786   3.483
10063SOL     OW31087   1.115   3.615   3.530
10063SOL    HW131088   1.111   3.712   3.507
10063SOL    HW231089   1.033   3.569   3.495
10064SOL     OW31090   5.014   5.608   4.441
10064SOL    HW131091   5.039   5.547   4.366
10064SOL    HW231092   4.952   5.679   4.406
10065SOL     OW31093   0.808   6.607   2.760
10065SOL    HW131094   0.872   6.546   2.713
10065SOL    HW231095   0.820   6.597   2.859
10066SOL     OW31096   0.827   6.848   4.334
10066SOL    HW131097   0.776   6.857   4.248
10066SOL    HW231098   0.790   6.771   4.386
10067SOL     OW31099   4.782   4.351   3.871
10067SOL    HW131100   4.872   4.332   3.910
10067SOL    HW231101   4.789   4.428   3.808
10068SOL     OW31102   5.274   2.970   4.496
10068SOL    HW131103   5.323   2.950   4.580
10068SOL    HW231104   5.205   3.041   4.513
10069SOL     OW31105   3.081   1.166   3.597
10069SOL    HW131106   3.072   1.193   3.501
10069SOL    HW231107   3.005   1.204   3.649
10070SOL     OW31108   0.906   6.282   4.906
10070SOL    HW131109   0.977   6.316   4.968
10070SOL    HW231110   0.881   6.355   4.843
10071SOL     OW31111   5.039   5.437   4.233
10071SOL    HW131112   5.084   5.442   4.144
10071SOL    HW231113   5.002   5.345   4.246
10072SOL     OW31114   0.224   6.502   3.418
10072SOL    HW131115   0.225   6.483   3.320
10072SOL    HW231116   0.292   6.444   3.464
10073SOL     OW31117   6.503   4.735   5.427
10073SOL    HW131118   6.416   4.707   5.387
10073SOL    HW231119   6.575   4.731   5.357
10074SOL     OW31120   1.349   0.282   6.368
10074SOL    HW131121   1.353   0.217   6.293
10074SOL    HW231122   1.384   0.371   6.337
10075SOL     OW31123   1.499   2.423   3.578
10075SOL    HW131124   1.419   2.481   3.559
10075SOL    HW231125   1.579   2.481   3.594
10076SOL     OW31126   4.794   0.003   4.525
10076SOL    HW131127   4.775   6.930   4.513
10076SOL    HW231128   4.762   0.032   4.615
10077SOL     OW31129   3.836   2.529   6.184
10077SOL    HW131130   3.923   2.479   6.181
10077SOL    HW231131   3.780   2.505   6.105
10078SOL     OW31132   5.829   6.873   5.288
10078SOL    HW131133   5.734   6.906   5.295
10078SOL    HW231134   5.881   6.904   5.368
10079SOL     OW31135   1.215   3.043   1.244
10079SOL    HW131136   1.115   3.049   1.250
10079SOL    HW231137   1.255   3.081   1.327
10080SOL     OW31138   2.114   2.930   0.241
10080SOL    HW131139   2.206   2.893   0.260
10080SOL    HW231140   2.117   3.029   0.244
10081SOL     OW31141   0.432   0.130   6.779
10081SOL    HW131142   0.408   0.183   6.861
10081SOL    HW231143   0.469   0.192   6.710
10082SOL     OW31144   6.063   2.097   1.602
10082SOL    HW131145   6.076   2.089   1.701
10082SOL    HW231146   6.144   2.136   1.560
10083SOL     OW31147   3.973   0.217   3.868
10083SOL    HW131148   3.991   0.193   3.963
10083SOL    HW231149   3.898   0.283   3.863
10084SOL     OW31150   2.395   1.166   5.733
10084SOL    HW131151   2.390   1.110   5.650
10084SOL    HW231152   2.444   1.251   5.712
10085SOL     OW31153   0.564   5.436   3.287
10085SOL    HW131154   0.530   5.392   3.204
10085SOL    HW231155   0.648   5.392   3.317
10086SOL     OW31156   6.334   4.774   1.998
10086SOL    HW131157   6.245   4.810   2.026
10086SOL    HW231158   6.324   4.680   1.967
10087SOL     OW31159   1.005   0.626   4.413
10087SOL    HW131160   0.921   0.680   4.417
10087SOL    HW231161   1.017   0.590   4.320
10088SOL     OW31162   0.998   6.350   4.633
10088SOL    HW131163   0.912   6.340   4.585
10088SOL    HW231164   1.034   6.260   4.657
10089SOL     OW31165   2.668   1.749   2.624
10089SOL    HW131166   2.718   1.710   2.701
10089SOL    HW231167   2.704   1.840   2.604
10090SOL     OW31168   0.991   4.351   0.613
10090SOL    HW131169   0.954   4.437   0.649
10090SOL    HW231170   0.933   4.318   0.539
10091SOL     OW31171   1.096   3.762   4.322
10091SOL    HW131172   1.111   3.665   4.340
10091SOL    HW231173   1.183   3.810   4.321
10092SOL     OW31174   1.680   3.042   4.991
10092SOL    HW131175   1.658   3.101   4.913
10092SOL    HW231176   1.778   3.025   4.993
10093SOL     OW31177   0.091   5.483   5.286
10093SOL    HW131178   0.117   5.561   5.344
10093SOL    HW231179   0.155   5.408   5.301
10094SOL     OW31180   2.748   0.909   2.402
10094SOL    HW131181   2.755   1.002   2.366
10094SOL    HW231182   2.682   0.906   2.477
10095SOL     OW31183   0.074   1.364   5.976
10095SOL    HW131184   0.019   1.319   6.046
10095SOL    HW231185   0.036   1.343   5.885
10096SOL     OW31186   0.193   5.184   2.710
10096SOL    HW131187   0.247   5.268   2.718
10096SOL    HW231188   0.222   5.133   2.630
10097SOL     OW31189   0.939   1.331   0.946
10097SOL    HW131190   0.889   1.271   1.008
10097SOL    HW231191   1.031   1.295   0.931
10098SOL     OW31192   1.931   6.168   5.932
10098SOL    HW131193   1.897   6.255   5.968
10098SOL    HW231194   2.028   6.158   5.955
10099SOL     OW31195   6.884   3.742   5.319
10099SOL    HW131196   6.869   3.650   5.285
10099SOL    HW231197   6.957   3.787   5.267
10100SOL     OW31198   4.732   1.066   4.896
10100SOL    HW131199   4.654   1.119   4.864
10100SOL    HW231200   4.812   1.125   4.905
10101SOL     OW31201   7.018   4.692   2.409
10101SOL    HW131202   0.007   4.710   2.312
10101SOL    HW231203   6.920   4.694   2.429
10102SOL     OW31204   3.429   1.445   2.217
10102SOL    HW131205   3.494   1.477   2.286
10102SOL    HW231206   3.448   1.488   2.129
10103SOL     OW31207   2.839   1.295   5.336
10103SOL    HW131208   2.839   1.353   5.417
10103SOL    HW231209   2.833   1.352   5.254
10104SOL     OW31210   1.195   4.800   5.460
10104SOL    HW131211   1.095   4.792   5.464
10104SOL    HW231212   1.221   4.896   5.451
10105SOL     OW31213   1.797   0.988   6.285
10105SOL    HW131214   1.816   1.075   6.330
10105SOL    HW231215   1.706   0.992   6.243
10106SOL     OW31216   5.096   5.298   0.810
10106SOL    HW131217   5.151   5.336   0.736
10106SOL    HW231218   5.066   5.206   0.786
10107SOL     OW31219   6.141   1.381   6.147
10107SOL    HW131220   6.068   1.353   6.210
10107SOL    HW231221   6.118   1.350   6.055
10108SOL     OW31222   6.164   6.534   0.496
10108SOL    HW131223   6.167   6.606   0.565
10108SOL    HW231224   6.247   6.479   0.501
10109SOL     OW31225   4.995   5.851   3.515
10109SOL    HW131226   4.931   5.860   3.438
10109SOL    HW231227   5.089   5.860   3.482
10110SOL     OW31228   3.500   6.833   6.018
10110SOL    HW131229   3.597   6.854   6.005
10110SOL    HW231230   3.472   6.761   5.954
10111SOL     OW31231   6.477   3.197   3.508
10111SOL    HW131232   6.545   3.145   3.561
10111SOL    HW231233   6.397   3.139   3.491
10112SOL     OW31234   5.062   4.054   5.259
10112SOL    HW131235   5.133   4.000   5.304
10112SOL    HW231236   5.065   4.038   5.160
10113SOL     OW31237   4.035   0.727   7.011
10113SOL    HW131238   4.077   0.810   0.023
10113SOL    HW231239   3.985   0.679   0.058
10114SOL     OW31240   5.167   1.552   6.906
10114SOL    HW131241   5.166   1.454   6.925
10114SOL    HW231242   5.257   1.579   6.871
10115SOL     OW31243   2.128   2.522   3.972
10115SOL    HW131244   2.115   2.457   3.897
10115SOL    HW231245   2.072   2.603   3.956
10116SOL     OW31246   0.642   0.029   1.039
10116SOL    HW131247   0.623   0.125   1.059
10116SOL    HW231248   0.557   7.001   1.043
10117SOL     OW31249   6.232   0.513   5.150
10117SOL    HW131250   6.193   0.470   5.068
10117SOL    HW231251   6.163   0.572   5.192
10118SOL     OW31252   6.880   5.392   2.788
10118SOL    HW131253   6.963   5.448   2.785
10118SOL    HW231254   6.816   5.430   2.856
10119SOL     OW31255   2.394   0.476   5.085
10119SOL    HW131256   2.493   0.487   5.076
10119SOL    HW231257   2.348   0.544   5.027
10120SOL     OW31258   0.655   3.182   4.056
10120SOL    HW131259   0.620   3.127   3.980
10120SOL    HW231260   0.690   3.270   4.020
10121SOL     OW31261   6.223   4.828   5.000
10121SOL    HW131262   6.224   4.925   4.973
10121SOL    HW231263   6.186   4.820   5.093
10122SOL     OW31264   4.827   2.754   0.230
10122SOL    HW131265   4.780   2.803   0.157
10122SOL    HW231266   4.923   2.782   0.232
10123SOL     OW31267   0.548   6.064   0.702
10123SOL    HW131268   0.609   6.101   0.772
10123SOL    HW231269   0.455   6.059   0.739
10124SOL     OW31270   3.314   4.265   0.155
10124SOL    HW131271   3.377   4.328   0.200
10124SOL    HW231272   3.220   4.292   0.173
10125SOL     OW31273   1.980   1.059   3.029
10125SOL    HW131274   2.062   1.073   2.974
10125SOL    HW231275   1.970   0.963   3.052
10126SOL     OW31276   6.472   5.504   6.996
10126SOL    HW131277   6.524   5.462   0.046
10126SOL    HW231278   6.422   5.433   6.947
10127SOL     OW31279   3.250   5.442   5.557
10127SOL    HW131280   3.259   5.518   5.492
10127SOL    HW231281   3.260   5.355   5.508
10128SOL     OW31282   6.874   1.512   0.845
10128SOL    HW131283   6.946   1.468   0.899
10128SOL    HW231284   6.791   1.456   0.850
10129SOL     OW31285   5.162   2.693   3.824
10129SOL    HW131286   5.139   2.634   3.747
10129SOL    HW231287   5.131   2.786   3.806
10130SOL     OW31288   1.021   5.666   2.576
10130SOL    HW131289   0.999   5.760   2.549
10130SOL    HW231290   1.115   5.645   2.550
10131SOL     OW31291   0.931   1.720   2.200
10131SOL    HW131292   0.855   1.731   2.136
10131SOL    HW231293   0.941   1.623   2.225
10132SOL     OW31294   3.460   6.371   2.944
10132SOL    HW131295   3.451   6.335   3.037
10132SOL    HW231296   3.374   6.412   2.915
10133SOL     OW31297   4.242   6.349   3.790
10133SOL    HW131298   4.287   6.291   3.723
10133SOL    HW231299   4.302   6.425   3.815
10134SOL     OW31300   6.025   1.212   3.541
10134SOL    HW131301   6.000   1.235   3.447
10134SOL    HW231302   6.123   1.227   3.555
10135SOL     OW31303   4.660   4.236   2.709
10135SOL    HW131304   4.599   4.303   2.750
10135SOL    HW231305   4.712   4.280   2.635
10136SOL     OW31306   5.992   7.001   3.535
10136SOL    HW131307   6.079   0.012   3.568
10136SOL    HW231308   5.996   6.901   3.534
10137SOL     OW31309   6.448   5.645   4.677
10137SOL    HW131310   6.483   5.558   4.644
10137SOL    HW231311   6.442   5.642   4.777
10138SOL     OW31312   5.660   2.140   0.709
10138SOL    HW131313   5.599   2.068   0.676
10138SOL    HW231314   5.618   2.186   0.787
10139SOL     OW31315   3.682   2.973   3.061
10139SOL    HW131316   3.641   2.921   2.986
10139SOL    HW231317   3.613   2.988   3.133
10140SOL     OW31318   6.226   5.739   6.850
10140SOL    HW131319   6.229   5.734   6.949
10140SOL    HW231320   6.228   5.647   6.811
10141SOL     OW31321   2.558   1.870   4.772
10141SOL    HW131322   2.634   1.919   4.729
10141SOL    HW231323   2.475   1.924   4.762
10142SOL     OW31324   4.494   6.477   5.057
10142SOL    HW131325   4.459   6.562   5.017
10142SOL    HW231326   4.574   6.497   5.113
10143SOL     OW31327   4.636   0.150   1.469
10143SOL    HW131328   4.614   0.198   1.554
10143SOL    HW231329   4.557   0.155   1.407
10144SOL     OW31330   3.568   5.774   5.730
10144SOL    HW131331   3.526   5.765   5.640
10144SOL    HW231332   3.501   5.808   5.796
10145SOL     OW31333   2.835   6.031   6.059
10145SOL    HW131334   2.918   6.084   6.043
10145SOL    HW231335   2.755   6.084   6.030
10146SOL     OW31336   3.413   5.262   4.685
10146SOL    HW131337   3.416   5.207   4.602
10146SOL    HW231338   3.412   5.202   4.765
10147SOL     OW31339   4.650   4.271   4.092
10147SOL    HW131340   4.687   4.318   4.012
10147SOL    HW231341   4.551   4.282   4.094
10148SOL     OW31342   6.062   5.757   0.418
10148SOL    HW131343   6.059   5.843   0.367
10148SOL    HW231344   6.122   5.692   0.370
10149SOL     OW31345   4.592   1.491   0.509
10149SOL    HW131346   4.512   1.436   0.485
10149SOL    HW231347   4.659   1.433   0.555
10150SOL     OW31348   4.937   4.277   0.736
10150SOL    HW131349   4.999   4.247   0.808
10150SOL    HW231350   4.937   4.210   0.661
10151SOL     OW31351   1.141   6.946   6.531
10151SOL    HW131352   1.170   6.942   6.436
10151SOL    HW231353   1.044   6.971   6.535
10152SOL     OW31354   1.593   5.058   4.122
10152SOL    HW131355   1.685   5.069   4.083
10152SOL    HW231356   1.527   5.106   4.065
10153SOL     OW31357   4.485   5.879   3.669
10153SOL    HW131358   4.475   5.842   3.762
10153SOL    HW231359   4.557   5.948   3.668
10154SOL     OW31360   6.461   6.289   6.003
10154SOL    HW131361   6.506   6.258   6.087
10154SOL    HW231362   6.519   6.269   5.924
10155SOL     OW31363   3.810   0.636   6.066
10155SOL    HW131364   3.863   0.655   5.984
10155SOL    HW231365   3.714   0.622   6.040
10156SOL     OW31366   5.675   6.942   2.790
10156SOL    HW131367   5.705   6.994   2.710
10156SOL    HW231368   5.596   6.886   2.766
10157SOL     OW31369   5.842   1.704   5.807
10157SOL    HW131370   5.871   1.796   5.780
10157SOL    HW231371   5.747   1.691   5.782
10158SOL     OW31372   4.919   3.988   0.014
10158SOL    HW131373   4.933   4.078   0.055
10158SOL    HW231374   5.002   3.933   0.027
10159SOL     OW31375   2.768   3.052   6.039
10159SOL    HW131376   2.786   3.140   6.083
10159SOL    HW231377   2.832   2.983   6.073
10160SOL     OW31378   0.872   4.623   2.965
10160SOL    HW131379   0.826   4.544   2.923
10160SOL    HW231380   0.809   4.701   2.967
10161SOL     OW31381   3.385   4.850   0.384
10161SOL    HW131382   3.364   4.867   0.481
10161SOL    HW231383   3.395   4.937   0.337
10162SOL     OW31384   2.597   3.698   7.008
10162SOL    HW131385   2.548   3.611   7.003
10162SOL    HW231386   2.695   3.682   7.006
10163SOL     OW31387   5.900   4.105   6.293
10163SOL    HW131388   5.981   4.156   6.321
10163SOL    HW231389   5.861   4.059   6.373
10164SOL     OW31390   6.611   3.186   4.709
10164SOL    HW131391   6.628   3.244   4.789
10164SOL    HW231392   6.666   3.219   4.633
10165SOL     OW31393   0.863   2.272   4.575
10165SOL    HW131394   0.872   2.355   4.630
10165SOL    HW231395   0.933   2.207   4.602
10166SOL     OW31396   3.513   0.991   2.037
10166SOL    HW131397   3.474   1.075   1.999
10166SOL    HW231398   3.466   0.912   1.998
10167SOL     OW31399   5.695   0.946   6.709
10167SOL    HW131400   5.680   0.889   6.789
10167SOL    HW231401   5.751   0.896   6.642
10168SOL     OW31402   6.694   3.923   5.428
10168SOL    HW131403   6.741   3.991   5.485
10168SOL    HW231404   6.757   3.848   5.407
10169SOL     OW31405   6.701   4.504   3.307
10169SOL    HW131406   6.721   4.559   3.387
10169SOL    HW231407   6.627   4.546   3.255
10170SOL     OW31408   0.766   4.314   5.725
10170SOL    HW131409   0.760   4.331   5.823
10170SOL    HW231410   0.860   4.327   5.694
10171SOL     OW31411   6.619   3.507   5.986
10171SOL    HW131412   6.718   3.504   5.970
10171SOL    HW231413   6.598   3.582   6.049
10172SOL     OW31414   5.874   0.380   2.901
10172SOL    HW131415   5.883   0.299   2.958
10172SOL    HW231416   5.951   0.442   2.917
10173SOL     OW31417   1.653   2.626   1.142
10173SOL    HW131418   1.744   2.614   1.183
10173SOL    HW231419   1.605   2.700   1.189
10174SOL     OW31420   5.601   4.607   2.993
10174SOL    HW131421   5.537   4.592   2.918
10174SOL    HW231422   5.669   4.676   2.965
10175SOL     OW31423   6.567   2.698   4.064
10175SOL    HW131424   6.510   2.759   4.120
10175SOL    HW231425   6.573   2.734   3.971
10176SOL     OW31426   1.264   3.092   5.839
10176SOL    HW131427   1.246   3.180   5.883
10176SOL    HW231428   1.188   3.029   5.858
10177SOL     OW31429   2.982   0.363   0.538
10177SOL    HW131430   2.916   0.401   0.603
10177SOL    HW231431   3.007   0.270   0.567
10178SOL     OW31432   6.020   2.924   4.488
10178SOL    HW131433   5.927   2.887   4.481
10178SOL    HW231434   6.015   3.022   4.506
10179SOL     OW31435   0.782   2.127   6.201
10179SOL    HW131436   0.708   2.193   6.210
10179SOL    HW231437   0.767   2.051   6.265
10180SOL     OW31438   2.846   5.416   6.182
10180SOL    HW131439   2.836   5.426   6.281
10180SOL    HW231440   2.755   5.411   6.140
10181SOL     OW31441   5.369   3.484   2.142
10181SOL    HW131442   5.442   3.550   2.125
10181SOL    HW231443   5.367   3.417   2.067
10182SOL     OW31444   5.780   1.328   1.555
10182SOL    HW131445   5.851   1.352   1.621
10182SOL    HW231446   5.765   1.403   1.492
10183SOL     OW31447   1.363   2.384   6.759
10183SOL    HW131448   1.384   2.301   6.707
10183SOL    HW231449   1.265   2.403   6.752
10184SOL     OW31450   4.725   1.942   5.976
10184SOL    HW131451   4.747   1.845   5.983
10184SOL    HW231452   4.727   1.983   6.067
10185SOL     OW31453   4.934   6.620   1.028
10185SOL    HW131454   5.009   6.566   0.990
10185SOL    HW231455   4.917   6.700   0.970
10186SOL     OW31456   5.987   3.242   3.295
10186SOL    HW131457   5.957   3.331   3.261
10186SOL    HW231458   6.038   3.195   3.223
10187SOL     OW31459   0.730   1.760   2.032
10187SOL    HW131460   0.663   1.692   2.061
10187SOL    HW231461   0.686   1.827   1.973
10188SOL     OW31462   3.904   6.232   0.115
10188SOL    HW131463   3.834   6.301   0.094
10188SOL    HW231464   3.932   6.186   0.031
10189SOL     OW31465   2.440   0.187   5.661
10189SOL    HW131466   2.524   0.133   5.656
10189SOL    HW231467   2.460   0.282   5.635
10190SOL     OW31468   4.933   2.172   1.149
10190SOL    HW131469   4.868   2.172   1.225
10190SOL    HW231470   4.885   2.195   1.064
10191SOL     OW31471   5.070   4.556   6.781
10191SOL    HW131472   4.994   4.599   6.829
10191SOL    HW231473   5.079   4.598   6.690
10192SOL     OW31474   4.238   0.655   4.701
10192SOL    HW131475   4.257   0.700   4.788
10192SOL    HW231476   4.302   0.688   4.631
10193SOL     OW31477   4.234   4.106   1.489
10193SOL    HW131478   4.274   4.080   1.577
10193SOL    HW231479   4.275   4.051   1.416
10194SOL     OW31480   6.046   4.093   4.915
10194SOL    HW131481   5.962   4.137   4.884
10194SOL    HW231482   6.064   4.118   5.010
10195SOL     OW31483   5.855   4.475   1.423
10195SOL    HW131484   5.794   4.519   1.489
10195SOL    HW231485   5.806   4.461   1.337
10196SOL     OW31486   6.100   1.580   4.765
10196SOL    HW131487   6.104   1.636   4.683
10196SOL    HW231488   6.125   1.635   4.845
10197SOL     OW31489   6.835   1.528   4.857
10197SOL    HW131490   6.747   1.508   4.813
10197SOL    HW231491   6.907   1.531   4.788
10198SOL     OW31492   3.968   0.736   2.389
10198SOL    HW131493   3.928   0.697   2.306
10198SOL    HW231494   4.066   0.746   2.377
10199SOL     OW31495   1.231   2.226   5.949
10199SOL    HW131496   1.260   2.131   5.959
10199SOL    HW231497   1.183   2.254   6.032
10200SOL     OW31498   4.868   2.519   0.992
10200SOL    HW131499   4.933   2.579   0.946
10200SOL    HW231500   4.902   2.497   1.084
10201SOL     OW31501   1.282   4.289   0.643
10201SOL    HW131502   1.331   4.363   0.689
10201SOL    HW231503   1.183   4.303   0.651
10202SOL     OW31504   4.067   1.832   5.691
10202SOL    HW131505   4.015   1.841   5.776
10202SOL    HW231506   4.165   1.842   5.711
10203SOL     OW31507   5.327   2.609   4.720
10203SOL    HW131508   5.385   2.622   4.801
10203SOL    HW231509   5.295   2.514   4.717
10204SOL     OW31510   5.237   6.571   6.754
10204SOL    HW131511   5.270   6.656   6.713
10204SOL    HW231512   5.309   6.502   6.750
10205SOL     OW31513   0.386   1.680   0.153
10205SOL    HW131514   0.375   1.779   0.146
10205SOL    HW231515   0.363   1.650   0.245
10206SOL     OW31516   0.864   1.015   6.006
10206SOL    HW131517   0.803   1.093   5.997
10206SOL    HW231518   0.938   1.023   5.939
10207SOL     OW31519   1.204   1.950   6.316
10207SOL    HW131520   1.133   1.912   6.376
10207SOL    HW231521   1.245   1.877   6.262
10208SOL     OW31522   5.342   5.438   4.680
10208SOL    HW131523   5.264   5.387   4.642
10208SOL    HW231524   5.379   5.389   4.758
10209SOL     OW31525   6.936   0.411   6.152
10209SOL    HW131526   6.982   0.491   6.114
10209SOL    HW231527   6.895   0.434   6.241
10210SOL     OW31528   4.691   6.401   1.482
10210SOL    HW131529   4.619   6.470   1.493
10210SOL    HW231530   4.656   6.327   1.424
10211SOL     OW31531   3.874   6.427   5.308
10211SOL    HW131532   3.958   6.471   5.340
10211SOL    HW231533   3.837   6.477   5.230
10212SOL     OW31534   0.614   0.229   5.555
10212SOL    HW131535   0.702   0.276   5.545
10212SOL    HW231536   0.599   0.206   5.651
10213SOL     OW31537   5.226   2.393   0.484
10213SOL    HW131538   5.280   2.330   0.429
10213SOL    HW231539   5.130   2.387   0.457
10214SOL     OW31540   1.352   2.459   1.469
10214SOL    HW131541   1.420   2.449   1.396
10214SOL    HW231542   1.264   2.485   1.429
10215SOL     OW31543   4.067   3.772   2.498
10215SOL    HW131544   3.997   3.842   2.486
10215SOL    HW231545   4.142   3.809   2.553
10216SOL     OW31546   6.236   0.456   2.013
10216SOL    HW131547   6.241   0.534   2.076
10216SOL    HW231548   6.150   0.406   2.029
10217SOL     OW31549   3.040   0.905   3.673
10217SOL    HW131550   2.973   0.914   3.747
10217SOL    HW231551   3.077   0.995   3.650
10218SOL     OW31552   1.394   2.704   2.450
10218SOL    HW131553   1.441   2.709   2.362
10218SOL    HW231554   1.329   2.628   2.449
10219SOL     OW31555   0.728   1.118   2.232
10219SOL    HW131556   0.668   1.056   2.285
10219SOL    HW231557   0.673   1.192   2.193
10220SOL     OW31558   3.652   2.839   1.292
10220SOL    HW131559   3.667   2.813   1.196
10220SOL    HW231560   3.692   2.769   1.352
10221SOL     OW31561   0.811   6.300   2.854
10221SOL    HW131562   0.894   6.351   2.835
10221SOL    HW231563   0.731   6.353   2.825
10222SOL     OW31564   2.910   3.671   4.602
10222SOL    HW131565   2.844   3.727   4.652
10222SOL    HW231566   2.992   3.658   4.657
10223SOL     OW31567   0.737   5.729   0.896
10223SOL    HW131568   0.667   5.660   0.917
10223SOL    HW231569   0.828   5.689   0.908
10224SOL     OW31570   6.209   4.011   3.253
10224SOL    HW131571   6.267   4.063   3.190
10224SOL    HW231572   6.199   4.062   3.339
10225SOL     OW31573   1.400   3.655   5.759
10225SOL    HW131574   1.465   3.625   5.689
10225SOL    HW231575   1.339   3.581   5.783
10226SOL     OW31576   3.784   2.417   6.996
10226SOL    HW131577   3.765   2.492   6.933
10226SOL    HW231578   3.759   2.330   6.954
10227SOL     OW31579   5.363   4.080   0.764
10227SOL    HW131580   5.330   4.174   0.756
10227SOL    HW231581   5.340   4.029   0.681
10228SOL     OW31582   5.385   1.185   0.545
10228SOL    HW131583   5.429   1.114   0.600
10228SOL    HW231584   5.318   1.234   0.601
10229SOL     OW31585   0.614   3.259   4.924
10229SOL    HW131586   0.519   3.281   4.946
10229SOL    HW231587   0.649   3.193   4.991
10230SOL     OW31588   6.570   5.532   2.354
10230SOL    HW131589   6.627   5.578   2.422
10230SOL    HW231590   6.476   5.526   2.388
10231SOL     OW31591   1.834   6.767   3.304
10231SOL    HW131592   1.751   6.804   3.345
10231SOL    HW231593   1.836   6.668   3.315
10232SOL     OW31594   4.197   6.848   2.702
10232SOL    HW131595   4.241   6.826   2.789
10232SOL    HW231596   4.181   6.763   2.650
10233SOL     OW31597   3.938   4.198   6.189
10233SOL    HW131598   3.875   4.164   6.259
10233SOL    HW231599   3.923   4.148   6.103
10234SOL     OW31600   6.878   0.517   1.700
10234SOL    HW131601   6.974   0.491   1.691
10234SOL    HW231602   6.826   0.483   1.622
10235SOL     OW31603   0.916   1.028   3.330
10235SOL    HW131604   0.960   1.070   3.251
10235SOL    HW231605   0.986   0.998   3.395
10236SOL     OW31606   2.193   0.177   0.713
10236SOL    HW131607   2.262   0.181   0.785
10236SOL    HW231608   2.145   0.090   0.718
10237SOL     OW31609   0.386   3.739   6.914
10237SOL    HW131610   0.298   3.750   6.868
10237SOL    HW231611   0.414   3.643   6.910
10238SOL     OW31612   3.997   5.311   0.690
10238SOL    HW131613   3.899   5.310   0.670
10238SOL    HW231614   4.033   5.404   0.679
10239SOL     OW31615   1.501   2.907   4.728
10239SOL    HW131616   1.541   2.864   4.809
10239SOL    HW231617   1.407   2.936   4.748
10240SOL     OW31618   2.332   0.495   1.208
10240SOL    HW131619   2.285   0.549   1.278
10240SOL    HW231620   2.344   0.401   1.240
10241SOL     OW31621   4.464   2.274   1.572
10241SOL    HW131622   4.563   2.259   1.577
10241SOL    HW231623   4.441   2.360   1.617
10242SOL     OW31624   7.000   2.313   0.741
10242SOL    HW131625   0.039   2.291   0.667
10242SOL    HW231626   6.998   2.237   0.806
10243SOL     OW31627   2.665   4.814   0.579
10243SOL    HW131628   2.757   4.793   0.612
10243SOL    HW231629   2.641   4.750   0.506
10244SOL     OW31630   2.213   4.301   1.813
10244SOL    HW131631   2.168   4.225   1.861
10244SOL    HW231632   2.200   4.291   1.715
10245SOL     OW31633   3.719   4.110   0.505
10245SOL    HW131634   3.705   4.078   0.599
10245SOL    HW231635   3.685   4.204   0.497
10246SOL     OW31636   3.408   2.908   4.249
10246SOL    HW131637   3.421   2.976   4.320
10246SOL    HW231638   3.424   2.816   4.286
10247SOL     OW31639   1.157   3.675   4.674
10247SOL    HW131640   1.136   3.646   4.580
10247SOL    HW231641   1.184   3.771   4.674
10248SOL     OW31642   1.521   0.444   3.380
10248SOL    HW131643   1.559   0.380   3.313
10248SOL    HW231644   1.490   0.394   3.461
10249SOL     OW31645   2.240   4.613   6.687
10249SOL    HW131646   2.191   4.678   6.628
10249SOL    HW231647   2.180   4.536   6.707
10250SOL     OW31648   5.139   2.631   6.735
10250SOL    HW131649   5.202   2.685   6.792
10250SOL    HW231650   5.164   2.534   6.739
10251SOL     OW31651   1.610   0.461   4.300
10251SOL    HW131652   1.664   0.422   4.225
10251SOL    HW231653   1.564   0.387   4.349
10252SOL     OW31654   4.797   4.182   5.842
10252SOL    HW131655   4.873   4.190   5.777
10252SOL    HW231656   4.832   4.184   5.935
10253SOL     OW31657   4.068   6.688   6.943
10253SOL    HW131658   4.109   6.741   6.869
10253SOL    HW231659   4.125   6.609   6.963
10254SOL     OW31660   5.657   1.561   4.793
10254SOL    HW131661   5.714   1.530   4.717
10254SOL    HW231662   5.704   1.633   4.843
10255SOL     OW31663   3.456   5.628   1.579
10255SOL    HW131664   3.464   5.532   1.554
10255SOL    HW231665   3.386   5.638   1.651
10256SOL     OW31666   5.005   1.091   2.383
10256SOL    HW131667   5.001   1.191   2.372
10256SOL    HW231668   5.099   1.065   2.405
10257SOL     OW31669   2.645   4.901   2.558
10257SOL    HW131670   2.716   4.952   2.605
10257SOL    HW231671   2.648   4.805   2.586
10258SOL     OW31672   2.516   2.057   2.416
10258SOL    HW131673   2.498   2.081   2.320
10258SOL    HW231674   2.464   2.117   2.476
10259SOL     OW31675   0.615   4.384   4.126
10259SOL    HW131676   0.682   4.451   4.093
10259SOL    HW231677   0.647   4.292   4.105
10260SOL     OW31678   1.207   1.212   3.592
10260SOL    HW131679   1.180   1.258   3.676
10260SOL    HW231680   1.211   1.278   3.517
10261SOL     OW31681   6.654   3.951   0.632
10261SOL    HW131682   6.567   3.952   0.583
10261SOL    HW231683   6.639   3.926   0.728
10262SOL     OW31684   3.704   1.105   6.794
10262SOL    HW131685   3.781   1.054   6.831
10262SOL    HW231686   3.638   1.124   6.867
10263SOL     OW31687   6.116   0.948   1.615
10263SOL    HW131688   6.147   0.901   1.532
10263SOL    HW231689   6.101   1.045   1.595
10264SOL     OW31690   5.982   5.278   6.713
10264SOL    HW131691   5.945   5.187   6.693
10264SOL    HW231692   5.907   5.343   6.725
10265SOL     OW31693   2.243   2.295   0.176
10265SOL    HW131694   2.277   2.386   0.203
10265SOL    HW231695   2.315   2.245   0.129
10266SOL     OW31696   2.967   3.248   2.803
10266SOL    HW131697   2.982   3.346   2.794
10266SOL    HW231698   2.982   3.220   2.897
10267SOL     OW31699   5.501   0.973   0.665
10267SOL    HW131700   5.562   0.933   0.734
10267SOL    HW231701   5.418   0.918   0.657
10268SOL     OW31702   5.104   6.783   1.177
10268SOL    HW131703   5.025   6.731   1.146
10268SOL    HW231704   5.168   6.794   1.101
10269SOL     OW31705   1.841   2.182   6.351
10269SOL    HW131706   1.910   2.247   6.383
10269SOL    HW231707   1.750   2.215   6.376
10270SOL     OW31708   3.394   6.015   2.039
10270SOL    HW131709   3.468   5.948   2.040
10270SOL    HW231710   3.390   6.063   2.127
10271SOL     OW31711   2.297   2.056   0.708
10271SOL    HW131712   2.292   2.019   0.615
10271SOL    HW231713   2.312   1.981   0.773
10272SOL     OW31714   6.641   0.804   4.535
10272SOL    HW131715   6.602   0.778   4.623
10272SOL    HW231716   6.612   0.897   4.512
10273SOL     OW31717   2.806   5.148   3.994
10273SOL    HW131718   2.854   5.174   4.077
10273SOL    HW231719   2.804   5.048   3.986
10274SOL     OW31720   0.211   5.032   5.446
10274SOL    HW131721   0.160   4.946   5.438
10274SOL    HW231722   0.261   5.032   5.532
10275SOL     OW31723   0.318   0.654   3.017
10275SOL    HW131724   0.335   0.640   3.114
10275SOL    HW231725   0.391   0.611   2.964
10276SOL     OW31726   4.660   5.915   5.502
10276SOL    HW131727   4.645   5.984   5.432
10276SOL    HW231728   4.594   5.927   5.576
10277SOL     OW31729   1.396   6.489   3.940
10277SOL    HW131730   1.376   6.545   3.860
10277SOL    HW231731   1.473   6.429   3.920
10278SOL     OW31732   0.433   0.582   5.323
10278SOL    HW131733   0.445   0.484   5.307
10278SOL    HW231734   0.514   0.619   5.368
10279SOL     OW31735   2.328   5.085   4.041
10279SOL    HW131736   2.394   5.154   4.070
10279SOL    HW231737   2.351   4.997   4.083
10280SOL     OW31738   5.282   3.695   0.717
10280SOL    HW131739   5.239   3.723   0.632
10280SOL    HW231740   5.230   3.620   0.758
10281SOL     OW31741   6.047   2.118   3.241
10281SOL    HW131742   6.010   2.185   3.177
10281SOL    HW231743   6.023   2.026   3.210
10282SOL     OW31744   4.909   3.386   2.776
10282SOL    HW131745   4.962   3.342   2.848
10282SOL    HW231746   4.871   3.316   2.715
10283SOL     OW31747   0.410   4.291   1.199
10283SOL    HW131748   0.437   4.378   1.157
10283SOL    HW231749   0.477   4.220   1.175
10284SOL     OW31750   7.005   2.502   3.742
10284SOL    HW131751   6.949   2.435   3.694
10284SOL    HW231752   6.946   2.576   3.775
10285SOL     OW31753   4.651   6.109   3.697
10285SOL    HW131754   4.730   6.049   3.696
10285SOL    HW231755   4.681   6.205   3.699
10286SOL     OW31756   3.404   1.572   4.408
10286SOL    HW131757   3.310   1.562   4.377
10286SOL    HW231758   3.466   1.528   4.343
10287SOL     OW31759   1.903   6.133   1.999
10287SOL    HW131760   1.964   6.166   2.072
10287SOL    HW231761   1.816   6.103   2.040
10288SOL     OW31762   3.570   0.276   5.041
10288SOL    HW131763   3.561   0.316   4.950
10288SOL    HW231764   3.591   0.179   5.033
10289SOL     OW31765   2.993   6.407   0.747
10289SOL    HW131766   2.941   6.388   0.831
10289SOL    HW231767   3.066   6.473   0.767
10290SOL     OW31768   3.034   3.047   2.636
10290SOL    HW131769   3.009   3.126   2.693
10290SOL    HW231770   2.966   2.975   2.648
10291SOL     OW31771   3.297   0.921   2.495
10291SOL    HW131772   3.367   0.992   2.494
10291SOL    HW231773   3.211   0.959   2.461
10292SOL     OW31774   6.735   0.516   6.372
10292SOL    HW131775   6.672   0.592   6.383
10292SOL    HW231776   6.685   0.430   6.378
10293SOL     OW31777   0.504   3.848   3.814
10293SOL    HW131778   0.580   3.827   3.753
10293SOL    HW231779   0.540   3.872   3.904
10294SOL     OW31780   3.077   1.933   2.806
10294SOL    HW131781   3.042   1.905   2.716
10294SOL    HW231782   3.041   1.872   2.876
10295SOL     OW31783   1.226   2.641   6.868
10295SOL    HW131784   1.227   2.648   6.968
10295SOL    HW231785   1.131   2.640   6.835
10296SOL     OW31786   5.694   0.612   5.891
10296SOL    HW131787   5.645   0.697   5.874
10296SOL    HW231788   5.631   0.535   5.883
10297SOL     OW31789   3.129   1.963   6.433
10297SOL    HW131790   3.124   1.893   6.504
10297SOL    HW231791   3.047   1.959   6.376
10298SOL     OW31792   0.974   3.660   2.509
10298SOL    HW131793   0.886   3.690   2.547
10298SOL    HW231794   1.003   3.577   2.556
10299SOL     OW31795   4.734   6.343   2.184
10299SOL    HW131796   4.674   6.333   2.263
10299SOL    HW231797   4.780   6.256   2.165
10300SOL     OW31798   0.768   3.789   2.344
10300SOL    HW131799   0.848   3.735   2.372
10300SOL    HW231800   0.712   3.736   2.281
10301SOL     OW31801   4.259   1.225   6.191
10301SOL    HW131802   4.215   1.290   6.252
10301SOL    HW231803   4.268   1.265   6.100
10302SOL     OW31804   2.786   6.255   4.084
10302SOL    HW131805   2.740   6.344   4.077
10302SOL    HW231806   2.876   6.267   4.126
10303SOL     OW31807   1.103   5.950   3.745
10303SOL    HW131808   1.033   5.975   3.811
10303SOL    HW231809   1.065   5.956   3.652
10304SOL     OW31810   6.537   6.828   0.029
10304SOL    HW131811   6.625   6.806   7.012
10304SOL    HW231812   6.522   6.927   0.027
10305SOL     OW31813   2.630   3.726   5.930
10305SOL    HW131814   2.541   3.762   5.956
10305SOL    HW231815   2.621   3.668   5.849
10306SOL     OW31816   5.543   0.421   0.846
10306SOL    HW131817   5.555   0.443   0.943
10306SOL    HW231818   5.448   0.396   0.829
10307SOL     OW31819   2.802   1.020   4.597
10307SOL    HW131820   2.744   0.967   4.659
10307SOL    HW231821   2.885   1.049   4.646
10308SOL     OW31822   2.399   4.369   2.666
10308SOL    HW131823   2.436   4.359   2.574
10308SOL    HW231824   2.323   4.305   2.679
10309SOL     OW31825   6.349   0.508   5.533
10309SOL    HW131826   6.333   0.417   5.495
10309SOL    HW231827   6.354   0.501   5.633
10310SOL     OW31828   2.643   3.335   6.903
10310SOL    HW131829   2.646   3.257   6.965
10310SOL    HW231830   2.736   3.360   6.876
10311SOL     OW31831   5.856   5.824   6.804
10311SOL    HW131832   5.807   5.893   6.857
10311SOL    HW231833   5.796   5.746   6.786
10312SOL     OW31834   4.485   0.344   2.460
10312SOL    HW131835   4.549   0.304   2.395
10312SOL    HW231836   4.534   0.374   2.542
10313SOL     OW31837   4.381   5.501   2.844
10313SOL    HW131838   4.369   5.460   2.935
10313SOL    HW231839   4.478   5.518   2.828
10314SOL     OW31840   0.572   0.100   0.067
10314SOL    HW131841   0.503   0.028   0.079
10314SOL    HW231842   0.653   0.061   0.023
10315SOL     OW31843   4.774   6.708   3.917
10315SOL    HW131844   4.856   6.652   3.929
10315SOL    HW231845   4.800   6.800   3.887
10316SOL     OW31846   6.547   1.907   6.263
10316SOL    HW131847   6.535   1.836   6.332
10316SOL    HW231848   6.459   1.925   6.217
10317SOL     OW31849   3.875   6.173   6.257
10317SOL    HW131850   3.858   6.092   6.200
10317SOL    HW231851   3.824   6.164   6.343
10318SOL     OW31852   5.551   0.048   0.147
10318SOL    HW131853   5.651   0.047   0.156
10318SOL    HW231854   5.523   0.133   0.103
10319SOL     OW31855   6.997   4.940   4.734
10319SOL    HW131856   6.953   4.941   4.644
10319SOL    HW231857   6.964   5.018   4.788
10320SOL     OW31858   0.122   0.468   3.408
10320SOL    HW131859   0.148   0.442   3.501
10320SOL    HW231860   0.077   0.390   3.363
10321SOL     OW31861   5.662   2.257   2.001
10321SOL    HW131862   5.716   2.250   2.085
10321SOL    HW231863   5.588   2.189   2.004
10322SOL     OW31864   4.506   4.536   4.127
10322SOL    HW131865   4.582   4.471   4.120
10322SOL    HW231866   4.488   4.577   4.038
10323SOL     OW31867   6.456   4.178   5.662
10323SOL    HW131868   6.510   4.170   5.745
10323SOL    HW231869   6.411   4.268   5.660
10324SOL     OW31870   3.063   3.421   2.358
10324SOL    HW131871   3.068   3.321   2.351
10324SOL    HW231872   3.080   3.462   2.269
10325SOL     OW31873   0.544   5.793   2.288
10325SOL    HW131874   0.454   5.749   2.281
10325SOL    HW231875   0.540   5.867   2.355
10326SOL     OW31876   5.294   3.810   6.579
10326SOL    HW131877   5.305   3.909   6.577
10326SOL    HW231878   5.218   3.783   6.521
10327SOL     OW31879   2.622   3.764   0.981
10327SOL    HW131880   2.674   3.679   0.989
10327SOL    HW231881   2.654   3.830   1.048
10328SOL     OW31882   6.351   3.430   2.141
10328SOL    HW131883   6.353   3.395   2.047
10328SOL    HW231884   6.280   3.382   2.193
10329SOL     OW31885   3.033   0.969   2.886
10329SOL    HW131886   3.114   0.956   2.829
10329SOL    HW231887   3.050   0.934   2.978
10330SOL     OW31888   4.803   0.568   0.566
10330SOL    HW131889   4.851   0.525   0.643
10330SOL    HW231890   4.849   0.544   0.481
10331SOL     OW31891   6.148   6.672   6.737
10331SOL    HW131892   6.242   6.638   6.738
10331SOL    HW231893   6.105   6.653   6.826
10332SOL     OW31894   0.459   1.063   0.278
10332SOL    HW131895   0.534   1.101   0.332
10332SOL    HW231896   0.374   1.070   0.331
10333SOL     OW31897   0.686   5.623   4.278
10333SOL    HW131898   0.653   5.571   4.356
10333SOL    HW231899   0.656   5.717   4.285
10334SOL     OW31900   3.284   6.998   3.906
10334SOL    HW131901   3.186   7.014   3.911
10334SOL    HW231902   3.329   0.008   3.988
10335SOL     OW31903   0.318   4.865   6.415
10335SOL    HW131904   0.292   4.956   6.446
10335SOL    HW231905   0.365   4.816   6.488
10336SOL     OW31906   6.229   6.952   2.306
10336SOL    HW131907   6.290   6.952   2.386
10336SOL    HW231908   6.135   6.937   2.335
10337SOL     OW31909   6.257   5.462   6.781
10337SOL    HW131910   6.186   5.405   6.822
10337SOL    HW231911   6.317   5.405   6.725
10338SOL     OW31912   1.991   6.566   1.992
10338SOL    HW131913   1.977   6.642   1.929
10338SOL    HW231914   1.981   6.480   1.942
10339SOL     OW31915   6.552   2.997   6.032
10339SOL    HW131916   6.468   2.979   6.083
10339SOL    HW231917   6.530   3.009   5.935
10340SOL     OW31918   1.687   3.044   6.212
10340SOL    HW131919   1.692   3.014   6.116
10340SOL    HW231920   1.743   2.983   6.268
10341SOL     OW31921   2.065   3.211   2.517
10341SOL    HW131922   1.971   3.194   2.547
10341SOL    HW231923   2.090   3.306   2.536
10342SOL     OW31924   1.523   0.813   3.601
10342SOL    HW131925   1.532   0.759   3.684
10342SOL    HW231926   1.518   0.753   3.521
10343SOL     OW31927   2.224   5.545   0.884
10343SOL    HW131928   2.207   5.615   0.814
10343SOL    HW231929   2.316   5.507   0.871
10344SOL     OW31930   3.533   3.893   6.502
10344SOL    HW131931   3.433   3.897   6.491
10344SOL    HW231932   3.557   3.916   6.596
10345SOL     OW31933   1.217   2.463   5.413
10345SOL    HW131934   1.270   2.541   5.378
10345SOL    HW231935   1.122   2.470   5.382
10346SOL     OW31936   0.043   5.532   1.304
10346SOL    HW131937   7.023   5.543   1.393
10346SOL    HW231938   0.080   5.620   1.274
10347SOL     OW31939   4.437   1.064   3.723
10347SOL    HW131940   4.398   1.004   3.793
10347SOL    HW231941   4.417   1.159   3.745
10348SOL     OW31942   5.939   3.194   0.484
10348SOL    HW131943   5.902   3.170   0.394
10348SOL    HW231944   6.024   3.144   0.500
10349SOL     OW31945   0.884   6.927   6.634
10349SOL    HW131946   0.880   7.022   6.664
10349SOL    HW231947   0.835   6.870   6.700
10350SOL     OW31948   2.891   6.383   5.308
10350SOL    HW131949   2.860   6.298   5.351
10350SOL    HW231950   2.976   6.367   5.259
10351SOL     OW31951   4.576   5.418   5.644
10351SOL    HW131952   4.481   5.394   5.662
10351SOL    HW231953   4.586   5.447   5.549
10352SOL     OW31954   3.766   1.259   6.358
10352SOL    HW131955   3.795   1.343   6.312
10352SOL    HW231956   3.824   1.183   6.329
10353SOL     OW31957   6.726   3.139   4.339
10353SOL    HW131958   6.742   3.218   4.398
10353SOL    HW231959   6.680   3.169   4.255
10354SOL     OW31960   5.234   0.834   1.556
10354SOL    HW131961   5.254   0.824   1.653
10354SOL    HW231962   5.197   0.925   1.538
10355SOL     OW31963   2.855   5.745   2.429
10355SOL    HW131964   2.915   5.768   2.353
10355SOL    HW231965   2.906   5.751   2.515
10356SOL     OW31966   6.796   4.115   5.589
10356SOL    HW131967   6.773   4.086   5.682
10356SOL    HW231968   6.892   4.143   5.585
10357SOL     OW31969   2.398   2.258   6.763
10357SOL    HW131970   2.315   2.235   6.712
10357SOL    HW231971   2.388   2.349   6.804
10358SOL     OW31972   0.598   2.789   2.707
10358SOL    HW131973   0.537   2.808   2.783
10358SOL    HW231974   0.598   2.866   2.643
10359SOL     OW31975   0.408   1.550   1.879
10359SOL    HW131976   0.347   1.581   1.806
10359SOL    HW231977   0.497   1.525   1.840
10360SOL     OW31978   5.242   5.843   3.430
10360SOL    HW131979   5.290   5.845   3.343
10360SOL    HW231980   5.298   5.796   3.498
10361SOL     OW31981   3.311   5.819   2.348
10361SOL    HW131982   3.287   5.771   2.263
10361SOL    HW231983   3.357   5.755   2.409
10362SOL     OW31984   2.172   4.823   4.690
10362SOL    HW131985   2.241   4.878   4.736
10362SOL    HW231986   2.080   4.855   4.715
10363SOL     OW31987   5.121   0.577   3.065
10363SOL    HW131988   5.094   0.557   3.160
10363SOL    HW231989   5.211   0.621   3.065
10364SOL     OW31990   2.363   4.301   1.388
10364SOL    HW131991   2.349   4.227   1.453
10364SOL    HW231992   2.336   4.270   1.296
10365SOL     OW31993   4.753   5.150   0.290
10365SOL    HW131994   4.825   5.082   0.306
10365SOL    HW231995   4.736   5.158   0.192
10366SOL     OW31996   2.652   6.877   3.477
10366SOL    HW131997   2.556   6.899   3.462
10366SOL    HW231998   2.708   6.958   3.459
10367SOL     OW31999   6.201   2.774   3.232
10367SOL    HW132000   6.201   2.718   3.149
10367SOL    HW232001   6.251   2.726   3.305
10368SOL     OW32002   2.158   1.169   2.130
10368SOL    HW132003   2.240   1.212   2.167
10368SOL    HW232004   2.154   1.073   2.158
10369SOL     OW32005   3.658   2.173   0.648
10369SOL    HW132006   3.559   2.162   0.657
10369SOL    HW232007   3.692   2.229   0.725
10370SOL     OW32008   4.158   0.578   5.168
10370SOL    HW132009   4.258   0.588   5.168
10370SOL    HW232010   4.120   0.624   5.088
10371SOL     OW32011   4.441   5.798   5.207
10371SOL    HW132012   4.370   5.788   5.277
10371SOL    HW232013   4.505   5.869   5.235
10372SOL     OW32014   2.290   1.191   4.121
10372SOL    HW132015   2.245   1.273   4.085
10372SOL    HW232016   2.293   1.121   4.051
10373SOL     OW32017   1.099   6.502   4.442
10373SOL    HW132018   1.083   6.455   4.356
10373SOL    HW232019   1.064   6.447   4.518
10374SOL     OW32020   2.869   1.797   3.307
10374SOL    HW132021   2.925   1.862   3.359
10374SOL    HW232022   2.876   1.707   3.349
10375SOL     OW32023   5.543   1.906   1.091
10375SOL    HW132024   5.642   1.894   1.078
10375SOL    HW232025   5.526   1.939   1.183
10376SOL     OW32026   0.068   0.858   3.565
10376SOL    HW132027   0.107   0.928   3.504
10376SOL    HW232028   0.136   0.786   3.580
10377SOL     OW32029   0.217   0.496   3.929
10377SOL    HW132030   0.235   0.434   4.005
10377SOL    HW232031   0.137   0.553   3.950
10378SOL     OW32032   6.703   0.335   6.090
10378SOL    HW132033   6.683   0.260   6.153
10378SOL    HW232034   6.795   0.370   6.108
10379SOL     OW32035   5.222   0.609   4.651
10379SOL    HW132036   5.291   0.590   4.721
10379SOL    HW232037   5.232   0.702   4.618
10380SOL     OW32038   4.901   0.447   2.253
10380SOL    HW132039   4.933   0.352   2.263
10380SOL    HW232040   4.911   0.474   2.157
10381SOL     OW32041   4.633   4.912   5.727
10381SOL    HW132042   4.669   4.948   5.641
10381SOL    HW232043   4.585   4.985   5.777
10382SOL     OW32044   2.249   5.023   6.537
10382SOL    HW132045   2.206   4.933   6.538
10382SOL    HW232046   2.330   5.021   6.596
10383SOL     OW32047   0.607   2.242   1.569
10383SOL    HW132048   0.701   2.219   1.547
10383SOL    HW232049   0.603   2.286   1.659
10384SOL     OW32050   6.605   6.572   0.598
10384SOL    HW132051   6.587   6.571   0.500
10384SOL    HW232052   6.520   6.550   0.647
10385SOL     OW32053   6.556   1.446   6.560
10385SOL    HW132054   6.492   1.406   6.626
10385SOL    HW232055   6.634   1.385   6.547
10386SOL     OW32056   6.312   2.945   5.527
10386SOL    HW132057   6.381   3.018   5.528
10386SOL    HW232058   6.294   2.918   5.432
10387SOL     OW32059   2.044   2.729   3.098
10387SOL    HW132060   2.069   2.708   3.003
10387SOL    HW232061   2.008   2.647   3.142
10388SOL     OW32062   1.457   5.365   3.020
10388SOL    HW132063   1.536   5.425   3.029
10388SOL    HW232064   1.373   5.417   3.040
10389SOL     OW32065   0.808   4.932   3.803
10389SOL    HW132066   0.729   4.966   3.853
10389SOL    HW232067   0.780   4.856   3.744
10390SOL     OW32068   0.778   3.112   3.619
10390SOL    HW132069   0.697   3.132   3.564
10390SOL    HW232070   0.854   3.089   3.558
10391SOL     OW32071   2.413   6.524   6.310
10391SOL    HW132072   2.430   6.621   6.293
10391SOL    HW232073   2.352   6.488   6.239
10392SOL     OW32074   6.621   4.982   0.636
10392SOL    HW132075   6.646   5.075   0.663
10392SOL    HW232076   6.545   4.985   0.572
10393SOL     OW32077   1.234   1.408   4.142
10393SOL    HW132078   1.271   1.435   4.231
10393SOL    HW232079   1.216   1.490   4.088
10394SOL     OW32080   2.264   6.355   0.081
10394SOL    HW132081   2.297   6.392   0.167
10394SOL    HW232082   2.189   6.412   0.047
10395SOL     OW32083   0.330   0.879   5.075
10395SOL    HW132084   0.308   0.976   5.085
10395SOL    HW232085   0.345   0.839   5.166
10396SOL     OW32086   1.503   6.837   4.994
10396SOL    HW132087   1.566   6.784   4.938
10396SOL    HW232088   1.461   6.909   4.938
10397SOL     OW32089   3.212   1.491   3.220
10397SOL    HW132090   3.202   1.565   3.153
10397SOL    HW232091   3.209   1.528   3.312
10398SOL     OW32092   6.066   2.954   2.107
10398SOL    HW132093   6.165   2.946   2.105
10398SOL    HW232094   6.030   2.904   2.186
10399SOL     OW32095   5.223   2.683   5.287
10399SOL    HW132096   5.159   2.759   5.278
10399SOL    HW232097   5.173   2.598   5.301
10400SOL     OW32098   2.725   5.714   2.106
10400SOL    HW132099   2.723   5.698   2.008
10400SOL    HW232100   2.632   5.706   2.143
10401SOL     OW32101   0.880   5.760   1.999
10401SOL    HW132102   0.866   5.857   2.019
10401SOL    HW232103   0.979   5.742   1.995
10402SOL     OW32104   0.400   3.527   4.371
10402SOL    HW132105   0.405   3.427   4.362
10402SOL    HW232106   0.493   3.563   4.384
10403SOL     OW32107   5.617   1.292   2.076
10403SOL    HW132108   5.588   1.242   2.157
10403SOL    HW232109   5.672   1.233   2.017
10404SOL     OW32110   0.682   6.464   3.851
10404SOL    HW132111   0.731   6.492   3.768
10404SOL    HW232112   0.588   6.497   3.846
10405SOL     OW32113   1.593   6.409   6.099
10405SOL    HW132114   1.515   6.356   6.132
10405SOL    HW232115   1.663   6.414   6.171
10406SOL     OW32116   2.240   4.431   6.065
10406SOL    HW132117   2.167   4.481   6.020
10406SOL    HW232118   2.279   4.363   6.002
10407SOL     OW32119   0.542   2.365   6.801
10407SOL    HW132120   0.600   2.371   6.883
10407SOL    HW232121   0.539   2.270   6.770
10408SOL     OW32122   4.761   5.620   3.063
10408SOL    HW132123   4.818   5.550   3.019
10408SOL    HW232124   4.710   5.670   2.993
10409SOL     OW32125   6.620   4.877   2.855
10409SOL    HW132126   6.589   4.935   2.779
10409SOL    HW232127   6.568   4.792   2.855
10410SOL     OW32128   4.866   0.400   0.805
10410SOL    HW132129   4.820   0.436   0.887
10410SOL    HW232130   4.850   0.302   0.799
10411SOL     OW32131   2.048   4.860   2.695
10411SOL    HW132132   2.096   4.937   2.653
10411SOL    HW232133   2.108   4.780   2.696
10412SOL     OW32134   0.472   1.858   0.897
10412SOL    HW132135   0.531   1.934   0.872
10412SOL    HW232136   0.377   1.890   0.904
10413SOL     OW32137   6.847   2.147   6.982
10413SOL    HW132138   6.850   2.164   6.883
10413SOL    HW232139   6.886   2.225   0.006
10414SOL     OW32140   5.675   5.932   5.641
10414SOL    HW132141   5.593   5.900   5.689
10414SOL    HW232142   5.727   5.853   5.609
10415SOL     OW32143   0.617   6.191   3.410
10415SOL    HW132144   0.566   6.128   3.468
10415SOL    HW232145   0.710   6.201   3.446
10416SOL     OW32146   5.772   1.167   5.661
10416SOL    HW132147   5.794   1.258   5.627
10416SOL    HW232148   5.844   1.103   5.632
10417SOL     OW32149   3.832   4.955   4.221
10417SOL    HW132150   3.891   4.885   4.260
10417SOL    HW232151   3.885   5.014   4.161
10418SOL     OW32152   6.234   3.569   6.526
10418SOL    HW132153   6.307   3.539   6.588
10418SOL    HW232154   6.178   3.638   6.572
10419SOL     OW32155   2.492   1.154   4.504
10419SOL    HW132156   2.534   1.064   4.493
10419SOL    HW232157   2.555   1.215   4.552
10420SOL     OW32158   6.457   3.645   3.231
10420SOL    HW132159   6.532   3.706   3.205
10420SOL    HW232160   6.492   3.572   3.290
10421SOL     OW32161   1.280   4.376   4.840
10421SOL    HW132162   1.298   4.379   4.938
10421SOL    HW232163   1.227   4.457   4.813
10422SOL     OW32164   6.679   3.377   4.890
10422SOL    HW132165   6.744   3.452   4.887
10422SOL    HW232166   6.586   3.413   4.894
10423SOL     OW32167   3.191   4.964   4.020
10423SOL    HW132168   3.246   4.929   3.944
10423SOL    HW232169   3.248   5.022   4.078
10424SOL     OW32170   3.769   1.182   0.463
10424SOL    HW132171   3.819   1.268   0.469
10424SOL    HW232172   3.732   1.158   0.553
10425SOL     OW32173   1.284   1.877   0.546
10425SOL    HW132174   1.210   1.912   0.604
10425SOL    HW232175   1.244   1.825   0.470
10426SOL     OW32176   6.282   2.339   5.957
10426SOL    HW132177   6.295   2.272   5.885
10426SOL    HW232178   6.324   2.306   6.042
10427SOL     OW32179   5.659   6.699   4.397
10427SOL    HW132180   5.687   6.700   4.302
10427SOL    HW232181   5.735   6.727   4.455
10428SOL     OW32182   2.530   0.350   4.238
10428SOL    HW132183   2.519   0.391   4.148
10428SOL    HW232184   2.540   0.251   4.229
10429SOL     OW32185   1.251   2.843   2.102
10429SOL    HW132186   1.325   2.905   2.127
10429SOL    HW232187   1.271   2.801   2.014
10430SOL     OW32188   3.390   0.307   3.298
10430SOL    HW132189   3.455   0.235   3.275
10430SOL    HW232190   3.381   0.313   3.398
10431SOL     OW32191   3.492   0.373   2.865
10431SOL    HW132192   3.527   0.292   2.819
10431SOL    HW232193   3.419   0.348   2.928
10432SOL     OW32194   1.411   5.476   5.975
10432SOL    HW132195   1.412   5.423   6.060
10432SOL    HW232196   1.479   5.439   5.912
10433SOL     OW32197   2.887   0.073   2.518
10433SOL    HW132198   2.969   0.027   2.484
10433SOL    HW232199   2.904   0.106   2.611
10434SOL     OW32200   4.822   6.986   5.585
10434SOL    HW132201   4.732   0.003   5.576
10434SOL    HW232202   4.892   0.021   5.546
10435SOL     OW32203   2.325   1.869   6.914
10435SOL    HW132204   2.288   1.944   6.969
10435SOL    HW232205   2.264   1.852   6.836
10436SOL     OW32206   6.620   3.384   5.356
10436SOL    HW132207   6.714   3.376   5.389
10436SOL    HW232208   6.600   3.480   5.336
10437SOL     OW32209   5.329   6.448   4.868
10437SOL    HW132210   5.318   6.349   4.866
10437SOL    HW232211   5.293   6.487   4.783
10438SOL     OW32212   6.795   6.233   0.046
10438SOL    HW132213   6.704   6.274   0.041
10438SOL    HW232214   6.815   6.207   0.140
10439SOL     OW32215   6.923   6.698   5.306
10439SOL    HW132216   6.860   6.627   5.274
10439SOL    HW232217   6.968   6.740   5.227
10440SOL     OW32218   0.034   2.752   0.742
10440SOL    HW132219   0.001   2.695   0.817
10440SOL    HW232220   6.991   2.822   0.721
10441SOL     OW32221   4.183   1.775   0.641
10441SOL    HW132222   4.233   1.861   0.642
10441SOL    HW232223   4.220   1.714   0.711
10442SOL     OW32224   2.236   1.470   6.052
10442SOL    HW132225   2.251   1.473   5.954
10442SOL    HW232226   2.270   1.554   6.094
10443SOL     OW32227   0.469   1.336   3.284
10443SOL    HW132228   0.551   1.325   3.340
10443SOL    HW232229   0.489   1.398   3.208
10444SOL     OW32230   4.104   5.691   4.381
10444SOL    HW132231   4.120   5.732   4.292
10444SOL    HW232232   4.047   5.609   4.370
10445SOL     OW32233   1.148   3.337   2.920
10445SOL    HW132234   1.063   3.293   2.951
10445SOL    HW232235   1.131   3.434   2.902
10446SOL     OW32236   1.672   4.464   5.744
10446SOL    HW132237   1.630   4.416   5.821
10446SOL    HW232238   1.724   4.399   5.688
10447SOL     OW32239   0.160   1.725   3.177
10447SOL    HW132240   0.215   1.714   3.094
10447SOL    HW232241   0.091   1.796   3.163
10448SOL     OW32242   2.472   6.248   2.822
10448SOL    HW132243   2.496   6.297   2.905
10448SOL    HW232244   2.503   6.300   2.742
10449SOL     OW32245   3.855   4.879   4.746
10449SOL    HW132246   3.942   4.889   4.795
10449SOL    HW232247   3.807   4.799   4.781
10450SOL     OW32248   6.954   0.862   6.195
10450SOL    HW132249   7.003   0.944   6.164
10450SOL    HW232250   6.865   0.887   6.230
10451SOL     OW32251   3.101   0.934   3.163
10451SOL    HW132252   3.045   0.865   3.208
10451SOL    HW232253   3.188   0.893   3.134
10452SOL     OW32254   6.909   3.977   4.489
10452SOL    HW132255   6.986   3.919   4.462
10452SOL    HW232256   6.941   4.045   4.555
10453SOL     OW32257   3.861   5.840   3.626
10453SOL    HW132258   3.847   5.844   3.725
10453SOL    HW232259   3.957   5.819   3.608
10454SOL     OW32260   6.660   0.970   6.235
10454SOL    HW132261   6.620   1.052   6.275
10454SOL    HW232262   6.665   0.980   6.135
10455SOL     OW32263   6.326   5.798   3.968
10455SOL    HW132264   6.398   5.806   3.899
10455SOL    HW232265   6.335   5.710   4.016
10456SOL     OW32266   1.186   5.237   6.787
10456SOL    HW132267   1.101   5.284   6.810
10456SOL    HW232268   1.170   5.138   6.786
10457SOL     OW32269   3.547   2.676   6.534
10457SOL    HW132270   3.508   2.601   6.588
10457SOL    HW232271   3.633   2.646   6.494
10458SOL     OW32272   6.965   5.974   6.555
10458SOL    HW132273   6.978   5.978   6.655
10458SOL    HW232274   0.006   5.910   6.516
10459SOL     OW32275   6.927   5.242   0.526
10459SOL    HW132276   6.959   5.337   0.523
10459SOL    HW232277   6.896   5.214   0.436
10460SOL     OW32278   0.298   1.957   0.552
10460SOL    HW132279   0.244   1.890   0.604
10460SOL    HW232280   0.298   2.044   0.601
10461SOL     OW32281   6.829   5.090   5.938
10461SOL    HW132282   6.875   5.079   5.850
10461SOL    HW232283   6.812   5.187   5.955
10462SOL     OW32284   4.489   2.343   0.941
10462SOL    HW132285   4.407   2.399   0.951
10462SOL    HW232286   4.493   2.275   1.015
10463SOL     OW32287   4.645   2.732   6.238
10463SOL    HW132288   4.545   2.732   6.234
10463SOL    HW232289   4.677   2.638   6.250
10464SOL     OW32290   6.519   4.649   2.254
10464SOL    HW132291   6.421   4.642   2.270
10464SOL    HW232292   6.558   4.558   2.244
10465SOL     OW32293   5.247   4.620   1.483
10465SOL    HW132294   5.161   4.571   1.470
10465SOL    HW232295   5.309   4.600   1.408
10466SOL     OW32296   6.233   5.152   6.811
10466SOL    HW132297   6.156   5.203   6.774
10466SOL    HW232298   6.274   5.097   6.739
10467SOL     OW32299   0.784   3.334   0.316
10467SOL    HW132300   0.743   3.425   0.312
10467SOL    HW232301   0.879   3.338   0.285
10468SOL     OW32302   2.469   4.777   3.633
10468SOL    HW132303   2.546   4.718   3.608
10468SOL    HW232304   2.402   4.723   3.684
10469SOL     OW32305   6.700   1.598   4.196
10469SOL    HW132306   6.640   1.519   4.184
10469SOL    HW232307   6.765   1.602   4.120
10470SOL     OW32308   2.021   2.507   3.319
10470SOL    HW132309   2.115   2.476   3.303
10470SOL    HW232310   1.988   2.472   3.406
10471SOL     OW32311   3.025   6.717   6.831
10471SOL    HW132312   2.938   6.767   6.827
10471SOL    HW232313   3.015   6.628   6.788
10472SOL     OW32314   3.562   4.611   6.417
10472SOL    HW132315   3.573   4.639   6.321
10472SOL    HW232316   3.471   4.636   6.449
10473SOL     OW32317   5.235   5.433   0.377
10473SOL    HW132318   5.147   5.474   0.400
10473SOL    HW232319   5.231   5.394   0.285
10474SOL     OW32320   5.455   0.738   4.224
10474SOL    HW132321   5.464   0.814   4.160
10474SOL    HW232322   5.505   0.759   4.308
10475SOL     OW32323   1.612   6.592   1.261
10475SOL    HW132324   1.557   6.676   1.264
10475SOL    HW232325   1.688   6.599   1.325
10476SOL     OW32326   3.778   5.563   6.669
10476SOL    HW132327   3.796   5.533   6.763
10476SOL    HW232328   3.854   5.535   6.610
10477SOL     OW32329   6.804   5.422   3.910
10477SOL    HW132330   6.727   5.472   3.951
10477SOL    HW232331   6.768   5.352   3.848
10478SOL     OW32332   5.802   0.799   0.190
10478SOL    HW132333   5.748   0.752   0.260
10478SOL    HW232334   5.745   0.865   0.142
10479SOL     OW32335   0.926   2.333   1.778
10479SOL    HW132336   0.959   2.250   1.733
10479SOL    HW232337   0.967   2.340   1.869
10480SOL     OW32338   2.121   0.180   2.511
10480SOL    HW132339   2.189   0.249   2.538
10480SOL    HW232340   2.104   0.187   2.413
10481SOL     OW32341   0.147   1.454   2.079
10481SOL    HW132342   0.189   1.493   2.161
10481SOL    HW232343   0.100   1.369   2.102
10482SOL     OW32344   4.836   3.998   4.758
10482SOL    HW132345   4.898   3.923   4.733
10482SOL    HW232346   4.751   3.989   4.707
10483SOL     OW32347   5.940   6.328   0.220
10483SOL    HW132348   6.032   6.347   0.184
10483SOL    HW232349   5.878   6.401   0.192
10484SOL     OW32350   6.211   0.815   2.161
10484SOL    HW132351   6.308   0.793   2.166
10484SOL    HW232352   6.198   0.914   2.172
10485SOL     OW32353   5.901   3.815   5.344
10485SOL    HW132354   5.938   3.803   5.436
10485SOL    HW232355   5.878   3.726   5.305
10486SOL     OW32356   5.381   3.002   1.736
10486SOL    HW132357   5.308   2.977   1.798
10486SOL    HW232358   5.354   3.082   1.682
10487SOL     OW32359   5.549   6.733   1.810
10487SOL    HW132360   5.544   6.674   1.729
10487SOL    HW232361   5.532   6.679   1.892
10488SOL     OW32362   2.599   2.385   6.322
10488SOL    HW132363   2.571   2.383   6.418
10488SOL    HW232364   2.699   2.390   6.317
10489SOL     OW32365   0.913   6.055   6.278
10489SOL    HW132366   0.895   5.992   6.353
10489SOL    HW232367   1.009   6.049   6.252
10490SOL     OW32368   6.927   0.818   3.772
10490SOL    HW132369   6.997   0.841   3.705
10490SOL    HW232370   6.943   0.867   3.857
10491SOL     OW32371   1.545   4.071   6.009
10491SOL    HW132372   1.446   4.080   6.018
10491SOL    HW232373   1.566   3.993   5.950
10492SOL     OW32374   5.036   3.488   5.200
10492SOL    HW132375   4.954   3.535   5.167
10492SOL    HW232376   5.046   3.504   5.299
10493SOL     OW32377   3.263   1.280   1.486
10493SOL    HW132378   3.262   1.260   1.388
10493SOL    HW232379   3.173   1.257   1.525
10494SOL     OW32380   6.028   2.166   4.397
10494SOL    HW132381   6.114   2.125   4.365
10494SOL    HW232382   5.980   2.100   4.456
10495SOL     OW32383   1.326   6.715   0.365
10495SOL    HW132384   1.361   6.633   0.409
10495SOL    HW232385   1.270   6.766   0.430
10496SOL     OW32386   0.157   6.802   5.291
10496SOL    HW132387   0.252   6.819   5.315
10496SOL    HW232388   0.118   6.735   5.355
10497SOL     OW32389   1.186   1.252   0.946
10497SOL    HW132390   1.277   1.270   0.908
10497SOL    HW232391   1.183   1.158   0.980
10498SOL     OW32392   2.204   6.180   5.983
10498SOL    HW132393   2.238   6.165   5.891
10498SOL    HW232394   2.168   6.094   6.020
10499SOL     OW32395   3.466   5.544   3.138
10499SOL    HW132396   3.367   5.553   3.148
10499SOL    HW232397   3.502   5.486   3.211
10500SOL     OW32398   1.440   1.818   6.383
10500SOL    HW132399   1.461   1.801   6.286
10500SOL    HW232400   1.369   1.887   6.389
10501SOL     OW32401   1.404   3.398   2.549
10501SOL    HW132402   1.389   3.363   2.641
10501SOL    HW232403   1.316   3.404   2.501
10502SOL     OW32404   3.423   5.912   6.288
10502SOL    HW132405   3.427   5.849   6.366
10502SOL    HW232406   3.501   5.974   6.290
10503SOL     OW32407   2.969   2.794   0.044
10503SOL    HW132408   2.995   2.707   0.003
10503SOL    HW232409   2.881   2.785   0.089
10504SOL     OW32410   3.085   3.384   1.015
10504SOL    HW132411   3.106   3.395   0.918
10504SOL    HW232412   3.030   3.301   1.027
10505SOL     OW32413   6.730   6.020   1.686
10505SOL    HW132414   6.755   6.005   1.591
10505SOL    HW232415   6.723   6.118   1.705
10506SOL     OW32416   0.527   4.090   5.611
10506SOL    HW132417   0.437   4.073   5.570
10506SOL    HW232418   0.578   4.154   5.553
10507SOL     OW32419   0.872   0.513   6.283
10507SOL    HW132420   0.971   0.521   6.281
10507SOL    HW232421   0.837   0.507   6.189
10508SOL     OW32422   5.557   4.157   3.004
10508SOL    HW132423   5.552   4.067   2.963
10508SOL    HW232424   5.642   4.202   2.976
10509SOL     OW32425   1.633   0.133   6.545
10509SOL    HW132426   1.595   0.092   6.462
10509SOL    HW232427   1.626   0.068   6.620
10510SOL     OW32428   6.310   5.694   0.083
10510SOL    HW132429   6.338   5.790   0.090
10510SOL    HW232430   6.382   5.641   0.038
10511SOL     OW32431   4.128   2.933   0.341
10511SOL    HW132432   4.109   3.029   0.322
10511SOL    HW232433   4.048   2.891   0.386
10512SOL     OW32434   4.397   6.688   5.887
10512SOL    HW132435   4.302   6.696   5.857
10512SOL    HW232436   4.437   6.780   5.894
10513SOL     OW32437   0.498   2.727   6.962
10513SOL    HW132438   0.526   2.703   6.870
10513SOL    HW232439   0.517   2.824   6.979
10514SOL     OW32440   0.523   4.874   0.584
10514SOL    HW132441   0.505   4.964   0.623
10514SOL    HW232442   0.482   4.868   0.493
10515SOL     OW32443   6.507   2.253   3.157
10515SOL    HW132444   6.535   2.245   3.062
10515SOL    HW232445   6.470   2.345   3.174
10516SOL     OW32446   3.937   0.710   5.841
10516SOL    HW132447   3.865   0.710   5.772
10516SOL    HW232448   4.021   0.671   5.803
10517SOL     OW32449   6.818   1.950   2.543
10517SOL    HW132450   6.776   1.988   2.461
10517SOL    HW232451   6.903   2.000   2.562
10518SOL     OW32452   1.021   6.201   0.821
10518SOL    HW132453   0.938   6.230   0.773
10518SOL    HW232454   1.056   6.117   0.779
10519SOL     OW32455   3.421   3.354   5.423
10519SOL    HW132456   3.408   3.258   5.401
10519SOL    HW232457   3.467   3.400   5.347
10520SOL     OW32458   4.257   2.218   6.869
10520SOL    HW132459   4.300   2.235   6.957
10520SOL    HW232460   4.270   2.123   6.842
10521SOL     OW32461   6.338   5.381   1.228
10521SOL    HW132462   6.272   5.373   1.303
10521SOL    HW232463   6.429   5.397   1.265
10522SOL     OW32464   6.514   0.491   1.388
10522SOL    HW132465   6.483   0.552   1.461
10522SOL    HW232466   6.456   0.410   1.385
10523SOL     OW32467   0.061   5.742   6.139
10523SOL    HW132468   0.077   5.649   6.106
10523SOL    HW232469   6.994   5.772   6.114
10524SOL     OW32470   3.016   0.436   3.757
10524SOL    HW132471   3.032   0.516   3.699
10524SOL    HW232472   3.096   0.421   3.815
10525SOL     OW32473   2.495   5.864   5.093
10525SOL    HW132474   2.493   5.907   5.003
10525SOL    HW232475   2.587   5.871   5.132
10526SOL     OW32476   6.984   1.138   2.522
10526SOL    HW132477   0.052   1.105   2.536
10526SOL    HW232478   6.935   1.076   2.460
10527SOL     OW32479   0.897   2.835   4.418
10527SOL    HW132480   0.829   2.769   4.387
10527SOL    HW232481   0.975   2.787   4.459
10528SOL     OW32482   0.193   4.958   5.037
10528SOL    HW132483   0.209   4.864   5.009
10528SOL    HW232484   0.279   5.009   5.037
10529SOL     OW32485   6.689   0.379   3.651
10529SOL    HW132486   6.674   0.321   3.731
10529SOL    HW232487   6.632   0.348   3.576
10530SOL     OW32488   2.911   1.978   6.258
10530SOL    HW132489   2.912   1.906   6.189
10530SOL    HW232490   2.848   2.051   6.230
10531SOL     OW32491   1.665   2.779   4.928
10531SOL    HW132492   1.670   2.876   4.951
10531SOL    HW232493   1.748   2.752   4.879
10532SOL     OW32494   3.819   2.551   5.578
10532SOL    HW132495   3.834   2.624   5.512
10532SOL    HW232496   3.904   2.531   5.627
10533SOL     OW32497   2.776   1.313   5.708
10533SOL    HW132498   2.686   1.354   5.723
10533SOL    HW232499   2.779   1.222   5.750
10534SOL     OW32500   0.312   5.335   0.734
10534SOL    HW132501   0.363   5.421   0.742
10534SOL    HW232502   0.252   5.325   0.813
10535SOL     OW32503   0.480   1.402   2.347
10535SOL    HW132504   0.476   1.414   2.248
10535SOL    HW232505   0.557   1.455   2.383
10536SOL     OW32506   4.692   0.393   2.669
10536SOL    HW132507   4.757   0.322   2.693
10536SOL    HW232508   4.700   0.469   2.733
10537SOL     OW32509   1.536   4.816   2.123
10537SOL    HW132510   1.506   4.911   2.113
10537SOL    HW232511   1.481   4.757   2.063
10538SOL     OW32512   4.565   4.159   0.192
10538SOL    HW132513   4.577   4.249   0.150
10538SOL    HW232514   4.550   4.091   0.120
10539SOL     OW32515   0.559   3.671   6.621
10539SOL    HW132516   0.576   3.714   6.533
10539SOL    HW232517   0.521   3.579   6.607
10540SOL     OW32518   1.810   0.333   6.644
10540SOL    HW132519   1.769   0.374   6.725
10540SOL    HW232520   1.748   0.266   6.605
10541SOL     OW32521   3.789   3.413   0.124
10541SOL    HW132522   3.809   3.405   0.026
10541SOL    HW232523   3.783   3.321   0.164
10542SOL     OW32524   6.896   2.478   0.447
10542SOL    HW132525   6.961   2.544   0.410
10542SOL    HW232526   6.835   2.447   0.375
10543SOL     OW32527   0.620   1.174   5.998
10543SOL    HW132528   0.613   1.262   5.952
10543SOL    HW232529   0.605   1.101   5.932
10544SOL     OW32530   2.088   2.028   1.993
10544SOL    HW132531   2.172   2.054   1.945
10544SOL    HW232532   2.106   2.025   2.092
10545SOL     OW32533   6.512   0.987   2.646
10545SOL    HW132534   6.564   0.951   2.568
10545SOL    HW232535   6.574   1.003   2.723
10546SOL     OW32536   2.542   0.574   4.393
10546SOL    HW132537   2.528   0.503   4.325
10546SOL    HW232538   2.456   0.622   4.410
10547SOL     OW32539   4.270   1.541   1.391
10547SOL    HW132540   4.285   1.589   1.304
10547SOL    HW232541   4.172   1.530   1.407
10548SOL     OW32542   4.973   4.170   4.893
10548SOL    HW132543   4.930   4.117   4.820
10548SOL    HW232544   5.049   4.118   4.931
10549SOL     OW32545   1.186   0.973   1.982
10549SOL    HW132546   1.284   0.954   1.985
10549SOL    HW232547   1.161   1.031   2.060
10550SOL     OW32548   5.238   0.043   4.415
10550SOL    HW132549   5.159   0.078   4.464
10550SOL    HW232550   5.266   0.107   4.344
10551SOL     OW32551   1.066   2.286   6.184
10551SOL    HW132552   0.999   2.216   6.157
10551SOL    HW232553   1.083   2.280   6.282
10552SOL     OW32554   3.235   2.347   5.449
10552SOL    HW132555   3.300   2.419   5.472
10552SOL    HW232556   3.192   2.367   5.361
10553SOL     OW32557   1.481   5.493   0.229
10553SOL    HW132558   1.564   5.439   0.244
10553SOL    HW232559   1.476   5.565   0.299
10554SOL     OW32560   6.764   4.967   6.780
10554SOL    HW132561   6.683   5.013   6.815
10554SOL    HW232562   6.824   5.035   6.737
10555SOL     OW32563   3.774   1.305   1.643
10555SOL    HW132564   3.780   1.364   1.724
10555SOL    HW232565   3.691   1.327   1.592
10556SOL     OW32566   1.794   3.384   4.975
10556SOL    HW132567   1.792   3.342   4.885
10556SOL    HW232568   1.702   3.416   4.999
10557SOL     OW32569   6.797   2.611   3.129
10557SOL    HW132570   6.845   2.617   3.216
10557SOL    HW232571   6.714   2.666   3.133
10558SOL     OW32572   4.558   6.040   5.284
10558SOL    HW132573   4.469   6.078   5.257
10558SOL    HW232574   4.628   6.069   5.219
10559SOL     OW32575   4.335   2.179   0.743
10559SOL    HW132576   4.410   2.245   0.753
10559SOL    HW232577   4.262   2.219   0.687
10560SOL     OW32578   1.096   3.513   4.414
10560SOL    HW132579   1.110   3.424   4.458
10560SOL    HW232580   1.003   3.517   4.376
10561SOL     OW32581   2.085   4.196   6.949
10561SOL    HW132582   2.165   4.153   6.909
10561SOL    HW232583   2.027   4.126   6.992
10562SOL     OW32584   4.172   1.328   0.317
10562SOL    HW132585   4.103   1.364   0.255
10562SOL    HW232586   4.130   1.308   0.406
10563SOL     OW32587   1.326   1.907   5.680
10563SOL    HW132588   1.326   1.896   5.779
10563SOL    HW232589   1.271   1.988   5.655
10564SOL     OW32590   6.123   1.765   1.996
10564SOL    HW132591   6.024   1.761   1.992
10564SOL    HW232592   6.162   1.691   1.941
10565SOL     OW32593   6.042   1.504   5.144
10565SOL    HW132594   6.078   1.576   5.084
10565SOL    HW232595   5.963   1.538   5.194
10566SOL     OW32596   3.778   3.810   5.936
10566SOL    HW132597   3.702   3.776   5.991
10566SOL    HW232598   3.864   3.796   5.986
10567SOL     OW32599   1.698   3.531   4.120
10567SOL    HW132600   1.703   3.539   4.220
10567SOL    HW232601   1.748   3.449   4.091
10568SOL     OW32602   4.877   1.165   2.910
10568SOL    HW132603   4.792   1.215   2.892
10568SOL    HW232604   4.912   1.191   3.000
10569SOL     OW32605   5.918   2.742   4.651
10569SOL    HW132606   5.952   2.836   4.653
10569SOL    HW232607   5.827   2.741   4.609
10570SOL     OW32608   2.192   5.068   2.605
10570SOL    HW132609   2.168   5.150   2.552
10570SOL    HW232610   2.279   5.032   2.572
10571SOL     OW32611   6.483   6.172   2.890
10571SOL    HW132612   6.466   6.106   2.963
10571SOL    HW232613   6.435   6.257   2.909
10572SOL     OW32614   5.532   3.547   1.824
10572SOL    HW132615   5.435   3.567   1.808
10572SOL    HW232616   5.573   3.620   1.878
10573SOL     OW32617   5.961   5.157   4.794
10573SOL    HW132618   5.955   5.150   4.694
10573SOL    HW232619   6.029   5.227   4.818
10574SOL     OW32620   0.281   1.413   3.491
10574SOL    HW132621   0.347   1.412   3.416
10574SOL    HW232622   0.260   1.508   3.515
10575SOL     OW32623   1.219   0.320   5.278
10575SOL    HW132624   1.226   0.224   5.251
10575SOL    HW232625   1.123   0.347   5.279
10576SOL     OW32626   2.158   5.664   4.269
10576SOL    HW132627   2.251   5.688   4.299
10576SOL    HW232628   2.124   5.588   4.325
10577SOL     OW32629   1.906   2.783   6.117
10577SOL    HW132630   1.948   2.711   6.063
10577SOL    HW232631   1.828   2.821   6.067
10578SOL     OW32632   6.054   0.370   5.463
10578SOL    HW132633   6.039   0.299   5.395
10578SOL    HW232634   6.045   0.331   5.555
10579SOL     OW32635   4.427   1.937   0.681
10579SOL    HW132636   4.405   2.019   0.732
10579SOL    HW232637   4.472   1.962   0.595
10580SOL     OW32638   6.928   6.211   0.279
10580SOL    HW132639   7.007   6.263   0.246
10580SOL    HW232640   6.874   6.269   0.341
10581SOL     OW32641   5.784   0.444   3.326
10581SOL    HW132642   5.844   0.387   3.269
10581SOL    HW232643   5.784   0.409   3.420
10582SOL     OW32644   3.731   5.311   6.396
10582SOL    HW132645   3.634   5.336   6.395
10582SOL    HW232646   3.766   5.307   6.303
10583SOL     OW32647   3.957   1.017   6.902
10583SOL    HW132648   3.974   1.103   6.949
10583SOL    HW232649   3.936   0.946   6.969
10584SOL     OW32650   5.545   0.023   1.087
10584SOL    HW132651   5.494   0.107   1.108
10584SOL    HW232652   5.642   0.045   1.077
10585SOL     OW32653   0.590   2.923   6.155
10585SOL    HW132654   0.635   2.846   6.202
10585SOL    HW232655   0.529   2.970   6.219
10586SOL     OW32656   2.936   5.920   5.501
10586SOL    HW132657   3.036   5.912   5.499
10586SOL    HW232658   2.901   5.876   5.584
10587SOL     OW32659   5.943   3.442   1.095
10587SOL    HW132660   6.035   3.417   1.126
10587SOL    HW232661   5.934   3.541   1.092
10588SOL     OW32662   0.652   5.256   3.031
10588SOL    HW132663   0.629   5.182   2.968
10588SOL    HW232664   0.686   5.334   2.980
10589SOL     OW32665   5.500   1.925   3.885
10589SOL    HW132666   5.509   2.001   3.821
10589SOL    HW232667   5.521   1.956   3.977
10590SOL     OW32668   1.245   0.326   3.231
10590SOL    HW132669   1.258   0.331   3.132
10590SOL    HW232670   1.276   0.411   3.273
10591SOL     OW32671   0.940   2.196   6.941
10591SOL    HW132672   0.891   2.115   6.972
10591SOL    HW232673   1.034   2.192   6.972
10592SOL     OW32674   6.165   1.392   0.393
10592SOL    HW132675   6.111   1.319   0.435
10592SOL    HW232676   6.110   1.476   0.390
10593SOL     OW32677   1.897   5.683   1.300
10593SOL    HW132678   1.877   5.765   1.247
10593SOL    HW232679   1.909   5.708   1.396
10594SOL     OW32680   6.713   1.979   3.801
10594SOL    HW132681   6.655   1.938   3.872
10594SOL    HW232682   6.672   2.065   3.771
10595SOL     OW32683   3.953   6.643   6.265
10595SOL    HW132684   3.920   6.736   6.281
10595SOL    HW232685   3.966   6.597   6.353
10596SOL     OW32686   3.787   0.225   2.345
10596SOL    HW132687   3.817   0.130   2.355
10596SOL    HW232688   3.849   0.285   2.395
10597SOL     OW32689   1.868   0.998   4.955
10597SOL    HW132690   1.844   1.012   4.858
10597SOL    HW232691   1.837   1.076   5.009
10598SOL     OW32692   2.140   2.243   6.646
10598SOL    HW132693   2.071   2.217   6.713
10598SOL    HW232694   2.096   2.274   6.562
10599SOL     OW32695   5.779   1.334   6.970
10599SOL    HW132696   5.717   1.300   0.016
10599SOL    HW232697   5.857   1.271   6.962
10600SOL     OW32698   2.502   3.122   5.708
10600SOL    HW132699   2.599   3.099   5.705
10600SOL    HW232700   2.452   3.067   5.641
10601SOL     OW32701   3.119   6.250   6.339
10601SOL    HW132702   3.102   6.333   6.284
10601SOL    HW232703   3.149   6.176   6.278
10602SOL     OW32704   4.512   1.780   1.563
10602SOL    HW132705   4.452   1.700   1.563
10602SOL    HW232706   4.495   1.835   1.645
10603SOL     OW32707   1.734   5.410   4.154
10603SOL    HW132708   1.638   5.395   4.178
10603SOL    HW232709   1.770   5.329   4.108
10604SOL     OW32710   6.611   4.218   4.400
10604SOL    HW132711   6.647   4.186   4.488
10604SOL    HW232712   6.512   4.230   4.407
10605SOL     OW32713   1.455   5.320   6.630
10605SOL    HW132714   1.538   5.305   6.576
10605SOL    HW232715   1.388   5.249   6.608
10606SOL     OW32716   0.635   0.325   1.817
10606SOL    HW132717   0.545   0.350   1.851
10606SOL    HW232718   0.706   0.369   1.872
10607SOL     OW32719   5.408   4.730   0.056
10607SOL    HW132720   5.494   4.680   0.063
10607SOL    HW232721   5.332   4.666   0.048
10608SOL     OW32722   6.414   1.497   4.332
10608SOL    HW132723   6.358   1.579   4.345
10608SOL    HW232724   6.361   1.416   4.359
10609SOL     OW32725   4.082   6.491   0.998
10609SOL    HW132726   4.087   6.525   0.904
10609SOL    HW232727   3.988   6.496   1.031
10610SOL     OW32728   1.085   2.910   5.898
10610SOL    HW132729   1.016   2.877   5.961
10610SOL    HW232730   1.084   2.854   5.815
10611SOL     OW32731   5.740   2.392   6.051
10611SOL    HW132732   5.714   2.378   6.146
10611SOL    HW232733   5.831   2.432   6.047
10612SOL     OW32734   2.023   0.450   6.908
10612SOL    HW132735   2.086   0.440   6.831
10612SOL    HW232736   1.994   0.546   6.915
10613SOL     OW32737   0.663   6.089   5.613
10613SOL    HW132738   0.668   6.082   5.514
10613SOL    HW232739   0.683   6.001   5.654
10614SOL     OW32740   6.603   1.005   4.223
10614SOL    HW132741   6.503   1.008   4.228
10614SOL    HW232742   6.642   1.026   4.313
10615SOL     OW32743   5.346   5.424   5.411
10615SOL    HW132744   5.409   5.382   5.477
10615SOL    HW232745   5.258   5.377   5.415
10616SOL     OW32746   3.402   5.925   6.721
10616SOL    HW132747   3.438   5.943   6.812
10616SOL    HW232748   3.478   5.909   6.657
10617SOL     OW32749   2.030   2.308   0.337
10617SOL    HW132750   2.027   2.399   0.378
10617SOL    HW232751   2.107   2.302   0.274
10618SOL     OW32752   5.946   2.894   0.199
10618SOL    HW132753   5.925   2.866   0.293
10618SOL    HW232754   6.046   2.895   0.186
10619SOL     OW32755   1.306   4.225   4.615
10619SOL    HW132756   1.346   4.288   4.549
10619SOL    HW232757   1.297   4.271   4.704
10620SOL     OW32758   1.518   5.501   4.661
10620SOL    HW132759   1.583   5.520   4.735
10620SOL    HW232760   1.519   5.403   4.641
10621SOL     OW32761   2.059   6.517   7.023
10621SOL    HW132762   1.980   6.455   7.017
10621SOL    HW232763   2.040   6.600   6.971
10622SOL     OW32764   3.934   0.714   1.191
10622SOL    HW132765   3.900   0.682   1.279
10622SOL    HW232766   4.005   0.783   1.205
10623SOL     OW32767   5.802   2.309   3.900
10623SOL    HW132768   5.769   2.279   3.811
10623SOL    HW232769   5.728   2.307   3.967
10624SOL     OW32770   1.593   0.741   4.288
10624SOL    HW132771   1.568   0.646   4.268
10624SOL    HW232772   1.546   0.771   4.371
10625SOL     OW32773   0.422   3.210   0.699
10625SOL    HW132774   0.391   3.116   0.688
10625SOL    HW232775   0.428   3.233   0.796
10626SOL     OW32776   0.649   2.257   1.849
10626SOL    HW132777   0.591   2.287   1.926
10626SOL    HW232778   0.742   2.291   1.862
10627SOL     OW32779   6.168   6.452   3.667
10627SOL    HW132780   6.228   6.373   3.674
10627SOL    HW232781   6.191   6.518   3.738
10628SOL     OW32782   6.389   5.661   5.966
10628SOL    HW132783   6.386   5.600   5.887
10628SOL    HW232784   6.324   5.630   6.035
10629SOL     OW32785   2.299   5.707   5.898
10629SOL    HW132786   2.242   5.635   5.858
10629SOL    HW232787   2.365   5.739   5.829
10630SOL     OW32788   5.982   1.799   3.456
10630SOL    HW132789   5.957   1.830   3.364
10630SOL    HW232790   5.963   1.701   3.463
10631SOL     OW32791   1.104   6.905   3.727
10631SOL    HW132792   1.138   6.975   3.790
10631SOL    HW232793   1.010   6.926   3.702
10632SOL     OW32794   0.255   1.712   4.908
10632SOL    HW132795   0.250   1.647   4.984
10632SOL    HW232796   0.308   1.792   4.936
10633SOL     OW32797   1.842   5.111   1.516
10633SOL    HW132798   1.890   5.181   1.462
10633SOL    HW232799   1.842   5.138   1.612
10634SOL     OW32800   3.800   6.519   1.036
10634SOL    HW132801   3.770   6.471   1.119
10634SOL    HW232802   3.773   6.465   0.956
10635SOL     OW32803   2.290   1.060   1.256
10635SOL    HW132804   2.350   1.066   1.176
10635SOL    HW232805   2.339   1.018   1.332
10636SOL     OW32806   0.880   1.921   1.182
10636SOL    HW132807   0.943   1.871   1.123
10636SOL    HW232808   0.826   1.856   1.236
10637SOL     OW32809   3.142   4.072   4.721
10637SOL    HW132810   3.146   4.008   4.644
10637SOL    HW232811   3.215   4.140   4.712
10638SOL     OW32812   0.263   6.336   5.418
10638SOL    HW132813   0.272   6.238   5.401
10638SOL    HW232814   0.351   6.373   5.449
10639SOL     OW32815   2.066   0.846   5.059
10639SOL    HW132816   1.988   0.895   5.019
10639SOL    HW232817   2.088   0.767   5.002
10640SOL     OW32818   4.505   0.959   6.960
10640SOL    HW132819   4.457   0.881   7.001
10640SOL    HW232820   4.604   0.947   6.974
10641SOL     OW32821   5.902   1.659   0.045
10641SOL    HW132822   5.911   1.563   0.070
10641SOL    HW232823   5.875   1.666   6.973
10642SOL     OW32824   0.269   2.918   1.779
10642SOL    HW132825   0.261   2.887   1.874
10642SOL    HW232826   0.230   2.848   1.718
10643SOL     OW32827   2.467   3.538   5.517
10643SOL    HW132828   2.401   3.463   5.523
10643SOL    HW232829   2.428   3.613   5.464
10644SOL     OW32830   4.387   1.350   3.740
10644SOL    HW132831   4.414   1.378   3.832
10644SOL    HW232832   4.449   1.392   3.673
10645SOL     OW32833   2.758   0.389   4.770
10645SOL    HW132834   2.785   0.293   4.770
10645SOL    HW232835   2.812   0.438   4.702
10646SOL     OW32836   1.154   3.530   6.199
10646SOL    HW132837   1.221   3.484   6.257
10646SOL    HW232838   1.109   3.603   6.250
10647SOL     OW32839   0.030   5.089   0.692
10647SOL    HW132840   7.011   5.146   0.622
10647SOL    HW232841   0.065   5.006   0.649
10648SOL     OW32842   4.498   2.845   6.812
10648SOL    HW132843   4.468   2.822   6.905
10648SOL    HW232844   4.422   2.886   6.762
10649SOL     OW32845   0.016   4.761   5.815
10649SOL    HW132846   6.994   4.735   5.899
10649SOL    HW232847   0.114   4.744   5.825
10650SOL     OW32848   3.120   6.469   3.663
10650SOL    HW132849   3.075   6.555   3.687
10650SOL    HW232850   3.066   6.392   3.696
10651SOL     OW32851   4.719   6.037   6.333
10651SOL    HW132852   4.808   6.082   6.332
10651SOL    HW232853   4.668   6.067   6.414
10652SOL     OW32854   3.123   0.494   6.108
10652SOL    HW132855   3.107   0.417   6.046
10652SOL    HW232856   3.057   0.492   6.183
10653SOL     OW32857   5.299   3.533   4.118
10653SOL    HW132858   5.295   3.526   4.218
10653SOL    HW232859   5.222   3.484   4.078
10654SOL     OW32860   4.090   0.965   0.338
10654SOL    HW132861   4.122   0.966   0.243
10654SOL    HW232862   4.057   1.056   0.362
10655SOL     OW32863   2.928   6.344   1.370
10655SOL    HW132864   2.981   6.409   1.315
10655SOL    HW232865   2.858   6.302   1.313
10656SOL     OW32866   6.374   2.617   6.798
10656SOL    HW132867   6.455   2.562   6.778
10656SOL    HW232868   6.340   2.594   6.889
10657SOL     OW32869   6.234   0.852   0.938
10657SOL    HW132870   6.224   0.826   1.034
10657SOL    HW232871   6.155   0.907   0.910
10658SOL     OW32872   0.129   5.671   4.648
10658SOL    HW132873   0.037   5.634   4.659
10658SOL    HW232874   0.173   5.679   4.737
10659SOL     OW32875   5.990   0.594   0.107
10659SOL    HW132876   5.990   0.546   0.019
10659SOL    HW232877   5.917   0.663   0.107
10660SOL     OW32878   4.460   5.119   5.829
10660SOL    HW132879   4.422   5.130   5.738
10660SOL    HW232880   4.453   5.205   5.879
10661SOL     OW32881   0.415   6.686   2.538
10661SOL    HW132882   0.436   6.633   2.455
10661SOL    HW232883   0.342   6.751   2.518
10662SOL     OW32884   5.637   1.342   0.763
10662SOL    HW132885   5.647   1.436   0.729
10662SOL    HW232886   5.540   1.323   0.779
10663SOL     OW32887   6.852   0.156   0.118
10663SOL    HW132888   6.770   0.163   0.061
10663SOL    HW232889   6.895   0.246   0.125
10664SOL     OW32890   2.137   5.498   0.247
10664SOL    HW132891   2.138   5.552   0.331
10664SOL    HW232892   2.223   5.512   0.197
10665SOL     OW32893   6.506   1.609   1.093
10665SOL    HW132894   6.479   1.635   1.001
10665SOL    HW232895   6.572   1.676   1.129
10666SOL     OW32896   1.675   6.889   0.198
10666SOL    HW132897   1.740   6.900   0.122
10666SOL    HW232898   1.658   6.978   0.239
10667SOL     OW32899   3.338   2.089   5.365
10667SOL    HW132900   3.367   2.026   5.437
10667SOL    HW232901   3.312   2.176   5.405
10668SOL     OW32902   1.307   0.959   5.927
10668SOL    HW132903   1.345   1.019   5.857
10668SOL    HW232904   1.212   0.937   5.904
10669SOL     OW32905   1.188   6.932   7.009
10669SOL    HW132906   1.170   6.833   7.008
10669SOL    HW232907   1.107   6.981   0.013
10670SOL     OW32908   6.356   4.441   5.614
10670SOL    HW132909   6.347   4.528   5.663
10670SOL    HW232910   6.312   4.448   5.525
10671SOL     OW32911   2.093   1.074   3.646
10671SOL    HW132912   2.167   1.134   3.678
10671SOL    HW232913   2.131   0.994   3.601
10672SOL     OW32914   0.398   2.905   1.294
10672SOL    HW132915   0.423   2.850   1.215
10672SOL    HW232916   0.480   2.930   1.345
10673SOL     OW32917   2.700   2.860   5.343
10673SOL    HW132918   2.636   2.923   5.299
10673SOL    HW232919   2.782   2.910   5.371
10674SOL     OW32920   3.710   2.611   1.404
10674SOL    HW132921   3.692   2.519   1.369
10674SOL    HW232922   3.809   2.627   1.403
10675SOL     OW32923   0.354   0.457   5.711
10675SOL    HW132924   0.301   0.503   5.640
10675SOL    HW232925   0.301   0.455   5.796
10676SOL     OW32926   6.712   0.092   6.212
10676SOL    HW132927   6.806   0.064   6.189
10676SOL    HW232928   6.661   0.012   6.244
10677SOL     OW32929   0.218   0.188   0.783
10677SOL    HW132930   0.156   0.263   0.805
10677SOL    HW232931   0.207   0.114   0.850
10678SOL     OW32932   3.059   6.299   3.169
10678SOL    HW132933   3.050   6.392   3.207
10678SOL    HW232934   2.988   6.240   3.208
10679SOL     OW32935   5.255   4.950   4.315
10679SOL    HW132936   5.248   4.880   4.385
10679SOL    HW232937   5.347   4.989   4.316
10680SOL     OW32938   1.120   2.579   3.202
10680SOL    HW132939   1.218   2.561   3.204
10680SOL    HW232940   1.091   2.619   3.290
10681SOL     OW32941   0.411   1.493   6.188
10681SOL    HW132942   0.423   1.423   6.258
10681SOL    HW232943   0.437   1.582   6.226
10682SOL     OW32944   6.876   1.955   2.933
10682SOL    HW132945   6.787   1.948   2.887
10682SOL    HW232946   6.906   1.863   2.959
10683SOL     OW32947   1.825   1.604   4.826
10683SOL    HW132948   1.735   1.559   4.827
10683SOL    HW232949   1.830   1.668   4.750
10684SOL     OW32950   5.844   5.405   0.263
10684SOL    HW132951   5.883   5.497   0.263
10684SOL    HW232952   5.852   5.365   0.172
10685SOL     OW32953   0.215   2.755   2.536
10685SOL    HW132954   0.153   2.833   2.549
10685SOL    HW232955   0.236   2.713   2.624
10686SOL     OW32956   3.312   5.084   0.199
10686SOL    HW132957   3.339   5.157   0.136
10686SOL    HW232958   3.223   5.047   0.171
10687SOL     OW32959   0.057   4.338   3.088
10687SOL    HW132960   6.995   4.381   3.066
10687SOL    HW232961   0.091   4.373   3.175
10688SOL     OW32962   6.095   5.253   2.077
10688SOL    HW132963   6.097   5.236   1.979
10688SOL    HW232964   6.053   5.341   2.095
10689SOL     OW32965   0.328   0.782   2.722
10689SOL    HW132966   0.399   0.734   2.670
10689SOL    HW232967   0.368   0.862   2.766
10690SOL     OW32968   4.665   5.111   1.731
10690SOL    HW132969   4.678   5.056   1.649
10690SOL    HW232970   4.617   5.057   1.801
10691SOL     OW32971   6.898   1.200   1.833
10691SOL    HW132972   6.819   1.139   1.821
10691SOL    HW232973   6.884   1.255   1.916
10692SOL     OW32974   3.665   6.182   3.853
10692SOL    HW132975   3.581   6.128   3.851
10692SOL    HW232976   3.686   6.214   3.760
10693SOL     OW32977   6.668   2.032   1.963
10693SOL    HW132978   6.612   1.956   1.996
10693SOL    HW232979   6.691   2.017   1.867
10694SOL     OW32980   3.618   6.444   0.806
10694SOL    HW132981   3.554   6.517   0.832
10694SOL    HW232982   3.632   6.446   0.707
10695SOL     OW32983   6.877   2.970   3.935
10695SOL    HW132984   6.885   3.068   3.918
10695SOL    HW232985   6.795   2.952   3.990
10696SOL     OW32986   6.636   6.337   1.812
10696SOL    HW132987   6.682   6.352   1.900
10696SOL    HW232988   6.671   6.402   1.744
10697SOL     OW32989   2.765   5.614   3.564
10697SOL    HW132990   2.792   5.673   3.640
10697SOL    HW232991   2.694   5.551   3.595
10698SOL     OW32992   3.123   6.937   3.587
10698SOL    HW132993   3.204   6.953   3.530
10698SOL    HW232994   3.099   7.022   3.635
10699SOL     OW32995   2.268   2.449   3.303
10699SOL    HW132996   2.270   2.464   3.402
10699SOL    HW232997   2.360   2.461   3.266
10700SOL     OW32998   6.778   0.105   1.463
10700SOL    HW132999   6.773   0.006   1.471
10700SOL    HW233000   6.839   0.141   1.534
10701SOL     OW33001   3.608   6.371   0.527
10701SOL    HW133002   3.531   6.309   0.508
10701SOL    HW233003   3.691   6.332   0.488
10702SOL     OW33004   6.762   3.205   1.156
10702SOL    HW133005   6.694   3.198   1.083
10702SOL    HW233006   6.740   3.283   1.215
10703SOL     OW33007   3.914   3.673   3.701
10703SOL    HW133008   3.848   3.607   3.667
10703SOL    HW233009   3.881   3.713   3.787
10704SOL     OW33010   5.164   6.578   1.705
10704SOL    HW133011   5.085   6.636   1.684
10704SOL    HW233012   5.224   6.574   1.626
10705SOL     OW33013   0.138   2.740   6.681
10705SOL    HW133014   0.071   2.670   6.658
10705SOL    HW233015   0.224   2.722   6.633
10706SOL     OW33016   3.398   1.222   1.978
10706SOL    HW133017   3.430   1.311   2.011
10706SOL    HW233018   3.346   1.236   1.893
10707SOL     OW33019   6.053   0.052   6.022
10707SOL    HW133020   5.980   0.080   6.084
10707SOL    HW233021   6.141   0.080   6.060
10708SOL     OW33022   4.636   1.213   1.349
10708SOL    HW133023   4.665   1.259   1.433
10708SOL    HW233024   4.536   1.219   1.340
10709SOL     OW33025   0.505   5.739   5.809
10709SOL    HW133026   0.490   5.647   5.846
10709SOL    HW233027   0.422   5.794   5.823
10710SOL     OW33028   6.323   5.569   3.146
10710SOL    HW133029   6.374   5.490   3.181
10710SOL    HW233030   6.264   5.605   3.219
10711SOL     OW33031   1.720   5.850   4.424
10711SOL    HW133032   1.628   5.888   4.437
10711SOL    HW233033   1.713   5.751   4.412
10712SOL     OW33034   3.692   1.398   4.853
10712SOL    HW133035   3.668   1.481   4.803
10712SOL    HW233036   3.731   1.331   4.789
10713SOL     OW33037   1.105   5.657   1.544
10713SOL    HW133038   1.190   5.618   1.580
10713SOL    HW233039   1.054   5.587   1.495
10714SOL     OW33040   6.878   4.673   5.561
10714SOL    HW133041   6.927   4.697   5.645
10714SOL    HW233042   6.821   4.593   5.577
10715SOL     OW33043   5.789   1.376   4.242
10715SOL    HW133044   5.718   1.392   4.311
10715SOL    HW233045   5.766   1.426   4.158
10716SOL     OW33046   6.177   0.183   3.171
10716SOL    HW133047   6.215   0.178   3.263
10716SOL    HW233048   6.243   0.227   3.110
10717SOL     OW33049   0.188   6.196   1.934
10717SOL    HW133050   0.133   6.122   1.896
10717SOL    HW233051   0.154   6.284   1.900
10718SOL     OW33052   0.007   4.584   6.943
10718SOL    HW133053   7.018   4.490   6.975
10718SOL    HW233054   0.063   4.584   6.861
10719SOL     OW33055   4.473   0.815   2.076
10719SOL    HW133056   4.426   0.902   2.087
10719SOL    HW233057   4.427   0.745   2.131
10720SOL     OW33058   0.508   3.908   0.062
10720SOL    HW133059   0.458   3.845   0.003
10720SOL    HW233060   0.606   3.888   0.058
10721SOL     OW33061   4.663   2.745   4.001
10721SOL    HW133062   4.649   2.701   4.090
10721SOL    HW233063   4.596   2.709   3.936
10722SOL     OW33064   0.358   4.320   0.507
10722SOL    HW133065   0.350   4.358   0.599
10722SOL    HW233066   0.278   4.264   0.486
10723SOL     OW33067   6.280   4.161   0.409
10723SOL    HW133068   6.306   4.231   0.343
10723SOL    HW233069   6.353   4.093   0.415
10724SOL     OW33070   3.442   6.582   5.608
10724SOL    HW133071   3.511   6.544   5.547
10724SOL    HW233072   3.364   6.520   5.614
10725SOL     OW33073   6.898   6.438   5.063
10725SOL    HW133074   6.994   6.438   5.088
10725SOL    HW233075   6.869   6.532   5.045
10726SOL     OW33076   4.960   0.723   4.521
10726SOL    HW133077   4.967   0.774   4.435
10726SOL    HW233078   5.046   0.674   4.537
10727SOL     OW33079   2.241   6.088   0.040
10727SOL    HW133080   2.261   6.060   6.971
10727SOL    HW233081   2.238   6.188   0.045
10728SOL     OW33082   5.581   5.788   3.740
10728SOL    HW133083   5.616   5.696   3.761
10728SOL    HW233084   5.652   5.841   3.694
10729SOL     OW33085   5.898   3.215   3.697
10729SOL    HW133086   5.967   3.198   3.627
10729SOL    HW233087   5.824   3.270   3.659
10730SOL     OW33088   1.724   6.030   2.856
10730SOL    HW133089   1.769   6.043   2.944
10730SOL    HW233090   1.683   6.116   2.826
10731SOL     OW33091   4.745   6.494   6.753
10731SOL    HW133092   4.786   6.422   6.809
10731SOL    HW233093   4.771   6.482   6.657
10732SOL     OW33094   6.031   5.976   3.102
10732SOL    HW133095   6.111   5.939   3.054
10732SOL    HW233096   6.057   6.003   3.195
10733SOL     OW33097   0.388   0.758   6.545
10733SOL    HW133098   0.330   0.810   6.483
10733SOL    HW233099   0.476   0.738   6.500
10734SOL     OW33100   1.054   1.160   4.650
10734SOL    HW133101   1.090   1.119   4.734
10734SOL    HW233102   1.071   1.259   4.651
10735SOL     OW33103   0.447   6.111   1.910
10735SOL    HW133104   0.451   6.015   1.939
10735SOL    HW233105   0.353   6.134   1.886
10736SOL     OW33106   5.539   6.299   4.077
10736SOL    HW133107   5.548   6.398   4.067
10736SOL    HW233108   5.497   6.278   4.166
10737SOL     OW33109   6.482   0.947   2.044
10737SOL    HW133110   6.492   0.918   1.949
10737SOL    HW233111   6.505   0.871   2.105
10738SOL     OW33112   3.916   1.433   1.195
10738SOL    HW133113   3.933   1.461   1.290
10738SOL    HW233114   3.842   1.366   1.193
10739SOL     OW33115   5.801   2.985   3.254
10739SOL    HW133116   5.833   2.922   3.324
10739SOL    HW233117   5.768   3.069   3.298
10740SOL     OW33118   2.308   0.242   5.917
10740SOL    HW133119   2.345   0.257   6.009
10740SOL    HW233120   2.379   0.263   5.849
10741SOL     OW33121   2.435   2.351   3.966
10741SOL    HW133122   2.403   2.442   3.993
10741SOL    HW233123   2.469   2.302   4.046
10742SOL     OW33124   6.162   6.273   2.457
10742SOL    HW133125   6.124   6.295   2.547
10742SOL    HW233126   6.230   6.342   2.433
10743SOL     OW33127   3.148   1.144   5.906
10743SOL    HW133128   3.242   1.161   5.877
10743SOL    HW233129   3.112   1.066   5.855
10744SOL     OW33130   2.098   1.270   0.448
10744SOL    HW133131   2.152   1.205   0.395
10744SOL    HW233132   2.039   1.221   0.512
10745SOL     OW33133   1.411   4.316   2.131
10745SOL    HW133134   1.472   4.296   2.208
10745SOL    HW233135   1.425   4.410   2.101
10746SOL     OW33136   2.029   6.431   6.705
10746SOL    HW133137   1.978   6.495   6.762
10746SOL    HW233138   2.105   6.392   6.758
10747SOL     OW33139   6.371   1.079   4.775
10747SOL    HW133140   6.435   1.084   4.851
10747SOL    HW233141   6.367   1.168   4.728
10748SOL     OW33142   3.550   6.433   1.526
10748SOL    HW133143   3.628   6.387   1.568
10748SOL    HW233144   3.557   6.532   1.541
10749SOL     OW33145   5.841   4.555   1.830
10749SOL    HW133146   5.772   4.483   1.840
10749SOL    HW233147   5.861   4.595   1.920
10750SOL     OW33148   4.143   2.263   4.361
10750SOL    HW133149   4.200   2.342   4.339
10750SOL    HW233150   4.075   2.250   4.288
10751SOL     OW33151   0.580   4.885   5.008
10751SOL    HW133152   0.663   4.902   4.955
10751SOL    HW233153   0.533   4.805   4.970
10752SOL     OW33154   6.387   6.343   0.537
10752SOL    HW133155   6.331   6.260   0.546
10752SOL    HW233156   6.448   6.333   0.458
10753SOL     OW33157   5.182   6.796   4.441
10753SOL    HW133158   5.219   6.888   4.454
10753SOL    HW233159   5.171   6.778   4.343
10754SOL     OW33160   0.726   4.048   2.600
10754SOL    HW133161   0.739   3.949   2.609
10754SOL    HW233162   0.812   4.090   2.572
10755SOL     OW33163   0.121   2.848   1.365
10755SOL    HW133164   0.195   2.874   1.303
10755SOL    HW233165   0.049   2.917   1.361
10756SOL     OW33166   0.673   1.120   0.442
10756SOL    HW133167   0.680   1.218   0.458
10756SOL    HW233168   0.647   1.074   0.527
10757SOL     OW33169   0.012   4.000   2.030
10757SOL    HW133170   6.960   4.064   2.025
10757SOL    HW233171   0.011   3.955   2.119
10758SOL     OW33172   0.570   0.664   6.788
10758SOL    HW133173   0.476   0.661   6.756
10758SOL    HW233174   0.623   0.729   6.733
10759SOL     OW33175   2.840   2.019   5.845
10759SOL    HW133176   2.885   1.931   5.826
10759SOL    HW233177   2.821   2.066   5.759
10760SOL     OW33178   1.360   5.176   0.180
10760SOL    HW133179   1.346   5.259   0.128
10760SOL    HW233180   1.371   5.199   0.277
10761SOL     OW33181   0.668   1.397   5.798
10761SOL    HW133182   0.616   1.341   5.733
10761SOL    HW233183   0.644   1.493   5.784
10762SOL     OW33184   3.035   5.907   6.386
10762SOL    HW133185   3.051   5.962   6.468
10762SOL    HW233186   3.095   5.938   6.313
10763SOL     OW33187   5.309   0.132   3.653
10763SOL    HW133188   5.392   0.114   3.706
10763SOL    HW233189   5.307   0.070   3.574
10764SOL     OW33190   4.720   0.577   4.515
10764SOL    HW133191   4.658   0.555   4.440
10764SOL    HW233192   4.794   0.636   4.481
10765SOL     OW33193   0.284   2.249   2.154
10765SOL    HW133194   0.322   2.279   2.242
10765SOL    HW233195   0.302   2.152   2.141
10766SOL     OW33196   1.841   4.899   7.001
10766SOL    HW133197   1.763   4.883   6.941
10766SOL    HW233198   1.925   4.907   6.946
10767SOL     OW33199   1.499   5.292   0.605
10767SOL    HW133200   1.497   5.272   0.703
10767SOL    HW233201   1.587   5.333   0.582
10768SOL     OW33202   5.427   5.685   0.211
10768SOL    HW133203   5.515   5.661   0.170
10768SOL    HW233204   5.367   5.724   0.141
10769SOL     OW33205   3.437   3.148   4.398
10769SOL    HW133206   3.467   3.190   4.313
10769SOL    HW233207   3.359   3.198   4.434
10770SOL     OW33208   5.792   0.003   3.298
10770SOL    HW133209   5.748   6.938   3.296
10770SOL    HW233210   5.850   0.011   3.380
10771SOL     OW33211   4.911   5.810   5.544
10771SOL    HW133212   4.812   5.825   5.545
10771SOL    HW233213   4.951   5.856   5.466
10772SOL     OW33214   5.574   5.819   2.421
10772SOL    HW133215   5.663   5.806   2.378
10772SOL    HW233216   5.513   5.743   2.399
10773SOL     OW33217   6.942   3.465   1.197
10773SOL    HW133218   7.011   3.394   1.185
10773SOL    HW233219   6.985   3.547   1.234
10774SOL     OW33220   0.752   2.681   0.643
10774SOL    HW133221   0.829   2.630   0.681
10774SOL    HW233222   0.781   2.773   0.619
10775SOL     OW33223   1.334   3.834   0.512
10775SOL    HW133224   1.380   3.905   0.565
10775SOL    HW233225   1.327   3.862   0.416
10776SOL     OW33226   0.884   2.525   3.734
10776SOL    HW133227   0.920   2.618   3.739
10776SOL    HW233228   0.899   2.489   3.642
10777SOL     OW33229   2.927   1.470   1.630
10777SOL    HW133230   2.976   1.544   1.675
10777SOL    HW233231   2.835   1.462   1.669
10778SOL     OW33232   6.229   0.202   3.437
10778SOL    HW133233   6.213   0.119   3.490
10778SOL    HW233234   6.207   0.282   3.494
10779SOL     OW33235   5.520   3.853   5.178
10779SOL    HW133236   5.572   3.835   5.094
10779SOL    HW233237   5.532   3.776   5.241
10780SOL     OW33238   2.154   5.862   4.984
10780SOL    HW133239   2.229   5.797   4.972
10780SOL    HW233240   2.153   5.926   4.906
10781SOL     OW33241   5.668   2.200   5.122
10781SOL    HW133242   5.711   2.114   5.150
10781SOL    HW233243   5.594   2.181   5.058
10782SOL     OW33244   1.466   2.041   5.355
10782SOL    HW133245   1.481   2.063   5.259
10782SOL    HW233246   1.391   2.096   5.391
10783SOL     OW33247   1.181   2.500   3.567
10783SOL    HW133248   1.188   2.402   3.587
10783SOL    HW233249   1.221   2.551   3.643
10784SOL     OW33250   3.463   5.478   2.651
10784SOL    HW133251   3.510   5.486   2.739
10784SOL    HW233252   3.457   5.382   2.625
10785SOL     OW33253   1.503   5.168   2.257
10785SOL    HW133254   1.527   5.103   2.329
10785SOL    HW233255   1.435   5.127   2.196
10786SOL     OW33256   4.282   1.565   2.062
10786SOL    HW133257   4.333   1.650   2.074
10786SOL    HW233258   4.313   1.519   1.979
10787SOL     OW33259   4.677   0.608   3.381
10787SOL    HW133260   4.627   0.683   3.337
10787SOL    HW233261   4.616   0.560   3.444
10788SOL     OW33262   1.486   3.992   0.039
10788SOL    HW133263   1.410   3.945   0.083
10788SOL    HW233264   1.450   4.069   7.011
10789SOL     OW33265   6.537   1.433   1.603
10789SOL    HW133266   6.527   1.398   1.696
10789SOL    HW233267   6.447   1.447   1.562
10790SOL     OW33268   0.521   1.549   5.326
10790SOL    HW133269   0.487   1.458   5.302
10790SOL    HW233270   0.585   1.580   5.256
10791SOL     OW33271   1.262   1.820   4.255
10791SOL    HW133272   1.220   1.903   4.216
10791SOL    HW233273   1.201   1.742   4.242
10792SOL     OW33274   4.041   1.770   2.422
10792SOL    HW133275   3.971   1.748   2.489
10792SOL    HW233276   4.045   1.869   2.408
10793SOL     OW33277   4.503   2.151   4.641
10793SOL    HW133278   4.468   2.132   4.549
10793SOL    HW233279   4.603   2.149   4.639
10794SOL     OW33280   5.178   2.247   0.708
10794SOL    HW133281   5.213   2.300   0.631
10794SOL    HW233282   5.207   2.290   0.794
10795SOL     OW33283   0.254   3.904   3.703
10795SOL    HW133284   0.347   3.916   3.739
10795SOL    HW233285   0.259   3.850   3.618
10796SOL     OW33286   0.397   6.726   5.691
10796SOL    HW133287   0.469   6.790   5.717
10796SOL    HW233288   0.311   6.752   5.736
10797SOL     OW33289   4.224   4.517   6.415
10797SOL    HW133290   4.208   4.608   6.454
10797SOL    HW233291   4.137   4.470   6.402
10798SOL     OW33292   1.589   7.018   6.794
10798SOL    HW133293   1.604   0.081   6.841
10798SOL    HW233294   1.492   7.009   6.770
10799SOL     OW33295   3.546   1.283   2.789
10799SOL    HW133296   3.475   1.253   2.852
10799SOL    HW233297   3.629   1.305   2.840
10800SOL     OW33298   2.005   0.321   5.684
10800SOL    HW133299   2.026   0.242   5.743
10800SOL    HW233300   2.088   0.350   5.637
10801SOL     OW33301   2.262   6.537   5.700
10801SOL    HW133302   2.176   6.587   5.687
10801SOL    HW233303   2.279   6.525   5.798
10802SOL     OW33304   0.783   4.898   4.553
10802SOL    HW133305   0.685   4.903   4.576
10802SOL    HW233306   0.794   4.889   4.454
10803SOL     OW33307   0.382   4.209   4.609
10803SOL    HW133308   0.405   4.114   4.631
10803SOL    HW233309   0.463   4.258   4.578
10804SOL     OW33310   5.173   4.891   1.337
10804SOL    HW133311   5.076   4.866   1.343
10804SOL    HW233312   5.228   4.824   1.387
10805SOL     OW33313   3.850   6.329   0.399
10805SOL    HW133314   3.915   6.329   0.323
10805SOL    HW233315   3.896   6.356   0.483
10806SOL     OW33316   5.788   4.024   6.846
10806SOL    HW133317   5.755   4.046   6.938
10806SOL    HW233318   5.862   3.957   6.852
10807SOL     OW33319   4.738   0.167   3.821
10807SOL    HW133320   4.664   0.105   3.796
10807SOL    HW233321   4.807   0.169   3.748
10808SOL     OW33322   0.589   3.031   7.001
10808SOL    HW133323   0.546   3.063   0.061
10808SOL    HW233324   0.688   3.025   7.014
10809SOL     OW33325   3.322   0.822   3.066
10809SOL    HW133326   3.389   0.895   3.056
10809SOL    HW233327   3.296   0.787   2.976
10810SOL     OW33328   0.715   2.044   6.587
10810SOL    HW133329   0.680   2.131   6.553
10810SOL    HW233330   0.766   1.997   6.515
10811SOL     OW33331   4.863   4.556   5.489
10811SOL    HW133332   4.816   4.525   5.572
10811SOL    HW233333   4.911   4.479   5.447
10812SOL     OW33334   6.668   2.348   2.494
10812SOL    HW133335   6.676   2.382   2.588
10812SOL    HW233336   6.754   2.363   2.446
10813SOL     OW33337   2.418   5.506   2.354
10813SOL    HW133338   2.405   5.579   2.421
10813SOL    HW233339   2.509   5.465   2.366
10814SOL     OW33340   1.815   6.280   5.115
10814SOL    HW133341   1.856   6.277   5.206
10814SOL    HW233342   1.715   6.280   5.123
10815SOL     OW33343   4.548   2.478   3.248
10815SOL    HW133344   4.484   2.404   3.225
10815SOL    HW233345   4.539   2.501   3.345
10816SOL     OW33346   2.175   2.086   2.292
10816SOL    HW133347   2.128   2.135   2.366
10816SOL    HW233348   2.253   2.139   2.261
10817SOL     OW33349   4.971   6.527   2.050
10817SOL    HW133350   4.927   6.538   1.961
10817SOL    HW233351   4.903   6.498   2.117
10818SOL     OW33352   4.610   3.130   6.870
10818SOL    HW133353   4.679   3.125   6.943
10818SOL    HW233354   4.586   3.038   6.841
10819SOL     OW33355   0.588   3.753   6.365
10819SOL    HW133356   0.615   3.737   6.269
10819SOL    HW233357   0.498   3.797   6.367
10820SOL     OW33358   0.460   6.886   4.458
10820SOL    HW133359   0.363   6.863   4.468
10820SOL    HW233360   0.472   6.946   4.379
10821SOL     OW33361   7.015   6.935   0.086
10821SOL    HW133362   0.071   6.931   0.145
10821SOL    HW233363   6.972   0.000   0.095
10822SOL     OW33364   1.518   4.894   0.822
10822SOL    HW133365   1.590   4.891   0.891
10822SOL    HW233366   1.430   4.873   0.864
10823SOL     OW33367   1.327   1.775   1.883
10823SOL    HW133368   1.370   1.755   1.795
10823SOL    HW233369   1.396   1.776   1.955
10824SOL     OW33370   5.593   0.563   3.167
10824SOL    HW133371   5.593   0.509   3.083
10824SOL    HW233372   5.657   0.522   3.232
10825SOL     OW33373   3.569   1.933   0.850
10825SOL    HW133374   3.586   1.844   0.809
10825SOL    HW233375   3.490   1.975   0.805
10826SOL     OW33376   6.679   3.088   1.491
10826SOL    HW133377   6.603   3.025   1.507
10826SOL    HW233378   6.659   3.176   1.535
10827SOL     OW33379   1.048   2.558   4.250
10827SOL    HW133380   1.078   2.591   4.339
10827SOL    HW233381   0.985   2.624   4.208
10828SOL     OW33382   1.498   6.263   6.782
10828SOL    HW133383   1.522   6.217   6.867
10828SOL    HW233384   1.553   6.346   6.772
10829SOL     OW33385   2.513   3.893   1.626
10829SOL    HW133386   2.493   3.900   1.528
10829SOL    HW233387   2.485   3.803   1.660
10830SOL     OW33388   4.919   1.738   3.817
10830SOL    HW133389   4.969   1.717   3.901
10830SOL    HW233390   4.936   1.833   3.791
10831SOL     OW33391   5.133   2.825   3.269
10831SOL    HW133392   5.049   2.793   3.315
10831SOL    HW233393   5.130   2.924   3.259
10832SOL     OW33394   6.874   2.591   2.041
10832SOL    HW133395   6.953   2.530   2.048
10832SOL    HW233396   6.791   2.537   2.026
10833SOL     OW33397   3.078   6.926   4.309
10833SOL    HW133398   3.099   7.019   4.338
10833SOL    HW233399   2.984   6.923   4.274
10834SOL     OW33400   6.997   1.300   5.705
10834SOL    HW133401   6.999   1.400   5.706
10834SOL    HW233402   6.986   1.268   5.610
10835SOL     OW33403   6.816   2.143   2.259
10835SOL    HW133404   6.823   2.150   2.160
10835SOL    HW233405   6.907   2.149   2.300
10836SOL     OW33406   1.336   2.785   0.406
10836SOL    HW133407   1.337   2.884   0.394
10836SOL    HW233408   1.352   2.763   0.503
10837SOL     OW33409   0.797   6.315   1.260
10837SOL    HW133410   0.749   6.393   1.299
10837SOL    HW233411   0.755   6.230   1.291
10838SOL     OW33412   6.422   6.736   1.354
10838SOL    HW133413   6.367   6.800   1.407
10838SOL    HW233414   6.513   6.728   1.396
10839SOL     OW33415   2.153   1.715   0.514
10839SOL    HW133416   2.090   1.720   0.592
10839SOL    HW233417   2.132   1.634   0.460
10840SOL     OW33418   3.780   4.984   2.463
10840SOL    HW133419   3.707   4.939   2.513
10840SOL    HW233420   3.755   5.078   2.443
10841SOL     OW33421   4.967   3.687   5.589
10841SOL    HW133422   4.920   3.689   5.501
10841SOL    HW233423   4.903   3.657   5.660
10842SOL     OW33424   6.820   2.928   0.801
10842SOL    HW133425   6.731   2.898   0.767
10842SOL    HW233426   6.817   2.939   0.900
10843SOL     OW33427   0.262   0.991   1.819
10843SOL    HW133428   0.233   1.072   1.768
10843SOL    HW233429   0.322   0.935   1.761
10844SOL     OW33430   3.609   6.576   3.291
10844SOL    HW133431   3.632   6.670   3.266
10844SOL    HW233432   3.560   6.576   3.378
10845SOL     OW33433   1.346   2.822   0.973
10845SOL    HW133434   1.267   2.767   0.944
10845SOL    HW233435   1.355   2.817   1.073
10846SOL     OW33436   3.654   2.078   1.716
10846SOL    HW133437   3.660   2.158   1.776
10846SOL    HW233438   3.559   2.064   1.689
10847SOL     OW33439   3.613   2.664   5.718
10847SOL    HW133440   3.550   2.693   5.646
10847SOL    HW233441   3.694   2.623   5.677
10848SOL     OW33442   1.380   1.473   0.674
10848SOL    HW133443   1.393   1.461   0.576
10848SOL    HW233444   1.355   1.385   0.715
10849SOL     OW33445   2.615   4.999   4.271
10849SOL    HW133446   2.535   4.954   4.232
10849SOL    HW233447   2.688   4.931   4.284
10850SOL     OW33448   5.560   0.913   1.740
10850SOL    HW133449   5.558   1.012   1.750
10850SOL    HW233450   5.653   0.880   1.755
10851SOL     OW33451   4.100   2.395   6.166
10851SOL    HW133452   4.156   2.313   6.167
10851SOL    HW233453   4.143   2.466   6.223
10852SOL     OW33454   0.469   6.590   6.110
10852SOL    HW133455   0.469   6.558   6.016
10852SOL    HW233456   0.399   6.660   6.122
10853SOL     OW33457   1.944   1.233   4.713
10853SOL    HW133458   2.039   1.211   4.692
10853SOL    HW233459   1.938   1.273   4.804
10854SOL     OW33460   0.314   6.192   0.473
10854SOL    HW133461   0.342   6.259   0.403
10854SOL    HW233462   0.392   6.133   0.494
10855SOL     OW33463   1.527   6.039   1.504
10855SOL    HW133464   1.535   6.124   1.557
10855SOL    HW233465   1.579   5.966   1.549
10856SOL     OW33466   5.823   0.317   6.401
10856SOL    HW133467   5.843   0.240   6.340
10856SOL    HW233468   5.788   0.283   6.488
10857SOL     OW33469   6.037   0.493   4.782
10857SOL    HW133470   6.042   0.588   4.813
10857SOL    HW233471   5.955   0.480   4.726
10858SOL     OW33472   2.419   2.164   0.002
10858SOL    HW133473   2.495   2.102   0.022
10858SOL    HW233474   2.431   2.205   6.937
10859SOL     OW33475   0.815   5.375   2.369
10859SOL    HW133476   0.880   5.318   2.319
10859SOL    HW233477   0.773   5.441   2.306
10860SOL     OW33478   5.821   3.282   0.919
10860SOL    HW133479   5.881   3.357   0.948
10860SOL    HW233480   5.852   3.196   0.960
10861SOL     OW33481   3.551   2.772   1.868
10861SOL    HW133482   3.591   2.806   1.783
10861SOL    HW233483   3.552   2.672   1.868
10862SOL     OW33484   3.599   3.155   5.843
10862SOL    HW133485   3.664   3.185   5.774
10862SOL    HW233486   3.542   3.233   5.870
10863SOL     OW33487   2.637   0.983   3.055
10863SOL    HW133488   2.637   0.885   3.071
10863SOL    HW233489   2.557   1.024   3.100
10864SOL     OW33490   3.085   4.526   1.658
10864SOL    HW133491   3.029   4.478   1.726
10864SOL    HW233492   3.049   4.509   1.567
10865SOL     OW33493   3.835   1.255   2.550
10865SOL    HW133494   3.884   1.246   2.637
10865SOL    HW233495   3.825   1.164   2.508
10866SOL     OW33496   6.945   3.489   2.828
10866SOL    HW133497   6.895   3.487   2.741
10866SOL    HW233498   6.941   3.398   2.870
10867SOL     OW33499   4.457   3.296   0.647
10867SOL    HW133500   4.473   3.274   0.743
10867SOL    HW233501   4.484   3.218   0.590
10868SOL     OW33502   1.596   0.524   5.218
10868SOL    HW133503   1.588   0.568   5.129
10868SOL    HW233504   1.579   0.426   5.208
10869NA      NA33505   0.205   1.564   6.007
10870NA      NA33506   4.499   4.506   5.190
10871NA      NA33507   1.354   5.153   2.978
10872NA      NA33508   5.974   3.953   3.324
10873NA      NA33509   3.714   2.386   5.446
10874NA      NA33510   2.352   5.078   0.308
10875NA      NA33511   1.363   5.389   6.860
10876NA      NA33512   3.729   4.331   0.881
10877NA      NA33513   4.275   4.847   0.488
10878NA      NA33514   3.447   0.941   6.663
10879NA      NA33515   5.600   0.204   1.653
10880NA      NA33516   2.384   6.636   5.259
10881NA      NA33517   4.101   5.350   1.448
10882NA      NA33518   3.643   3.234   6.414
   7.02492   7.02492   7.02492
