Generated by trjconv : CNT in water t= 452.00000
33518
    1C        C    1   2.843   2.767   4.747
    1C        C    2   2.895   2.717   4.868
    1C        C    3   2.841   2.773   4.984
    1C        C    4   2.848   2.777   4.257
    1C        C    5   2.897   2.727   4.380
    1C        C    6   2.844   2.771   4.503
    1C        C    7   3.013   2.644   4.627
    1C        C    8   2.895   2.720   4.624
    1C        C    9   3.074   2.601   4.747
    1C        C   10   3.007   2.631   4.868
    1C        C   11   3.183   2.493   4.979
    1C        C   12   3.060   2.560   4.976
    1C        C   13   2.846   2.768   3.770
    1C        C   14   2.897   2.718   3.892
    1C        C   15   2.848   2.769   4.014
    1C        C   16   3.018   2.644   4.139
    1C        C   17   2.901   2.724   4.137
    1C        C   18   3.080   2.614   4.262
    1C        C   19   3.015   2.649   4.383
    1C        C   20   3.209   2.564   4.504
    1C        C   21   3.076   2.611   4.505
    1C        C   22   3.277   2.536   4.624
    1C        C   23   3.206   2.547   4.746
    1C        C   24   3.411   2.485   4.865
    1C        C   25   3.269   2.504   4.866
    1C        C   26   3.489   2.477   4.982
    1C        C   27   2.845   2.764   3.282
    1C        C   28   2.901   2.723   3.405
    1C        C   29   2.849   2.771   3.527
    1C        C   30   3.015   2.638   3.648
    1C        C   31   2.899   2.719   3.649
    1C        C   32   3.077   2.606   3.771
    1C        C   33   3.014   2.639   3.893
    1C        C   34   3.208   2.558   4.015
    1C        C   35   3.076   2.606   4.016
    1C        C   36   3.277   2.537   4.137
    1C        C   37   3.211   2.563   4.260
    1C        C   38   3.416   2.512   4.379
    1C        C   39   3.279   2.544   4.383
    1C        C   40   3.487   2.504   4.501
    1C        C   41   3.415   2.508   4.623
    1C        C   42   3.628   2.478   4.745
    1C        C   43   3.486   2.488   4.744
    1C        C   44   3.703   2.483   4.864
    1C        C   45   3.628   2.476   4.982
    1C        C   46   2.837   2.755   2.790
    1C        C   47   2.892   2.711   2.913
    1C        C   48   2.844   2.761   3.036
    1C        C   49   3.019   2.645   3.161
    1C        C   50   2.898   2.719   3.159
    1C        C   51   3.081   2.609   3.283
    1C        C   52   3.018   2.644   3.404
    1C        C   53   3.210   2.553   3.527
    1C        C   54   3.080   2.608   3.526
    1C        C   55   3.276   2.533   3.650
    1C        C   56   3.209   2.554   3.772
    1C        C   57   3.418   2.515   3.894
    1C        C   58   3.279   2.539   3.894
    1C        C   59   3.487   2.509   4.017
    1C        C   60   3.416   2.513   4.139
    1C        C   61   3.629   2.495   4.262
    1C        C   62   3.488   2.496   4.259
    1C        C   63   3.701   2.503   4.383
    1C        C   64   3.628   2.505   4.504
    1C        C   65   3.833   2.546   4.623
    1C        C   66   3.699   2.502   4.626
    1C        C   67   3.903   2.564   4.744
    1C        C   68   3.836   2.528   4.863
    1C        C   69   4.049   2.586   4.974
    1C        C   70   3.921   2.529   4.974
    1C        C   71   2.824   2.734   2.305
    1C        C   72   2.883   2.693   2.427
    1C        C   73   2.832   2.745   2.548
    1C        C   74   3.008   2.626   2.673
    1C        C   75   2.891   2.704   2.669
    1C        C   76   3.073   2.598   2.795
    1C        C   77   3.011   2.635   2.917
    1C        C   78   3.207   2.549   3.037
    1C        C   79   3.077   2.606   3.038
    1C        C   80   3.275   2.533   3.159
    1C        C   81   3.210   2.553   3.283
    1C        C   82   3.418   2.506   3.401
    1C        C   83   3.280   2.535   3.405
    1C        C   84   3.485   2.498   3.525
    1C        C   85   3.416   2.511   3.648
    1C        C   86   3.627   2.507   3.769
    1C        C   87   3.486   2.504   3.770
    1C        C   88   3.694   2.513   3.893
    1C        C   89   3.628   2.508   4.017
    1C        C   90   3.835   2.550   4.136
    1C        C   91   3.698   2.514   4.140
    1C        C   92   3.903   2.571   4.257
    1C        C   93   3.836   2.546   4.379
    1C        C   94   4.027   2.636   4.500
    1C        C   95   3.903   2.568   4.502
    1C        C   96   4.090   2.672   4.621
    1C        C   97   4.030   2.628   4.741
    1C        C   98   4.189   2.769   4.859
    1C        C   99   4.101   2.656   4.861
    1C        C  100   4.214   2.843   4.975
    1C        C  101   2.816   2.727   2.068
    1C        C  102   2.990   2.591   2.190
    1C        C  103   2.875   2.677   2.185
    1C        C  104   3.059   2.566   2.311
    1C        C  105   3.002   2.616   2.430
    1C        C  106   3.200   2.534   2.551
    1C        C  107   3.070   2.589   2.551
    1C        C  108   3.271   2.520   2.672
    1C        C  109   3.202   2.541   2.794
    1C        C  110   3.412   2.497   2.912
    1C        C  111   3.273   2.522   2.915
    1C        C  112   3.482   2.490   3.034
    1C        C  113   3.413   2.503   3.157
    1C        C  114   3.627   2.497   3.278
    1C        C  115   3.485   2.492   3.278
    1C        C  116   3.693   2.511   3.402
    1C        C  117   3.626   2.502   3.526
    1C        C  118   3.836   2.539   3.644
    1C        C  119   3.698   2.507   3.647
    1C        C  120   3.900   2.565   3.767
    1C        C  121   3.832   2.546   3.890
    1C        C  122   4.023   2.637   4.012
    1C        C  123   3.899   2.570   4.012
    1C        C  124   4.086   2.674   4.133
    1C        C  125   4.030   2.634   4.257
    1C        C  126   4.197   2.765   4.375
    1C        C  127   4.088   2.674   4.379
    1C        C  128   4.242   2.824   4.495
    1C        C  129   4.193   2.769   4.616
    1C        C  130   4.326   2.934   4.743
    1C        C  131   4.244   2.818   4.738
    1C        C  132   4.362   3.000   4.863
    1C        C  133   4.283   2.964   4.973
    1C        C  134   3.175   2.477   2.080
    1C        C  135   3.040   2.515   2.080
    1C        C  136   3.262   2.486   2.189
    1C        C  137   3.193   2.518   2.308
    1C        C  138   3.405   2.484   2.427
    1C        C  139   3.265   2.506   2.429
    1C        C  140   3.480   2.486   2.547
    1C        C  141   3.410   2.499   2.669
    1C        C  142   3.624   2.488   2.788
    1C        C  143   3.483   2.490   2.790
    1C        C  144   3.692   2.501   2.912
    1C        C  145   3.623   2.491   3.035
    1C        C  146   3.835   2.533   3.155
    1C        C  147   3.697   2.501   3.155
    1C        C  148   3.901   2.557   3.278
    1C        C  149   3.832   2.538   3.400
    1C        C  150   4.029   2.621   3.522
    1C        C  151   3.902   2.558   3.521
    1C        C  152   4.087   2.663   3.644
    1C        C  153   4.026   2.628   3.766
    1C        C  154   4.189   2.763   3.888
    1C        C  155   4.081   2.673   3.889
    1C        C  156   4.238   2.814   4.010
    1C        C  157   4.197   2.762   4.135
    1C        C  158   4.339   2.923   4.252
    1C        C  159   4.255   2.810   4.254
    1C        C  160   4.377   2.984   4.374
    1C        C  161   4.331   2.933   4.498
    1C        C  162   4.437   3.115   4.619
    1C        C  163   4.369   2.991   4.621
    1C        C  164   4.467   3.183   4.739
    1C        C  165   4.438   3.119   4.861
    1C        C  166   4.515   3.319   4.975
    1C        C  167   4.480   3.185   4.978
    1C        C  168   3.476   2.438   2.072
    1C        C  169   3.400   2.456   2.188
    1C        C  170   3.618   2.455   2.308
    1C        C  171   3.476   2.460   2.307
    1C        C  172   3.692   2.487   2.424
    1C        C  173   3.621   2.487   2.546
    1C        C  174   3.831   2.535   2.665
    1C        C  175   3.694   2.501   2.666
    1C        C  176   3.897   2.558   2.788
    1C        C  177   3.827   2.542   2.910
    1C        C  178   4.021   2.627   3.031
    1C        C  179   3.896   2.561   3.031
    1C        C  180   4.081   2.666   3.152
    1C        C  181   4.025   2.625   3.275
    1C        C  182   4.192   2.751   3.399
    1C        C  183   4.087   2.657   3.398
    1C        C  184   4.242   2.804   3.521
    1C        C  185   4.193   2.757   3.644
    1C        C  186   4.338   2.914   3.765
    1C        C  187   4.245   2.808   3.765
    1C        C  188   4.377   2.976   3.886
    1C        C  189   4.331   2.920   4.008
    1C        C  190   4.443   3.104   4.128
    1C        C  191   4.373   2.981   4.128
    1C        C  192   4.472   3.170   4.250
    1C        C  193   4.443   3.108   4.374
    1C        C  194   4.505   3.313   4.493
    1C        C  195   4.463   3.178   4.495
    1C        C  196   4.520   3.386   4.613
    1C        C  197   4.508   3.319   4.736
    1C        C  198   4.556   3.533   4.850
    1C        C  199   4.528   3.393   4.856
    1C        C  200   4.582   3.618   4.962
    1C        C  201   3.615   2.419   2.075
    1C        C  202   3.828   2.509   2.181
    1C        C  203   3.694   2.458   2.188
    1C        C  204   3.898   2.539   2.301
    1C        C  205   3.829   2.520   2.422
    1C        C  206   4.021   2.621   2.542
    1C        C  207   3.896   2.555   2.542
    1C        C  208   4.081   2.661   2.663
    1C        C  209   4.023   2.622   2.786
    1C        C  210   4.195   2.746   2.908
    1C        C  211   4.083   2.659   2.908
    1C        C  212   4.247   2.796   3.029
    1C        C  213   4.197   2.748   3.152
    1C        C  214   4.326   2.911   3.272
    1C        C  215   4.241   2.799   3.276
    1C        C  216   4.365   2.970   3.394
    1C        C  217   4.331   2.914   3.519
    1C        C  218   4.433   3.099   3.639
    1C        C  219   4.374   2.971   3.641
    1C        C  220   4.460   3.166   3.760
    1C        C  221   4.441   3.102   3.885
    1C        C  222   4.502   3.306   4.004
    1C        C  223   4.471   3.168   4.005
    1C        C  224   4.516   3.377   4.126
    1C        C  225   4.503   3.307   4.248
    1C        C  226   4.517   3.522   4.366
    1C        C  227   4.510   3.381   4.369
    1C        C  228   4.522   3.596   4.487
    1C        C  229   4.531   3.527   4.610
    1C        C  230   4.510   3.743   4.726
    1C        C  231   4.539   3.604   4.728
    1C        C  232   4.498   3.820   4.844
    1C        C  233   4.551   3.754   4.955
    1C        C  234   4.018   2.604   2.062
    1C        C  235   3.893   2.542   2.062
    1C        C  236   4.081   2.651   2.178
    1C        C  237   4.021   2.610   2.299
    1C        C  238   4.200   2.733   2.418
    1C        C  239   4.085   2.649   2.419
    1C        C  240   4.249   2.787   2.539
    1C        C  241   4.195   2.744   2.662
    1C        C  242   4.336   2.902   2.784
    1C        C  243   4.247   2.792   2.785
    1C        C  244   4.374   2.965   2.904
    1C        C  245   4.332   2.909   3.026
    1C        C  246   4.431   3.094   3.148
    1C        C  247   4.368   2.968   3.149
    1C        C  248   4.453   3.160   3.271
    1C        C  249   4.427   3.097   3.395
    1C        C  250   4.489   3.302   3.513
    1C        C  251   4.453   3.165   3.515
    1C        C  252   4.506   3.371   3.636
    1C        C  253   4.496   3.303   3.759
    1C        C  254   4.520   3.515   3.875
    1C        C  255   4.510   3.374   3.881
    1C        C  256   4.519   3.586   3.997
    1C        C  257   4.522   3.518   4.121
    1C        C  258   4.497   3.730   4.242
    1C        C  259   4.516   3.590   4.243
    1C        C  260   4.476   3.802   4.362
    1C        C  261   4.495   3.734   4.484
    1C        C  262   4.428   3.939   4.605
    1C        C  263   4.480   3.808   4.604
    1C        C  264   4.402   4.011   4.724
    1C        C  265   4.437   3.948   4.845
    1C        C  266   4.320   4.130   4.956
    1C        C  267   4.394   4.012   4.962
    1C        C  268   4.257   2.777   2.057
    1C        C  269   4.198   2.730   2.175
    1C        C  270   4.339   2.891   2.297
    1C        C  271   4.254   2.777   2.296
    1C        C  272   4.377   2.954   2.417
    1C        C  273   4.340   2.895   2.540
    1C        C  274   4.444   3.083   2.659
    1C        C  275   4.374   2.960   2.661
    1C        C  276   4.473   3.151   2.779
    1C        C  277   4.442   3.089   2.903
    1C        C  278   4.499   3.294   3.023
    1C        C  279   4.461   3.158   3.025
    1C        C  280   4.513   3.364   3.145
    1C        C  281   4.494   3.296   3.267
    1C        C  282   4.515   3.507   3.386
    1C        C  283   4.507   3.367   3.389
    1C        C  284   4.512   3.578   3.508
    1C        C  285   4.512   3.512   3.633
    1C        C  286   4.493   3.726   3.751
    1C        C  287   4.512   3.586   3.753
    1C        C  288   4.482   3.793   3.875
    1C        C  289   4.496   3.725   3.999
    1C        C  290   4.432   3.930   4.116
    1C        C  291   4.478   3.797   4.119
    1C        C  292   4.400   3.997   4.236
    1C        C  293   4.426   3.934   4.360
    1C        C  294   4.330   4.125   4.477
    1C        C  295   4.400   4.002   4.482
    1C        C  296   4.284   4.186   4.596
    1C        C  297   4.328   4.132   4.718
    1C        C  298   4.201   4.313   4.837
    1C        C  299   4.283   4.195   4.838
    1C        C  300   4.168   4.398   4.947
    1C        C  301   4.346   2.884   2.058
    1C        C  302   4.470   3.064   2.177
    1C        C  303   4.391   2.945   2.176
    1C        C  304   4.483   3.142   2.295
    1C        C  305   4.444   3.079   2.416
    1C        C  306   4.504   3.284   2.535
    1C        C  307   4.472   3.147   2.536
    1C        C  308   4.522   3.358   2.654
    1C        C  309   4.504   3.289   2.776
    1C        C  310   4.522   3.500   2.898
    1C        C  311   4.512   3.359   2.898
    1C        C  312   4.519   3.574   3.019
    1C        C  313   4.518   3.505   3.142
    1C        C  314   4.492   3.717   3.264
    1C        C  315   4.512   3.577   3.263
    1C        C  316   4.474   3.788   3.385
    1C        C  317   4.491   3.718   3.506
    1C        C  318   4.428   3.923   3.628
    1C        C  319   4.474   3.790   3.627
    1C        C  320   4.393   3.986   3.750
    1C        C  321   4.426   3.922   3.871
    1C        C  322   4.321   4.109   3.989
    1C        C  323   4.398   3.990   3.992
    1C        C  324   4.281   4.168   4.111
    1C        C  325   4.327   4.118   4.234
    1C        C  326   4.187   4.280   4.352
    1C        C  327   4.289   4.182   4.354
    1C        C  328   4.135   4.332   4.472
    1C        C  329   4.187   4.289   4.596
    1C        C  330   4.026   4.435   4.711
    1C        C  331   4.140   4.350   4.714
    1C        C  332   3.969   4.490   4.828
    1C        C  333   4.051   4.475   4.940
    1C        C  334   4.561   3.263   2.061
    1C        C  335   4.538   3.125   2.067
    1C        C  336   4.535   3.346   2.171
    1C        C  337   4.511   3.281   2.294
    1C        C  338   4.523   3.496   2.411
    1C        C  339   4.522   3.354   2.414
    1C        C  340   4.519   3.569   2.532
    1C        C  341   4.525   3.499   2.654
    1C        C  342   4.489   3.708   2.772
    1C        C  343   4.516   3.570   2.776
    1C        C  344   4.479   3.781   2.893
    1C        C  345   4.492   3.712   3.016
    1C        C  346   4.430   3.914   3.138
    1C        C  347   4.473   3.779   3.138
    1C        C  348   4.399   3.983   3.258
    1C        C  349   4.429   3.922   3.382
    1C        C  350   4.317   4.100   3.501
    1C        C  351   4.400   3.985   3.505
    1C        C  352   4.271   4.158   3.622
    1C        C  353   4.317   4.105   3.744
    1C        C  354   4.171   4.258   3.866
    1C        C  355   4.274   4.161   3.867
    1C        C  356   4.120   4.308   3.988
    1C        C  357   4.180   4.267   4.109
    1C        C  358   4.011   4.397   4.227
    1C        C  359   4.130   4.322   4.230
    1C        C  360   3.953   4.440   4.348
    1C        C  361   4.018   4.411   4.470
    1C        C  362   3.827   4.510   4.591
    1C        C  363   3.958   4.456   4.590
    1C        C  364   3.761   4.551   4.709
    1C        C  365   3.837   4.541   4.828
    1C        C  366   3.628   4.586   4.951
    1C        C  367   3.766   4.566   4.946
    1C        C  368   4.510   3.562   2.050
    1C        C  369   4.524   3.487   2.167
    1C        C  370   4.502   3.702   2.285
    1C        C  371   4.522   3.563   2.287
    1C        C  372   4.485   3.776   2.404
    1C        C  373   4.504   3.709   2.527
    1C        C  374   4.421   3.906   2.647
    1C        C  375   4.476   3.776   2.648
    1C        C  376   4.400   3.975   2.769
    1C        C  377   4.433   3.914   2.892
    1C        C  378   4.324   4.095   3.010
    1C        C  379   4.402   3.977   3.015
    1C        C  380   4.278   4.153   3.130
    1C        C  381   4.318   4.098   3.254
    1C        C  382   4.175   4.253   3.376
    1C        C  383   4.274   4.152   3.377
    1C        C  384   4.121   4.303   3.496
    1C        C  385   4.174   4.261   3.620
    1C        C  386   4.003   4.385   3.741
    1C        C  387   4.121   4.306   3.743
    1C        C  388   3.940   4.419   3.863
    1C        C  389   4.004   4.389   3.985
    1C        C  390   3.816   4.486   4.108
    1C        C  391   3.945   4.430   4.106
    1C        C  392   3.750   4.510   4.231
    1C        C  393   3.823   4.495   4.351
    1C        C  394   3.616   4.551   4.473
    1C        C  395   3.754   4.524   4.471
    1C        C  396   3.547   4.568   4.595
    1C        C  397   3.621   4.567   4.715
    1C        C  398   3.410   4.549   4.838
    1C        C  399   3.549   4.572   4.836
    1C        C  400   3.341   4.522   4.957
    1C        C  401   4.504   3.701   2.049
    1C        C  402   4.454   3.913   2.166
    1C        C  403   4.489   3.777   2.166
    1C        C  404   4.419   3.980   2.286
    1C        C  405   4.438   3.909   2.406
    1C        C  406   4.327   4.095   2.524
    1C        C  407   4.398   3.974   2.526
    1C        C  408   4.282   4.152   2.645
    1C        C  409   4.322   4.093   2.767
    1C        C  410   4.176   4.247   2.887
    1C        C  411   4.278   4.150   2.889
    1C        C  412   4.121   4.294   3.009
    1C        C  413   4.176   4.252   3.132
    1C        C  414   4.001   4.372   3.251
    1C        C  415   4.120   4.296   3.253
    1C        C  416   3.940   4.411   3.372
    1C        C  417   4.002   4.378   3.495
    1C        C  418   3.810   4.468   3.619
    1C        C  419   3.941   4.413   3.617
    1C        C  420   3.742   4.489   3.740
    1C        C  421   3.808   4.468   3.864
    1C        C  422   3.607   4.530   3.984
    1C        C  423   3.746   4.503   3.986
    1C        C  424   3.540   4.541   4.108
    1C        C  425   3.611   4.537   4.230
    1C        C  426   3.401   4.549   4.355
    1C        C  427   3.542   4.552   4.352
    1C        C  428   3.331   4.545   4.477
    1C        C  429   3.405   4.562   4.596
    1C        C  430   3.196   4.521   4.722
    1C        C  431   3.335   4.551   4.718
    1C        C  432   3.124   4.491   4.841
    1C        C  433   3.206   4.492   4.954
    1C        C  434   4.388   4.124   2.055
    1C        C  435   4.440   3.993   2.052
    1C        C  436   4.302   4.162   2.163
    1C        C  437   4.337   4.097   2.284
    1C        C  438   4.182   4.250   2.399
    1C        C  439   4.286   4.154   2.402
    1C        C  440   4.126   4.293   2.521
    1C        C  441   4.179   4.249   2.644
    1C        C  442   3.999   4.365   2.765
    1C        C  443   4.120   4.291   2.765
    1C        C  444   3.938   4.404   2.886
    1C        C  445   4.003   4.371   3.007
    1C        C  446   3.811   4.465   3.127
    1C        C  447   3.939   4.405   3.128
    1C        C  448   3.746   4.486   3.251
    1C        C  449   3.809   4.464   3.375
    1C        C  450   3.606   4.525   3.496
    1C        C  451   3.743   4.494   3.497
    1C        C  452   3.537   4.539   3.619
    1C        C  453   3.608   4.534   3.741
    1C        C  454   3.396   4.545   3.865
    1C        C  455   3.537   4.547   3.863
    1C        C  456   3.330   4.534   3.989
    1C        C  457   3.399   4.543   4.112
    1C        C  458   3.192   4.504   4.237
    1C        C  459   3.328   4.540   4.234
    1C        C  460   3.124   4.487   4.360
    1C        C  461   3.194   4.509   4.480
    1C        C  462   2.995   4.440   4.604
    1C        C  463   3.125   4.494   4.603
    1C        C  464   2.926   4.407   4.722
    1C        C  465   2.989   4.444   4.844
    1C        C  466   2.800   4.336   4.959
    1C        C  467   2.911   4.421   4.962
    1C        C  468   4.121   4.281   2.039
    1C        C  469   4.191   4.252   2.157
    1C        C  470   4.006   4.370   2.278
    1C        C  471   4.129   4.299   2.277
    1C        C  472   3.944   4.405   2.400
    1C        C  473   4.008   4.372   2.521
    1C        C  474   3.810   4.454   2.642
    1C        C  475   3.939   4.398   2.641
    1C        C  476   3.741   4.482   2.762
    1C        C  477   3.810   4.464   2.884
    1C        C  478   3.603   4.511   3.010
    1C        C  479   3.742   4.487   3.006
    1C        C  480   3.534   4.522   3.133
    1C        C  481   3.608   4.515   3.253
    1C        C  482   3.394   4.525   3.377
    1C        C  483   3.535   4.527   3.374
    1C        C  484   3.324   4.525   3.499
    1C        C  485   3.396   4.534   3.620
    1C        C  486   3.187   4.502   3.745
    1C        C  487   3.326   4.530   3.743
    1C        C  488   3.124   4.483   3.870
    1C        C  489   3.192   4.501   3.992
    1C        C  490   2.998   4.419   4.115
    1C        C  491   3.124   4.483   4.115
    1C        C  492   2.939   4.385   4.239
    1C        C  493   2.995   4.430   4.360
    1C        C  494   2.831   4.301   4.480
    1C        C  495   2.934   4.397   4.484
    1C        C  496   2.777   4.253   4.602
    1C        C  497   2.815   4.317   4.722
    1C        C  498   2.666   4.164   4.842
    1C        C  499   2.752   4.276   4.841
    1C        C  500   2.596   4.118   4.955
    1C        C  501   4.004   4.357   2.040
    1C        C  502   3.812   4.460   2.158
    1C        C  503   3.940   4.400   2.157
    1C        C  504   3.744   4.484   2.279
    1C        C  505   3.814   4.460   2.399
    1C        C  506   3.604   4.507   2.522
    1C        C  507   3.742   4.474   2.519
    1C        C  508   3.533   4.513   2.644
    1C        C  509   3.602   4.508   2.767
    1C        C  510   3.391   4.525   2.889
    1C        C  511   3.532   4.522   2.889
    1C        C  512   3.319   4.521   3.011
    1C        C  513   3.393   4.528   3.131
    1C        C  514   3.186   4.496   3.255
    1C        C  515   3.324   4.527   3.254
    1C        C  516   3.117   4.477   3.378
    1C        C  517   3.184   4.501   3.500
    1C        C  518   2.993   4.415   3.625
    1C        C  519   3.119   4.479   3.623
    1C        C  520   2.938   4.377   3.749
    1C        C  521   2.999   4.418   3.870
    1C        C  522   2.834   4.286   3.994
    1C        C  523   2.939   4.381   3.992
    1C        C  524   2.789   4.235   4.118
    1C        C  525   2.833   4.291   4.239
    1C        C  526   2.698   4.129   4.365
    1C        C  527   2.779   4.245   4.361
    1C        C  528   2.656   4.071   4.486
    1C        C  529   2.693   4.140   4.604
    1C        C  530   2.591   3.955   4.732
    1C        C  531   2.646   4.086   4.726
    1C        C  532   2.546   3.898   4.854
    1C        C  533   2.530   3.994   4.959
    1C        C  534   3.619   4.555   2.042
    1C        C  535   3.751   4.506   2.041
    1C        C  536   3.534   4.534   2.155
    1C        C  537   3.605   4.518   2.277
    1C        C  538   3.394   4.521   2.401
    1C        C  539   3.535   4.521   2.400
    1C        C  540   3.321   4.515   2.522
    1C        C  541   3.392   4.515   2.644
    1C        C  542   3.184   4.483   2.766
    1C        C  543   3.321   4.515   2.766
    1C        C  544   3.116   4.469   2.889
    1C        C  545   3.181   4.493   3.012
    1C        C  546   2.992   4.403   3.132
    1C        C  547   3.115   4.473   3.135
    1C        C  548   2.938   4.366   3.257
    1C        C  549   2.992   4.411   3.380
    1C        C  550   2.827   4.282   3.502
    1C        C  551   2.934   4.373   3.503
    1C        C  552   2.784   4.231   3.627
    1C        C  553   2.832   4.284   3.749
    1C        C  554   2.704   4.118   3.877
    1C        C  555   2.784   4.234   3.873
    1C        C  556   2.663   4.059   3.999
    1C        C  557   2.705   4.122   4.119
    1C        C  558   2.611   3.936   4.244
    1C        C  559   2.667   4.066   4.243
    1C        C  560   2.578   3.874   4.366
    1C        C  561   2.593   3.945   4.488
    1C        C  562   2.530   3.748   4.614
    1C        C  563   2.563   3.886   4.612
    1C        C  564   2.514   3.681   4.737
    1C        C  565   2.516   3.758   4.856
    1C        C  566   2.523   3.545   4.973
    1C        C  567   2.525   3.684   4.975
    1C        C  568   3.329   4.485   2.038
    1C        C  569   3.394   4.512   2.159
    1C        C  570   3.183   4.479   2.282
    1C        C  571   3.321   4.515   2.281
    1C        C  572   3.115   4.458   2.404
    1C        C  573   3.181   4.490   2.524
    1C        C  574   2.985   4.406   2.645
    1C        C  575   3.112   4.469   2.645
    1C        C  576   2.928   4.364   2.767
    1C        C  577   2.991   4.402   2.887
    1C        C  578   2.823   4.275   3.017
    1C        C  579   2.931   4.367   3.010
    1C        C  580   2.777   4.220   3.138
    1C        C  581   2.830   4.275   3.257
    1C        C  582   2.697   4.113   3.386
    1C        C  583   2.780   4.228   3.381
    1C        C  584   2.658   4.058   3.510
    1C        C  585   2.701   4.116   3.630
    1C        C  586   2.607   3.930   3.756
    1C        C  587   2.665   4.059   3.754
    1C        C  588   2.582   3.864   3.878
    1C        C  589   2.607   3.930   4.000
    1C        C  590   2.544   3.731   4.127
    1C        C  591   2.586   3.866   4.124
    1C        C  592   2.532   3.664   4.250
    1C        C  593   2.539   3.738   4.371
    1C        C  594   2.507   3.532   4.495
    1C        C  595   2.520   3.673   4.495
    1C        C  596   2.511   3.464   4.619
    1C        C  597   2.512   3.539   4.739
    1C        C  598   2.530   3.324   4.861
    1C        C  599   2.519   3.464   4.858
    1C        C  600   2.531   3.248   4.979
    1C        C  601   3.199   4.440   2.047
    1C        C  602   2.982   4.396   2.159
    1C        C  603   3.117   4.443   2.161
    1C        C  604   2.923   4.359   2.283
    1C        C  605   2.988   4.397   2.403
    1C        C  606   2.817   4.272   2.528
    1C        C  607   2.925   4.364   2.525
    1C        C  608   2.772   4.218   2.650
    1C        C  609   2.821   4.271   2.772
    1C        C  610   2.688   4.110   2.893
    1C        C  611   2.772   4.224   2.896
    1C        C  612   2.656   4.050   3.017
    1C        C  613   2.694   4.106   3.141
    1C        C  614   2.597   3.923   3.266
    1C        C  615   2.656   4.051   3.265
    1C        C  616   2.575   3.862   3.391
    1C        C  617   2.595   3.931   3.512
    1C        C  618   2.536   3.728   3.637
    1C        C  619   2.578   3.863   3.635
    1C        C  620   2.522   3.660   3.760
    1C        C  621   2.538   3.730   3.883
    1C        C  622   2.506   3.521   4.010
    1C        C  623   2.523   3.661   4.005
    1C        C  624   2.508   3.452   4.133
    1C        C  625   2.509   3.525   4.254
    1C        C  626   2.533   3.317   4.378
    1C        C  627   2.504   3.455   4.377
    1C        C  628   2.553   3.250   4.501
    1C        C  629   2.532   3.324   4.619
    1C        C  630   2.587   3.117   4.742
    1C        C  631   2.541   3.251   4.740
    1C        C  632   2.610   3.046   4.864
    1C        C  633   2.563   3.112   4.982
    1C        C  634   2.785   4.303   2.055
    1C        C  635   2.893   4.393   2.047
    1C        C  636   2.747   4.229   2.167
    1C        C  637   2.808   4.277   2.285
    1C        C  638   2.686   4.103   2.408
    1C        C  639   2.765   4.220   2.407
    1C        C  640   2.642   4.046   2.530
    1C        C  641   2.689   4.105   2.650
    1C        C  642   2.590   3.919   2.774
    1C        C  643   2.651   4.046   2.773
    1C        C  644   2.565   3.855   2.898
    1C        C  645   2.595   3.923   3.018
    1C        C  646   2.532   3.723   3.149
    1C        C  647   2.571   3.859   3.142
    1C        C  648   2.517   3.655   3.272
    1C        C  649   2.534   3.726   3.393
    1C        C  650   2.511   3.517   3.517
    1C        C  651   2.521   3.658   3.516
    1C        C  652   2.508   3.449   3.641
    1C        C  653   2.509   3.520   3.763
    1C        C  654   2.532   3.312   3.888
    1C        C  655   2.508   3.451   3.887
    1C        C  656   2.546   3.244   4.011
    1C        C  657   2.530   3.312   4.133
    1C        C  658   2.595   3.113   4.257
    1C        C  659   2.548   3.246   4.257
    1C        C  660   2.625   3.050   4.380
    1C        C  661   2.598   3.116   4.502
    1C        C  662   2.709   2.935   4.626
    1C        C  663   2.631   3.053   4.624
    1C        C  664   2.751   2.876   4.747
    1C        C  665   2.699   2.934   4.866
    1C        C  666   2.740   2.868   4.983
    1C        C  667   2.688   4.021   2.052
    1C        C  668   2.683   4.103   2.166
    1C        C  669   2.590   3.911   2.291
    1C        C  670   2.644   4.042   2.287
    1C        C  671   2.565   3.844   2.412
    1C        C  672   2.587   3.916   2.532
    1C        C  673   2.526   3.714   2.659
    1C        C  674   2.562   3.850   2.654
    1C        C  675   2.516   3.646   2.782
    1C        C  676   2.531   3.718   2.903
    1C        C  677   2.507   3.511   3.028
    1C        C  678   2.522   3.652   3.027
    1C        C  679   2.509   3.442   3.152
    1C        C  680   2.503   3.515   3.272
    1C        C  681   2.528   3.306   3.399
    1C        C  682   2.505   3.445   3.395
    1C        C  683   2.544   3.237   3.522
    1C        C  684   2.526   3.309   3.642
    1C        C  685   2.599   3.112   3.770
    1C        C  686   2.545   3.243   3.766
    1C        C  687   2.635   3.050   3.891
    1C        C  688   2.601   3.114   4.012
    1C        C  689   2.711   2.935   4.137
    1C        C  690   2.631   3.051   4.136
    1C        C  691   2.753   2.881   4.261
    1C        C  692   2.708   2.936   4.383
    1C        C  693   2.749   2.876   4.504
    1C        C  694   2.634   3.892   2.058
    1C        C  695   2.527   3.702   2.174
    1C        C  696   2.579   3.833   2.173
    1C        C  697   2.508   3.636   2.297
    1C        C  698   2.528   3.708   2.417
    1C        C  699   2.489   3.500   2.541
    1C        C  700   2.507   3.640   2.540
    1C        C  701   2.500   3.432   2.664
    1C        C  702   2.499   3.506   2.785
    1C        C  703   2.518   3.297   2.912
    1C        C  704   2.502   3.437   2.908
    1C        C  705   2.537   3.228   3.034
    1C        C  706   2.523   3.301   3.153
    1C        C  707   2.597   3.106   3.280
    1C        C  708   2.544   3.236   3.277
    1C        C  709   2.630   3.044   3.402
    1C        C  710   2.599   3.107   3.524
    1C        C  711   2.706   2.928   3.648
    1C        C  712   2.628   3.046   3.648
    1C        C  713   2.756   2.878   3.770
    1C        C  714   2.716   2.934   3.894
    1C        C  715   2.758   2.878   4.016
    1C        C  716   2.445   3.496   2.063
    1C        C  717   2.490   3.629   2.060
    1C        C  718   2.459   3.420   2.183
    1C        C  719   2.478   3.497   2.300
    1C        C  720   2.504   3.285   2.425
    1C        C  721   2.481   3.425   2.421
    1C        C  722   2.528   3.220   2.547
    1C        C  723   2.522   3.293   2.668
    1C        C  724   2.589   3.094   2.790
    1C        C  725   2.536   3.226   2.791
    1C        C  726   2.620   3.031   2.913
    1C        C  727   2.591   3.097   3.035
    1C        C  728   2.705   2.922   3.158
    1C        C  729   2.625   3.038   3.159
    1C        C  730   2.751   2.869   3.281
    1C        C  731   2.706   2.924   3.403
    1C        C  732   2.749   2.871   3.526
    1C        C  733   2.494   3.196   2.073
    1C        C  734   2.484   3.279   2.186
    1C        C  735   2.583   3.084   2.305
    1C        C  736   2.519   3.210   2.306
    1C        C  737   2.615   3.021   2.427
    1C        C  738   2.583   3.089   2.546
    1C        C  739   2.695   2.911   2.669
    1C        C  740   2.615   3.027   2.669
    1C        C  741   2.738   2.855   2.791
    1C        C  742   2.697   2.913   2.914
    1C        C  743   2.746   2.863   3.036
    1C        C  744   2.542   3.066   2.072
    1C        C  745   2.684   2.895   2.184
    1C        C  746   2.605   3.012   2.185
    1C        C  747   2.731   2.841   2.306
    1C        C  748   2.682   2.896   2.427
    1C        C  749   2.735   2.848   2.549
    1C        C  750   2.727   2.834   2.066
    1C        C  751   3.649   2.299   1.996
    1C        O  752   3.696   2.198   2.055
    1C        O  753   3.680   2.316   1.860
    1C        C  754   4.625   3.046   1.976
    1C        O  755   4.615   3.064   1.852
    1C        O  756   4.727   2.960   2.020
    1C        C  757   4.452   4.225   1.968
    1C        O  758   4.542   4.308   2.000
    1C        O  759   4.440   4.216   1.829
    1C        C  760   3.592   4.671   1.954
    1C        O  761   3.669   4.769   1.969
    1C        O  762   3.550   4.663   1.821
    1C        C  763   2.894   4.481   1.928
    1C        O  764   2.946   4.441   1.820
    1C        O  765   2.816   4.594   1.901
    1C        C  766   2.346   3.468   1.957
    1C        O  767   2.368   3.421   1.842
    1C        O  768   2.213   3.512   1.966
    1C        C  769   4.620   3.587   5.102
    1C        O  770   4.536   3.601   5.195
    1C        O  771   4.752   3.610   5.141
    1C        C  772   4.274   4.469   5.021
    1C        O  773   4.256   4.484   5.145
    1C        O  774   4.348   4.571   4.959
    1C        C  775   4.143   2.528   5.073
    1C        O  776   4.219   2.432   5.043
    1C        O  777   4.106   2.544   5.207
    1C        C  778   2.895   4.514   5.076
    1C        O  779   2.862   4.633   5.050
    1C        O  780   2.962   4.480   5.194
    1C        C  781   2.489   3.050   5.094
    1C        O  782   2.389   2.976   5.078
    1C        O  783   2.522   3.052   5.229
    1C        C  784   2.406   4.000   5.040
    1C        O  785   2.303   4.072   5.029
    1C        O  786   2.395   3.953   5.171
    1C        C  787   2.959   2.445   1.978
    1C        O  788   2.992   2.461   1.858
    1C        O  789   2.911   2.316   2.001
    1C        C  790   3.203   2.392   5.086
    1C        O  791   3.169   2.271   5.069
    1C        O  792   3.207   2.423   5.222
    1C        H  793   4.282   3.023   5.062
    1C        H  794   4.197   2.802   5.072
    1C        H  795   4.498   3.127   5.066
    1C        H  796   4.565   3.350   5.065
    1C        H  797   4.563   3.811   5.045
    1C        H  798   4.378   3.948   5.046
    1C        H  799   4.303   4.185   5.046
    1C        H  800   4.034   4.545   5.019
    1C        H  801   3.821   4.592   5.035
    1C        H  802   3.601   4.658   5.025
    1C        H  803   3.385   4.555   5.049
    1C        H  804   3.162   4.456   5.046
    1C        H  805   3.908   2.455   5.051
    1C        H  806   3.672   2.440   5.073
    1C        H  807   2.995   2.537   5.058
    1C        H  808   3.447   2.490   5.079
    1C        H  809   2.907   2.776   5.069
    1C        H  810   2.732   2.924   5.074
    1C        H  811   2.463   3.284   5.054
    1C        H  812   2.532   3.495   5.067
    1C        H  813   2.576   3.732   5.056
    1C        H  814   2.568   4.193   5.025
    1C        H  815   2.783   4.283   5.050
    1C        H  816   2.662   2.838   1.981
    1C        H  817   2.858   2.698   1.974
    1C        H  818   3.204   2.432   1.987
    1C        H  819   3.433   2.461   1.976
    1C        H  820   3.861   2.497   1.970
    1C        H  821   4.084   2.568   1.986
    1C        H  822   4.203   2.764   1.966
    1C        H  823   4.409   2.892   1.971
    1C        H  824   4.589   3.310   1.969
    1C        H  825   4.474   3.511   1.962
    1C        H  826   4.460   3.737   1.959
    1C        H  827   3.816   4.547   1.966
    1C        H  828   3.966   4.386   1.944
    1C        H  829   4.144   4.226   1.950
    1C        H  830   4.435   3.946   1.956
    1C        H  831   2.682   3.817   1.999
    1C        H  832   2.656   4.072   1.964
    1C        H  833   2.717   4.314   1.973
    1C        H  834   3.360   4.521   1.942
    1C        H  835   3.193   4.344   2.000
    1C        H  836   2.513   3.001   1.992
    1C        H  837   2.448   3.238   1.986
    1C        H  838   2.486   3.683   1.968
    2V3OU   H29  839   2.804   3.547   5.090
    2V3OU   C27  840   2.775   3.500   5.187
    2V3OU   H27  841   2.719   3.573   5.250
    2V3OU   H28  842   2.724   3.403   5.162
    2V3OU   O11  843   2.900   3.481   5.255
    2V3OU   C15  844   2.921   3.395   5.361
    2V3OU   C13  845   3.047   3.381   5.424
    2V3OU   C14  846   3.075   3.269   5.503
    2V3OU   C16  847   2.972   3.183   5.539
    2V3OU    H6  848   2.992   3.096   5.603
    2V3OU   C12  849   3.214   3.231   5.538
    2V3OU    O2  850   3.243   3.128   5.604
    2V3OU   C10  851   3.327   3.310   5.490
    2V3OU    C8  852   3.457   3.266   5.514
    2V3OU   O10  853   3.490   3.152   5.581
    2V3OU   H26  854   3.402   3.119   5.604
    2V3OU    C6  855   3.566   3.346   5.468
    2V3OU    C5  856   3.539   3.464   5.400
    2V3OU    C4  857   3.704   3.290   5.468
    2V3OU    H4  858   3.729   3.225   5.557
    2V3OU    H5  859   3.711   3.226   5.375
    2V3OU    C2  860   3.816   3.393   5.463
    2V3OU    O6  861   3.806   3.475   5.580
    2V3OU   H21  862   3.766   3.559   5.552
    2V3OU    C3  863   3.784   3.493   5.352
    2V3OU    H2  864   3.864   3.572   5.350
    2V3OU    H3  865   3.786   3.436   5.256
    2V3OU   C25  866   3.952   3.326   5.442
    2V3OU    O7  867   4.005   3.299   5.334
    2V3OU   C26  868   4.029   3.287   5.567
    2V3OU   H22  869   4.066   3.386   5.603
    2V3OU   H23  870   4.111   3.215   5.541
    2V3OU    O8  871   3.955   3.210   5.659
    2V3OU   H24  872   3.931   3.262   5.738
    2V3OU    C1  873   3.648   3.561   5.366
    2V3OU    H1  874   3.627   3.615   5.269
    2V3OU    O3  875   3.648   3.653   5.476
    2V3OU   C19  876   3.615   3.791   5.465
    2V3OU    H9  877   3.522   3.807   5.403
    2V3OU    O4  878   3.719   3.852   5.392
    2V3OU   C20  879   3.852   3.874   5.440
    2V3OU   H10  880   3.896   3.770   5.450
    2V3OU   C24  881   3.611   3.857   5.604
    2V3OU   H16  882   3.544   3.791   5.665
    2V3OU   H17  883   3.566   3.958   5.586
    2V3OU   C23  884   3.749   3.875   5.668
    2V3OU   H15  885   3.794   3.773   5.687
    2V3OU    N1  886   3.737   3.953   5.790
    2V3OU   H19  887   3.809   3.926   5.854
    2V3OU   H20  888   3.650   3.936   5.835
    2V3OU   C21  889   3.850   3.948   5.574
    2V3OU   H11  890   3.950   3.924   5.620
    2V3OU    O5  891   3.827   4.088   5.575
    2V3OU   H18  892   3.782   4.092   5.661
    2V3OU   C22  893   3.915   3.950   5.324
    2V3OU   H12  894   3.858   4.044   5.305
    2V3OU   H13  895   3.908   3.889   5.230
    2V3OU   H14  896   4.024   3.964   5.344
    2V3OU   C11  897   3.158   3.471   5.391
    2V3OU    O1  898   3.135   3.584   5.342
    2V3OU    C9  899   3.296   3.431   5.422
    2V3OU    C7  900   3.404   3.506   5.377
    2V3OU    O9  901   3.384   3.618   5.299
    2V3OU   H25  902   3.288   3.631   5.288
    2V3OU   C17  903   2.820   3.310   5.409
    2V3OU    H7  904   2.719   3.347   5.388
    2V3OU   C18  905   2.841   3.207   5.499
    2V3OU    H8  906   2.758   3.150   5.544
    3SOL     OW  907   3.999   3.626   4.096
    3SOL    HW1  908   3.976   3.723   4.086
    3SOL    HW2  909   3.976   3.577   4.012
    4SOL     OW  910   6.744   0.250   0.066
    4SOL    HW1  911   6.728   0.292   6.998
    4SOL    HW2  912   6.695   0.301   0.136
    5SOL     OW  913   5.216   2.136   1.230
    5SOL    HW1  914   5.123   2.164   1.252
    5SOL    HW2  915   5.241   2.170   1.139
    6SOL     OW  916   5.961   0.535   2.584
    6SOL    HW1  917   5.868   0.536   2.621
    6SOL    HW2  918   5.989   0.441   2.568
    7SOL     OW  919   1.151   4.157   4.581
    7SOL    HW1  920   1.100   4.232   4.538
    7SOL    HW2  921   1.204   4.109   4.511
    8SOL     OW  922   1.675   3.780   5.145
    8SOL    HW1  923   1.760   3.808   5.102
    8SOL    HW2  924   1.622   3.861   5.171
    9SOL     OW  925   6.955   0.780   6.258
    9SOL    HW1  926   6.924   0.686   6.274
    9SOL    HW2  927   6.884   0.830   6.208
   10SOL     OW  928   4.919   4.512   2.536
   10SOL    HW1  929   4.956   4.433   2.487
   10SOL    HW2  930   4.820   4.504   2.540
   11SOL     OW  931   2.467   1.553   0.140
   11SOL    HW1  932   2.539   1.598   0.088
   11SOL    HW2  933   2.484   1.565   0.238
   12SOL     OW  934   3.424   4.932   3.420
   12SOL    HW1  935   3.518   4.898   3.409
   12SOL    HW2  936   3.426   5.029   3.441
   13SOL     OW  937   5.195   6.292   1.315
   13SOL    HW1  938   5.202   6.205   1.364
   13SOL    HW2  939   5.152   6.360   1.374
   14SOL     OW  940   4.677   5.340   5.025
   14SOL    HW1  941   4.682   5.304   4.933
   14SOL    HW2  942   4.744   5.413   5.037
   15SOL     OW  943   6.785   6.490   5.871
   15SOL    HW1  944   6.710   6.544   5.833
   15SOL    HW2  945   6.748   6.410   5.917
   16SOL     OW  946   0.940   4.002   4.659
   16SOL    HW1  947   0.975   3.913   4.687
   16SOL    HW2  948   1.013   4.070   4.664
   17SOL     OW  949   6.412   1.913   4.985
   17SOL    HW1  950   6.430   1.838   4.921
   17SOL    HW2  951   6.364   1.986   4.938
   18SOL     OW  952   2.405   1.271   6.051
   18SOL    HW1  953   2.370   1.206   6.118
   18SOL    HW2  954   2.474   1.225   5.994
   19SOL     OW  955   2.568   0.742   3.289
   19SOL    HW1  956   2.564   0.650   3.250
   19SOL    HW2  957   2.661   0.762   3.320
   20SOL     OW  958   6.632   1.702   5.773
   20SOL    HW1  959   6.617   1.719   5.675
   20SOL    HW2  960   6.595   1.779   5.825
   21SOL     OW  961   2.900   4.802   3.397
   21SOL    HW1  962   2.830   4.870   3.418
   21SOL    HW2  963   2.987   4.830   3.436
   22SOL     OW  964   1.607   0.179   6.476
   22SOL    HW1  965   1.547   0.254   6.450
   22SOL    HW2  966   1.558   0.093   6.470
   23SOL     OW  967   6.130   4.732   1.285
   23SOL    HW1  968   6.033   4.724   1.308
   23SOL    HW2  969   6.182   4.670   1.344
   24SOL     OW  970   4.763   1.091   0.709
   24SOL    HW1  971   4.851   1.137   0.704
   24SOL    HW2  972   4.702   1.129   0.640
   25SOL     OW  973   1.174   1.251   4.694
   25SOL    HW1  974   1.125   1.171   4.658
   25SOL    HW2  975   1.168   1.251   4.794
   26SOL     OW  976   1.180   2.846   6.926
   26SOL    HW1  977   1.240   2.821   6.849
   26SOL    HW2  978   1.235   2.857   7.009
   27SOL     OW  979   6.269   0.991   1.075
   27SOL    HW1  980   6.182   0.942   1.076
   27SOL    HW2  981   6.343   0.929   1.099
   28SOL     OW  982   2.590   0.847   5.255
   28SOL    HW1  983   2.572   0.780   5.328
   28SOL    HW2  984   2.586   0.939   5.292
   29SOL     OW  985   0.648   0.162   0.993
   29SOL    HW1  986   0.698   0.079   1.018
   29SOL    HW2  987   0.701   0.242   1.019
   30SOL     OW  988   4.500   0.317   5.170
   30SOL    HW1  989   4.411   0.300   5.213
   30SOL    HW2  990   4.547   0.391   5.217
   31SOL     OW  991   1.077   3.774   5.660
   31SOL    HW1  992   1.139   3.831   5.607
   31SOL    HW2  993   1.129   3.722   5.728
   32SOL     OW  994   3.060   0.199   0.904
   32SOL    HW1  995   3.039   0.106   0.936
   32SOL    HW2  996   3.125   0.242   0.966
   33SOL     OW  997   1.477   5.414   6.307
   33SOL    HW1  998   1.524   5.489   6.353
   33SOL    HW2  999   1.445   5.348   6.375
   34SOL     OW 1000   2.233   5.256   5.341
   34SOL    HW1 1001   2.317   5.310   5.338
   34SOL    HW2 1002   2.188   5.269   5.429
   35SOL     OW 1003   2.553   3.467   6.962
   35SOL    HW1 1004   2.458   3.460   6.931
   35SOL    HW2 1005   2.613   3.481   6.884
   36SOL     OW 1006   4.291   1.255   4.668
   36SOL    HW1 1007   4.381   1.235   4.628
   36SOL    HW2 1008   4.255   1.172   4.710
   37SOL     OW 1009   2.982   0.510   4.266
   37SOL    HW1 1010   2.952   0.445   4.196
   37SOL    HW2 1011   2.904   0.534   4.325
   38SOL     OW 1012   6.980   4.154   2.748
   38SOL    HW1 1013   7.007   4.079   2.808
   38SOL    HW2 1014   0.024   4.230   2.757
   39SOL     OW 1015   6.775   5.379   6.971
   39SOL    HW1 1016   6.766   5.444   6.895
   39SOL    HW2 1017   6.685   5.363   7.011
   40SOL     OW 1018   3.833   1.111   6.818
   40SOL    HW1 1019   3.853   1.024   6.862
   40SOL    HW2 1020   3.734   1.123   6.811
   41SOL     OW 1021   5.762   3.846   1.778
   41SOL    HW1 1022   5.671   3.879   1.753
   41SOL    HW2 1023   5.767   3.832   1.877
   42SOL     OW 1024   2.415   5.672   6.400
   42SOL    HW1 1025   2.363   5.625   6.471
   42SOL    HW2 1026   2.372   5.760   6.380
   43SOL     OW 1027   3.790   6.956   4.630
   43SOL    HW1 1028   3.839   0.022   4.626
   43SOL    HW2 1029   3.852   6.882   4.602
   44SOL     OW 1030   6.875   1.020   5.872
   44SOL    HW1 1031   6.885   1.102   5.929
   44SOL    HW2 1032   6.849   1.046   5.780
   45SOL     OW 1033   2.768   5.602   0.221
   45SOL    HW1 1034   2.836   5.637   0.157
   45SOL    HW2 1035   2.771   5.502   0.222
   46SOL     OW 1036   0.352   2.803   4.164
   46SOL    HW1 1037   0.415   2.865   4.119
   46SOL    HW2 1038   0.265   2.801   4.115
   47SOL     OW 1039   5.971   2.783   0.798
   47SOL    HW1 1040   5.931   2.732   0.722
   47SOL    HW2 1041   6.060   2.818   0.771
   48SOL     OW 1042   6.591   3.514   1.000
   48SOL    HW1 1043   6.651   3.453   0.949
   48SOL    HW2 1044   6.573   3.477   1.091
   49SOL     OW 1045   4.223   4.293   0.251
   49SOL    HW1 1046   4.310   4.340   0.260
   49SOL    HW2 1047   4.203   4.244   0.336
   50SOL     OW 1048   6.513   2.952   0.039
   50SOL    HW1 1049   6.452   3.006   7.003
   50SOL    HW2 1050   6.462   2.916   0.118
   51SOL     OW 1051   2.437   5.958   3.153
   51SOL    HW1 1052   2.532   5.972   3.182
   51SOL    HW2 1053   2.387   6.044   3.159
   52SOL     OW 1054   5.711   2.449   1.397
   52SOL    HW1 1055   5.638   2.430   1.331
   52SOL    HW2 1056   5.686   2.530   1.451
   53SOL     OW 1057   4.378   0.011   2.004
   53SOL    HW1 1058   4.392   0.102   2.044
   53SOL    HW2 1059   4.446   6.970   2.042
   54SOL     OW 1060   5.551   6.941   6.824
   54SOL    HW1 1061   5.548   6.966   6.921
   54SOL    HW2 1062   5.497   6.858   6.810
   55SOL     OW 1063   0.795   3.347   6.632
   55SOL    HW1 1064   0.839   3.302   6.710
   55SOL    HW2 1065   0.767   3.440   6.658
   56SOL     OW 1066   0.915   2.849   6.954
   56SOL    HW1 1067   0.883   2.918   7.019
   56SOL    HW2 1068   1.015   2.853   6.947
   57SOL     OW 1069   4.453   6.607   0.018
   57SOL    HW1 1070   4.549   6.615   0.043
   57SOL    HW2 1071   4.426   6.687   6.987
   58SOL     OW 1072   0.508   0.344   0.043
   58SOL    HW1 1073   0.480   0.378   6.975
   58SOL    HW2 1074   0.522   0.245   0.039
   59SOL     OW 1075   5.041   3.031   5.899
   59SOL    HW1 1076   5.086   2.979   5.827
   59SOL    HW2 1077   5.107   3.057   5.969
   60SOL     OW 1078   5.089   0.748   2.926
   60SOL    HW1 1079   5.155   0.744   3.001
   60SOL    HW2 1080   5.129   0.799   2.849
   61SOL     OW 1081   6.682   5.867   4.549
   61SOL    HW1 1082   6.594   5.819   4.556
   61SOL    HW2 1083   6.744   5.815   4.490
   62SOL     OW 1084   6.235   2.702   2.365
   62SOL    HW1 1085   6.166   2.770   2.392
   62SOL    HW2 1086   6.224   2.619   2.420
   63SOL     OW 1087   4.259   6.631   5.158
   63SOL    HW1 1088   4.233   6.563   5.090
   63SOL    HW2 1089   4.191   6.634   5.231
   64SOL     OW 1090   0.743   4.114   5.826
   64SOL    HW1 1091   0.672   4.170   5.869
   64SOL    HW2 1092   0.743   4.023   5.868
   65SOL     OW 1093   0.652   0.061   5.364
   65SOL    HW1 1094   0.638   7.007   5.429
   65SOL    HW2 1095   0.723   0.123   5.400
   66SOL     OW 1096   4.100   0.673   2.024
   66SOL    HW1 1097   4.088   0.762   2.070
   66SOL    HW2 1098   4.031   0.664   1.953
   67SOL     OW 1099   0.243   2.713   1.446
   67SOL    HW1 1100   0.321   2.675   1.397
   67SOL    HW2 1101   0.223   2.657   1.526
   68SOL     OW 1102   6.998   1.903   5.021
   68SOL    HW1 1103   7.013   1.999   4.995
   68SOL    HW2 1104   6.914   1.897   5.076
   69SOL     OW 1105   0.715   5.887   6.229
   69SOL    HW1 1106   0.632   5.861   6.278
   69SOL    HW2 1107   0.733   5.984   6.242
   70SOL     OW 1108   5.243   3.448   4.355
   70SOL    HW1 1109   5.321   3.502   4.323
   70SOL    HW2 1110   5.173   3.445   4.283
   71SOL     OW 1111   5.093   1.764   4.925
   71SOL    HW1 1112   5.180   1.764   4.975
   71SOL    HW2 1113   5.018   1.754   4.990
   72SOL     OW 1114   0.104   0.705   3.769
   72SOL    HW1 1115   0.098   0.606   3.784
   72SOL    HW2 1116   0.174   0.724   3.699
   73SOL     OW 1117   3.011   0.799   1.318
   73SOL    HW1 1118   2.930   0.854   1.339
   73SOL    HW2 1119   2.982   0.712   1.278
   74SOL     OW 1120   2.519   2.068   0.617
   74SOL    HW1 1121   2.516   2.115   0.529
   74SOL    HW2 1122   2.460   2.115   0.682
   75SOL     OW 1123   3.654   3.788   0.399
   75SOL    HW1 1124   3.677   3.855   0.470
   75SOL    HW2 1125   3.727   3.786   0.330
   76SOL     OW 1126   3.363   4.710   5.255
   76SOL    HW1 1127   3.426   4.778   5.292
   76SOL    HW2 1128   3.309   4.671   5.330
   77SOL     OW 1129   0.833   4.545   4.446
   77SOL    HW1 1130   0.739   4.578   4.439
   77SOL    HW2 1131   0.896   4.617   4.418
   78SOL     OW 1132   4.682   1.903   1.154
   78SOL    HW1 1133   4.751   1.935   1.090
   78SOL    HW2 1134   4.667   1.805   1.143
   79SOL     OW 1135   1.257   4.455   3.212
   79SOL    HW1 1136   1.211   4.463   3.123
   79SOL    HW2 1137   1.296   4.544   3.236
   80SOL     OW 1138   4.116   0.906   4.972
   80SOL    HW1 1139   4.210   0.940   4.965
   80SOL    HW2 1140   4.076   0.899   4.880
   81SOL     OW 1141   4.074   5.871   1.381
   81SOL    HW1 1142   4.150   5.934   1.397
   81SOL    HW2 1143   3.996   5.899   1.437
   82SOL     OW 1144   2.593   6.362   2.001
   82SOL    HW1 1145   2.638   6.337   2.086
   82SOL    HW2 1146   2.565   6.279   1.952
   83SOL     OW 1147   5.276   0.787   4.633
   83SOL    HW1 1148   5.351   0.751   4.688
   83SOL    HW2 1149   5.287   0.885   4.621
   84SOL     OW 1150   5.226   2.539   2.089
   84SOL    HW1 1151   5.324   2.521   2.080
   84SOL    HW2 1152   5.193   2.508   2.178
   85SOL     OW 1153   2.188   0.128   4.309
   85SOL    HW1 1154   2.177   0.046   4.253
   85SOL    HW2 1155   2.232   0.103   4.395
   86SOL     OW 1156   6.173   0.399   7.022
   86SOL    HW1 1157   6.228   0.439   6.949
   86SOL    HW2 1158   6.232   0.346   0.061
   87SOL     OW 1159   2.605   4.428   6.623
   87SOL    HW1 1160   2.615   4.360   6.550
   87SOL    HW2 1161   2.559   4.509   6.587
   88SOL     OW 1162   3.825   4.076   0.319
   88SOL    HW1 1163   3.871   4.133   0.251
   88SOL    HW2 1164   3.861   3.982   0.313
   89SOL     OW 1165   3.147   3.901   4.133
   89SOL    HW1 1166   3.241   3.923   4.158
   89SOL    HW2 1167   3.087   3.919   4.211
   90SOL     OW 1168   4.842   3.792   2.424
   90SOL    HW1 1169   4.749   3.759   2.415
   90SOL    HW2 1170   4.859   3.865   2.358
   91SOL     OW 1171   4.644   5.061   5.142
   91SOL    HW1 1172   4.615   5.080   5.236
   91SOL    HW2 1173   4.667   5.147   5.096
   92SOL     OW 1174   5.735   3.553   6.218
   92SOL    HW1 1175   5.815   3.520   6.268
   92SOL    HW2 1176   5.762   3.584   6.127
   93SOL     OW 1177   2.918   3.158   2.183
   93SOL    HW1 1178   2.829   3.129   2.217
   93SOL    HW2 1179   2.970   3.200   2.257
   94SOL     OW 1180   3.139   1.501   5.020
   94SOL    HW1 1181   3.105   1.508   4.926
   94SOL    HW2 1182   3.122   1.409   5.055
   95SOL     OW 1183   0.888   0.887   3.897
   95SOL    HW1 1184   0.986   0.865   3.901
   95SOL    HW2 1185   0.836   0.812   3.937
   96SOL     OW 1186   5.999   4.807   0.435
   96SOL    HW1 1187   5.960   4.806   0.528
   96SOL    HW2 1188   6.017   4.901   0.408
   97SOL     OW 1189   2.058   5.049   5.774
   97SOL    HW1 1190   2.155   5.041   5.755
   97SOL    HW2 1191   2.040   5.023   5.869
   98SOL     OW 1192   1.713   2.240   3.211
   98SOL    HW1 1193   1.726   2.250   3.112
   98SOL    HW2 1194   1.734   2.326   3.257
   99SOL     OW 1195   3.697   3.533   5.009
   99SOL    HW1 1196   3.620   3.596   5.005
   99SOL    HW2 1197   3.783   3.584   4.998
  100SOL     OW 1198   6.604   1.361   4.679
  100SOL    HW1 1199   6.608   1.442   4.619
  100SOL    HW2 1200   6.530   1.301   4.648
  101SOL     OW 1201   6.520   3.469   2.529
  101SOL    HW1 1202   6.483   3.401   2.592
  101SOL    HW2 1203   6.447   3.508   2.474
  102SOL     OW 1204   4.449   6.899   6.978
  102SOL    HW1 1205   4.430   6.905   6.880
  102SOL    HW2 1206   4.497   6.981   7.007
  103SOL     OW 1207   3.332   0.985   2.173
  103SOL    HW1 1208   3.301   0.950   2.085
  103SOL    HW2 1209   3.256   0.981   2.238
  104SOL     OW 1210   6.838   4.490   2.286
  104SOL    HW1 1211   6.810   4.403   2.327
  104SOL    HW2 1212   6.844   4.479   2.187
  105SOL     OW 1213   6.401   1.158   5.534
  105SOL    HW1 1214   6.310   1.145   5.495
  105SOL    HW2 1215   6.403   1.243   5.587
  106SOL     OW 1216   4.842   5.121   1.662
  106SOL    HW1 1217   4.917   5.186   1.647
  106SOL    HW2 1218   4.823   5.114   1.760
  107SOL     OW 1219   6.012   6.773   0.945
  107SOL    HW1 1220   5.997   6.748   1.041
  107SOL    HW2 1221   6.045   6.868   0.941
  108SOL     OW 1222   2.300   1.505   4.466
  108SOL    HW1 1223   2.354   1.511   4.551
  108SOL    HW2 1224   2.276   1.409   4.449
  109SOL     OW 1225   1.771   1.108   4.218
  109SOL    HW1 1226   1.858   1.060   4.205
  109SOL    HW2 1227   1.711   1.053   4.276
  110SOL     OW 1228   3.607   4.265   5.619
  110SOL    HW1 1229   3.639   4.233   5.530
  110SOL    HW2 1230   3.540   4.201   5.656
  111SOL     OW 1231   6.196   1.913   1.414
  111SOL    HW1 1232   6.286   1.898   1.455
  111SOL    HW2 1233   6.126   1.912   1.486
  112SOL     OW 1234   4.913   6.303   6.547
  112SOL    HW1 1235   4.979   6.241   6.504
  112SOL    HW2 1236   4.919   6.393   6.505
  113SOL     OW 1237   0.461   6.053   2.288
  113SOL    HW1 1238   0.547   6.013   2.258
  113SOL    HW2 1239   0.477   6.107   2.371
  114SOL     OW 1240   0.528   3.586   2.708
  114SOL    HW1 1241   0.557   3.504   2.757
  114SOL    HW2 1242   0.503   3.657   2.774
  115SOL     OW 1243   5.465   0.254   3.697
  115SOL    HW1 1244   5.509   0.339   3.726
  115SOL    HW2 1245   5.498   0.228   3.607
  116SOL     OW 1246   0.009   4.969   0.366
  116SOL    HW1 1247   6.945   4.980   0.316
  116SOL    HW2 1248   0.043   5.058   0.394
  117SOL     OW 1249   2.104   2.351   0.540
  117SOL    HW1 1250   2.063   2.335   0.630
  117SOL    HW2 1251   2.105   2.265   0.490
  118SOL     OW 1252   1.013   2.235   3.639
  118SOL    HW1 1253   1.054   2.314   3.592
  118SOL    HW2 1254   0.946   2.268   3.705
  119SOL     OW 1255   6.099   6.896   6.026
  119SOL    HW1 1256   6.143   6.954   5.958
  119SOL    HW2 1257   6.012   6.936   6.054
  120SOL     OW 1258   5.074   2.673   4.750
  120SOL    HW1 1259   4.991   2.626   4.718
  120SOL    HW2 1260   5.064   2.771   4.734
  121SOL     OW 1261   0.992   4.676   6.697
  121SOL    HW1 1262   1.078   4.641   6.659
  121SOL    HW2 1263   0.917   4.615   6.671
  122SOL     OW 1264   0.387   4.248   6.523
  122SOL    HW1 1265   0.462   4.269   6.461
  122SOL    HW2 1266   0.343   4.333   6.553
  123SOL     OW 1267   0.828   1.988   1.855
  123SOL    HW1 1268   0.770   2.066   1.878
  123SOL    HW2 1269   0.897   2.016   1.788
  124SOL     OW 1270   2.227   2.659   0.571
  124SOL    HW1 1271   2.153   2.604   0.534
  124SOL    HW2 1272   2.292   2.600   0.619
  125SOL     OW 1273   4.085   3.616   0.313
  125SOL    HW1 1274   4.046   3.526   0.293
  125SOL    HW2 1275   4.102   3.623   0.411
  126SOL     OW 1276   4.062   3.794   4.582
  126SOL    HW1 1277   4.108   3.736   4.649
  126SOL    HW2 1278   4.090   3.769   4.490
  127SOL     OW 1279   0.676   5.434   5.612
  127SOL    HW1 1280   0.678   5.521   5.662
  127SOL    HW2 1281   0.661   5.359   5.676
  128SOL     OW 1282   4.258   3.308   6.906
  128SOL    HW1 1283   4.204   3.224   6.912
  128SOL    HW2 1284   4.327   3.308   6.979
  129SOL     OW 1285   1.229   5.285   1.852
  129SOL    HW1 1286   1.171   5.230   1.792
  129SOL    HW2 1287   1.219   5.382   1.827
  130SOL     OW 1288   6.436   2.871   4.313
  130SOL    HW1 1289   6.367   2.928   4.358
  130SOL    HW2 1290   6.525   2.916   4.319
  131SOL     OW 1291   0.588   2.442   3.792
  131SOL    HW1 1292   0.515   2.467   3.729
  131SOL    HW2 1293   0.549   2.391   3.869
  132SOL     OW 1294   4.086   3.430   2.410
  132SOL    HW1 1295   4.089   3.380   2.497
  132SOL    HW2 1296   4.052   3.369   2.339
  133SOL     OW 1297   5.475   6.423   6.487
  133SOL    HW1 1298   5.471   6.376   6.398
  133SOL    HW2 1299   5.570   6.440   6.511
  134SOL     OW 1300   5.526   1.547   1.590
  134SOL    HW1 1301   5.483   1.514   1.674
  134SOL    HW2 1302   5.519   1.647   1.587
  135SOL     OW 1303   4.969   2.920   3.590
  135SOL    HW1 1304   5.001   2.826   3.584
  135SOL    HW2 1305   5.048   2.982   3.594
  136SOL     OW 1306   3.502   6.848   6.811
  136SOL    HW1 1307   3.506   6.929   6.869
  136SOL    HW2 1308   3.435   6.863   6.738
  137SOL     OW 1309   3.202   3.371   5.846
  137SOL    HW1 1310   3.173   3.278   5.827
  137SOL    HW2 1311   3.162   3.401   5.933
  138SOL     OW 1312   1.087   5.405   6.444
  138SOL    HW1 1313   1.042   5.335   6.501
  138SOL    HW2 1314   1.027   5.428   6.367
  139SOL     OW 1315   1.937   6.306   0.762
  139SOL    HW1 1316   1.932   6.374   0.835
  139SOL    HW2 1317   2.019   6.324   0.706
  140SOL     OW 1318   3.227   0.332   1.097
  140SOL    HW1 1319   3.322   0.333   1.067
  140SOL    HW2 1320   3.209   0.248   1.150
  141SOL     OW 1321   6.927   2.656   0.442
  141SOL    HW1 1322   6.982   2.727   0.486
  141SOL    HW2 1323   6.910   2.682   0.347
  142SOL     OW 1324   1.266   4.352   1.739
  142SOL    HW1 1325   1.248   4.273   1.682
  142SOL    HW2 1326   1.283   4.433   1.682
  143SOL     OW 1327   5.104   5.968   1.926
  143SOL    HW1 1328   5.182   5.945   1.868
  143SOL    HW2 1329   5.021   5.970   1.871
  144SOL     OW 1330   3.263   5.190   4.087
  144SOL    HW1 1331   3.272   5.099   4.129
  144SOL    HW2 1332   3.184   5.190   4.026
  145SOL     OW 1333   6.922   4.983   3.128
  145SOL    HW1 1334   6.947   5.016   3.219
  145SOL    HW2 1335   6.981   5.026   3.060
  146SOL     OW 1336   5.497   0.997   6.226
  146SOL    HW1 1337   5.405   0.987   6.188
  146SOL    HW2 1338   5.545   0.910   6.220
  147SOL     OW 1339   5.217   0.923   4.975
  147SOL    HW1 1340   5.199   0.951   5.070
  147SOL    HW2 1341   5.133   0.890   4.933
  148SOL     OW 1342   0.784   5.466   0.834
  148SOL    HW1 1343   0.816   5.445   0.742
  148SOL    HW2 1344   0.691   5.504   0.830
  149SOL     OW 1345   1.982   2.767   5.397
  149SOL    HW1 1346   2.006   2.829   5.322
  149SOL    HW2 1347   2.043   2.688   5.396
  150SOL     OW 1348   4.328   1.416   5.070
  150SOL    HW1 1349   4.328   1.471   4.986
  150SOL    HW2 1350   4.415   1.368   5.077
  151SOL     OW 1351   3.847   2.819   0.960
  151SOL    HW1 1352   3.785   2.881   1.007
  151SOL    HW2 1353   3.820   2.811   0.864
  152SOL     OW 1354   0.753   2.325   0.907
  152SOL    HW1 1355   0.840   2.318   0.857
  152SOL    HW2 1356   0.746   2.416   0.948
  153SOL     OW 1357   3.043   1.155   3.467
  153SOL    HW1 1358   3.123   1.107   3.503
  153SOL    HW2 1359   2.974   1.162   3.538
  154SOL     OW 1360   6.418   1.537   2.541
  154SOL    HW1 1361   6.488   1.605   2.568
  154SOL    HW2 1362   6.426   1.457   2.600
  155SOL     OW 1363   0.573   6.696   2.278
  155SOL    HW1 1364   0.493   6.721   2.332
  155SOL    HW2 1365   0.585   6.761   2.203
  156SOL     OW 1366   4.933   2.644   0.579
  156SOL    HW1 1367   4.855   2.583   0.583
  156SOL    HW2 1368   4.943   2.691   0.667
  157SOL     OW 1369   3.498   5.442   0.489
  157SOL    HW1 1370   3.563   5.371   0.519
  157SOL    HW2 1371   3.461   5.488   0.570
  158SOL     OW 1372   0.255   2.525   3.479
  158SOL    HW1 1373   0.246   2.461   3.403
  158SOL    HW2 1374   0.352   2.537   3.501
  159SOL     OW 1375   5.984   5.004   0.740
  159SOL    HW1 1376   5.952   4.924   0.790
  159SOL    HW2 1377   5.908   5.047   0.692
  160SOL     OW 1378   6.385   6.966   2.174
  160SOL    HW1 1379   6.369   0.028   2.122
  160SOL    HW2 1380   6.350   6.887   2.122
  161SOL     OW 1381   0.409   6.316   0.797
  161SOL    HW1 1382   0.491   6.341   0.746
  161SOL    HW2 1383   0.341   6.277   0.735
  162SOL     OW 1384   4.768   6.844   6.865
  162SOL    HW1 1385   4.793   6.935   6.895
  162SOL    HW2 1386   4.787   6.835   6.767
  163SOL     OW 1387   0.346   4.015   2.977
  163SOL    HW1 1388   0.386   4.088   2.922
  163SOL    HW2 1389   0.246   4.021   2.974
  164SOL     OW 1390   2.351   2.324   3.735
  164SOL    HW1 1391   2.423   2.389   3.760
  164SOL    HW2 1392   2.366   2.292   3.642
  165SOL     OW 1393   0.110   6.138   3.437
  165SOL    HW1 1394   0.178   6.095   3.496
  165SOL    HW2 1395   0.152   6.213   3.386
  166SOL     OW 1396   6.735   4.434   3.413
  166SOL    HW1 1397   6.802   4.472   3.477
  166SOL    HW2 1398   6.730   4.335   3.425
  167SOL     OW 1399   3.264   2.201   0.062
  167SOL    HW1 1400   3.297   2.279   0.008
  167SOL    HW2 1401   3.165   2.192   0.051
  168SOL     OW 1402   5.182   4.212   1.441
  168SOL    HW1 1403   5.202   4.120   1.410
  168SOL    HW2 1404   5.192   4.218   1.540
  169SOL     OW 1405   4.856   2.589   0.954
  169SOL    HW1 1406   4.920   2.663   0.932
  169SOL    HW2 1407   4.907   2.510   0.988
  170SOL     OW 1408   6.946   6.079   2.300
  170SOL    HW1 1409   6.943   6.138   2.219
  170SOL    HW2 1410   6.962   5.984   2.271
  171SOL     OW 1411   3.446   4.007   0.552
  171SOL    HW1 1412   3.473   4.098   0.523
  171SOL    HW2 1413   3.471   3.993   0.648
  172SOL     OW 1414   0.037   2.152   6.726
  172SOL    HW1 1415   0.101   2.088   6.684
  172SOL    HW2 1416   0.080   2.241   6.734
  173SOL     OW 1417   6.926   1.598   4.023
  173SOL    HW1 1418   6.977   1.634   3.945
  173SOL    HW2 1419   6.828   1.598   4.002
  174SOL     OW 1420   5.828   5.332   5.357
  174SOL    HW1 1421   5.790   5.259   5.413
  174SOL    HW2 1422   5.877   5.292   5.279
  175SOL     OW 1423   0.396   0.078   1.035
  175SOL    HW1 1424   0.488   0.115   1.018
  175SOL    HW2 1425   0.389   7.008   0.996
  176SOL     OW 1426   6.040   4.253   1.676
  176SOL    HW1 1427   6.074   4.338   1.716
  176SOL    HW2 1428   5.969   4.275   1.608
  177SOL     OW 1429   6.044   2.848   4.422
  177SOL    HW1 1430   6.122   2.886   4.373
  177SOL    HW2 1431   5.963   2.904   4.405
  178SOL     OW 1432   1.954   6.220   6.225
  178SOL    HW1 1433   1.987   6.140   6.276
  178SOL    HW2 1434   1.892   6.190   6.153
  179SOL     OW 1435   3.034   4.664   1.281
  179SOL    HW1 1436   3.079   4.741   1.327
  179SOL    HW2 1437   3.077   4.648   1.192
  180SOL     OW 1438   4.046   1.260   0.609
  180SOL    HW1 1439   4.012   1.266   0.515
  180SOL    HW2 1440   4.130   1.206   0.611
  181SOL     OW 1441   3.281   2.287   5.792
  181SOL    HW1 1442   3.294   2.189   5.805
  181SOL    HW2 1443   3.260   2.305   5.695
  182SOL     OW 1444   4.251   2.788   0.104
  182SOL    HW1 1445   4.195   2.706   0.116
  182SOL    HW2 1446   4.301   2.807   0.188
  183SOL     OW 1447   3.412   1.446   3.292
  183SOL    HW1 1448   3.431   1.509   3.368
  183SOL    HW2 1449   3.317   1.414   3.298
  184SOL     OW 1450   5.274   6.053   3.419
  184SOL    HW1 1451   5.273   5.973   3.479
  184SOL    HW2 1452   5.219   6.033   3.337
  185SOL     OW 1453   6.841   0.693   3.832
  185SOL    HW1 1454   6.929   0.685   3.786
  185SOL    HW2 1455   6.767   0.668   3.769
  186SOL     OW 1456   4.296   6.383   3.674
  186SOL    HW1 1457   4.234   6.350   3.602
  186SOL    HW2 1458   4.352   6.457   3.639
  187SOL     OW 1459   4.204   6.416   1.843
  187SOL    HW1 1460   4.271   6.368   1.899
  187SOL    HW2 1461   4.229   6.409   1.746
  188SOL     OW 1462   1.482   3.322   3.553
  188SOL    HW1 1463   1.556   3.368   3.602
  188SOL    HW2 1464   1.459   3.237   3.600
  189SOL     OW 1465   6.008   4.935   6.223
  189SOL    HW1 1466   6.084   4.985   6.180
  189SOL    HW2 1467   5.957   4.885   6.153
  190SOL     OW 1468   5.924   0.633   6.948
  190SOL    HW1 1469   6.021   0.647   6.932
  190SOL    HW2 1470   5.901   0.536   6.934
  191SOL     OW 1471   6.793   1.288   5.106
  191SOL    HW1 1472   6.799   1.265   5.009
  191SOL    HW2 1473   6.862   1.357   5.128
  192SOL     OW 1474   0.520   5.604   0.783
  192SOL    HW1 1475   0.421   5.604   0.774
  192SOL    HW2 1476   0.552   5.695   0.810
  193SOL     OW 1477   2.912   6.054   7.018
  193SOL    HW1 1478   2.971   6.119   0.044
  193SOL    HW2 1479   2.823   6.095   7.001
  194SOL     OW 1480   4.108   6.429   2.414
  194SOL    HW1 1481   4.016   6.389   2.410
  194SOL    HW2 1482   4.173   6.367   2.371
  195SOL     OW 1483   3.783   0.989   0.944
  195SOL    HW1 1484   3.790   0.970   1.042
  195SOL    HW2 1485   3.734   1.075   0.931
  196SOL     OW 1486   2.988   1.611   0.292
  196SOL    HW1 1487   3.077   1.650   0.319
  196SOL    HW2 1488   2.936   1.680   0.242
  197SOL     OW 1489   2.323   0.013   0.403
  197SOL    HW1 1490   2.280   0.088   0.354
  197SOL    HW2 1491   2.263   6.954   0.401
  198SOL     OW 1492   4.470   0.591   6.284
  198SOL    HW1 1493   4.476   0.498   6.248
  198SOL    HW2 1494   4.405   0.644   6.230
  199SOL     OW 1495   0.221   7.016   3.249
  199SOL    HW1 1496   0.161   0.073   3.233
  199SOL    HW2 1497   0.283   7.006   3.171
  200SOL     OW 1498   0.614   4.020   3.195
  200SOL    HW1 1499   0.522   4.055   3.175
  200SOL    HW2 1500   0.645   3.962   3.120
  201SOL     OW 1501   4.225   1.034   6.313
  201SOL    HW1 1502   4.292   1.008   6.383
  201SOL    HW2 1503   4.134   1.037   6.354
  202SOL     OW 1504   3.238   0.189   2.913
  202SOL    HW1 1505   3.279   0.280   2.916
  202SOL    HW2 1506   3.248   0.145   3.003
  203SOL     OW 1507   5.701   2.911   6.460
  203SOL    HW1 1508   5.740   2.969   6.388
  203SOL    HW2 1509   5.766   2.902   6.535
  204SOL     OW 1510   2.428   6.671   1.311
  204SOL    HW1 1511   2.332   6.656   1.289
  204SOL    HW2 1512   2.482   6.671   1.227
  205SOL     OW 1513   6.219   1.490   0.539
  205SOL    HW1 1514   6.222   1.569   0.478
  205SOL    HW2 1515   6.302   1.435   0.526
  206SOL     OW 1516   1.252   4.531   1.536
  206SOL    HW1 1517   1.289   4.606   1.482
  206SOL    HW2 1518   1.160   4.555   1.568
  207SOL     OW 1519   4.836   0.447   5.459
  207SOL    HW1 1520   4.857   0.362   5.410
  207SOL    HW2 1521   4.769   0.428   5.531
  208SOL     OW 1522   3.845   4.791   6.323
  208SOL    HW1 1523   3.864   4.746   6.410
  208SOL    HW2 1524   3.927   4.791   6.266
  209SOL     OW 1525   6.859   5.939   5.580
  209SOL    HW1 1526   6.822   5.863   5.634
  209SOL    HW2 1527   6.877   5.908   5.487
  210SOL     OW 1528   3.885   2.701   1.650
  210SOL    HW1 1529   3.805   2.657   1.691
  210SOL    HW2 1530   3.912   2.652   1.568
  211SOL     OW 1531   1.809   1.948   1.401
  211SOL    HW1 1532   1.781   2.019   1.336
  211SOL    HW2 1533   1.908   1.932   1.393
  212SOL     OW 1534   0.374   5.824   3.573
  212SOL    HW1 1535   0.397   5.750   3.636
  212SOL    HW2 1536   0.328   5.786   3.493
  213SOL     OW 1537   4.762   2.170   0.201
  213SOL    HW1 1538   4.822   2.226   0.258
  213SOL    HW2 1539   4.668   2.203   0.210
  214SOL     OW 1540   1.461   0.709   3.154
  214SOL    HW1 1541   1.413   0.706   3.242
  214SOL    HW2 1542   1.501   0.619   3.134
  215SOL     OW 1543   3.477   3.343   2.872
  215SOL    HW1 1544   3.420   3.326   2.952
  215SOL    HW2 1545   3.458   3.435   2.836
  216SOL     OW 1546   0.777   6.300   6.008
  216SOL    HW1 1547   0.845   6.358   5.962
  216SOL    HW2 1548   0.782   6.208   5.970
  217SOL     OW 1549   1.076   3.105   3.221
  217SOL    HW1 1550   1.121   3.056   3.147
  217SOL    HW2 1551   1.056   3.041   3.296
  218SOL     OW 1552   1.113   4.271   5.497
  218SOL    HW1 1553   1.163   4.295   5.581
  218SOL    HW2 1554   1.019   4.247   5.520
  219SOL     OW 1555   4.842   5.270   6.929
  219SOL    HW1 1556   4.839   5.370   6.927
  219SOL    HW2 1557   4.932   5.240   6.963
  220SOL     OW 1558   3.187   4.710   1.044
  220SOL    HW1 1559   3.213   4.801   1.075
  220SOL    HW2 1560   3.168   4.712   0.946
  221SOL     OW 1561   5.815   2.052   4.415
  221SOL    HW1 1562   5.857   2.034   4.504
  221SOL    HW2 1563   5.735   2.111   4.427
  222SOL     OW 1564   1.006   6.549   5.086
  222SOL    HW1 1565   1.031   6.454   5.103
  222SOL    HW2 1566   0.924   6.553   5.029
  223SOL     OW 1567   6.379   3.670   1.520
  223SOL    HW1 1568   6.374   3.758   1.567
  223SOL    HW2 1569   6.470   3.658   1.480
  224SOL     OW 1570   3.163   2.422   1.646
  224SOL    HW1 1571   3.246   2.384   1.687
  224SOL    HW2 1572   3.101   2.451   1.719
  225SOL     OW 1573   6.258   0.485   6.762
  225SOL    HW1 1574   6.210   0.453   6.680
  225SOL    HW2 1575   6.262   0.585   6.761
  226SOL     OW 1576   6.381   5.790   1.091
  226SOL    HW1 1577   6.344   5.722   1.155
  226SOL    HW2 1578   6.478   5.772   1.077
  227SOL     OW 1579   1.739   2.826   4.209
  227SOL    HW1 1580   1.741   2.744   4.266
  227SOL    HW2 1581   1.793   2.898   4.251
  228SOL     OW 1582   3.946   0.023   3.362
  228SOL    HW1 1583   3.998   0.024   3.447
  228SOL    HW2 1584   3.889   6.962   3.359
  229SOL     OW 1585   6.139   5.631   2.673
  229SOL    HW1 1586   6.111   5.629   2.769
  229SOL    HW2 1587   6.238   5.645   2.668
  230SOL     OW 1588   1.662   4.613   5.383
  230SOL    HW1 1589   1.665   4.587   5.286
  230SOL    HW2 1590   1.671   4.712   5.392
  231SOL     OW 1591   0.717   2.300   6.729
  231SOL    HW1 1592   0.744   2.367   6.798
  231SOL    HW2 1593   0.776   2.308   6.649
  232SOL     OW 1594   1.853   4.710   6.736
  232SOL    HW1 1595   1.873   4.618   6.769
  232SOL    HW2 1596   1.849   4.708   6.636
  233SOL     OW 1597   2.577   0.988   6.219
  233SOL    HW1 1598   2.598   1.065   6.279
  233SOL    HW2 1599   2.601   1.012   6.125
  234SOL     OW 1600   2.728   6.005   0.339
  234SOL    HW1 1601   2.673   6.075   0.293
  234SOL    HW2 1602   2.801   5.975   0.278
  235SOL     OW 1603   3.163   3.531   5.008
  235SOL    HW1 1604   3.097   3.573   5.070
  235SOL    HW2 1605   3.153   3.432   5.010
  236SOL     OW 1606   0.167   2.048   4.795
  236SOL    HW1 1607   0.176   1.951   4.777
  236SOL    HW2 1608   0.256   2.093   4.786
  237SOL     OW 1609   0.445   0.084   1.340
  237SOL    HW1 1610   0.442   0.007   1.403
  237SOL    HW2 1611   0.425   0.051   1.247
  238SOL     OW 1612   5.894   2.562   2.540
  238SOL    HW1 1613   5.818   2.502   2.564
  238SOL    HW2 1614   5.889   2.646   2.593
  239SOL     OW 1615   7.003   5.956   0.211
  239SOL    HW1 1616   0.051   5.922   0.274
  239SOL    HW2 1617   7.004   5.901   0.128
  240SOL     OW 1618   6.683   3.476   5.857
  240SOL    HW1 1619   6.671   3.378   5.842
  240SOL    HW2 1620   6.742   3.513   5.785
  241SOL     OW 1621   0.611   0.741   3.287
  241SOL    HW1 1622   0.651   0.800   3.217
  241SOL    HW2 1623   0.622   0.784   3.377
  242SOL     OW 1624   1.663   3.278   4.074
  242SOL    HW1 1625   1.618   3.363   4.048
  242SOL    HW2 1626   1.597   3.218   4.119
  243SOL     OW 1627   4.672   0.113   5.112
  243SOL    HW1 1628   4.606   0.181   5.081
  243SOL    HW2 1629   4.709   0.064   5.032
  244SOL     OW 1630   6.387   2.139   5.760
  244SOL    HW1 1631   6.299   2.162   5.802
  244SOL    HW2 1632   6.374   2.067   5.692
  245SOL     OW 1633   6.113   1.632   3.684
  245SOL    HW1 1634   6.082   1.719   3.646
  245SOL    HW2 1635   6.195   1.602   3.636
  246SOL     OW 1636   5.281   3.380   3.260
  246SOL    HW1 1637   5.367   3.337   3.288
  246SOL    HW2 1638   5.297   3.478   3.245
  247SOL     OW 1639   2.816   1.565   3.300
  247SOL    HW1 1640   2.778   1.581   3.209
  247SOL    HW2 1641   2.832   1.652   3.346
  248SOL     OW 1642   5.911   1.393   2.891
  248SOL    HW1 1643   5.847   1.445   2.835
  248SOL    HW2 1644   5.976   1.345   2.831
  249SOL     OW 1645   3.556   0.198   3.778
  249SOL    HW1 1646   3.482   0.137   3.808
  249SOL    HW2 1647   3.587   0.252   3.856
  250SOL     OW 1648   4.845   2.844   5.967
  250SOL    HW1 1649   4.919   2.905   5.939
  250SOL    HW2 1650   4.882   2.769   6.022
  251SOL     OW 1651   2.957   2.287   1.240
  251SOL    HW1 1652   2.993   2.259   1.151
  251SOL    HW2 1653   2.938   2.385   1.239
  252SOL     OW 1654   0.361   1.154   5.899
  252SOL    HW1 1655   0.322   1.245   5.910
  252SOL    HW2 1656   0.445   1.147   5.954
  253SOL     OW 1657   2.788   3.758   6.094
  253SOL    HW1 1658   2.764   3.707   6.012
  253SOL    HW2 1659   2.743   3.718   6.173
  254SOL     OW 1660   5.980   3.128   5.125
  254SOL    HW1 1661   5.961   3.125   5.027
  254SOL    HW2 1662   5.906   3.084   5.176
  255SOL     OW 1663   3.369   2.005   4.274
  255SOL    HW1 1664   3.443   2.006   4.207
  255SOL    HW2 1665   3.331   1.913   4.281
  256SOL     OW 1666   6.315   5.961   6.544
  256SOL    HW1 1667   6.222   5.938   6.516
  256SOL    HW2 1668   6.323   5.954   6.643
  257SOL     OW 1669   3.246   5.978   6.106
  257SOL    HW1 1670   3.157   5.984   6.152
  257SOL    HW2 1671   3.253   5.890   6.059
  258SOL     OW 1672   5.405   4.193   4.040
  258SOL    HW1 1673   5.381   4.188   4.137
  258SOL    HW2 1674   5.329   4.157   3.985
  259SOL     OW 1675   0.870   2.630   2.834
  259SOL    HW1 1676   0.915   2.578   2.907
  259SOL    HW2 1677   0.931   2.634   2.755
  260SOL     OW 1678   6.200   0.433   6.056
  260SOL    HW1 1679   6.129   0.402   5.992
  260SOL    HW2 1680   6.274   0.367   6.058
  261SOL     OW 1681   0.816   2.712   2.492
  261SOL    HW1 1682   0.812   2.616   2.521
  261SOL    HW2 1683   0.872   2.719   2.409
  262SOL     OW 1684   0.891   5.248   2.265
  262SOL    HW1 1685   0.969   5.293   2.309
  262SOL    HW2 1686   0.869   5.294   2.179
  263SOL     OW 1687   1.193   2.340   3.953
  263SOL    HW1 1688   1.255   2.349   4.031
  263SOL    HW2 1689   1.188   2.244   3.924
  264SOL     OW 1690   3.102   4.951   6.655
  264SOL    HW1 1691   3.053   5.020   6.709
  264SOL    HW2 1692   3.199   4.975   6.651
  265SOL     OW 1693   5.283   4.389   5.162
  265SOL    HW1 1694   5.324   4.367   5.251
  265SOL    HW2 1695   5.235   4.309   5.126
  266SOL     OW 1696   3.757   2.576   0.606
  266SOL    HW1 1697   3.760   2.572   0.506
  266SOL    HW2 1698   3.689   2.511   0.640
  267SOL     OW 1699   1.192   1.895   5.758
  267SOL    HW1 1700   1.149   1.821   5.706
  267SOL    HW2 1701   1.122   1.957   5.792
  268SOL     OW 1702   3.383   5.015   4.389
  268SOL    HW1 1703   3.405   5.106   4.423
  268SOL    HW2 1704   3.285   4.998   4.401
  269SOL     OW 1705   1.014   1.264   5.661
  269SOL    HW1 1706   1.075   1.236   5.735
  269SOL    HW2 1707   0.935   1.312   5.699
  270SOL     OW 1708   4.881   1.235   3.855
  270SOL    HW1 1709   4.862   1.260   3.950
  270SOL    HW2 1710   4.923   1.144   3.853
  271SOL     OW 1711   1.750   0.903   0.143
  271SOL    HW1 1712   1.755   0.819   0.088
  271SOL    HW2 1713   1.695   0.970   0.094
  272SOL     OW 1714   3.883   5.499   3.082
  272SOL    HW1 1715   3.903   5.598   3.082
  272SOL    HW2 1716   3.923   5.458   3.164
  273SOL     OW 1717   2.788   6.863   5.268
  273SOL    HW1 1718   2.871   6.919   5.273
  273SOL    HW2 1719   2.746   6.858   5.359
  274SOL     OW 1720   5.541   2.257   1.253
  274SOL    HW1 1721   5.604   2.225   1.323
  274SOL    HW2 1722   5.582   2.244   1.163
  275SOL     OW 1723   6.165   6.081   5.116
  275SOL    HW1 1724   6.089   6.143   5.136
  275SOL    HW2 1725   6.166   6.007   5.183
  276SOL     OW 1726   6.420   6.419   3.590
  276SOL    HW1 1727   6.500   6.475   3.570
  276SOL    HW2 1728   6.373   6.395   3.505
  277SOL     OW 1729   5.283   1.300   5.238
  277SOL    HW1 1730   5.304   1.288   5.335
  277SOL    HW2 1731   5.256   1.212   5.199
  278SOL     OW 1732   6.133   2.997   2.827
  278SOL    HW1 1733   6.049   2.943   2.837
  278SOL    HW2 1734   6.189   2.987   2.909
  279SOL     OW 1735   0.164   3.119   4.377
  279SOL    HW1 1736   0.260   3.091   4.374
  279SOL    HW2 1737   0.155   3.210   4.337
  280SOL     OW 1738   3.345   1.057   3.564
  280SOL    HW1 1739   3.410   0.983   3.574
  280SOL    HW2 1740   3.382   1.141   3.604
  281SOL     OW 1741   5.300   5.769   3.823
  281SOL    HW1 1742   5.226   5.704   3.807
  281SOL    HW2 1743   5.385   5.719   3.843
  282SOL     OW 1744   2.660   1.800   0.345
  282SOL    HW1 1745   2.670   1.755   0.257
  282SOL    HW2 1746   2.617   1.737   0.410
  283SOL     OW 1747   6.802   2.338   4.698
  283SOL    HW1 1748   6.823   2.241   4.690
  283SOL    HW2 1749   6.803   2.380   4.607
  284SOL     OW 1750   5.288   5.780   3.177
  284SOL    HW1 1751   5.248   5.872   3.178
  284SOL    HW2 1752   5.378   5.782   3.220
  285SOL     OW 1753   4.426   0.397   5.896
  285SOL    HW1 1754   4.335   0.435   5.883
  285SOL    HW2 1755   4.456   0.354   5.810
  286SOL     OW 1756   2.154   5.008   5.183
  286SOL    HW1 1757   2.250   4.999   5.209
  286SOL    HW2 1758   2.121   5.098   5.210
  287SOL     OW 1759   3.459   0.316   6.333
  287SOL    HW1 1760   3.462   0.246   6.404
  287SOL    HW2 1761   3.465   0.273   6.243
  288SOL     OW 1762   4.201   0.633   0.917
  288SOL    HW1 1763   4.139   0.609   0.842
  288SOL    HW2 1764   4.151   0.686   0.986
  289SOL     OW 1765   6.021   5.965   3.297
  289SOL    HW1 1766   6.099   5.999   3.349
  289SOL    HW2 1767   5.939   5.970   3.353
  290SOL     OW 1768   3.228   0.814   5.944
  290SOL    HW1 1769   3.258   0.803   6.039
  290SOL    HW2 1770   3.308   0.819   5.884
  291SOL     OW 1771   3.100   6.817   5.028
  291SOL    HW1 1772   3.180   6.761   5.008
  291SOL    HW2 1773   3.062   6.854   4.943
  292SOL     OW 1774   4.606   6.664   4.007
  292SOL    HW1 1775   4.544   6.597   3.966
  292SOL    HW2 1776   4.553   6.730   4.060
  293SOL     OW 1777   5.846   0.039   2.404
  293SOL    HW1 1778   5.840   0.010   2.499
  293SOL    HW2 1779   5.931   0.005   2.364
  294SOL     OW 1780   6.457   0.910   6.055
  294SOL    HW1 1781   6.402   0.962   6.120
  294SOL    HW2 1782   6.552   0.941   6.058
  295SOL     OW 1783   1.355   1.306   5.101
  295SOL    HW1 1784   1.304   1.222   5.085
  295SOL    HW2 1785   1.409   1.329   5.020
  296SOL     OW 1786   6.926   2.560   1.422
  296SOL    HW1 1787   6.861   2.541   1.349
  296SOL    HW2 1788   7.015   2.522   1.397
  297SOL     OW 1789   4.913   3.209   4.160
  297SOL    HW1 1790   4.970   3.133   4.191
  297SOL    HW2 1791   4.846   3.231   4.231
  298SOL     OW 1792   3.973   0.509   6.356
  298SOL    HW1 1793   4.017   0.564   6.427
  298SOL    HW2 1794   3.877   0.496   6.380
  299SOL     OW 1795   1.292   0.973   6.797
  299SOL    HW1 1796   1.302   0.931   6.887
  299SOL    HW2 1797   1.296   1.072   6.805
  300SOL     OW 1798   4.285   6.849   3.615
  300SOL    HW1 1799   4.248   6.851   3.522
  300SOL    HW2 1800   4.213   6.873   3.680
  301SOL     OW 1801   6.703   5.668   1.241
  301SOL    HW1 1802   6.798   5.641   1.232
  301SOL    HW2 1803   6.669   5.703   1.153
  302SOL     OW 1804   0.229   5.634   1.744
  302SOL    HW1 1805   0.197   5.607   1.835
  302SOL    HW2 1806   0.252   5.552   1.691
  303SOL     OW 1807   5.373   5.882   2.754
  303SOL    HW1 1808   5.422   5.964   2.782
  303SOL    HW2 1809   5.342   5.832   2.835
  304SOL     OW 1810   2.296   5.674   4.499
  304SOL    HW1 1811   2.199   5.666   4.477
  304SOL    HW2 1812   2.334   5.584   4.519
  305SOL     OW 1813   0.846   3.181   2.061
  305SOL    HW1 1814   0.776   3.217   1.999
  305SOL    HW2 1815   0.921   3.247   2.069
  306SOL     OW 1816   0.113   6.544   2.829
  306SOL    HW1 1817   0.032   6.528   2.885
  306SOL    HW2 1818   0.092   6.528   2.733
  307SOL     OW 1819   3.016   3.238   3.460
  307SOL    HW1 1820   2.998   3.261   3.556
  307SOL    HW2 1821   3.004   3.320   3.404
  308SOL     OW 1822   5.265   2.163   3.883
  308SOL    HW1 1823   5.192   2.175   3.815
  308SOL    HW2 1824   5.310   2.251   3.899
  309SOL     OW 1825   1.146   6.630   6.531
  309SOL    HW1 1826   1.241   6.659   6.517
  309SOL    HW2 1827   1.135   6.536   6.501
  310SOL     OW 1828   5.103   6.872   5.206
  310SOL    HW1 1829   5.051   6.859   5.290
  310SOL    HW2 1830   5.065   6.814   5.133
  311SOL     OW 1831   1.872   5.913   2.711
  311SOL    HW1 1832   1.791   5.961   2.675
  311SOL    HW2 1833   1.921   5.870   2.635
  312SOL     OW 1834   4.687   1.902   3.006
  312SOL    HW1 1835   4.683   1.932   2.911
  312SOL    HW2 1836   4.635   1.965   3.064
  313SOL     OW 1837   4.096   3.637   3.104
  313SOL    HW1 1838   4.118   3.731   3.076
  313SOL    HW2 1839   4.028   3.639   3.177
  314SOL     OW 1840   2.299   5.878   6.196
  314SOL    HW1 1841   2.216   5.921   6.160
  314SOL    HW2 1842   2.354   5.843   6.120
  315SOL     OW 1843   6.323   1.410   3.187
  315SOL    HW1 1844   6.269   1.370   3.260
  315SOL    HW2 1845   6.262   1.447   3.117
  316SOL     OW 1846   3.479   1.433   5.891
  316SOL    HW1 1847   3.499   1.335   5.890
  316SOL    HW2 1848   3.388   1.449   5.855
  317SOL     OW 1849   1.343   1.651   1.831
  317SOL    HW1 1850   1.288   1.735   1.826
  317SOL    HW2 1851   1.355   1.625   1.927
  318SOL     OW 1852   0.956   0.477   5.153
  318SOL    HW1 1853   0.889   0.508   5.085
  318SOL    HW2 1854   0.959   0.377   5.153
  319SOL     OW 1855   1.586   1.566   2.497
  319SOL    HW1 1856   1.562   1.507   2.420
  319SOL    HW2 1857   1.503   1.608   2.535
  320SOL     OW 1858   5.985   1.806   6.075
  320SOL    HW1 1859   5.982   1.715   6.117
  320SOL    HW2 1860   5.956   1.875   6.142
  321SOL     OW 1861   4.290   3.493   0.579
  321SOL    HW1 1862   4.323   3.501   0.673
  321SOL    HW2 1863   4.190   3.495   0.578
  322SOL     OW 1864   3.507   3.281   5.925
  322SOL    HW1 1865   3.539   3.350   5.991
  322SOL    HW2 1866   3.414   3.304   5.896
  323SOL     OW 1867   0.370   3.408   2.535
  323SOL    HW1 1868   0.422   3.472   2.591
  323SOL    HW2 1869   0.313   3.460   2.470
  324SOL     OW 1870   0.389   0.090   3.807
  324SOL    HW1 1871   0.363   0.132   3.894
  324SOL    HW2 1872   0.331   0.010   3.790
  325SOL     OW 1873   0.053   3.879   2.107
  325SOL    HW1 1874   0.091   3.908   2.019
  325SOL    HW2 1875   0.100   3.926   2.181
  326SOL     OW 1876   0.788   6.446   6.384
  326SOL    HW1 1877   0.779   6.510   6.460
  326SOL    HW2 1878   0.830   6.492   6.306
  327SOL     OW 1879   4.615   5.506   4.118
  327SOL    HW1 1880   4.659   5.469   4.200
  327SOL    HW2 1881   4.619   5.605   4.120
  328SOL     OW 1882   2.225   4.039   2.387
  328SOL    HW1 1883   2.150   3.974   2.399
  328SOL    HW2 1884   2.248   4.047   2.290
  329SOL     OW 1885   3.249   3.501   2.184
  329SOL    HW1 1886   3.272   3.577   2.245
  329SOL    HW2 1887   3.312   3.500   2.107
  330SOL     OW 1888   3.222   5.823   0.595
  330SOL    HW1 1889   3.292   5.893   0.608
  330SOL    HW2 1890   3.132   5.861   0.617
  331SOL     OW 1891   5.474   5.094   6.656
  331SOL    HW1 1892   5.570   5.087   6.628
  331SOL    HW2 1893   5.469   5.101   6.755
  332SOL     OW 1894   5.559   1.853   3.349
  332SOL    HW1 1895   5.515   1.872   3.261
  332SOL    HW2 1896   5.650   1.814   3.334
  333SOL     OW 1897   3.439   0.627   5.657
  333SOL    HW1 1898   3.372   0.695   5.627
  333SOL    HW2 1899   3.395   0.537   5.661
  334SOL     OW 1900   4.158   3.372   3.209
  334SOL    HW1 1901   4.159   3.465   3.246
  334SOL    HW2 1902   4.247   3.351   3.170
  335SOL     OW 1903   3.788   6.956   0.016
  335SOL    HW1 1904   3.746   6.874   0.055
  335SOL    HW2 1905   3.730   0.013   0.034
  336SOL     OW 1906   2.608   2.096   3.734
  336SOL    HW1 1907   2.531   2.105   3.797
  336SOL    HW2 1908   2.629   2.186   3.695
  337SOL     OW 1909   1.952   0.475   6.194
  337SOL    HW1 1910   1.959   0.449   6.098
  337SOL    HW2 1911   1.867   0.526   6.209
  338SOL     OW 1912   4.208   1.708   1.172
  338SOL    HW1 1913   4.295   1.694   1.125
  338SOL    HW2 1914   4.151   1.626   1.162
  339SOL     OW 1915   4.052   5.481   5.252
  339SOL    HW1 1916   3.977   5.539   5.285
  339SOL    HW2 1917   4.129   5.538   5.224
  340SOL     OW 1918   4.550   2.171   3.715
  340SOL    HW1 1919   4.619   2.138   3.651
  340SOL    HW2 1920   4.516   2.259   3.683
  341SOL     OW 1921   5.699   6.838   2.917
  341SOL    HW1 1922   5.681   6.891   2.999
  341SOL    HW2 1923   5.667   6.744   2.930
  342SOL     OW 1924   4.371   2.313   2.487
  342SOL    HW1 1925   4.471   2.317   2.485
  342SOL    HW2 1926   4.336   2.320   2.393
  343SOL     OW 1927   0.074   5.930   2.727
  343SOL    HW1 1928   0.017   5.955   2.805
  343SOL    HW2 1929   0.030   5.857   2.675
  344SOL     OW 1930   2.438   2.017   1.513
  344SOL    HW1 1931   2.414   2.106   1.474
  344SOL    HW2 1932   2.462   2.029   1.610
  345SOL     OW 1933   7.015   3.741   4.120
  345SOL    HW1 1934   0.075   3.690   4.093
  345SOL    HW2 1935   6.936   3.707   4.069
  346SOL     OW 1936   1.927   6.982   3.385
  346SOL    HW1 1937   1.854   0.010   3.339
  346SOL    HW2 1938   2.015   7.007   3.344
  347SOL     OW 1939   3.192   5.064   0.661
  347SOL    HW1 1940   3.291   5.052   0.663
  347SOL    HW2 1941   3.154   5.041   0.750
  348SOL     OW 1942   4.204   5.531   1.914
  348SOL    HW1 1943   4.228   5.602   1.849
  348SOL    HW2 1944   4.286   5.497   1.959
  349SOL     OW 1945   6.409   4.532   1.603
  349SOL    HW1 1946   6.468   4.559   1.528
  349SOL    HW2 1947   6.439   4.576   1.688
  350SOL     OW 1948   3.229   3.116   0.595
  350SOL    HW1 1949   3.189   3.207   0.601
  350SOL    HW2 1950   3.227   3.072   0.685
  351SOL     OW 1951   3.214   4.205   1.374
  351SOL    HW1 1952   3.220   4.279   1.307
  351SOL    HW2 1953   3.121   4.170   1.377
  352SOL     OW 1954   4.002   0.151   3.133
  352SOL    HW1 1955   3.993   0.088   3.210
  352SOL    HW2 1956   3.969   0.241   3.160
  353SOL     OW 1957   1.908   6.190   0.122
  353SOL    HW1 1958   1.812   6.171   0.099
  353SOL    HW2 1959   1.966   6.169   0.044
  354SOL     OW 1960   0.149   2.652   0.242
  354SOL    HW1 1961   0.071   2.599   0.274
  354SOL    HW2 1962   0.218   2.656   0.314
  355SOL     OW 1963   2.022   2.018   2.203
  355SOL    HW1 1964   2.026   1.918   2.195
  355SOL    HW2 1965   1.942   2.052   2.154
  356SOL     OW 1966   0.890   6.627   6.209
  356SOL    HW1 1967   0.915   6.577   6.126
  356SOL    HW2 1968   0.953   6.703   6.223
  357SOL     OW 1969   5.845   6.425   4.522
  357SOL    HW1 1970   5.916   6.488   4.491
  357SOL    HW2 1971   5.819   6.365   4.447
  358SOL     OW 1972   4.523   5.710   0.386
  358SOL    HW1 1973   4.449   5.712   0.319
  358SOL    HW2 1974   4.609   5.734   0.341
  359SOL     OW 1975   2.361   2.422   2.861
  359SOL    HW1 1976   2.344   2.472   2.776
  359SOL    HW2 1977   2.456   2.433   2.889
  360SOL     OW 1978   1.348   4.927   4.370
  360SOL    HW1 1979   1.274   4.973   4.420
  360SOL    HW2 1980   1.338   4.945   4.272
  361SOL     OW 1981   6.391   0.047   3.301
  361SOL    HW1 1982   6.480   0.002   3.304
  361SOL    HW2 1983   6.319   6.999   3.303
  362SOL     OW 1984   4.166   4.878   0.926
  362SOL    HW1 1985   4.163   4.923   0.837
  362SOL    HW2 1986   4.258   4.845   0.944
  363SOL     OW 1987   4.985   5.638   2.331
  363SOL    HW1 1988   5.021   5.546   2.318
  363SOL    HW2 1989   5.022   5.698   2.260
  364SOL     OW 1990   0.533   5.784   6.403
  364SOL    HW1 1991   0.456   5.847   6.396
  364SOL    HW2 1992   0.511   5.700   6.353
  365SOL     OW 1993   4.837   2.167   2.904
  365SOL    HW1 1994   4.896   2.107   2.958
  365SOL    HW2 1995   4.820   2.251   2.955
  366SOL     OW 1996   5.642   2.542   0.190
  366SOL    HW1 1997   5.554   2.517   0.230
  366SOL    HW2 1998   5.654   2.492   0.103
  367SOL     OW 1999   4.599   1.955   5.460
  367SOL    HW1 2000   4.536   1.880   5.483
  367SOL    HW2 2001   4.548   2.041   5.458
  368SOL     OW 2002   6.500   2.389   5.700
  368SOL    HW1 2003   6.466   2.301   5.733
  368SOL    HW2 2004   6.479   2.399   5.603
  369SOL     OW 2005   5.862   3.293   2.167
  369SOL    HW1 2006   5.960   3.277   2.167
  369SOL    HW2 2007   5.836   3.345   2.085
  370SOL     OW 2008   2.104   3.441   4.565
  370SOL    HW1 2009   2.159   3.361   4.588
  370SOL    HW2 2010   2.097   3.501   4.645
  371SOL     OW 2011   1.409   4.553   0.107
  371SOL    HW1 2012   1.451   4.582   0.021
  371SOL    HW2 2013   1.309   4.559   0.099
  372SOL     OW 2014   3.861   6.571   6.575
  372SOL    HW1 2015   3.802   6.601   6.651
  372SOL    HW2 2016   3.804   6.544   6.497
  373SOL     OW 2017   5.566   5.713   4.145
  373SOL    HW1 2018   5.618   5.690   4.227
  373SOL    HW2 2019   5.621   5.774   4.088
  374SOL     OW 2020   2.770   1.946   2.505
  374SOL    HW1 2021   2.789   1.994   2.419
  374SOL    HW2 2022   2.680   1.973   2.538
  375SOL     OW 2023   1.113   4.853   4.755
  375SOL    HW1 2024   1.163   4.810   4.830
  375SOL    HW2 2025   1.017   4.864   4.781
  376SOL     OW 2026   2.352   0.882   4.845
  376SOL    HW1 2027   2.402   0.929   4.916
  376SOL    HW2 2028   2.291   0.813   4.886
  377SOL     OW 2029   1.064   2.302   6.467
  377SOL    HW1 2030   1.078   2.203   6.470
  377SOL    HW2 2031   1.126   2.342   6.399
  378SOL     OW 2032   3.694   1.067   1.647
  378SOL    HW1 2033   3.779   1.024   1.677
  378SOL    HW2 2034   3.701   1.091   1.550
  379SOL     OW 2035   6.202   2.311   5.378
  379SOL    HW1 2036   6.141   2.359   5.315
  379SOL    HW2 2037   6.147   2.251   5.437
  380SOL     OW 2038   4.124   2.128   1.012
  380SOL    HW1 2039   4.073   2.069   0.950
  380SOL    HW2 2040   4.142   2.079   1.097
  381SOL     OW 2041   1.530   4.032   3.260
  381SOL    HW1 2042   1.472   4.102   3.218
  381SOL    HW2 2043   1.621   4.070   3.276
  382SOL     OW 2044   5.238   0.835   0.105
  382SOL    HW1 2045   5.214   0.905   0.038
  382SOL    HW2 2046   5.285   0.877   0.182
  383SOL     OW 2047   4.035   3.584   0.781
  383SOL    HW1 2048   4.073   3.619   0.867
  383SOL    HW2 2049   3.970   3.510   0.800
  384SOL     OW 2050   5.885   4.259   4.758
  384SOL    HW1 2051   5.849   4.174   4.796
  384SOL    HW2 2052   5.873   4.333   4.825
  385SOL     OW 2053   4.752   4.839   0.306
  385SOL    HW1 2054   4.809   4.858   0.386
  385SOL    HW2 2055   4.792   4.763   0.254
  386SOL     OW 2056   3.103   6.990   3.914
  386SOL    HW1 2057   3.031   0.024   3.955
  386SOL    HW2 2058   3.144   6.932   3.984
  387SOL     OW 2059   1.974   5.730   3.869
  387SOL    HW1 2060   2.012   5.705   3.780
  387SOL    HW2 2061   2.034   5.697   3.942
  388SOL     OW 2062   2.339   2.983   6.292
  388SOL    HW1 2063   2.411   2.951   6.354
  388SOL    HW2 2064   2.373   3.060   6.238
  389SOL     OW 2065   3.107   3.850   3.293
  389SOL    HW1 2066   3.121   3.827   3.389
  389SOL    HW2 2067   3.020   3.811   3.262
  390SOL     OW 2068   1.958   1.371   4.275
  390SOL    HW1 2069   1.890   1.320   4.223
  390SOL    HW2 2070   2.020   1.306   4.320
  391SOL     OW 2071   0.908   3.054   0.395
  391SOL    HW1 2072   0.891   3.146   0.359
  391SOL    HW2 2073   0.857   3.042   0.480
  392SOL     OW 2074   2.262   4.822   2.451
  392SOL    HW1 2075   2.265   4.785   2.358
  392SOL    HW2 2076   2.353   4.855   2.477
  393SOL     OW 2077   5.881   4.350   5.338
  393SOL    HW1 2078   5.935   4.343   5.254
  393SOL    HW2 2079   5.917   4.286   5.406
  394SOL     OW 2080   1.055   6.593   1.199
  394SOL    HW1 2081   1.003   6.588   1.114
  394SOL    HW2 2082   0.996   6.624   1.273
  395SOL     OW 2083   5.463   3.895   1.767
  395SOL    HW1 2084   5.434   3.834   1.841
  395SOL    HW2 2085   5.419   3.867   1.681
  396SOL     OW 2086   3.083   3.967   3.611
  396SOL    HW1 2087   3.017   3.900   3.579
  396SOL    HW2 2088   3.057   4.058   3.578
  397SOL     OW 2089   4.488   2.246   5.448
  397SOL    HW1 2090   4.559   2.298   5.495
  397SOL    HW2 2091   4.485   2.273   5.352
  398SOL     OW 2092   1.090   5.379   2.403
  398SOL    HW1 2093   1.157   5.416   2.467
  398SOL    HW2 2094   1.113   5.410   2.310
  399SOL     OW 2095   4.799   5.418   1.613
  399SOL    HW1 2096   4.887   5.376   1.634
  399SOL    HW2 2097   4.733   5.347   1.588
  400SOL     OW 2098   0.191   6.303   5.356
  400SOL    HW1 2099   0.191   6.255   5.444
  400SOL    HW2 2100   0.270   6.365   5.352
  401SOL     OW 2101   4.714   2.101   6.808
  401SOL    HW1 2102   4.676   2.053   6.728
  401SOL    HW2 2103   4.784   2.166   6.777
  402SOL     OW 2104   6.175   5.809   2.060
  402SOL    HW1 2105   6.100   5.772   2.116
  402SOL    HW2 2106   6.253   5.831   2.119
  403SOL     OW 2107   4.757   1.821   5.791
  403SOL    HW1 2108   4.707   1.759   5.730
  403SOL    HW2 2109   4.769   1.909   5.747
  404SOL     OW 2110   0.525   6.963   4.670
  404SOL    HW1 2111   0.511   6.867   4.694
  404SOL    HW2 2112   0.512   6.974   4.571
  405SOL     OW 2113   1.141   1.924   0.715
  405SOL    HW1 2114   1.063   1.869   0.746
  405SOL    HW2 2115   1.226   1.875   0.734
  406SOL     OW 2116   1.631   2.700   4.609
  406SOL    HW1 2117   1.617   2.778   4.548
  406SOL    HW2 2118   1.578   2.622   4.576
  407SOL     OW 2119   2.811   0.119   5.376
  407SOL    HW1 2120   2.795   0.216   5.395
  407SOL    HW2 2121   2.799   0.102   5.278
  408SOL     OW 2122   1.209   0.139   3.755
  408SOL    HW1 2123   1.134   0.074   3.765
  408SOL    HW2 2124   1.178   0.218   3.702
  409SOL     OW 2125   6.047   3.414   3.476
  409SOL    HW1 2126   6.002   3.420   3.387
  409SOL    HW2 2127   6.072   3.506   3.508
  410SOL     OW 2128   2.584   0.506   6.830
  410SOL    HW1 2129   2.561   0.594   6.790
  410SOL    HW2 2130   2.513   0.439   6.806
  411SOL     OW 2131   6.169   4.090   5.457
  411SOL    HW1 2132   6.221   4.142   5.525
  411SOL    HW2 2133   6.233   4.038   5.399
  412SOL     OW 2134   3.577   6.983   2.623
  412SOL    HW1 2135   3.631   6.977   2.539
  412SOL    HW2 2136   3.600   6.907   2.683
  413SOL     OW 2137   3.396   6.021   0.676
  413SOL    HW1 2138   3.431   6.108   0.639
  413SOL    HW2 2139   3.424   6.013   0.772
  414SOL     OW 2140   4.616   4.916   0.855
  414SOL    HW1 2141   4.555   4.995   0.846
  414SOL    HW2 2142   4.635   4.878   0.764
  415SOL     OW 2143   1.885   6.129   1.766
  415SOL    HW1 2144   1.901   6.154   1.862
  415SOL    HW2 2145   1.790   6.101   1.755
  416SOL     OW 2146   4.298   6.618   4.789
  416SOL    HW1 2147   4.320   6.608   4.691
  416SOL    HW2 2148   4.250   6.704   4.804
  417SOL     OW 2149   3.412   6.196   2.303
  417SOL    HW1 2150   3.370   6.129   2.243
  417SOL    HW2 2151   3.496   6.159   2.342
  418SOL     OW 2152   5.081   6.004   0.514
  418SOL    HW1 2153   5.050   5.915   0.546
  418SOL    HW2 2154   5.055   6.074   0.580
  419SOL     OW 2155   0.090   6.819   0.838
  419SOL    HW1 2156   0.119   6.727   0.862
  419SOL    HW2 2157   0.123   6.884   0.907
  420SOL     OW 2158   5.795   3.941   0.450
  420SOL    HW1 2159   5.738   3.910   0.374
  420SOL    HW2 2160   5.779   3.882   0.530
  421SOL     OW 2161   2.654   5.873   6.962
  421SOL    HW1 2162   2.572   5.855   7.015
  421SOL    HW2 2163   2.665   5.802   6.892
  422SOL     OW 2164   6.346   4.338   0.064
  422SOL    HW1 2165   6.441   4.370   0.057
  422SOL    HW2 2166   6.285   4.407   0.025
  423SOL     OW 2167   6.143   2.808   0.058
  423SOL    HW1 2168   6.197   2.839   0.136
  423SOL    HW2 2169   6.045   2.816   0.079
  424SOL     OW 2170   3.194   4.249   0.407
  424SOL    HW1 2171   3.120   4.253   0.473
  424SOL    HW2 2172   3.201   4.156   0.369
  425SOL     OW 2173   4.512   1.387   1.418
  425SOL    HW1 2174   4.504   1.338   1.505
  425SOL    HW2 2175   4.564   1.471   1.431
  426SOL     OW 2176   5.037   2.443   5.772
  426SOL    HW1 2177   5.048   2.349   5.804
  426SOL    HW2 2178   5.071   2.450   5.678
  427SOL     OW 2179   5.509   4.106   1.351
  427SOL    HW1 2180   5.444   4.138   1.282
  427SOL    HW2 2181   5.465   4.038   1.410
  428SOL     OW 2182   4.274   0.572   5.249
  428SOL    HW1 2183   4.244   0.501   5.313
  428SOL    HW2 2184   4.341   0.631   5.294
  429SOL     OW 2185   1.517   4.920   0.079
  429SOL    HW1 2186   1.567   4.913   7.014
  429SOL    HW2 2187   1.571   4.973   0.144
  430SOL     OW 2188   1.135   6.956   4.592
  430SOL    HW1 2189   1.049   6.905   4.593
  430SOL    HW2 2190   1.205   6.904   4.543
  431SOL     OW 2191   3.664   1.753   7.006
  431SOL    HW1 2192   3.644   1.781   0.078
  431SOL    HW2 2193   3.659   1.833   6.946
  432SOL     OW 2194   6.619   2.001   0.246
  432SOL    HW1 2195   6.650   2.095   0.257
  432SOL    HW2 2196   6.594   1.963   0.335
  433SOL     OW 2197   2.808   6.688   4.808
  433SOL    HW1 2198   2.828   6.672   4.905
  433SOL    HW2 2199   2.768   6.605   4.768
  434SOL     OW 2200   6.028   3.623   0.996
  434SOL    HW1 2201   5.960   3.554   1.020
  434SOL    HW2 2202   6.086   3.589   0.922
  435SOL     OW 2203   3.062   3.459   6.059
  435SOL    HW1 2204   3.097   3.537   6.111
  435SOL    HW2 2205   3.052   3.380   6.119
  436SOL     OW 2206   2.082   0.151   1.469
  436SOL    HW1 2207   2.061   0.112   1.559
  436SOL    HW2 2208   1.998   0.185   1.427
  437SOL     OW 2209   0.175   0.094   6.247
  437SOL    HW1 2210   0.165   0.193   6.237
  437SOL    HW2 2211   0.181   0.052   6.156
  438SOL     OW 2212   1.454   3.024   2.017
  438SOL    HW1 2213   1.437   3.117   2.050
  438SOL    HW2 2214   1.546   2.996   2.043
  439SOL     OW 2215   6.430   4.599   2.417
  439SOL    HW1 2216   6.414   4.569   2.323
  439SOL    HW2 2217   6.355   4.658   2.447
  440SOL     OW 2218   0.940   2.692   4.290
  440SOL    HW1 2219   0.986   2.612   4.330
  440SOL    HW2 2220   0.991   2.722   4.209
  441SOL     OW 2221   2.046   1.419   3.163
  441SOL    HW1 2222   2.045   1.492   3.095
  441SOL    HW2 2223   2.115   1.439   3.233
  442SOL     OW 2224   0.158   4.070   6.887
  442SOL    HW1 2225   0.124   4.008   6.817
  442SOL    HW2 2226   0.094   4.147   6.897
  443SOL     OW 2227   1.365   4.450   5.189
  443SOL    HW1 2228   1.417   4.364   5.198
  443SOL    HW2 2229   1.271   4.435   5.219
  444SOL     OW 2230   4.078   2.776   6.334
  444SOL    HW1 2231   4.118   2.756   6.423
  444SOL    HW2 2232   4.109   2.709   6.266
  445SOL     OW 2233   2.355   4.909   3.520
  445SOL    HW1 2234   2.368   4.907   3.421
  445SOL    HW2 2235   2.273   4.857   3.544
  446SOL     OW 2236   3.531   4.985   3.740
  446SOL    HW1 2237   3.441   5.020   3.766
  446SOL    HW2 2238   3.529   4.954   3.645
  447SOL     OW 2239   0.019   4.520   0.162
  447SOL    HW1 2240   6.971   4.460   0.201
  447SOL    HW2 2241   6.997   4.588   0.103
  448SOL     OW 2242   4.062   0.727   5.147
  448SOL    HW1 2243   4.097   0.798   5.086
  448SOL    HW2 2244   4.138   0.678   5.189
  449SOL     OW 2245   6.184   1.422   4.602
  449SOL    HW1 2246   6.148   1.402   4.510
  449SOL    HW2 2247   6.198   1.521   4.611
  450SOL     OW 2248   6.948   5.958   3.561
  450SOL    HW1 2249   6.981   6.040   3.514
  450SOL    HW2 2250   6.849   5.966   3.576
  451SOL     OW 2251   1.000   2.184   2.352
  451SOL    HW1 2252   0.959   2.098   2.319
  451SOL    HW2 2253   0.962   2.206   2.442
  452SOL     OW 2254   6.893   5.268   0.258
  452SOL    HW1 2255   6.924   5.349   0.308
  452SOL    HW2 2256   6.798   5.248   0.281
  453SOL     OW 2257   3.250   1.150   0.330
  453SOL    HW1 2258   3.262   1.054   0.306
  453SOL    HW2 2259   3.337   1.199   0.320
  454SOL     OW 2260   0.266   5.716   6.176
  454SOL    HW1 2261   0.210   5.760   6.246
  454SOL    HW2 2262   0.278   5.779   6.099
  455SOL     OW 2263   5.725   0.135   4.032
  455SOL    HW1 2264   5.665   0.112   3.955
  455SOL    HW2 2265   5.806   0.181   3.998
  456SOL     OW 2266   4.172   5.814   6.177
  456SOL    HW1 2267   4.101   5.755   6.140
  456SOL    HW2 2268   4.189   5.890   6.115
  457SOL     OW 2269   2.252   4.033   3.394
  457SOL    HW1 2270   2.297   4.106   3.444
  457SOL    HW2 2271   2.238   3.954   3.455
  458SOL     OW 2272   5.589   5.887   5.813
  458SOL    HW1 2273   5.641   5.964   5.849
  458SOL    HW2 2274   5.604   5.806   5.869
  459SOL     OW 2275   0.954   0.313   2.924
  459SOL    HW1 2276   0.858   0.339   2.917
  459SOL    HW2 2277   0.965   0.241   2.993
  460SOL     OW 2278   0.136   1.703   2.267
  460SOL    HW1 2279   0.180   1.713   2.178
  460SOL    HW2 2280   0.187   1.638   2.322
  461SOL     OW 2281   4.448   6.844   5.038
  461SOL    HW1 2282   4.386   6.767   5.056
  461SOL    HW2 2283   4.542   6.817   5.057
  462SOL     OW 2284   3.281   2.504   5.982
  462SOL    HW1 2285   3.350   2.576   5.991
  462SOL    HW2 2286   3.321   2.426   5.933
  463SOL     OW 2287   5.989   5.185   3.087
  463SOL    HW1 2288   5.929   5.239   3.145
  463SOL    HW2 2289   6.052   5.245   3.038
  464SOL     OW 2290   1.904   0.987   6.506
  464SOL    HW1 2291   1.981   1.041   6.541
  464SOL    HW2 2292   1.921   0.890   6.523
  465SOL     OW 2293   0.670   1.558   4.243
  465SOL    HW1 2294   0.587   1.538   4.295
  465SOL    HW2 2295   0.750   1.531   4.297
  466SOL     OW 2296   0.476   6.913   3.525
  466SOL    HW1 2297   0.547   6.956   3.581
  466SOL    HW2 2298   0.437   6.836   3.575
  467SOL     OW 2299   0.836   0.318   6.098
  467SOL    HW1 2300   0.756   0.333   6.156
  467SOL    HW2 2301   0.831   0.226   6.058
  468SOL     OW 2302   4.161   5.787   0.945
  468SOL    HW1 2303   4.096   5.715   0.921
  468SOL    HW2 2304   4.116   5.856   1.001
  469SOL     OW 2305   2.269   5.338   0.475
  469SOL    HW1 2306   2.273   5.246   0.437
  469SOL    HW2 2307   2.339   5.349   0.545
  470SOL     OW 2308   4.448   0.263   2.106
  470SOL    HW1 2309   4.477   0.216   2.189
  470SOL    HW2 2310   4.527   0.305   2.062
  471SOL     OW 2311   1.541   2.473   4.470
  471SOL    HW1 2312   1.471   2.452   4.402
  471SOL    HW2 2313   1.528   2.415   4.550
  472SOL     OW 2314   4.688   4.493   5.889
  472SOL    HW1 2315   4.704   4.542   5.975
  472SOL    HW2 2316   4.731   4.403   5.893
  473SOL     OW 2317   0.255   2.558   1.690
  473SOL    HW1 2318   0.186   2.490   1.714
  473SOL    HW2 2319   0.291   2.599   1.774
  474SOL     OW 2320   4.208   5.292   4.221
  474SOL    HW1 2321   4.284   5.230   4.241
  474SOL    HW2 2322   4.220   5.330   4.129
  475SOL     OW 2323   6.421   0.117   6.525
  475SOL    HW1 2324   6.407   0.022   6.499
  475SOL    HW2 2325   6.409   0.176   6.444
  476SOL     OW 2326   6.501   3.913   2.367
  476SOL    HW1 2327   6.543   3.904   2.457
  476SOL    HW2 2328   6.472   4.008   2.353
  477SOL     OW 2329   2.271   5.040   4.808
  477SOL    HW1 2330   2.218   5.111   4.854
  477SOL    HW2 2331   2.314   4.981   4.876
  478SOL     OW 2332   3.233   5.976   3.063
  478SOL    HW1 2333   3.188   5.897   3.104
  478SOL    HW2 2334   3.265   6.037   3.136
  479SOL     OW 2335   3.100   1.824   0.450
  479SOL    HW1 2336   3.035   1.776   0.508
  479SOL    HW2 2337   3.114   1.917   0.486
  480SOL     OW 2338   1.388   0.158   1.697
  480SOL    HW1 2339   1.309   0.163   1.759
  480SOL    HW2 2340   1.466   0.120   1.745
  481SOL     OW 2341   2.434   1.014   1.476
  481SOL    HW1 2342   2.339   0.984   1.489
  481SOL    HW2 2343   2.444   1.050   1.383
  482SOL     OW 2344   5.044   4.294   2.422
  482SOL    HW1 2345   5.043   4.255   2.514
  482SOL    HW2 2346   5.093   4.232   2.360
  483SOL     OW 2347   5.377   2.082   1.670
  483SOL    HW1 2348   5.338   2.146   1.603
  483SOL    HW2 2349   5.304   2.048   1.730
  484SOL     OW 2350   0.718   2.933   4.400
  484SOL    HW1 2351   0.697   2.843   4.438
  484SOL    HW2 2352   0.815   2.954   4.415
  485SOL     OW 2353   3.480   4.895   2.277
  485SOL    HW1 2354   3.472   4.994   2.266
  485SOL    HW2 2355   3.543   4.859   2.208
  486SOL     OW 2356   1.071   1.250   0.954
  486SOL    HW1 2357   1.051   1.152   0.952
  486SOL    HW2 2358   1.168   1.265   0.971
  487SOL     OW 2359   0.976   2.173   6.915
  487SOL    HW1 2360   0.912   2.131   6.851
  487SOL    HW2 2361   1.062   2.193   6.868
  488SOL     OW 2362   1.171   1.430   1.509
  488SOL    HW1 2363   1.079   1.411   1.541
  488SOL    HW2 2364   1.177   1.525   1.478
  489SOL     OW 2365   3.519   5.663   7.016
  489SOL    HW1 2366   3.568   5.576   0.004
  489SOL    HW2 2367   3.575   5.726   6.962
  490SOL     OW 2368   6.331   6.346   4.461
  490SOL    HW1 2369   6.338   6.270   4.396
  490SOL    HW2 2370   6.237   6.351   4.496
  491SOL     OW 2371   0.091   2.800   2.757
  491SOL    HW1 2372   0.073   2.781   2.854
  491SOL    HW2 2373   0.189   2.809   2.742
  492SOL     OW 2374   3.318   0.383   5.715
  492SOL    HW1 2375   3.308   0.313   5.645
  492SOL    HW2 2376   3.231   0.393   5.765
  493SOL     OW 2377   6.571   4.724   6.294
  493SOL    HW1 2378   6.542   4.700   6.201
  493SOL    HW2 2379   6.492   4.757   6.346
  494SOL     OW 2380   0.289   5.799   6.795
  494SOL    HW1 2381   0.290   5.700   6.784
  494SOL    HW2 2382   0.380   5.835   6.777
  495SOL     OW 2383   5.030   5.185   2.379
  495SOL    HW1 2384   5.059   5.199   2.474
  495SOL    HW2 2385   5.050   5.091   2.351
  496SOL     OW 2386   5.350   2.862   2.911
  496SOL    HW1 2387   5.291   2.889   2.836
  496SOL    HW2 2388   5.326   2.914   2.993
  497SOL     OW 2389   3.601   1.123   5.017
  497SOL    HW1 2390   3.671   1.142   5.086
  497SOL    HW2 2391   3.535   1.199   5.014
  498SOL     OW 2392   1.066   3.354   2.038
  498SOL    HW1 2393   1.096   3.403   2.120
  498SOL    HW2 2394   1.117   3.389   1.959
  499SOL     OW 2395   3.035   0.901   4.330
  499SOL    HW1 2396   2.942   0.892   4.367
  499SOL    HW2 2397   3.051   0.996   4.304
  500SOL     OW 2398   0.950   4.535   3.693
  500SOL    HW1 2399   0.925   4.616   3.745
  500SOL    HW2 2400   0.872   4.503   3.639
  501SOL     OW 2401   2.569   1.970   6.952
  501SOL    HW1 2402   2.662   1.984   6.919
  501SOL    HW2 2403   2.527   2.058   6.972
  502SOL     OW 2404   5.539   4.348   5.591
  502SOL    HW1 2405   5.557   4.445   5.580
  502SOL    HW2 2406   5.467   4.335   5.659
  503SOL     OW 2407   6.469   4.146   6.023
  503SOL    HW1 2408   6.494   4.237   5.991
  503SOL    HW2 2409   6.411   4.101   5.954
  504SOL     OW 2410   2.125   6.262   4.183
  504SOL    HW1 2411   2.218   6.275   4.218
  504SOL    HW2 2412   2.072   6.346   4.197
  505SOL     OW 2413   4.153   0.140   5.854
  505SOL    HW1 2414   4.129   0.225   5.900
  505SOL    HW2 2415   4.193   0.076   5.921
  506SOL     OW 2416   1.838   4.917   4.792
  506SOL    HW1 2417   1.783   4.965   4.724
  506SOL    HW2 2418   1.915   4.975   4.820
  507SOL     OW 2419   2.807   0.022   4.484
  507SOL    HW1 2420   2.767   6.956   4.458
  507SOL    HW2 2421   2.887   0.007   4.541
  508SOL     OW 2422   6.118   3.283   2.816
  508SOL    HW1 2423   6.143   3.186   2.816
  508SOL    HW2 2424   6.062   3.302   2.735
  509SOL     OW 2425   3.920   0.936   1.738
  509SOL    HW1 2426   3.860   0.914   1.815
  509SOL    HW2 2427   3.926   0.857   1.677
  510SOL     OW 2428   6.889   4.765   5.477
  510SOL    HW1 2429   6.956   4.760   5.403
  510SOL    HW2 2430   6.800   4.792   5.440
  511SOL     OW 2431   6.973   6.446   6.829
  511SOL    HW1 2432   0.034   6.465   6.776
  511SOL    HW2 2433   6.959   6.520   6.895
  512SOL     OW 2434   0.600   2.655   0.313
  512SOL    HW1 2435   0.549   2.736   0.343
  512SOL    HW2 2436   0.576   2.634   0.218
  513SOL     OW 2437   5.690   6.169   2.588
  513SOL    HW1 2438   5.645   6.129   2.508
  513SOL    HW2 2439   5.789   6.166   2.574
  514SOL     OW 2440   6.617   2.665   4.075
  514SOL    HW1 2441   6.677   2.586   4.068
  514SOL    HW2 2442   6.564   2.660   4.160
  515SOL     OW 2443   2.586   6.786   6.095
  515SOL    HW1 2444   2.513   6.787   6.163
  515SOL    HW2 2445   2.660   6.727   6.126
  516SOL     OW 2446   2.882   4.711   1.644
  516SOL    HW1 2447   2.978   4.682   1.644
  516SOL    HW2 2448   2.838   4.679   1.728
  517SOL     OW 2449   5.135   6.708   2.333
  517SOL    HW1 2450   5.167   6.791   2.287
  517SOL    HW2 2451   5.190   6.694   2.416
  518SOL     OW 2452   2.337   2.336   1.772
  518SOL    HW1 2453   2.302   2.363   1.682
  518SOL    HW2 2454   2.406   2.403   1.802
  519SOL     OW 2455   6.871   0.590   4.788
  519SOL    HW1 2456   6.864   0.490   4.780
  519SOL    HW2 2457   6.820   0.633   4.713
  520SOL     OW 2458   5.541   4.497   6.337
  520SOL    HW1 2459   5.614   4.521   6.401
  520SOL    HW2 2460   5.458   4.474   6.387
  521SOL     OW 2461   6.214   1.451   6.236
  521SOL    HW1 2462   6.166   1.531   6.272
  521SOL    HW2 2463   6.161   1.410   6.162
  522SOL     OW 2464   4.007   3.007   5.282
  522SOL    HW1 2465   4.099   2.970   5.296
  522SOL    HW2 2466   4.008   3.106   5.297
  523SOL     OW 2467   6.643   5.884   3.910
  523SOL    HW1 2468   6.651   5.906   4.007
  523SOL    HW2 2469   6.663   5.787   3.896
  524SOL     OW 2470   2.923   0.972   6.602
  524SOL    HW1 2471   2.872   0.891   6.630
  524SOL    HW2 2472   2.961   0.958   6.511
  525SOL     OW 2473   2.481   3.795   6.523
  525SOL    HW1 2474   2.439   3.852   6.453
  525SOL    HW2 2475   2.447   3.701   6.515
  526SOL     OW 2476   2.577   5.788   4.944
  526SOL    HW1 2477   2.504   5.721   4.930
  526SOL    HW2 2478   2.658   5.760   4.893
  527SOL     OW 2479   6.485   1.890   5.941
  527SOL    HW1 2480   6.408   1.829   5.925
  527SOL    HW2 2481   6.470   1.943   6.024
  528SOL     OW 2482   1.610   1.452   4.161
  528SOL    HW1 2483   1.518   1.415   4.156
  528SOL    HW2 2484   1.668   1.410   4.091
  529SOL     OW 2485   0.753   4.854   4.677
  529SOL    HW1 2486   0.804   4.867   4.762
  529SOL    HW2 2487   0.716   4.761   4.675
  530SOL     OW 2488   2.576   2.917   5.444
  530SOL    HW1 2489   2.556   2.821   5.425
  530SOL    HW2 2490   2.558   2.972   5.363
  531SOL     OW 2491   0.512   1.055   1.056
  531SOL    HW1 2492   0.527   0.960   1.028
  531SOL    HW2 2493   0.601   1.101   1.066
  532SOL     OW 2494   0.551   1.973   6.119
  532SOL    HW1 2495   0.615   2.006   6.049
  532SOL    HW2 2496   0.460   2.011   6.102
  533SOL     OW 2497   5.055   6.466   4.472
  533SOL    HW1 2498   5.099   6.377   4.459
  533SOL    HW2 2499   4.962   6.452   4.508
  534SOL     OW 2500   4.725   5.379   3.883
  534SOL    HW1 2501   4.743   5.281   3.887
  534SOL    HW2 2502   4.705   5.413   3.976
  535SOL     OW 2503   0.874   4.066   3.869
  535SOL    HW1 2504   0.944   4.015   3.921
  535SOL    HW2 2505   0.896   4.163   3.871
  536SOL     OW 2506   0.317   5.382   1.396
  536SOL    HW1 2507   0.226   5.397   1.357
  536SOL    HW2 2508   0.362   5.307   1.348
  537SOL     OW 2509   1.840   6.018   3.737
  537SOL    HW1 2510   1.900   6.036   3.816
  537SOL    HW2 2511   1.893   5.972   3.665
  538SOL     OW 2512   0.920   5.529   3.675
  538SOL    HW1 2513   0.822   5.517   3.661
  538SOL    HW2 2514   0.955   5.454   3.732
  539SOL     OW 2515   1.142   5.348   1.539
  539SOL    HW1 2516   1.134   5.262   1.590
  539SOL    HW2 2517   1.083   5.344   1.458
  540SOL     OW 2518   0.666   2.293   2.454
  540SOL    HW1 2519   0.628   2.240   2.378
  540SOL    HW2 2520   0.649   2.244   2.540
  541SOL     OW 2521   3.107   6.494   4.815
  541SOL    HW1 2522   3.047   6.458   4.886
  541SOL    HW2 2523   3.161   6.569   4.851
  542SOL     OW 2524   6.353   6.301   0.074
  542SOL    HW1 2525   6.410   6.293   7.014
  542SOL    HW2 2526   6.394   6.367   0.137
  543SOL     OW 2527   0.960   5.272   6.626
  543SOL    HW1 2528   0.985   5.327   6.705
  543SOL    HW2 2529   0.938   5.179   6.656
  544SOL     OW 2530   1.015   4.773   1.057
  544SOL    HW1 2531   0.975   4.737   1.140
  544SOL    HW2 2532   0.969   4.859   1.032
  545SOL     OW 2533   3.849   1.624   3.387
  545SOL    HW1 2534   3.846   1.709   3.335
  545SOL    HW2 2535   3.943   1.604   3.413
  546SOL     OW 2536   1.043   3.338   1.502
  546SOL    HW1 2537   1.061   3.251   1.548
  546SOL    HW2 2538   0.951   3.370   1.526
  547SOL     OW 2539   2.400   2.383   0.174
  547SOL    HW1 2540   2.438   2.336   0.254
  547SOL    HW2 2541   2.311   2.422   0.198
  548SOL     OW 2542   3.951   3.437   3.629
  548SOL    HW1 2543   3.959   3.362   3.563
  548SOL    HW2 2544   3.910   3.517   3.584
  549SOL     OW 2545   5.308   3.509   1.527
  549SOL    HW1 2546   5.222   3.560   1.530
  549SOL    HW2 2547   5.300   3.425   1.580
  550SOL     OW 2548   6.793   3.076   2.871
  550SOL    HW1 2549   6.743   3.068   2.784
  550SOL    HW2 2550   6.891   3.081   2.852
  551SOL     OW 2551   6.826   1.778   0.559
  551SOL    HW1 2552   6.782   1.866   0.577
  551SOL    HW2 2553   6.830   1.762   0.460
  552SOL     OW 2554   3.860   5.236   0.762
  552SOL    HW1 2555   3.948   5.262   0.722
  552SOL    HW2 2556   3.876   5.196   0.852
  553SOL     OW 2557   1.849   0.511   2.465
  553SOL    HW1 2558   1.933   0.559   2.440
  553SOL    HW2 2559   1.863   0.412   2.454
  554SOL     OW 2560   5.701   6.458   6.063
  554SOL    HW1 2561   5.657   6.377   6.023
  554SOL    HW2 2562   5.756   6.503   5.993
  555SOL     OW 2563   2.109   4.907   4.288
  555SOL    HW1 2564   2.085   4.868   4.377
  555SOL    HW2 2565   2.122   5.006   4.298
  556SOL     OW 2566   6.192   2.178   3.991
  556SOL    HW1 2567   6.190   2.084   4.025
  556SOL    HW2 2568   6.165   2.240   4.064
  557SOL     OW 2569   6.972   6.092   6.253
  557SOL    HW1 2570   6.899   6.024   6.251
  557SOL    HW2 2571   6.932   6.183   6.239
  558SOL     OW 2572   4.063   3.425   5.061
  558SOL    HW1 2573   3.978   3.372   5.069
  558SOL    HW2 2574   4.043   3.512   5.016
  559SOL     OW 2575   6.776   5.914   6.201
  559SOL    HW1 2576   6.828   5.837   6.165
  559SOL    HW2 2577   6.727   5.885   6.283
  560SOL     OW 2578   4.599   6.253   6.794
  560SOL    HW1 2579   4.528   6.323   6.803
  560SOL    HW2 2580   4.571   6.171   6.843
  561SOL     OW 2581   5.768   6.686   0.183
  561SOL    HW1 2582   5.805   6.599   0.150
  561SOL    HW2 2583   5.825   6.720   0.258
  562SOL     OW 2584   5.174   0.726   6.186
  562SOL    HW1 2585   5.150   0.690   6.276
  562SOL    HW2 2586   5.271   0.711   6.168
  563SOL     OW 2587   2.787   6.431   3.994
  563SOL    HW1 2588   2.737   6.419   3.908
  563SOL    HW2 2589   2.872   6.378   3.991
  564SOL     OW 2590   2.055   1.887   6.314
  564SOL    HW1 2591   2.113   1.962   6.282
  564SOL    HW2 2592   2.047   1.818   6.243
  565SOL     OW 2593   4.363   3.674   5.606
  565SOL    HW1 2594   4.406   3.748   5.555
  565SOL    HW2 2595   4.358   3.592   5.549
  566SOL     OW 2596   4.127   4.732   3.308
  566SOL    HW1 2597   4.131   4.819   3.259
  566SOL    HW2 2598   4.204   4.675   3.280
  567SOL     OW 2599   3.515   3.264   4.162
  567SOL    HW1 2600   3.476   3.291   4.250
  567SOL    HW2 2601   3.608   3.230   4.175
  568SOL     OW 2602   2.998   2.329   0.161
  568SOL    HW1 2603   3.002   2.377   0.074
  568SOL    HW2 2604   2.913   2.352   0.208
  569SOL     OW 2605   1.826   2.830   0.610
  569SOL    HW1 2606   1.901   2.764   0.599
  569SOL    HW2 2607   1.742   2.791   0.573
  570SOL     OW 2608   1.543   6.604   0.487
  570SOL    HW1 2609   1.627   6.652   0.463
  570SOL    HW2 2610   1.562   6.538   0.560
  571SOL     OW 2611   3.591   5.250   2.821
  571SOL    HW1 2612   3.494   5.227   2.828
  571SOL    HW2 2613   3.600   5.342   2.782
  572SOL     OW 2614   1.955   3.988   5.878
  572SOL    HW1 2615   1.953   3.917   5.949
  572SOL    HW2 2616   2.049   4.020   5.865
  573SOL     OW 2617   4.509   1.082   4.964
  573SOL    HW1 2618   4.438   1.059   4.897
  573SOL    HW2 2619   4.574   1.145   4.922
  574SOL     OW 2620   2.265   2.066   4.415
  574SOL    HW1 2621   2.268   2.152   4.466
  574SOL    HW2 2622   2.174   2.025   4.424
  575SOL     OW 2623   6.691   3.137   0.384
  575SOL    HW1 2624   6.629   3.215   0.376
  575SOL    HW2 2625   6.733   3.119   0.295
  576SOL     OW 2626   0.929   2.717   2.222
  576SOL    HW1 2627   0.988   2.747   2.146
  576SOL    HW2 2628   0.847   2.674   2.185
  577SOL     OW 2629   2.149   1.953   3.623
  577SOL    HW1 2630   2.229   1.989   3.574
  577SOL    HW2 2631   2.105   2.027   3.672
  578SOL     OW 2632   0.367   3.049   3.360
  578SOL    HW1 2633   0.438   3.057   3.290
  578SOL    HW2 2634   0.346   2.952   3.375
  579SOL     OW 2635   3.884   1.982   0.900
  579SOL    HW1 2636   3.963   1.939   0.855
  579SOL    HW2 2637   3.800   1.949   0.859
  580SOL     OW 2638   0.981   5.376   6.879
  580SOL    HW1 2639   1.070   5.355   6.920
  580SOL    HW2 2640   0.911   5.317   6.918
  581SOL     OW 2641   3.499   3.124   2.674
  581SOL    HW1 2642   3.488   3.203   2.734
  581SOL    HW2 2643   3.425   3.122   2.607
  582SOL     OW 2644   5.396   3.851   2.763
  582SOL    HW1 2645   5.332   3.928   2.774
  582SOL    HW2 2646   5.478   3.867   2.818
  583SOL     OW 2647   2.677   4.656   0.065
  583SOL    HW1 2648   2.612   4.725   0.034
  583SOL    HW2 2649   2.708   4.678   0.157
  584SOL     OW 2650   0.532   4.997   5.239
  584SOL    HW1 2651   0.484   5.047   5.167
  584SOL    HW2 2652   0.596   4.932   5.199
  585SOL     OW 2653   6.955   2.186   5.761
  585SOL    HW1 2654   6.906   2.125   5.699
  585SOL    HW2 2655   0.028   2.155   5.770
  586SOL     OW 2656   2.965   6.511   1.266
  586SOL    HW1 2657   3.030   6.449   1.222
  586SOL    HW2 2658   2.888   6.458   1.301
  587SOL     OW 2659   0.931   3.057   6.079
  587SOL    HW1 2660   0.948   3.152   6.106
  587SOL    HW2 2661   0.910   3.002   6.159
  588SOL     OW 2662   3.678   6.876   1.465
  588SOL    HW1 2663   3.709   6.936   1.392
  588SOL    HW2 2664   3.732   6.792   1.465
  589SOL     OW 2665   3.796   4.956   2.565
  589SOL    HW1 2666   3.703   4.920   2.572
  589SOL    HW2 2667   3.793   5.055   2.552
  590SOL     OW 2668   6.957   2.186   2.082
  590SOL    HW1 2669   7.002   2.262   2.037
  590SOL    HW2 2670   6.974   2.102   2.031
  591SOL     OW 2671   3.669   0.080   3.546
  591SOL    HW1 2672   3.672   7.002   3.556
  591SOL    HW2 2673   3.621   0.120   3.625
  592SOL     OW 2674   4.737   0.818   0.865
  592SOL    HW1 2675   4.735   0.731   0.814
  592SOL    HW2 2676   4.732   0.894   0.800
  593SOL     OW 2677   4.885   2.629   3.773
  593SOL    HW1 2678   4.968   2.614   3.719
  593SOL    HW2 2679   4.830   2.545   3.774
  594SOL     OW 2680   3.822   3.714   1.030
  594SOL    HW1 2681   3.827   3.780   1.105
  594SOL    HW2 2682   3.898   3.649   1.037
  595SOL     OW 2683   3.350   5.909   4.010
  595SOL    HW1 2684   3.432   5.966   4.016
  595SOL    HW2 2685   3.335   5.882   3.915
  596SOL     OW 2686   0.638   4.527   2.749
  596SOL    HW1 2687   0.729   4.567   2.763
  596SOL    HW2 2688   0.569   4.585   2.792
  597SOL     OW 2689   4.778   0.372   6.381
  597SOL    HW1 2690   4.688   0.353   6.342
  597SOL    HW2 2691   4.849   0.339   6.319
  598SOL     OW 2692   3.985   4.637   0.334
  598SOL    HW1 2693   4.003   4.722   0.382
  598SOL    HW2 2694   4.071   4.601   0.296
  599SOL     OW 2695   6.886   0.300   2.669
  599SOL    HW1 2696   6.824   0.224   2.687
  599SOL    HW2 2697   6.847   0.359   2.599
  600SOL     OW 2698   1.089   0.174   0.280
  600SOL    HW1 2699   1.013   0.212   0.227
  600SOL    HW2 2700   1.067   0.080   0.307
  601SOL     OW 2701   2.690   5.713   3.699
  601SOL    HW1 2702   2.685   5.616   3.724
  601SOL    HW2 2703   2.635   5.729   3.617
  602SOL     OW 2704   1.770   0.395   1.512
  602SOL    HW1 2705   1.780   0.480   1.460
  602SOL    HW2 2706   1.750   0.319   1.450
  603SOL     OW 2707   4.505   2.032   3.159
  603SOL    HW1 2708   4.491   1.984   3.245
  603SOL    HW2 2709   4.501   2.131   3.175
  604SOL     OW 2710   0.975   3.371   6.184
  604SOL    HW1 2711   0.945   3.320   6.264
  604SOL    HW2 2712   0.923   3.456   6.176
  605SOL     OW 2713   6.373   6.451   3.320
  605SOL    HW1 2714   6.410   6.543   3.336
  605SOL    HW2 2715   6.447   6.392   3.288
  606SOL     OW 2716   3.682   0.627   4.003
  606SOL    HW1 2717   3.650   0.712   4.046
  606SOL    HW2 2718   3.781   0.623   4.008
  607SOL     OW 2719   5.004   1.347   4.079
  607SOL    HW1 2720   4.950   1.430   4.065
  607SOL    HW2 2721   5.077   1.343   4.011
  608SOL     OW 2722   3.879   0.921   0.712
  608SOL    HW1 2723   3.850   0.953   0.803
  608SOL    HW2 2724   3.940   0.988   0.671
  609SOL     OW 2725   3.272   2.932   3.796
  609SOL    HW1 2726   3.282   2.932   3.895
  609SOL    HW2 2727   3.359   2.956   3.753
  610SOL     OW 2728   5.275   1.948   4.306
  610SOL    HW1 2729   5.308   1.928   4.399
  610SOL    HW2 2730   5.352   1.942   4.242
  611SOL     OW 2731   0.185   0.381   0.511
  611SOL    HW1 2732   0.184   0.416   0.417
  611SOL    HW2 2733   0.279   0.361   0.538
  612SOL     OW 2734   3.293   5.706   6.042
  612SOL    HW1 2735   3.248   5.620   6.018
  612SOL    HW2 2736   3.384   5.708   6.002
  613SOL     OW 2737   4.362   1.471   6.035
  613SOL    HW1 2738   4.331   1.431   6.122
  613SOL    HW2 2739   4.320   1.561   6.023
  614SOL     OW 2740   5.771   4.504   0.815
  614SOL    HW1 2741   5.857   4.453   0.812
  614SOL    HW2 2742   5.697   4.444   0.847
  615SOL     OW 2743   0.204   6.931   0.605
  615SOL    HW1 2744   0.231   0.003   0.631
  615SOL    HW2 2745   0.163   6.886   0.684
  616SOL     OW 2746   5.670   1.775   4.337
  616SOL    HW1 2747   5.735   1.720   4.390
  616SOL    HW2 2748   5.695   1.770   4.240
  617SOL     OW 2749   0.316   4.978   5.397
  617SOL    HW1 2750   0.386   4.960   5.328
  617SOL    HW2 2751   0.324   4.913   5.472
  618SOL     OW 2752   5.881   3.559   0.449
  618SOL    HW1 2753   5.916   3.527   0.537
  618SOL    HW2 2754   5.948   3.619   0.405
  619SOL     OW 2755   3.459   0.583   0.584
  619SOL    HW1 2756   3.375   0.635   0.574
  619SOL    HW2 2757   3.533   0.644   0.612
  620SOL     OW 2758   5.930   2.514   1.970
  620SOL    HW1 2759   5.998   2.580   2.001
  620SOL    HW2 2760   5.977   2.435   1.929
  621SOL     OW 2761   2.699   0.572   6.555
  621SOL    HW1 2762   2.716   0.651   6.613
  621SOL    HW2 2763   2.653   0.602   6.471
  622SOL     OW 2764   1.122   1.947   5.375
  622SOL    HW1 2765   1.179   1.947   5.293
  622SOL    HW2 2766   1.149   2.022   5.435
  623SOL     OW 2767   5.863   6.327   4.118
  623SOL    HW1 2768   5.810   6.252   4.156
  623SOL    HW2 2769   5.819   6.414   4.141
  624SOL     OW 2770   6.584   1.396   6.437
  624SOL    HW1 2771   6.571   1.382   6.339
  624SOL    HW2 2772   6.680   1.381   6.460
  625SOL     OW 2773   3.145   0.778   0.790
  625SOL    HW1 2774   3.104   0.849   0.847
  625SOL    HW2 2775   3.168   0.699   0.847
  626SOL     OW 2776   0.634   5.233   3.699
  626SOL    HW1 2777   0.639   5.327   3.664
  626SOL    HW2 2778   0.622   5.169   3.623
  627SOL     OW 2779   6.334   0.001   6.941
  627SOL    HW1 2780   6.277   6.995   6.863
  627SOL    HW2 2781   6.281   7.015   0.003
  628SOL     OW 2782   4.975   4.374   5.376
  628SOL    HW1 2783   4.945   4.335   5.289
  628SOL    HW2 2784   4.898   4.378   5.439
  629SOL     OW 2785   6.950   0.260   6.406
  629SOL    HW1 2786   6.865   0.307   6.385
  629SOL    HW2 2787   7.010   0.262   6.326
  630SOL     OW 2788   6.395   1.714   1.088
  630SOL    HW1 2789   6.454   1.779   1.041
  630SOL    HW2 2790   6.422   1.707   1.184
  631SOL     OW 2791   1.832   2.657   4.852
  631SOL    HW1 2792   1.825   2.749   4.813
  631SOL    HW2 2793   1.921   2.647   4.896
  632SOL     OW 2794   3.702   3.566   0.128
  632SOL    HW1 2795   3.704   3.466   0.120
  632SOL    HW2 2796   3.619   3.595   0.175
  633SOL     OW 2797   1.315   5.853   1.977
  633SOL    HW1 2798   1.388   5.828   2.041
  633SOL    HW2 2799   1.228   5.857   2.026
  634SOL     OW 2800   2.885   3.629   4.096
  634SOL    HW1 2801   2.926   3.544   4.062
  634SOL    HW2 2802   2.919   3.706   4.041
  635SOL     OW 2803   5.569   1.223   6.542
  635SOL    HW1 2804   5.585   1.211   6.444
  635SOL    HW2 2805   5.631   1.292   6.578
  636SOL     OW 2806   3.119   0.442   6.756
  636SOL    HW1 2807   3.163   0.388   6.828
  636SOL    HW2 2808   3.175   0.522   6.735
  637SOL     OW 2809   6.539   0.882   1.177
  637SOL    HW1 2810   6.582   0.964   1.216
  637SOL    HW2 2811   6.532   0.811   1.248
  638SOL     OW 2812   6.183   3.416   4.397
  638SOL    HW1 2813   6.261   3.355   4.388
  638SOL    HW2 2814   6.131   3.392   4.479
  639SOL     OW 2815   4.632   4.797   3.099
  639SOL    HW1 2816   4.653   4.863   3.027
  639SOL    HW2 2817   4.688   4.816   3.179
  640SOL     OW 2818   0.571   2.835   2.445
  640SOL    HW1 2819   0.648   2.801   2.498
  640SOL    HW2 2820   0.526   2.758   2.399
  641SOL     OW 2821   1.847   4.695   4.930
  641SOL    HW1 2822   1.935   4.689   4.978
  641SOL    HW2 2823   1.841   4.783   4.883
  642SOL     OW 2824   1.029   3.870   4.908
  642SOL    HW1 2825   1.112   3.885   4.856
  642SOL    HW2 2826   1.049   3.809   4.985
  643SOL     OW 2827   4.574   5.375   6.750
  643SOL    HW1 2828   4.605   5.280   6.759
  643SOL    HW2 2829   4.557   5.395   6.654
  644SOL     OW 2830   6.402   0.361   4.930
  644SOL    HW1 2831   6.327   0.308   4.892
  644SOL    HW2 2832   6.474   0.300   4.962
  645SOL     OW 2833   4.044   4.907   2.688
  645SOL    HW1 2834   4.033   4.838   2.759
  645SOL    HW2 2835   3.962   4.907   2.630
  646SOL     OW 2836   4.417   0.572   4.971
  646SOL    HW1 2837   4.385   0.543   5.061
  646SOL    HW2 2838   4.348   0.551   4.902
  647SOL     OW 2839   4.733   2.098   5.082
  647SOL    HW1 2840   4.717   2.028   5.012
  647SOL    HW2 2841   4.749   2.053   5.170
  648SOL     OW 2842   6.072   2.064   3.055
  648SOL    HW1 2843   6.106   2.058   3.149
  648SOL    HW2 2844   6.038   2.157   3.038
  649SOL     OW 2845   2.492   4.906   0.446
  649SOL    HW1 2846   2.491   4.807   0.434
  649SOL    HW2 2847   2.538   4.929   0.532
  650SOL     OW 2848   6.824   5.546   0.909
  650SOL    HW1 2849   6.883   5.540   0.990
  650SOL    HW2 2850   6.781   5.457   0.893
  651SOL     OW 2851   1.302   0.299   5.304
  651SOL    HW1 2852   1.305   0.398   5.314
  651SOL    HW2 2853   1.288   0.274   5.209
  652SOL     OW 2854   4.179   7.009   1.804
  652SOL    HW1 2855   4.152   0.079   1.775
  652SOL    HW2 2856   4.256   7.016   1.868
  653SOL     OW 2857   0.464   6.171   1.518
  653SOL    HW1 2858   0.544   6.182   1.578
  653SOL    HW2 2859   0.495   6.155   1.425
  654SOL     OW 2860   6.936   7.017   5.518
  654SOL    HW1 2861   7.008   6.957   5.483
  654SOL    HW2 2862   6.970   0.088   5.525
  655SOL     OW 2863   0.038   4.601   1.948
  655SOL    HW1 2864   0.137   4.598   1.934
  655SOL    HW2 2865   0.015   4.676   2.010
  656SOL     OW 2866   3.749   6.436   0.604
  656SOL    HW1 2867   3.839   6.475   0.620
  656SOL    HW2 2868   3.739   6.413   0.507
  657SOL     OW 2869   3.468   2.794   1.932
  657SOL    HW1 2870   3.417   2.757   1.855
  657SOL    HW2 2871   3.405   2.833   1.999
  658SOL     OW 2872   2.267   4.232   4.475
  658SOL    HW1 2873   2.313   4.320   4.491
  658SOL    HW2 2874   2.281   4.203   4.381
  659SOL     OW 2875   2.239   6.535   6.103
  659SOL    HW1 2876   2.172   6.467   6.073
  659SOL    HW2 2877   2.261   6.595   6.026
  660SOL     OW 2878   4.755   4.254   2.143
  660SOL    HW1 2879   4.668   4.273   2.097
  660SOL    HW2 2880   4.748   4.283   2.239
  661SOL     OW 2881   3.991   4.869   4.057
  661SOL    HW1 2882   3.925   4.945   4.060
  661SOL    HW2 2883   3.949   4.790   4.012
  662SOL     OW 2884   4.946   3.571   0.506
  662SOL    HW1 2885   4.985   3.628   0.434
  662SOL    HW2 2886   4.880   3.507   0.466
  663SOL     OW 2887   0.343   4.635   0.372
  663SOL    HW1 2888   0.353   4.538   0.393
  663SOL    HW2 2889   0.300   4.682   0.450
  664SOL     OW 2890   1.416   6.681   6.483
  664SOL    HW1 2891   1.464   6.716   6.402
  664SOL    HW2 2892   1.471   6.608   6.525
  665SOL     OW 2893   4.025   6.006   1.099
  665SOL    HW1 2894   4.047   5.985   1.195
  665SOL    HW2 2895   4.053   6.100   1.079
  666SOL     OW 2896   3.659   1.873   0.224
  666SOL    HW1 2897   3.751   1.910   0.239
  666SOL    HW2 2898   3.593   1.949   0.223
  667SOL     OW 2899   1.178   3.674   3.079
  667SOL    HW1 2900   1.189   3.632   3.169
  667SOL    HW2 2901   1.137   3.608   3.016
  668SOL     OW 2902   4.923   6.494   0.513
  668SOL    HW1 2903   4.825   6.474   0.504
  668SOL    HW2 2904   4.956   6.459   0.600
  669SOL     OW 2905   1.168   6.694   3.695
  669SOL    HW1 2906   1.256   6.710   3.650
  669SOL    HW2 2907   1.110   6.639   3.635
  670SOL     OW 2908   3.081   3.646   3.755
  670SOL    HW1 2909   3.022   3.688   3.825
  670SOL    HW2 2910   3.176   3.644   3.788
  671SOL     OW 2911   2.469   0.093   6.276
  671SOL    HW1 2912   2.563   0.110   6.305
  671SOL    HW2 2913   2.421   0.041   6.346
  672SOL     OW 2914   2.092   3.551   4.307
  672SOL    HW1 2915   2.109   3.515   4.399
  672SOL    HW2 2916   2.012   3.506   4.268
  673SOL     OW 2917   4.890   0.688   0.388
  673SOL    HW1 2918   4.927   0.703   0.296
  673SOL    HW2 2919   4.815   0.752   0.405
  674SOL     OW 2920   0.455   1.797   3.622
  674SOL    HW1 2921   0.447   1.699   3.604
  674SOL    HW2 2922   0.464   1.813   3.720
  675SOL     OW 2923   0.279   2.100   4.210
  675SOL    HW1 2924   0.334   2.159   4.269
  675SOL    HW2 2925   0.186   2.136   4.204
  676SOL     OW 2926   2.482   4.816   4.663
  676SOL    HW1 2927   2.458   4.722   4.687
  676SOL    HW2 2928   2.433   4.843   4.580
  677SOL     OW 2929   6.337   7.013   0.665
  677SOL    HW1 2930   6.349   6.920   0.700
  677SOL    HW2 2931   6.273   7.011   0.588
  678SOL     OW 2932   2.297   0.811   6.429
  678SOL    HW1 2933   2.304   0.738   6.361
  678SOL    HW2 2934   2.203   0.843   6.434
  679SOL     OW 2935   4.286   0.453   2.729
  679SOL    HW1 2936   4.353   0.476   2.799
  679SOL    HW2 2937   4.297   0.515   2.651
  680SOL     OW 2938   4.900   4.084   5.713
  680SOL    HW1 2939   4.821   4.054   5.767
  680SOL    HW2 2940   4.962   4.007   5.699
  681SOL     OW 2941   0.720   6.708   1.271
  681SOL    HW1 2942   0.795   6.715   1.337
  681SOL    HW2 2943   0.642   6.662   1.313
  682SOL     OW 2944   1.641   5.773   0.533
  682SOL    HW1 2945   1.647   5.797   0.630
  682SOL    HW2 2946   1.732   5.776   0.492
  683SOL     OW 2947   4.052   1.214   6.965
  683SOL    HW1 2948   3.974   1.180   6.912
  683SOL    HW2 2949   4.073   1.150   0.017
  684SOL     OW 2950   0.413   6.163   5.750
  684SOL    HW1 2951   0.422   6.162   5.850
  684SOL    HW2 2952   0.499   6.193   5.709
  685SOL     OW 2953   5.155   0.048   5.656
  685SOL    HW1 2954   5.198   0.013   5.739
  685SOL    HW2 2955   5.225   0.061   5.585
  686SOL     OW 2956   5.114   3.590   2.957
  686SOL    HW1 2957   5.155   3.537   2.882
  686SOL    HW2 2958   5.030   3.546   2.988
  687SOL     OW 2959   0.376   3.418   5.727
  687SOL    HW1 2960   0.305   3.401   5.659
  687SOL    HW2 2961   0.390   3.516   5.737
  688SOL     OW 2962   0.797   3.882   6.033
  688SOL    HW1 2963   0.879   3.827   6.019
  688SOL    HW2 2964   0.792   3.912   6.128
  689SOL     OW 2965   6.176   3.563   5.795
  689SOL    HW1 2966   6.242   3.489   5.802
  689SOL    HW2 2967   6.197   3.620   5.716
  690SOL     OW 2968   1.412   2.443   3.334
  690SOL    HW1 2969   1.322   2.428   3.294
  690SOL    HW2 2970   1.432   2.370   3.400
  691SOL     OW 2971   1.091   2.442   6.714
  691SOL    HW1 2972   1.138   2.354   6.708
  691SOL    HW2 2973   1.052   2.466   6.625
  692SOL     OW 2974   2.689   0.418   2.624
  692SOL    HW1 2975   2.671   0.321   2.644
  692SOL    HW2 2976   2.672   0.472   2.707
  693SOL     OW 2977   6.525   2.740   2.977
  693SOL    HW1 2978   6.552   2.705   2.887
  693SOL    HW2 2979   6.539   2.670   3.046
  694SOL     OW 2980   1.990   6.450   1.034
  694SOL    HW1 2981   1.908   6.425   1.087
  694SOL    HW2 2982   2.036   6.527   1.078
  695SOL     OW 2983   5.311   5.382   5.329
  695SOL    HW1 2984   5.248   5.305   5.335
  695SOL    HW2 2985   5.397   5.352   5.287
  696SOL     OW 2986   4.227   4.716   2.421
  696SOL    HW1 2987   4.224   4.621   2.391
  696SOL    HW2 2988   4.139   4.759   2.402
  697SOL     OW 2989   0.993   4.336   4.477
  697SOL    HW1 2990   0.942   4.421   4.466
  697SOL    HW2 2991   0.949   4.263   4.426
  698SOL     OW 2992   4.532   0.410   3.911
  698SOL    HW1 2993   4.566   0.391   4.003
  698SOL    HW2 2994   4.499   0.504   3.906
  699SOL     OW 2995   1.254   3.838   0.823
  699SOL    HW1 2996   1.166   3.803   0.855
  699SOL    HW2 2997   1.240   3.895   0.742
  700SOL     OW 2998   2.463   2.597   4.323
  700SOL    HW1 2999   2.520   2.539   4.381
  700SOL    HW2 3000   2.452   2.555   4.233
  701SOL     OW 3001   1.010   4.303   6.490
  701SOL    HW1 3002   0.956   4.351   6.559
  701SOL    HW2 3003   0.959   4.222   6.459
  702SOL     OW 3004   5.115   6.929   4.531
  702SOL    HW1 3005   5.185   6.909   4.599
  702SOL    HW2 3006   5.059   7.006   4.561
  703SOL     OW 3007   4.031   3.871   6.343
  703SOL    HW1 3008   4.002   3.823   6.260
  703SOL    HW2 3009   4.095   3.943   6.319
  704SOL     OW 3010   1.253   6.897   6.836
  704SOL    HW1 3011   1.280   6.891   6.933
  704SOL    HW2 3012   1.190   6.823   6.814
  705SOL     OW 3013   5.408   1.107   2.919
  705SOL    HW1 3014   5.416   1.133   2.823
  705SOL    HW2 3015   5.393   1.009   2.926
  706SOL     OW 3016   3.864   2.065   4.045
  706SOL    HW1 3017   3.851   2.099   3.952
  706SOL    HW2 3018   3.775   2.042   4.084
  707SOL     OW 3019   5.593   0.346   1.649
  707SOL    HW1 3020   5.588   0.412   1.574
  707SOL    HW2 3021   5.501   0.332   1.687
  708SOL     OW 3022   4.141   0.404   1.155
  708SOL    HW1 3023   4.167   0.456   1.236
  708SOL    HW2 3024   4.130   0.466   1.078
  709SOL     OW 3025   1.029   5.113   1.009
  709SOL    HW1 3026   1.090   5.075   1.078
  709SOL    HW2 3027   1.079   5.180   0.953
  710SOL     OW 3028   3.104   4.052   2.621
  710SOL    HW1 3029   3.086   3.969   2.568
  710SOL    HW2 3030   3.163   4.113   2.567
  711SOL     OW 3031   6.373   1.542   4.333
  711SOL    HW1 3032   6.314   1.462   4.343
  711SOL    HW2 3033   6.355   1.586   4.244
  712SOL     OW 3034   1.289   3.785   1.577
  712SOL    HW1 3035   1.324   3.757   1.487
  712SOL    HW2 3036   1.233   3.711   1.615
  713SOL     OW 3037   3.834   2.915   2.549
  713SOL    HW1 3038   3.908   2.852   2.525
  713SOL    HW2 3039   3.749   2.884   2.506
  714SOL     OW 3040   5.572   4.449   5.052
  714SOL    HW1 3041   5.576   4.404   5.141
  714SOL    HW2 3042   5.479   4.446   5.017
  715SOL     OW 3043   4.678   6.870   6.049
  715SOL    HW1 3044   4.731   6.829   5.975
  715SOL    HW2 3045   4.708   6.965   6.062
  716SOL     OW 3046   0.218   4.856   1.641
  716SOL    HW1 3047   0.261   4.894   1.559
  716SOL    HW2 3048   0.278   4.872   1.720
  717SOL     OW 3049   6.702   3.102   6.849
  717SOL    HW1 3050   6.697   3.044   6.768
  717SOL    HW2 3051   6.698   3.044   6.931
  718SOL     OW 3052   3.742   3.431   6.421
  718SOL    HW1 3053   3.772   3.380   6.502
  718SOL    HW2 3054   3.662   3.487   6.444
  719SOL     OW 3055   0.004   3.718   1.393
  719SOL    HW1 3056   7.015   3.810   1.356
  719SOL    HW2 3057   0.099   3.688   1.381
  720SOL     OW 3058   2.455   1.649   6.262
  720SOL    HW1 3059   2.416   1.690   6.345
  720SOL    HW2 3060   2.508   1.718   6.213
  721SOL     OW 3061   1.834   0.498   5.705
  721SOL    HW1 3062   1.860   0.579   5.651
  721SOL    HW2 3063   1.757   0.452   5.661
  722SOL     OW 3064   3.957   0.176   4.579
  722SOL    HW1 3065   3.932   0.262   4.535
  722SOL    HW2 3066   4.048   0.148   4.549
  723SOL     OW 3067   1.224   2.706   2.307
  723SOL    HW1 3068   1.171   2.685   2.226
  723SOL    HW2 3069   1.318   2.729   2.280
  724SOL     OW 3070   0.137   0.899   4.946
  724SOL    HW1 3071   0.219   0.900   4.888
  724SOL    HW2 3072   0.125   0.989   4.988
  725SOL     OW 3073   2.032   4.892   2.565
  725SOL    HW1 3074   2.123   4.882   2.524
  725SOL    HW2 3075   1.992   4.802   2.581
  726SOL     OW 3076   3.304   6.335   0.076
  726SOL    HW1 3077   3.318   6.267   0.004
  726SOL    HW2 3078   3.360   6.312   0.155
  727SOL     OW 3079   3.069   5.495   4.335
  727SOL    HW1 3080   3.018   5.502   4.421
  727SOL    HW2 3081   3.078   5.586   4.295
  728SOL     OW 3082   0.153   4.178   5.181
  728SOL    HW1 3083   0.123   4.257   5.233
  728SOL    HW2 3084   0.252   4.170   5.185
  729SOL     OW 3085   2.061   0.888   1.133
  729SOL    HW1 3086   2.047   0.804   1.185
  729SOL    HW2 3087   2.067   0.965   1.197
  730SOL     OW 3088   5.946   0.693   3.664
  730SOL    HW1 3089   5.994   0.675   3.579
  730SOL    HW2 3090   5.854   0.652   3.660
  731SOL     OW 3091   5.538   3.588   4.578
  731SOL    HW1 3092   5.527   3.582   4.478
  731SOL    HW2 3093   5.544   3.496   4.616
  732SOL     OW 3094   6.740   3.022   1.574
  732SOL    HW1 3095   6.699   3.029   1.665
  732SOL    HW2 3096   6.817   2.959   1.577
  733SOL     OW 3097   4.823   3.920   3.959
  733SOL    HW1 3098   4.810   3.991   3.890
  733SOL    HW2 3099   4.811   3.830   3.918
  734SOL     OW 3100   6.900   4.486   1.186
  734SOL    HW1 3101   6.844   4.413   1.147
  734SOL    HW2 3102   6.996   4.458   1.184
  735SOL     OW 3103   1.031   3.592   6.766
  735SOL    HW1 3104   0.936   3.616   6.749
  735SOL    HW2 3105   1.090   3.671   6.750
  736SOL     OW 3106   6.707   0.188   3.083
  736SOL    HW1 3107   6.666   0.120   3.021
  736SOL    HW2 3108   6.646   0.267   3.089
  737SOL     OW 3109   5.312   3.726   1.176
  737SOL    HW1 3110   5.259   3.675   1.244
  737SOL    HW2 3111   5.405   3.739   1.209
  738SOL     OW 3112   0.052   4.073   4.427
  738SOL    HW1 3113   0.062   4.171   4.412
  738SOL    HW2 3114   0.140   4.035   4.458
  739SOL     OW 3115   3.919   6.267   5.781
  739SOL    HW1 3116   3.967   6.182   5.804
  739SOL    HW2 3117   3.960   6.343   5.832
  740SOL     OW 3118   5.943   6.748   1.209
  740SOL    HW1 3119   5.847   6.738   1.183
  740SOL    HW2 3120   5.982   6.657   1.226
  741SOL     OW 3121   1.701   6.547   3.076
  741SOL    HW1 3122   1.612   6.512   3.044
  741SOL    HW2 3123   1.691   6.585   3.167
  742SOL     OW 3124   1.441   6.657   3.545
  742SOL    HW1 3125   1.523   6.637   3.491
  742SOL    HW2 3126   1.364   6.675   3.485
  743SOL     OW 3127   1.579   4.094   4.434
  743SOL    HW1 3128   1.591   4.148   4.350
  743SOL    HW2 3129   1.598   4.151   4.514
  744SOL     OW 3130   7.009   5.739   0.014
  744SOL    HW1 3131   7.003   5.639   0.005
  744SOL    HW2 3132   6.960   5.782   6.960
  745SOL     OW 3133   1.167   5.801   2.813
  745SOL    HW1 3134   1.116   5.879   2.847
  745SOL    HW2 3135   1.265   5.818   2.824
  746SOL     OW 3136   0.993   6.982   5.003
  746SOL    HW1 3137   1.036   6.899   4.969
  746SOL    HW2 3138   0.965   0.018   4.926
  747SOL     OW 3139   4.479   4.492   3.357
  747SOL    HW1 3140   4.503   4.540   3.442
  747SOL    HW2 3141   4.428   4.554   3.298
  748SOL     OW 3142   4.284   3.823   0.793
  748SOL    HW1 3143   4.195   3.849   0.829
  748SOL    HW2 3144   4.350   3.895   0.814
  749SOL     OW 3145   0.430   1.937   4.900
  749SOL    HW1 3146   0.379   1.854   4.921
  749SOL    HW2 3147   0.485   1.963   4.980
  750SOL     OW 3148   2.097   3.344   0.244
  750SOL    HW1 3149   2.074   3.352   0.147
  750SOL    HW2 3150   2.175   3.403   0.265
  751SOL     OW 3151   4.858   1.102   0.399
  751SOL    HW1 3152   4.828   1.197   0.412
  751SOL    HW2 3153   4.950   1.091   0.438
  752SOL     OW 3154   4.113   2.533   1.730
  752SOL    HW1 3155   4.197   2.582   1.755
  752SOL    HW2 3156   4.038   2.598   1.723
  753SOL     OW 3157   1.832   3.231   4.991
  753SOL    HW1 3158   1.869   3.257   4.902
  753SOL    HW2 3159   1.827   3.312   5.050
  754SOL     OW 3160   4.516   4.063   6.413
  754SOL    HW1 3161   4.547   4.013   6.494
  754SOL    HW2 3162   4.524   4.161   6.430
  755SOL     OW 3163   0.747   5.845   6.953
  755SOL    HW1 3164   0.712   5.921   7.008
  755SOL    HW2 3165   0.845   5.856   6.941
  756SOL     OW 3166   5.333   0.389   1.755
  756SOL    HW1 3167   5.285   0.476   1.745
  756SOL    HW2 3168   5.318   0.333   1.673
  757SOL     OW 3169   0.460   6.422   3.594
  757SOL    HW1 3170   0.375   6.400   3.643
  757SOL    HW2 3171   0.473   6.521   3.594
  758SOL     OW 3172   3.314   2.152   1.478
  758SOL    HW1 3173   3.270   2.225   1.425
  758SOL    HW2 3174   3.316   2.068   1.424
  759SOL     OW 3175   0.957   1.816   6.923
  759SOL    HW1 3176   1.051   1.839   6.948
  759SOL    HW2 3177   0.930   1.869   6.842
  760SOL     OW 3178   5.331   1.729   7.016
  760SOL    HW1 3179   5.260   1.769   6.958
  760SOL    HW2 3180   5.288   1.687   0.075
  761SOL     OW 3181   6.579   2.686   0.319
  761SOL    HW1 3182   6.545   2.668   0.411
  761SOL    HW2 3183   6.652   2.755   0.323
  762SOL     OW 3184   2.581   5.783   3.411
  762SOL    HW1 3185   2.497   5.730   3.399
  762SOL    HW2 3186   2.558   5.877   3.433
  763SOL     OW 3187   4.278   5.652   6.738
  763SOL    HW1 3188   4.201   5.661   6.674
  763SOL    HW2 3189   4.358   5.697   6.700
  764SOL     OW 3190   3.603   1.527   2.305
  764SOL    HW1 3191   3.544   1.457   2.264
  764SOL    HW2 3192   3.571   1.545   2.398
  765SOL     OW 3193   0.369   6.485   2.574
  765SOL    HW1 3194   0.281   6.439   2.564
  765SOL    HW2 3195   0.367   6.572   2.523
  766SOL     OW 3196   6.663   0.121   6.669
  766SOL    HW1 3197   6.597   0.057   6.632
  766SOL    HW2 3198   6.616   0.203   6.703
  767SOL     OW 3199   6.887   6.501   1.968
  767SOL    HW1 3200   6.876   6.455   1.880
  767SOL    HW2 3201   6.797   6.518   2.008
  768SOL     OW 3202   2.769   0.687   2.511
  768SOL    HW1 3203   2.853   0.694   2.566
  768SOL    HW2 3204   2.717   0.607   2.540
  769SOL     OW 3205   4.415   0.066   4.841
  769SOL    HW1 3206   4.465   0.004   4.901
  769SOL    HW2 3207   4.383   0.145   4.893
  770SOL     OW 3208   2.933   5.189   3.957
  770SOL    HW1 3209   2.897   5.096   3.957
  770SOL    HW2 3210   2.962   5.214   4.050
  771SOL     OW 3211   1.864   5.649   3.324
  771SOL    HW1 3212   1.881   5.747   3.314
  771SOL    HW2 3213   1.845   5.609   3.235
  772SOL     OW 3214   6.774   4.401   6.821
  772SOL    HW1 3215   6.799   4.356   6.735
  772SOL    HW2 3216   6.674   4.411   6.826
  773SOL     OW 3217   6.961   3.551   3.241
  773SOL    HW1 3218   6.888   3.490   3.273
  773SOL    HW2 3219   6.951   3.640   3.285
  774SOL     OW 3220   1.334   1.297   1.891
  774SOL    HW1 3221   1.269   1.325   1.820
  774SOL    HW2 3222   1.424   1.286   1.850
  775SOL     OW 3223   1.336   1.862   3.779
  775SOL    HW1 3224   1.265   1.802   3.742
  775SOL    HW2 3225   1.366   1.926   3.708
  776SOL     OW 3226   1.694   0.581   6.286
  776SOL    HW1 3227   1.655   0.613   6.200
  776SOL    HW2 3228   1.746   0.656   6.328
  777SOL     OW 3229   4.450   1.351   1.129
  777SOL    HW1 3230   4.443   1.451   1.130
  777SOL    HW2 3231   4.536   1.324   1.173
  778SOL     OW 3232   4.073   0.796   3.854
  778SOL    HW1 3233   4.037   0.886   3.874
  778SOL    HW2 3234   4.005   0.744   3.803
  779SOL     OW 3235   0.707   2.228   1.949
  779SOL    HW1 3236   0.758   2.267   2.025
  779SOL    HW2 3237   0.612   2.213   1.977
  780SOL     OW 3238   6.648   3.080   4.007
  780SOL    HW1 3239   6.635   2.995   4.059
  780SOL    HW2 3240   6.742   3.112   4.020
  781SOL     OW 3241   6.808   1.426   6.153
  781SOL    HW1 3242   6.719   1.472   6.153
  781SOL    HW2 3243   6.869   1.471   6.218
  782SOL     OW 3244   0.435   2.811   0.937
  782SOL    HW1 3245   0.377   2.887   0.966
  782SOL    HW2 3246   0.531   2.834   0.953
  783SOL     OW 3247   2.712   5.333   0.739
  783SOL    HW1 3248   2.757   5.332   0.828
  783SOL    HW2 3249   2.745   5.411   0.685
  784SOL     OW 3250   4.003   0.341   5.138
  784SOL    HW1 3251   3.983   0.437   5.116
  784SOL    HW2 3252   3.942   0.282   5.084
  785SOL     OW 3253   6.234   1.750   2.783
  785SOL    HW1 3254   6.327   1.731   2.814
  785SOL    HW2 3255   6.234   1.773   2.686
  786SOL     OW 3256   6.905   6.631   0.234
  786SOL    HW1 3257   6.865   6.711   0.278
  786SOL    HW2 3258   6.831   6.570   0.203
  787SOL     OW 3259   2.404   1.429   6.432
  787SOL    HW1 3260   2.411   1.521   6.393
  787SOL    HW2 3261   2.314   1.391   6.411
  788SOL     OW 3262   2.046   3.849   4.589
  788SOL    HW1 3263   2.075   3.783   4.658
  788SOL    HW2 3264   1.955   3.824   4.556
  789SOL     OW 3265   5.688   3.615   1.510
  789SOL    HW1 3266   5.662   3.646   1.419
  789SOL    HW2 3267   5.661   3.683   1.578
  790SOL     OW 3268   2.293   1.534   4.024
  790SOL    HW1 3269   2.245   1.533   4.111
  790SOL    HW2 3270   2.373   1.594   4.030
  791SOL     OW 3271   3.954   1.026   3.921
  791SOL    HW1 3272   3.888   1.022   3.845
  791SOL    HW2 3273   4.021   1.098   3.904
  792SOL     OW 3274   6.227   0.714   1.987
  792SOL    HW1 3275   6.266   0.668   1.907
  792SOL    HW2 3276   6.140   0.671   2.011
  793SOL     OW 3277   5.162   6.561   0.993
  793SOL    HW1 3278   5.170   6.567   0.894
  793SOL    HW2 3279   5.251   6.543   1.033
  794SOL     OW 3280   2.867   4.775   5.393
  794SOL    HW1 3281   2.783   4.721   5.396
  794SOL    HW2 3282   2.876   4.818   5.303
  795SOL     OW 3283   3.784   5.229   5.954
  795SOL    HW1 3284   3.764   5.190   5.864
  795SOL    HW2 3285   3.823   5.158   6.013
  796SOL     OW 3286   0.188   2.414   5.294
  796SOL    HW1 3287   0.208   2.496   5.349
  796SOL    HW2 3288   0.208   2.332   5.347
  797SOL     OW 3289   5.890   2.351   3.632
  797SOL    HW1 3290   5.976   2.320   3.671
  797SOL    HW2 3291   5.839   2.273   3.596
  798SOL     OW 3292   4.885   0.229   0.607
  798SOL    HW1 3293   4.857   0.237   0.512
  798SOL    HW2 3294   4.927   0.314   0.637
  799SOL     OW 3295   6.402   2.060   3.480
  799SOL    HW1 3296   6.415   2.156   3.507
  799SOL    HW2 3297   6.475   2.032   3.418
  800SOL     OW 3298   4.916   1.052   2.620
  800SOL    HW1 3299   4.946   1.121   2.686
  800SOL    HW2 3300   4.817   1.061   2.605
  801SOL     OW 3301   1.197   2.615   3.672
  801SOL    HW1 3302   1.102   2.603   3.642
  801SOL    HW2 3303   1.241   2.686   3.617
  802SOL     OW 3304   5.303   2.217   0.290
  802SOL    HW1 3305   5.328   2.122   0.310
  802SOL    HW2 3306   5.210   2.234   0.321
  803SOL     OW 3307   6.046   5.594   3.820
  803SOL    HW1 3308   6.142   5.596   3.849
  803SOL    HW2 3309   6.006   5.685   3.831
  804SOL     OW 3310   0.212   6.240   0.623
  804SOL    HW1 3311   0.135   6.302   0.639
  804SOL    HW2 3312   0.231   6.235   0.525
  805SOL     OW 3313   3.684   2.553   5.628
  805SOL    HW1 3314   3.772   2.601   5.633
  805SOL    HW2 3315   3.678   2.503   5.542
  806SOL     OW 3316   4.868   1.807   6.503
  806SOL    HW1 3317   4.779   1.847   6.525
  806SOL    HW2 3318   4.881   1.723   6.556
  807SOL     OW 3319   0.929   0.808   3.434
  807SOL    HW1 3320   0.922   0.879   3.504
  807SOL    HW2 3321   0.882   0.839   3.351
  808SOL     OW 3322   5.183   2.891   5.707
  808SOL    HW1 3323   5.243   2.970   5.698
  808SOL    HW2 3324   5.167   2.851   5.616
  809SOL     OW 3325   1.395   4.629   0.808
  809SOL    HW1 3326   1.435   4.556   0.864
  809SOL    HW2 3327   1.329   4.589   0.745
  810SOL     OW 3328   4.869   3.832   0.899
  810SOL    HW1 3329   4.794   3.781   0.857
  810SOL    HW2 3330   4.832   3.915   0.943
  811SOL     OW 3331   5.064   5.384   3.239
  811SOL    HW1 3332   5.102   5.387   3.331
  811SOL    HW2 3333   5.069   5.290   3.204
  812SOL     OW 3334   6.926   0.337   1.321
  812SOL    HW1 3335   7.007   0.281   1.301
  812SOL    HW2 3336   6.953   0.432   1.331
  813SOL     OW 3337   4.226   5.826   3.621
  813SOL    HW1 3338   4.151   5.766   3.650
  813SOL    HW2 3339   4.267   5.789   3.538
  814SOL     OW 3340   5.543   6.787   2.008
  814SOL    HW1 3341   5.522   6.693   2.033
  814SOL    HW2 3342   5.605   6.827   2.076
  815SOL     OW 3343   6.602   2.494   1.603
  815SOL    HW1 3344   6.538   2.524   1.674
  815SOL    HW2 3345   6.598   2.558   1.526
  816SOL     OW 3346   6.853   6.625   0.586
  816SOL    HW1 3347   6.809   6.583   0.506
  816SOL    HW2 3348   6.930   6.681   0.555
  817SOL     OW 3349   1.665   3.596   1.906
  817SOL    HW1 3350   1.675   3.523   1.838
  817SOL    HW2 3351   1.596   3.570   1.974
  818SOL     OW 3352   5.949   2.211   0.731
  818SOL    HW1 3353   5.991   2.127   0.768
  818SOL    HW2 3354   6.001   2.242   0.652
  819SOL     OW 3355   6.873   2.116   3.627
  819SOL    HW1 3356   6.892   2.033   3.575
  819SOL    HW2 3357   6.927   2.115   3.712
  820SOL     OW 3358   0.767   2.666   4.519
  820SOL    HW1 3359   0.714   2.586   4.550
  820SOL    HW2 3360   0.796   2.652   4.425
  821SOL     OW 3361   1.845   4.038   0.865
  821SOL    HW1 3362   1.914   4.097   0.823
  821SOL    HW2 3363   1.891   3.963   0.913
  822SOL     OW 3364   0.461   3.994   5.068
  822SOL    HW1 3365   0.510   3.923   5.118
  822SOL    HW2 3366   0.366   3.998   5.100
  823SOL     OW 3367   5.350   3.849   6.089
  823SOL    HW1 3368   5.445   3.837   6.060
  823SOL    HW2 3369   5.338   3.813   6.181
  824SOL     OW 3370   4.919   2.197   5.500
  824SOL    HW1 3371   4.910   2.283   5.549
  824SOL    HW2 3372   4.908   2.212   5.402
  825SOL     OW 3373   2.118   3.288   2.046
  825SOL    HW1 3374   2.157   3.213   1.993
  825SOL    HW2 3375   2.166   3.373   2.023
  826SOL     OW 3376   5.696   3.383   6.954
  826SOL    HW1 3377   5.606   3.422   6.974
  826SOL    HW2 3378   5.689   3.284   6.951
  827SOL     OW 3379   3.670   5.444   0.002
  827SOL    HW1 3380   3.642   5.351   0.029
  827SOL    HW2 3381   3.751   5.438   6.965
  828SOL     OW 3382   6.062   0.807   5.337
  828SOL    HW1 3383   6.149   0.790   5.384
  828SOL    HW2 3384   5.987   0.772   5.393
  829SOL     OW 3385   3.169   3.076   4.230
  829SOL    HW1 3386   3.094   3.137   4.258
  829SOL    HW2 3387   3.234   3.067   4.305
  830SOL     OW 3388   4.585   4.076   5.277
  830SOL    HW1 3389   4.529   4.134   5.217
  830SOL    HW2 3390   4.580   4.111   5.371
  831SOL     OW 3391   5.831   0.517   5.209
  831SOL    HW1 3392   5.923   0.555   5.200
  831SOL    HW2 3393   5.837   0.424   5.246
  832SOL     OW 3394   2.002   1.434   6.981
  832SOL    HW1 3395   2.102   1.444   6.982
  832SOL    HW2 3396   1.964   1.497   6.913
  833SOL     OW 3397   6.459   6.590   6.107
  833SOL    HW1 3398   6.422   6.646   6.034
  833SOL    HW2 3399   6.527   6.642   6.159
  834SOL     OW 3400   3.208   3.254   4.029
  834SOL    HW1 3401   3.302   3.260   3.995
  834SOL    HW2 3402   3.204   3.191   4.107
  835SOL     OW 3403   3.442   6.411   3.942
  835SOL    HW1 3404   3.528   6.388   3.896
  835SOL    HW2 3405   3.368   6.357   3.904
  836SOL     OW 3406   3.788   6.944   0.381
  836SOL    HW1 3407   3.738   6.893   0.311
  836SOL    HW2 3408   3.823   0.007   0.342
  837SOL     OW 3409   5.102   0.233   6.761
  837SOL    HW1 3410   5.083   0.241   6.663
  837SOL    HW2 3411   5.116   0.137   6.785
  838SOL     OW 3412   1.381   5.967   4.792
  838SOL    HW1 3413   1.430   5.940   4.874
  838SOL    HW2 3414   1.413   5.913   4.714
  839SOL     OW 3415   2.600   1.523   3.872
  839SOL    HW1 3416   2.544   1.585   3.817
  839SOL    HW2 3417   2.690   1.564   3.887
  840SOL     OW 3418   0.820   1.082   6.583
  840SOL    HW1 3419   0.820   1.147   6.507
  840SOL    HW2 3420   0.753   1.010   6.565
  841SOL     OW 3421   6.709   3.565   6.895
  841SOL    HW1 3422   6.701   3.661   6.866
  841SOL    HW2 3423   6.625   3.537   6.940
  842SOL     OW 3424   4.022   5.300   3.236
  842SOL    HW1 3425   4.004   5.202   3.226
  842SOL    HW2 3426   4.086   5.330   3.166
  843SOL     OW 3427   6.161   2.020   2.021
  843SOL    HW1 3428   6.121   1.977   2.102
  843SOL    HW2 3429   6.248   1.977   1.999
  844SOL     OW 3430   5.264   5.936   0.305
  844SOL    HW1 3431   5.288   5.933   0.208
  844SOL    HW2 3432   5.172   5.974   0.315
  845SOL     OW 3433   7.004   3.997   4.872
  845SOL    HW1 3434   6.963   4.028   4.786
  845SOL    HW2 3435   6.945   4.023   4.948
  846SOL     OW 3436   5.981   1.251   6.852
  846SOL    HW1 3437   6.061   1.192   6.842
  846SOL    HW2 3438   5.982   1.320   6.780
  847SOL     OW 3439   6.146   3.484   0.785
  847SOL    HW1 3440   6.151   3.431   0.870
  847SOL    HW2 3441   6.181   3.428   0.709
  848SOL     OW 3442   6.309   7.001   5.875
  848SOL    HW1 3443   6.389   0.029   5.907
  848SOL    HW2 3444   6.318   6.904   5.898
  849SOL     OW 3445   0.545   5.418   4.780
  849SOL    HW1 3446   0.602   5.336   4.785
  849SOL    HW2 3447   0.501   5.434   4.868
  850SOL     OW 3448   4.424   1.445   3.431
  850SOL    HW1 3449   4.400   1.483   3.342
  850SOL    HW2 3450   4.513   1.480   3.459
  851SOL     OW 3451   0.451   1.268   0.333
  851SOL    HW1 3452   0.402   1.181   0.341
  851SOL    HW2 3453   0.445   1.302   0.239
  852SOL     OW 3454   2.486   3.188   6.470
  852SOL    HW1 3455   2.395   3.182   6.429
  852SOL    HW2 3456   2.490   3.129   6.550
  853SOL     OW 3457   1.119   2.801   2.033
  853SOL    HW1 3458   1.112   2.895   2.002
  853SOL    HW2 3459   1.088   2.739   1.960
  854SOL     OW 3460   5.147   5.917   2.563
  854SOL    HW1 3461   5.222   5.885   2.620
  854SOL    HW2 3462   5.150   6.016   2.556
  855SOL     OW 3463   5.898   0.054   1.806
  855SOL    HW1 3464   5.919   0.144   1.768
  855SOL    HW2 3465   5.799   0.045   1.816
  856SOL     OW 3466   2.043   5.949   5.457
  856SOL    HW1 3467   2.089   6.006   5.524
  856SOL    HW2 3468   1.944   5.957   5.468
  857SOL     OW 3469   6.301   3.692   0.583
  857SOL    HW1 3470   6.370   3.652   0.643
  857SOL    HW2 3471   6.220   3.632   0.581
  858SOL     OW 3472   3.152   4.869   1.756
  858SOL    HW1 3473   3.154   4.894   1.853
  858SOL    HW2 3474   3.066   4.901   1.716
  859SOL     OW 3475   0.161   4.909   6.678
  859SOL    HW1 3476   0.188   5.005   6.678
  859SOL    HW2 3477   0.243   4.852   6.669
  860SOL     OW 3478   3.240   3.995   0.930
  860SOL    HW1 3479   3.318   4.010   0.868
  860SOL    HW2 3480   3.253   4.050   1.013
  861SOL     OW 3481   2.557   5.590   5.545
  861SOL    HW1 3482   2.632   5.578   5.610
  861SOL    HW2 3483   2.543   5.688   5.530
  862SOL     OW 3484   5.324   4.545   4.942
  862SOL    HW1 3485   5.244   4.551   4.883
  862SOL    HW2 3486   5.306   4.482   5.017
  863SOL     OW 3487   0.343   1.184   1.262
  863SOL    HW1 3488   0.362   1.271   1.308
  863SOL    HW2 3489   0.429   1.135   1.246
  864SOL     OW 3490   5.316   4.339   2.647
  864SOL    HW1 3491   5.330   4.420   2.590
  864SOL    HW2 3492   5.228   4.297   2.625
  865SOL     OW 3493   1.478   0.128   3.681
  865SOL    HW1 3494   1.532   0.045   3.670
  865SOL    HW2 3495   1.382   0.103   3.697
  866SOL     OW 3496   3.584   1.981   2.139
  866SOL    HW1 3497   3.568   1.905   2.075
  866SOL    HW2 3498   3.626   2.057   2.089
  867SOL     OW 3499   2.995   2.970   6.524
  867SOL    HW1 3500   2.941   2.897   6.566
  867SOL    HW2 3501   3.020   2.943   6.431
  868SOL     OW 3502   5.744   0.628   3.316
  868SOL    HW1 3503   5.709   0.615   3.223
  868SOL    HW2 3504   5.844   0.620   3.315
  869SOL     OW 3505   5.785   6.273   1.426
  869SOL    HW1 3506   5.767   6.354   1.483
  869SOL    HW2 3507   5.776   6.298   1.330
  870SOL     OW 3508   6.681   1.979   1.600
  870SOL    HW1 3509   6.667   2.066   1.647
  870SOL    HW2 3510   6.593   1.944   1.568
  871SOL     OW 3511   5.704   2.538   1.820
  871SOL    HW1 3512   5.696   2.438   1.830
  871SOL    HW2 3513   5.785   2.570   1.868
  872SOL     OW 3514   6.591   2.729   3.815
  872SOL    HW1 3515   6.597   2.716   3.914
  872SOL    HW2 3516   6.679   2.763   3.781
  873SOL     OW 3517   3.378   6.981   3.886
  873SOL    HW1 3518   3.390   6.885   3.912
  873SOL    HW2 3519   3.281   7.000   3.874
  874SOL     OW 3520   1.323   3.983   5.611
  874SOL    HW1 3521   1.402   3.924   5.592
  874SOL    HW2 3522   1.340   4.035   5.694
  875SOL     OW 3523   5.736   3.915   0.151
  875SOL    HW1 3524   5.795   3.995   0.142
  875SOL    HW2 3525   5.782   3.834   0.114
  876SOL     OW 3526   0.090   3.209   2.130
  876SOL    HW1 3527   0.030   3.253   2.197
  876SOL    HW2 3528   0.153   3.147   2.177
  877SOL     OW 3529   4.983   5.539   6.872
  877SOL    HW1 3530   4.921   5.544   6.794
  877SOL    HW2 3531   5.064   5.487   6.846
  878SOL     OW 3532   2.851   5.088   0.724
  878SOL    HW1 3533   2.835   5.187   0.717
  878SOL    HW2 3534   2.862   5.049   0.633
  879SOL     OW 3535   3.941   2.195   2.812
  879SOL    HW1 3536   4.000   2.121   2.780
  879SOL    HW2 3537   3.993   2.254   2.873
  880SOL     OW 3538   3.539   5.038   0.652
  880SOL    HW1 3539   3.560   5.122   0.601
  880SOL    HW2 3540   3.615   4.973   0.642
  881SOL     OW 3541   3.547   4.976   4.779
  881SOL    HW1 3542   3.466   4.999   4.834
  881SOL    HW2 3543   3.577   5.057   4.729
  882SOL     OW 3544   1.594   0.671   4.703
  882SOL    HW1 3545   1.533   0.732   4.753
  882SOL    HW2 3546   1.638   0.608   4.767
  883SOL     OW 3547   3.384   5.586   6.753
  883SOL    HW1 3548   3.443   5.508   6.732
  883SOL    HW2 3549   3.396   5.612   6.848
  884SOL     OW 3550   5.741   3.100   1.642
  884SOL    HW1 3551   5.720   3.067   1.734
  884SOL    HW2 3552   5.738   3.200   1.641
  885SOL     OW 3553   5.660   5.644   0.400
  885SOL    HW1 3554   5.562   5.622   0.407
  885SOL    HW2 3555   5.675   5.740   0.422
  886SOL     OW 3556   4.696   1.653   6.776
  886SOL    HW1 3557   4.699   1.554   6.794
  886SOL    HW2 3558   4.633   1.672   6.701
  887SOL     OW 3559   4.236   0.123   5.575
  887SOL    HW1 3560   4.199   0.140   5.667
  887SOL    HW2 3561   4.163   0.135   5.507
  888SOL     OW 3562   6.178   6.055   2.791
  888SOL    HW1 3563   6.160   5.986   2.860
  888SOL    HW2 3564   6.145   6.023   2.702
  889SOL     OW 3565   0.627   6.674   5.330
  889SOL    HW1 3566   0.718   6.641   5.354
  889SOL    HW2 3567   0.627   6.706   5.236
  890SOL     OW 3568   2.736   4.665   2.216
  890SOL    HW1 3569   2.769   4.638   2.125
  890SOL    HW2 3570   2.811   4.658   2.282
  891SOL     OW 3571   5.313   3.018   0.218
  891SOL    HW1 3572   5.376   2.941   0.224
  891SOL    HW2 3573   5.227   2.995   0.265
  892SOL     OW 3574   2.917   4.457   0.963
  892SOL    HW1 3575   2.858   4.378   0.947
  892SOL    HW2 3576   3.013   4.429   0.961
  893SOL     OW 3577   1.636   0.658   0.317
  893SOL    HW1 3578   1.692   0.579   0.296
  893SOL    HW2 3579   1.662   0.735   0.258
  894SOL     OW 3580   1.297   5.754   4.499
  894SOL    HW1 3581   1.271   5.849   4.509
  894SOL    HW2 3582   1.396   5.744   4.515
  895SOL     OW 3583   2.297   0.089   4.557
  895SOL    HW1 3584   2.237   0.021   4.599
  895SOL    HW2 3585   2.389   0.080   4.594
  896SOL     OW 3586   6.148   6.468   2.998
  896SOL    HW1 3587   6.129   6.448   3.094
  896SOL    HW2 3588   6.106   6.398   2.940
  897SOL     OW 3589   4.919   2.283   6.765
  897SOL    HW1 3590   4.947   2.261   6.858
  897SOL    HW2 3591   4.920   2.382   6.752
  898SOL     OW 3592   5.551   6.568   2.956
  898SOL    HW1 3593   5.583   6.524   2.872
  898SOL    HW2 3594   5.454   6.546   2.970
  899SOL     OW 3595   0.589   4.351   6.356
  899SOL    HW1 3596   0.534   4.380   6.278
  899SOL    HW2 3597   0.681   4.390   6.349
  900SOL     OW 3598   0.319   6.087   3.657
  900SOL    HW1 3599   0.318   5.994   3.621
  900SOL    HW2 3600   0.414   6.115   3.675
  901SOL     OW 3601   6.342   0.963   4.042
  901SOL    HW1 3602   6.252   0.920   4.041
  901SOL    HW2 3603   6.390   0.936   4.125
  902SOL     OW 3604   0.064   6.666   0.434
  902SOL    HW1 3605   0.120   6.748   0.425
  902SOL    HW2 3606   0.003   6.658   0.355
  903SOL     OW 3607   0.760   4.993   0.518
  903SOL    HW1 3608   0.820   5.032   0.588
  903SOL    HW2 3609   0.815   4.948   0.447
  904SOL     OW 3610   1.825   1.735   3.278
  904SOL    HW1 3611   1.831   1.727   3.377
  904SOL    HW2 3612   1.914   1.764   3.242
  905SOL     OW 3613   5.387   1.536   5.129
  905SOL    HW1 3614   5.328   1.611   5.158
  905SOL    HW2 3615   5.350   1.449   5.164
  906SOL     OW 3616   0.041   3.424   5.881
  906SOL    HW1 3617   0.019   3.512   5.840
  906SOL    HW2 3618   0.128   3.431   5.930
  907SOL     OW 3619   6.409   2.400   2.428
  907SOL    HW1 3620   6.321   2.448   2.427
  907SOL    HW2 3621   6.400   2.313   2.379
  908SOL     OW 3622   1.726   0.523   4.255
  908SOL    HW1 3623   1.698   0.567   4.170
  908SOL    HW2 3624   1.825   0.511   4.255
  909SOL     OW 3625   4.002   1.223   1.853
  909SOL    HW1 3626   4.022   1.127   1.873
  909SOL    HW2 3627   3.979   1.233   1.756
  910SOL     OW 3628   2.098   1.481   0.739
  910SOL    HW1 3629   2.069   1.552   0.674
  910SOL    HW2 3630   2.164   1.520   0.803
  911SOL     OW 3631   0.377   4.888   1.883
  911SOL    HW1 3632   0.323   4.918   1.961
  911SOL    HW2 3633   0.473   4.885   1.908
  912SOL     OW 3634   0.805   6.831   5.798
  912SOL    HW1 3635   0.751   6.843   5.881
  912SOL    HW2 3636   0.791   6.910   5.738
  913SOL     OW 3637   3.189   0.721   2.278
  913SOL    HW1 3638   3.266   0.729   2.342
  913SOL    HW2 3639   3.168   0.624   2.264
  914SOL     OW 3640   2.818   6.075   2.542
  914SOL    HW1 3641   2.728   6.067   2.585
  914SOL    HW2 3642   2.833   6.170   2.515
  915SOL     OW 3643   1.175   2.464   0.783
  915SOL    HW1 3644   1.224   2.525   0.846
  915SOL    HW2 3645   1.145   2.517   0.704
  916SOL     OW 3646   2.270   2.994   3.198
  916SOL    HW1 3647   2.216   3.013   3.280
  916SOL    HW2 3648   2.223   3.031   3.118
  917SOL     OW 3649   4.362   1.774   0.798
  917SOL    HW1 3650   4.267   1.797   0.778
  917SOL    HW2 3651   4.404   1.847   0.852
  918SOL     OW 3652   2.197   7.008   6.303
  918SOL    HW1 3653   2.141   6.990   6.383
  918SOL    HW2 3654   2.184   0.081   6.274
  919SOL     OW 3655   2.030   6.125   2.530
  919SOL    HW1 3656   2.002   6.193   2.598
  919SOL    HW2 3657   1.979   6.139   2.445
  920SOL     OW 3658   2.294   0.854   4.231
  920SOL    HW1 3659   2.255   0.810   4.312
  920SOL    HW2 3660   2.256   0.811   4.148
  921SOL     OW 3661   5.380   5.031   4.443
  921SOL    HW1 3662   5.442   4.994   4.374
  921SOL    HW2 3663   5.394   4.983   4.529
  922SOL     OW 3664   3.198   3.359   6.995
  922SOL    HW1 3665   3.275   3.423   6.990
  922SOL    HW2 3666   3.229   3.271   0.006
  923SOL     OW 3667   3.310   6.890   6.585
  923SOL    HW1 3668   3.264   6.810   6.546
  923SOL    HW2 3669   3.247   6.967   6.588
  924SOL     OW 3670   5.691   2.984   2.956
  924SOL    HW1 3671   5.677   2.907   3.019
  924SOL    HW2 3672   5.623   2.980   2.882
  925SOL     OW 3673   0.540   1.651   4.001
  925SOL    HW1 3674   0.611   1.690   4.060
  925SOL    HW2 3675   0.530   1.554   4.023
  926SOL     OW 3676   5.256   5.573   1.023
  926SOL    HW1 3677   5.333   5.632   1.047
  926SOL    HW2 3678   5.276   5.523   0.939
  927SOL     OW 3679   3.824   4.960   4.519
  927SOL    HW1 3680   3.771   5.029   4.567
  927SOL    HW2 3681   3.860   4.894   4.585
  928SOL     OW 3682   2.213   1.232   1.242
  928SOL    HW1 3683   2.183   1.290   1.166
  928SOL    HW2 3684   2.220   1.287   1.325
  929SOL     OW 3685   0.019   2.732   3.017
  929SOL    HW1 3686   0.022   2.638   3.051
  929SOL    HW2 3687   6.945   2.763   3.014
  930SOL     OW 3688   4.732   5.523   4.391
  930SOL    HW1 3689   4.639   5.549   4.417
  930SOL    HW2 3690   4.793   5.602   4.402
  931SOL     OW 3691   1.403   2.634   2.772
  931SOL    HW1 3692   1.497   2.620   2.802
  931SOL    HW2 3693   1.352   2.548   2.780
  932SOL     OW 3694   4.800   0.137   1.218
  932SOL    HW1 3695   4.781   0.229   1.254
  932SOL    HW2 3696   4.735   0.116   1.145
  933SOL     OW 3697   1.465   6.261   3.220
  933SOL    HW1 3698   1.552   6.270   3.268
  933SOL    HW2 3699   1.470   6.184   3.156
  934SOL     OW 3700   3.302   1.172   5.485
  934SOL    HW1 3701   3.214   1.186   5.530
  934SOL    HW2 3702   3.298   1.208   5.392
  935SOL     OW 3703   3.729   3.531   6.028
  935SOL    HW1 3704   3.735   3.490   5.938
  935SOL    HW2 3705   3.641   3.509   6.070
  936SOL     OW 3706   1.042   0.964   1.491
  936SOL    HW1 3707   1.069   0.977   1.396
  936SOL    HW2 3708   1.121   0.978   1.550
  937SOL     OW 3709   4.567   2.013   4.727
  937SOL    HW1 3710   4.467   2.007   4.725
  937SOL    HW2 3711   4.598   2.074   4.653
  938SOL     OW 3712   0.881   2.809   6.685
  938SOL    HW1 3713   0.902   2.824   6.782
  938SOL    HW2 3714   0.782   2.812   6.672
  939SOL     OW 3715   6.007   1.345   5.408
  939SOL    HW1 3716   5.944   1.372   5.336
  939SOL    HW2 3717   6.069   1.274   5.373
  940SOL     OW 3718   6.652   1.321   3.586
  940SOL    HW1 3719   6.749   1.298   3.579
  940SOL    HW2 3720   6.632   1.399   3.527
  941SOL     OW 3721   5.346   1.619   4.348
  941SOL    HW1 3722   5.390   1.708   4.352
  941SOL    HW2 3723   5.314   1.593   4.439
  942SOL     OW 3724   5.489   6.682   5.597
  942SOL    HW1 3725   5.397   6.674   5.637
  942SOL    HW2 3726   5.551   6.722   5.664
  943SOL     OW 3727   5.469   2.007   1.403
  943SOL    HW1 3728   5.420   2.073   1.345
  943SOL    HW2 3729   5.472   2.041   1.497
  944SOL     OW 3730   5.179   4.139   3.672
  944SOL    HW1 3731   5.256   4.202   3.682
  944SOL    HW2 3732   5.097   4.190   3.648
  945SOL     OW 3733   5.365   4.174   4.325
  945SOL    HW1 3734   5.267   4.194   4.325
  945SOL    HW2 3735   5.393   4.142   4.415
  946SOL     OW 3736   5.736   2.732   5.240
  946SOL    HW1 3737   5.650   2.741   5.289
  946SOL    HW2 3738   5.754   2.635   5.222
  947SOL     OW 3739   2.198   2.466   6.232
  947SOL    HW1 3740   2.273   2.427   6.285
  947SOL    HW2 3741   2.115   2.467   6.288
  948SOL     OW 3742   3.902   2.026   0.279
  948SOL    HW1 3743   3.911   2.065   0.187
  948SOL    HW2 3744   3.921   2.097   0.347
  949SOL     OW 3745   6.189   5.868   5.959
  949SOL    HW1 3746   6.223   5.915   5.877
  949SOL    HW2 3747   6.231   5.778   5.964
  950SOL     OW 3748   4.592   5.479   1.046
  950SOL    HW1 3749   4.551   5.480   1.137
  950SOL    HW2 3750   4.522   5.455   0.978
  951SOL     OW 3751   1.172   1.370   2.332
  951SOL    HW1 3752   1.117   1.373   2.415
  951SOL    HW2 3753   1.131   1.429   2.263
  952SOL     OW 3754   5.713   0.882   3.283
  952SOL    HW1 3755   5.730   0.787   3.307
  952SOL    HW2 3756   5.641   0.886   3.213
  953SOL     OW 3757   4.649   6.400   6.035
  953SOL    HW1 3758   4.574   6.417   5.971
  953SOL    HW2 3759   4.658   6.478   6.097
  954SOL     OW 3760   6.476   0.202   0.570
  954SOL    HW1 3761   6.539   0.232   0.642
  954SOL    HW2 3762   6.419   0.128   0.605
  955SOL     OW 3763   0.513   6.159   2.527
  955SOL    HW1 3764   0.505   6.258   2.521
  955SOL    HW2 3765   0.428   6.120   2.562
  956SOL     OW 3766   1.346   2.420   1.119
  956SOL    HW1 3767   1.288   2.424   1.037
  956SOL    HW2 3768   1.289   2.419   1.201
  957SOL     OW 3769   2.005   5.236   4.445
  957SOL    HW1 3770   2.071   5.170   4.481
  957SOL    HW2 3771   1.971   5.205   4.356
  958SOL     OW 3772   4.783   2.512   1.362
  958SOL    HW1 3773   4.790   2.520   1.461
  958SOL    HW2 3774   4.770   2.415   1.338
  959SOL     OW 3775   2.511   4.518   2.888
  959SOL    HW1 3776   2.510   4.479   2.796
  959SOL    HW2 3777   2.423   4.561   2.907
  960SOL     OW 3778   1.689   5.516   4.723
  960SOL    HW1 3779   1.597   5.515   4.683
  960SOL    HW2 3780   1.699   5.437   4.784
  961SOL     OW 3781   3.770   6.504   1.723
  961SOL    HW1 3782   3.760   6.416   1.768
  961SOL    HW2 3783   3.850   6.551   1.760
  962SOL     OW 3784   1.957   0.325   3.402
  962SOL    HW1 3785   2.029   0.361   3.344
  962SOL    HW2 3786   1.872   0.376   3.386
  963SOL     OW 3787   6.708   0.339   0.755
  963SOL    HW1 3788   6.641   0.413   0.750
  963SOL    HW2 3789   6.800   0.377   0.760
  964SOL     OW 3790   5.377   3.396   1.260
  964SOL    HW1 3791   5.366   3.440   1.350
  964SOL    HW2 3792   5.317   3.442   1.194
  965SOL     OW 3793   0.041   2.247   0.109
  965SOL    HW1 3794   0.134   2.233   0.144
  965SOL    HW2 3795   0.019   2.173   0.046
  966SOL     OW 3796   6.661   2.042   2.550
  966SOL    HW1 3797   6.592   2.080   2.611
  966SOL    HW2 3798   6.653   2.085   2.460
  967SOL     OW 3799   1.371   5.666   1.550
  967SOL    HW1 3800   1.277   5.635   1.562
  967SOL    HW2 3801   1.400   5.648   1.456
  968SOL     OW 3802   5.137   2.824   2.726
  968SOL    HW1 3803   5.058   2.800   2.783
  968SOL    HW2 3804   5.106   2.844   2.633
  969SOL     OW 3805   4.543   5.944   5.568
  969SOL    HW1 3806   4.554   5.981   5.660
  969SOL    HW2 3807   4.606   5.990   5.505
  970SOL     OW 3808   4.482   2.354   5.157
  970SOL    HW1 3809   4.509   2.358   5.061
  970SOL    HW2 3810   4.399   2.408   5.171
  971SOL     OW 3811   6.583   1.609   1.668
  971SOL    HW1 3812   6.522   1.636   1.743
  971SOL    HW2 3813   6.628   1.523   1.691
  972SOL     OW 3814   6.449   5.213   0.829
  972SOL    HW1 3815   6.463   5.163   0.743
  972SOL    HW2 3816   6.359   5.256   0.828
  973SOL     OW 3817   6.276   4.617   5.772
  973SOL    HW1 3818   6.216   4.558   5.827
  973SOL    HW2 3819   6.334   4.560   5.714
  974SOL     OW 3820   2.828   1.177   3.635
  974SOL    HW1 3821   2.846   1.079   3.645
  974SOL    HW2 3822   2.783   1.211   3.718
  975SOL     OW 3823   3.019   5.936   6.245
  975SOL    HW1 3824   3.049   5.947   6.340
  975SOL    HW2 3825   3.015   5.838   6.223
  976SOL     OW 3826   0.246   3.775   3.384
  976SOL    HW1 3827   0.148   3.776   3.364
  976SOL    HW2 3828   0.260   3.765   3.483
  977SOL     OW 3829   1.565   0.889   3.917
  977SOL    HW1 3830   1.483   0.907   3.862
  977SOL    HW2 3831   1.588   0.972   3.968
  978SOL     OW 3832   5.126   4.106   4.820
  978SOL    HW1 3833   5.028   4.112   4.837
  978SOL    HW2 3834   5.176   4.115   4.906
  979SOL     OW 3835   6.123   0.945   2.794
  979SOL    HW1 3836   6.122   0.870   2.728
  979SOL    HW2 3837   6.091   0.911   2.883
  980SOL     OW 3838   5.450   2.141   4.843
  980SOL    HW1 3839   5.480   2.062   4.896
  980SOL    HW2 3840   5.352   2.132   4.822
  981SOL     OW 3841   0.956   2.035   4.636
  981SOL    HW1 3842   0.954   1.946   4.680
  981SOL    HW2 3843   0.972   2.024   4.538
  982SOL     OW 3844   0.436   2.937   1.658
  982SOL    HW1 3845   0.417   3.027   1.619
  982SOL    HW2 3846   0.354   2.902   1.703
  983SOL     OW 3847   6.485   1.998   3.011
  983SOL    HW1 3848   6.472   1.899   3.009
  983SOL    HW2 3849   6.449   2.038   2.926
  984SOL     OW 3850   4.737   1.251   4.873
  984SOL    HW1 3851   4.738   1.325   4.805
  984SOL    HW2 3852   4.791   1.174   4.840
  985SOL     OW 3853   3.065   5.451   0.948
  985SOL    HW1 3854   2.999   5.398   1.002
  985SOL    HW2 3855   3.022   5.536   0.919
  986SOL     OW 3856   4.243   4.538   6.399
  986SOL    HW1 3857   4.290   4.627   6.398
  986SOL    HW2 3858   4.174   4.537   6.327
  987SOL     OW 3859   3.345   6.709   2.338
  987SOL    HW1 3860   3.327   6.692   2.242
  987SOL    HW2 3861   3.324   6.805   2.359
  988SOL     OW 3862   3.858   3.026   0.538
  988SOL    HW1 3863   3.835   3.075   0.454
  988SOL    HW2 3864   3.848   3.087   0.617
  989SOL     OW 3865   0.612   0.046   5.823
  989SOL    HW1 3866   0.561   6.983   5.810
  989SOL    HW2 3867   0.568   0.120   5.772
  990SOL     OW 3868   4.298   0.589   4.108
  990SOL    HW1 3869   4.375   0.587   4.173
  990SOL    HW2 3870   4.329   0.623   4.020
  991SOL     OW 3871   0.655   1.435   4.632
  991SOL    HW1 3872   0.692   1.468   4.719
  991SOL    HW2 3873   0.563   1.473   4.619
  992SOL     OW 3874   0.548   3.127   0.242
  992SOL    HW1 3875   0.568   3.075   0.159
  992SOL    HW2 3876   0.483   3.199   0.221
  993SOL     OW 3877   3.000   4.895   3.068
  993SOL    HW1 3878   3.087   4.864   3.107
  993SOL    HW2 3879   2.926   4.835   3.098
  994SOL     OW 3880   3.007   3.112   2.794
  994SOL    HW1 3881   3.014   3.124   2.893
  994SOL    HW2 3882   3.096   3.082   2.758
  995SOL     OW 3883   1.542   2.379   5.648
  995SOL    HW1 3884   1.634   2.346   5.629
  995SOL    HW2 3885   1.527   2.379   5.747
  996SOL     OW 3886   2.163   3.706   2.932
  996SOL    HW1 3887   2.129   3.624   2.886
  996SOL    HW2 3888   2.184   3.776   2.863
  997SOL     OW 3889   0.798   0.483   1.533
  997SOL    HW1 3890   0.789   0.451   1.627
  997SOL    HW2 3891   0.841   0.573   1.532
  998SOL     OW 3892   4.583   0.025   2.286
  998SOL    HW1 3893   4.609   6.968   2.343
  998SOL    HW2 3894   4.658   0.046   2.223
  999SOL     OW 3895   6.606   5.403   1.278
  999SOL    HW1 3896   6.675   5.362   1.338
  999SOL    HW2 3897   6.638   5.493   1.247
 1000SOL     OW 3898   2.440   2.425   4.091
 1000SOL    HW1 3899   2.424   2.328   4.071
 1000SOL    HW2 3900   2.474   2.471   4.009
 1001SOL     OW 3901   4.823   0.029   5.913
 1001SOL    HW1 3902   4.849   6.972   5.856
 1001SOL    HW2 3903   4.902   0.060   5.965
 1002SOL     OW 3904   5.913   1.775   0.012
 1002SOL    HW1 3905   5.866   1.719   0.081
 1002SOL    HW2 3906   5.972   1.716   6.979
 1003SOL     OW 3907   3.039   6.045   2.339
 1003SOL    HW1 3908   3.007   6.083   2.425
 1003SOL    HW2 3909   3.029   6.113   2.266
 1004SOL     OW 3910   6.572   6.915   6.825
 1004SOL    HW1 3911   6.616   7.005   6.819
 1004SOL    HW2 3912   6.512   6.912   6.905
 1005SOL     OW 3913   0.695   0.364   2.980
 1005SOL    HW1 3914   0.707   0.391   3.076
 1005SOL    HW2 3915   0.680   0.445   2.924
 1006SOL     OW 3916   2.552   4.842   1.005
 1006SOL    HW1 3917   2.604   4.783   1.068
 1006SOL    HW2 3918   2.457   4.813   1.004
 1007SOL     OW 3919   6.840   0.994   2.884
 1007SOL    HW1 3920   6.831   1.074   2.943
 1007SOL    HW2 3921   6.860   1.023   2.791
 1008SOL     OW 3922   1.101   3.741   3.695
 1008SOL    HW1 3923   1.107   3.806   3.772
 1008SOL    HW2 3924   1.066   3.788   3.614
 1009SOL     OW 3925   0.407   5.988   4.583
 1009SOL    HW1 3926   0.361   5.951   4.664
 1009SOL    HW2 3927   0.470   5.919   4.546
 1010SOL     OW 3928   4.197   2.366   0.305
 1010SOL    HW1 3929   4.165   2.458   0.283
 1010SOL    HW2 3930   4.290   2.372   0.343
 1011SOL     OW 3931   2.117   5.642   4.119
 1011SOL    HW1 3932   2.208   5.672   4.092
 1011SOL    HW2 3933   2.073   5.713   4.174
 1012SOL     OW 3934   5.832   5.287   0.130
 1012SOL    HW1 3935   5.740   5.264   0.162
 1012SOL    HW2 3936   5.847   5.386   0.141
 1013SOL     OW 3937   1.142   0.775   0.751
 1013SOL    HW1 3938   1.093   0.757   0.665
 1013SOL    HW2 3939   1.161   0.688   0.796
 1014SOL     OW 3940   4.318   6.593   5.665
 1014SOL    HW1 3941   4.252   6.654   5.708
 1014SOL    HW2 3942   4.270   6.530   5.604
 1015SOL     OW 3943   3.424   6.179   4.862
 1015SOL    HW1 3944   3.389   6.198   4.770
 1015SOL    HW2 3945   3.520   6.152   4.856
 1016SOL     OW 3946   3.661   2.981   1.082
 1016SOL    HW1 3947   3.583   2.974   1.019
 1016SOL    HW2 3948   3.632   2.950   1.173
 1017SOL     OW 3949   4.358   3.023   0.619
 1017SOL    HW1 3950   4.276   2.965   0.628
 1017SOL    HW2 3951   4.333   3.108   0.574
 1018SOL     OW 3952   0.745   3.316   3.989
 1018SOL    HW1 3953   0.781   3.398   3.945
 1018SOL    HW2 3954   0.677   3.273   3.929
 1019SOL     OW 3955   6.911   1.327   6.954
 1019SOL    HW1 3956   6.987   1.263   6.943
 1019SOL    HW2 3957   6.897   1.378   6.870
 1020SOL     OW 3958   2.898   1.226   1.046
 1020SOL    HW1 3959   2.848   1.140   1.038
 1020SOL    HW2 3960   2.896   1.274   0.959
 1021SOL     OW 3961   6.803   1.332   1.054
 1021SOL    HW1 3962   6.857   1.273   1.114
 1021SOL    HW2 3963   6.706   1.321   1.076
 1022SOL     OW 3964   4.281   3.336   6.131
 1022SOL    HW1 3965   4.248   3.386   6.051
 1022SOL    HW2 3966   4.204   3.289   6.175
 1023SOL     OW 3967   5.984   0.571   2.052
 1023SOL    HW1 3968   5.977   0.619   2.139
 1023SOL    HW2 3969   5.963   0.474   2.066
 1024SOL     OW 3970   6.528   1.858   4.086
 1024SOL    HW1 3971   6.540   1.918   4.007
 1024SOL    HW2 3972   6.443   1.806   4.076
 1025SOL     OW 3973   3.155   4.398   0.883
 1025SOL    HW1 3974   3.111   4.451   0.811
 1025SOL    HW2 3975   3.244   4.366   0.851
 1026SOL     OW 3976   2.545   2.128   6.700
 1026SOL    HW1 3977   2.516   2.150   6.793
 1026SOL    HW2 3978   2.644   2.133   6.694
 1027SOL     OW 3979   3.024   4.938   2.099
 1027SOL    HW1 3980   3.034   5.035   2.076
 1027SOL    HW2 3981   3.079   4.917   2.180
 1028SOL     OW 3982   1.605   5.849   1.314
 1028SOL    HW1 3983   1.601   5.784   1.239
 1028SOL    HW2 3984   1.646   5.934   1.282
 1029SOL     OW 3985   2.248   0.277   0.260
 1029SOL    HW1 3986   2.221   0.227   0.178
 1029SOL    HW2 3987   2.255   0.374   0.239
 1030SOL     OW 3988   3.982   3.635   4.926
 1030SOL    HW1 3989   4.056   3.631   4.859
 1030SOL    HW2 3990   3.947   3.728   4.931
 1031SOL     OW 3991   2.383   5.304   1.775
 1031SOL    HW1 3992   2.414   5.273   1.685
 1031SOL    HW2 3993   2.455   5.287   1.842
 1032SOL     OW 3994   1.895   1.583   4.431
 1032SOL    HW1 3995   1.929   1.670   4.396
 1032SOL    HW2 3996   1.898   1.515   4.358
 1033SOL     OW 3997   2.150   5.899   1.536
 1033SOL    HW1 3998   2.234   5.877   1.487
 1033SOL    HW2 3999   2.141   5.839   1.616
 1034SOL     OW 4000   2.431   5.167   3.575
 1034SOL    HW1 4001   2.346   5.208   3.541
 1034SOL    HW2 4002   2.423   5.067   3.571
 1035SOL     OW 4003   3.169   1.183   4.969
 1035SOL    HW1 4004   3.133   1.226   4.886
 1035SOL    HW2 4005   3.215   1.097   4.945
 1036SOL     OW 4006   4.421   2.564   0.930
 1036SOL    HW1 4007   4.361   2.523   0.860
 1036SOL    HW2 4008   4.480   2.493   0.969
 1037SOL     OW 4009   2.446   0.881   0.463
 1037SOL    HW1 4010   2.511   0.956   0.467
 1037SOL    HW2 4011   2.433   0.844   0.555
 1038SOL     OW 4012   1.969   1.349   5.612
 1038SOL    HW1 4013   1.946   1.371   5.517
 1038SOL    HW2 4014   1.916   1.269   5.641
 1039SOL     OW 4015   3.725   1.961   4.487
 1039SOL    HW1 4016   3.678   1.898   4.425
 1039SOL    HW2 4017   3.807   1.918   4.523
 1040SOL     OW 4018   5.835   4.059   2.636
 1040SOL    HW1 4019   5.830   4.103   2.726
 1040SOL    HW2 4020   5.833   3.960   2.647
 1041SOL     OW 4021   6.899   1.158   3.927
 1041SOL    HW1 4022   6.925   1.208   4.009
 1041SOL    HW2 4023   6.826   1.093   3.949
 1042SOL     OW 4024   5.451   5.092   1.090
 1042SOL    HW1 4025   5.529   5.036   1.120
 1042SOL    HW2 4026   5.438   5.080   0.992
 1043SOL     OW 4027   3.483   1.644   6.456
 1043SOL    HW1 4028   3.440   1.594   6.381
 1043SOL    HW2 4029   3.582   1.632   6.452
 1044SOL     OW 4030   4.017   3.307   2.180
 1044SOL    HW1 4031   3.922   3.286   2.160
 1044SOL    HW2 4032   4.070   3.310   2.096
 1045SOL     OW 4033   3.082   1.369   3.053
 1045SOL    HW1 4034   3.105   1.403   3.144
 1045SOL    HW2 4035   2.983   1.355   3.047
 1046SOL     OW 4036   3.544   6.821   1.032
 1046SOL    HW1 4037   3.538   6.769   1.117
 1046SOL    HW2 4038   3.464   6.801   0.975
 1047SOL     OW 4039   0.936   4.986   2.973
 1047SOL    HW1 4040   0.894   5.013   2.886
 1047SOL    HW2 4041   1.034   4.971   2.959
 1048SOL     OW 4042   5.139   4.563   4.706
 1048SOL    HW1 4043   5.180   4.653   4.690
 1048SOL    HW2 4044   5.201   4.493   4.672
 1049SOL     OW 4045   0.282   3.928   4.540
 1049SOL    HW1 4046   0.375   3.892   4.549
 1049SOL    HW2 4047   0.247   3.954   4.630
 1050SOL     OW 4048   3.854   6.899   6.762
 1050SOL    HW1 4049   3.794   6.826   6.796
 1050SOL    HW2 4050   3.897   6.945   6.840
 1051SOL     OW 4051   5.203   4.680   0.161
 1051SOL    HW1 4052   5.215   4.585   0.188
 1051SOL    HW2 4053   5.130   4.722   0.215
 1052SOL     OW 4054   3.798   0.417   4.874
 1052SOL    HW1 4055   3.707   0.441   4.907
 1052SOL    HW2 4056   3.797   0.411   4.774
 1053SOL     OW 4057   4.532   4.973   3.832
 1053SOL    HW1 4058   4.528   4.928   3.922
 1053SOL    HW2 4059   4.613   5.030   3.827
 1054SOL     OW 4060   3.127   4.972   5.313
 1054SOL    HW1 4061   3.089   4.906   5.249
 1054SOL    HW2 4062   3.158   4.924   5.396
 1055SOL     OW 4063   4.153   6.058   5.056
 1055SOL    HW1 4064   4.159   5.959   5.045
 1055SOL    HW2 4065   4.208   6.086   5.134
 1056SOL     OW 4066   1.722   6.139   5.723
 1056SOL    HW1 4067   1.772   6.054   5.739
 1056SOL    HW2 4068   1.736   6.169   5.629
 1057SOL     OW 4069   3.173   3.448   2.899
 1057SOL    HW1 4070   3.128   3.361   2.915
 1057SOL    HW2 4071   3.208   3.484   2.986
 1058SOL     OW 4072   3.410   1.355   2.181
 1058SOL    HW1 4073   3.310   1.355   2.179
 1058SOL    HW2 4074   3.445   1.269   2.144
 1059SOL     OW 4075   4.402   1.451   1.740
 1059SOL    HW1 4076   4.464   1.528   1.724
 1059SOL    HW2 4077   4.313   1.486   1.769
 1060SOL     OW 4078   1.238   2.682   5.558
 1060SOL    HW1 4079   1.266   2.587   5.565
 1060SOL    HW2 4080   1.148   2.694   5.601
 1061SOL     OW 4081   3.495   5.027   1.419
 1061SOL    HW1 4082   3.407   5.070   1.437
 1061SOL    HW2 4083   3.481   4.934   1.385
 1062SOL     OW 4084   6.313   5.747   5.665
 1062SOL    HW1 4085   6.357   5.738   5.575
 1062SOL    HW2 4086   6.373   5.710   5.735
 1063SOL     OW 4087   2.065   3.184   0.599
 1063SOL    HW1 4088   1.976   3.168   0.641
 1063SOL    HW2 4089   2.068   3.142   0.508
 1064SOL     OW 4090   0.332   3.147   1.862
 1064SOL    HW1 4091   0.405   3.127   1.927
 1064SOL    HW2 4092   0.281   3.064   1.843
 1065SOL     OW 4093   5.845   6.704   4.110
 1065SOL    HW1 4094   5.762   6.715   4.056
 1065SOL    HW2 4095   5.923   6.688   4.049
 1066SOL     OW 4096   4.797   0.137   3.612
 1066SOL    HW1 4097   4.727   0.187   3.562
 1066SOL    HW2 4098   4.782   0.148   3.710
 1067SOL     OW 4099   1.963   2.989   2.146
 1067SOL    HW1 4100   2.001   2.996   2.054
 1067SOL    HW2 4101   2.005   3.057   2.205
 1068SOL     OW 4102   0.215   3.484   2.324
 1068SOL    HW1 4103   0.149   3.421   2.365
 1068SOL    HW2 4104   0.276   3.434   2.264
 1069SOL     OW 4105   4.318   4.299   1.114
 1069SOL    HW1 4106   4.320   4.203   1.144
 1069SOL    HW2 4107   4.224   4.333   1.119
 1070SOL     OW 4108   2.191   1.032   0.546
 1070SOL    HW1 4109   2.133   0.950   0.545
 1070SOL    HW2 4110   2.262   1.023   0.477
 1071SOL     OW 4111   3.742   6.363   3.279
 1071SOL    HW1 4112   3.740   6.343   3.377
 1071SOL    HW2 4113   3.827   6.326   3.240
 1072SOL     OW 4114   3.049   6.542   2.847
 1072SOL    HW1 4115   3.025   6.548   2.750
 1072SOL    HW2 4116   3.123   6.476   2.859
 1073SOL     OW 4117   2.737   4.740   2.633
 1073SOL    HW1 4118   2.812   4.700   2.581
 1073SOL    HW2 4119   2.749   4.722   2.730
 1074SOL     OW 4120   0.903   4.734   2.010
 1074SOL    HW1 4121   0.973   4.749   1.940
 1074SOL    HW2 4122   0.940   4.761   2.099
 1075SOL     OW 4123   5.104   4.525   3.871
 1075SOL    HW1 4124   5.108   4.612   3.920
 1075SOL    HW2 4125   5.191   4.476   3.884
 1076SOL     OW 4126   0.528   4.405   3.976
 1076SOL    HW1 4127   0.611   4.430   4.026
 1076SOL    HW2 4128   0.517   4.305   3.978
 1077SOL     OW 4129   4.612   0.286   1.015
 1077SOL    HW1 4130   4.537   0.221   1.014
 1077SOL    HW2 4131   4.693   0.246   0.971
 1078SOL     OW 4132   1.496   2.136   1.402
 1078SOL    HW1 4133   1.524   2.041   1.403
 1078SOL    HW2 4134   1.500   2.172   1.308
 1079SOL     OW 4135   2.704   5.461   3.790
 1079SOL    HW1 4136   2.705   5.422   3.882
 1079SOL    HW2 4137   2.766   5.410   3.731
 1080SOL     OW 4138   1.917   5.119   3.804
 1080SOL    HW1 4139   1.852   5.144   3.876
 1080SOL    HW2 4140   1.890   5.162   3.718
 1081SOL     OW 4141   1.961   0.477   0.471
 1081SOL    HW1 4142   1.936   0.419   0.393
 1081SOL    HW2 4143   1.991   0.566   0.438
 1082SOL     OW 4144   1.423   0.227   5.817
 1082SOL    HW1 4145   1.435   0.128   5.820
 1082SOL    HW2 4146   1.485   0.270   5.883
 1083SOL     OW 4147   3.622   3.752   2.285
 1083SOL    HW1 4148   3.523   3.748   2.302
 1083SOL    HW2 4149   3.644   3.697   2.204
 1084SOL     OW 4150   5.808   4.298   1.256
 1084SOL    HW1 4151   5.740   4.292   1.183
 1084SOL    HW2 4152   5.767   4.266   1.342
 1085SOL     OW 4153   1.797   4.557   4.077
 1085SOL    HW1 4154   1.812   4.650   4.109
 1085SOL    HW2 4155   1.772   4.499   4.154
 1086SOL     OW 4156   4.306   4.604   2.101
 1086SOL    HW1 4157   4.390   4.603   2.047
 1086SOL    HW2 4158   4.263   4.694   2.095
 1087SOL     OW 4159   4.469   2.849   5.292
 1087SOL    HW1 4160   4.436   2.943   5.290
 1087SOL    HW2 4161   4.395   2.789   5.323
 1088SOL     OW 4162   4.908   4.320   3.926
 1088SOL    HW1 4163   4.956   4.398   3.885
 1088SOL    HW2 4164   4.911   4.327   4.025
 1089SOL     OW 4165   0.207   0.124   4.288
 1089SOL    HW1 4166   0.222   0.158   4.381
 1089SOL    HW2 4167   0.109   0.112   4.272
 1090SOL     OW 4168   1.696   1.518   6.736
 1090SOL    HW1 4169   1.632   1.449   6.771
 1090SOL    HW2 4170   1.771   1.473   6.688
 1091SOL     OW 4171   1.755   1.775   4.795
 1091SOL    HW1 4172   1.777   1.810   4.886
 1091SOL    HW2 4173   1.826   1.804   4.731
 1092SOL     OW 4174   2.467   3.900   1.719
 1092SOL    HW1 4175   2.401   3.971   1.743
 1092SOL    HW2 4176   2.419   3.814   1.703
 1093SOL     OW 4177   0.513   2.587   2.350
 1093SOL    HW1 4178   0.581   2.572   2.278
 1093SOL    HW2 4179   0.458   2.504   2.363
 1094SOL     OW 4180   0.255   6.839   1.273
 1094SOL    HW1 4181   0.280   6.749   1.237
 1094SOL    HW2 4182   0.293   6.850   1.364
 1095SOL     OW 4183   6.284   3.135   6.279
 1095SOL    HW1 4184   6.249   3.045   6.306
 1095SOL    HW2 4185   6.223   3.206   6.312
 1096SOL     OW 4186   3.336   4.275   1.648
 1096SOL    HW1 4187   3.256   4.248   1.594
 1096SOL    HW2 4188   3.318   4.363   1.692
 1097SOL     OW 4189   1.297   5.344   5.175
 1097SOL    HW1 4190   1.247   5.310   5.096
 1097SOL    HW2 4191   1.314   5.269   5.239
 1098SOL     OW 4192   4.770   2.024   2.302
 1098SOL    HW1 4193   4.863   1.992   2.317
 1098SOL    HW2 4194   4.719   1.955   2.249
 1099SOL     OW 4195   4.340   1.709   4.034
 1099SOL    HW1 4196   4.245   1.740   4.022
 1099SOL    HW2 4197   4.341   1.629   4.094
 1100SOL     OW 4198   0.657   0.853   6.547
 1100SOL    HW1 4199   0.666   0.858   6.447
 1100SOL    HW2 4200   0.562   0.836   6.571
 1101SOL     OW 4201   5.062   3.636   0.968
 1101SOL    HW1 4202   5.071   3.591   0.879
 1101SOL    HW2 4203   5.018   3.725   0.955
 1102SOL     OW 4204   0.296   4.683   3.694
 1102SOL    HW1 4205   0.278   4.648   3.786
 1102SOL    HW2 4206   0.361   4.622   3.647
 1103SOL     OW 4207   1.731   2.210   1.791
 1103SOL    HW1 4208   1.790   2.263   1.852
 1103SOL    HW2 4209   1.738   2.247   1.698
 1104SOL     OW 4210   3.569   4.838   6.257
 1104SOL    HW1 4211   3.660   4.803   6.279
 1104SOL    HW2 4212   3.562   4.851   6.158
 1105SOL     OW 4213   5.231   4.233   6.270
 1105SOL    HW1 4214   5.263   4.222   6.175
 1105SOL    HW2 4215   5.310   4.252   6.329
 1106SOL     OW 4216   0.290   2.625   5.447
 1106SOL    HW1 4217   0.225   2.698   5.467
 1106SOL    HW2 4218   0.320   2.581   5.532
 1107SOL     OW 4219   1.281   0.486   0.886
 1107SOL    HW1 4220   1.272   0.422   0.810
 1107SOL    HW2 4221   1.213   0.465   0.956
 1108SOL     OW 4222   1.806   1.005   5.399
 1108SOL    HW1 4223   1.749   0.966   5.326
 1108SOL    HW2 4224   1.790   1.104   5.404
 1109SOL     OW 4225   4.095   6.563   3.996
 1109SOL    HW1 4226   4.111   6.661   3.987
 1109SOL    HW2 4227   4.151   6.526   4.071
 1110SOL     OW 4228   2.972   3.669   2.231
 1110SOL    HW1 4229   3.036   3.596   2.206
 1110SOL    HW2 4230   2.983   3.746   2.168
 1111SOL     OW 4231   5.562   0.921   0.153
 1111SOL    HW1 4232   5.520   0.941   0.064
 1111SOL    HW2 4233   5.657   0.949   0.153
 1112SOL     OW 4234   6.863   0.927   2.068
 1112SOL    HW1 4235   6.789   0.888   2.013
 1112SOL    HW2 4236   6.949   0.883   2.044
 1113SOL     OW 4237   6.449   3.271   2.712
 1113SOL    HW1 4238   6.410   3.189   2.669
 1113SOL    HW2 4239   6.515   3.243   2.782
 1114SOL     OW 4240   4.635   1.338   5.736
 1114SOL    HW1 4241   4.566   1.380   5.677
 1114SOL    HW2 4242   4.599   1.254   5.776
 1115SOL     OW 4243   2.928   3.319   1.036
 1115SOL    HW1 4244   2.995   3.383   1.073
 1115SOL    HW2 4245   2.947   3.227   1.072
 1116SOL     OW 4246   3.811   6.521   4.076
 1116SOL    HW1 4247   3.898   6.472   4.073
 1116SOL    HW2 4248   3.826   6.617   4.052
 1117SOL     OW 4249   3.141   2.943   1.206
 1117SOL    HW1 4250   3.046   2.928   1.177
 1117SOL    HW2 4251   3.202   2.885   1.152
 1118SOL     OW 4252   2.298   4.367   3.332
 1118SOL    HW1 4253   2.289   4.463   3.304
 1118SOL    HW2 4254   2.328   4.312   3.254
 1119SOL     OW 4255   4.100   3.794   1.663
 1119SOL    HW1 4256   4.120   3.722   1.729
 1119SOL    HW2 4257   4.184   3.818   1.613
 1120SOL     OW 4258   4.682   0.093   5.460
 1120SOL    HW1 4259   4.771   0.137   5.468
 1120SOL    HW2 4260   4.690   0.010   5.405
 1121SOL     OW 4261   5.487   2.718   1.932
 1121SOL    HW1 4262   5.574   2.674   1.911
 1121SOL    HW2 4263   5.503   2.815   1.952
 1122SOL     OW 4264   5.075   3.386   6.370
 1122SOL    HW1 4265   5.072   3.291   6.400
 1122SOL    HW2 4266   4.984   3.427   6.380
 1123SOL     OW 4267   4.357   0.924   2.580
 1123SOL    HW1 4268   4.386   0.917   2.485
 1123SOL    HW2 4269   4.435   0.949   2.637
 1124SOL     OW 4270   6.638   4.202   4.717
 1124SOL    HW1 4271   6.571   4.133   4.689
 1124SOL    HW2 4272   6.728   4.179   4.678
 1125SOL     OW 4273   3.456   3.094   4.995
 1125SOL    HW1 4274   3.381   3.105   4.929
 1125SOL    HW2 4275   3.534   3.150   4.966
 1126SOL     OW 4276   5.083   6.503   1.436
 1126SOL    HW1 4277   5.148   6.489   1.510
 1126SOL    HW2 4278   4.996   6.536   1.473
 1127SOL     OW 4279   2.048   4.961   0.087
 1127SOL    HW1 4280   1.991   5.034   0.124
 1127SOL    HW2 4281   2.056   4.887   0.154
 1128SOL     OW 4282   3.038   1.900   4.223
 1128SOL    HW1 4283   3.056   1.988   4.178
 1128SOL    HW2 4284   3.118   1.873   4.277
 1129SOL     OW 4285   5.340   0.370   6.841
 1129SOL    HW1 4286   5.319   0.467   6.826
 1129SOL    HW2 4287   5.257   0.316   6.828
 1130SOL     OW 4288   0.863   4.402   6.689
 1130SOL    HW1 4289   0.766   4.426   6.699
 1130SOL    HW2 4290   0.890   4.343   6.765
 1131SOL     OW 4291   0.436   6.398   5.328
 1131SOL    HW1 4292   0.492   6.398   5.245
 1131SOL    HW2 4293   0.496   6.413   5.407
 1132SOL     OW 4294   4.748   6.419   5.516
 1132SOL    HW1 4295   4.811   6.464   5.579
 1132SOL    HW2 4296   4.760   6.457   5.424
 1133SOL     OW 4297   0.426   3.762   1.486
 1133SOL    HW1 4298   0.500   3.788   1.424
 1133SOL    HW2 4299   0.363   3.701   1.439
 1134SOL     OW 4300   5.345   2.632   6.100
 1134SOL    HW1 4301   5.311   2.601   6.011
 1134SOL    HW2 4302   5.271   2.631   6.166
 1135SOL     OW 4303   2.654   2.044   3.331
 1135SOL    HW1 4304   2.619   1.985   3.258
 1135SOL    HW2 4305   2.688   2.129   3.291
 1136SOL     OW 4306   3.263   5.644   3.559
 1136SOL    HW1 4307   3.315   5.559   3.565
 1136SOL    HW2 4308   3.176   5.633   3.608
 1137SOL     OW 4309   1.027   1.424   6.204
 1137SOL    HW1 4310   1.077   1.506   6.232
 1137SOL    HW2 4311   0.963   1.448   6.131
 1138SOL     OW 4312   1.266   3.704   5.858
 1138SOL    HW1 4313   1.318   3.645   5.920
 1138SOL    HW2 4314   1.298   3.798   5.866
 1139SOL     OW 4315   1.899   6.758   2.638
 1139SOL    HW1 4316   1.957   6.784   2.716
 1139SOL    HW2 4317   1.859   6.668   2.655
 1140SOL     OW 4318   3.444   1.673   3.475
 1140SOL    HW1 4319   3.531   1.696   3.519
 1140SOL    HW2 4320   3.427   1.736   3.400
 1141SOL     OW 4321   6.399   5.677   5.137
 1141SOL    HW1 4322   6.431   5.713   5.050
 1141SOL    HW2 4323   6.323   5.614   5.122
 1142SOL     OW 4324   5.230   0.318   4.082
 1142SOL    HW1 4325   5.217   0.244   4.148
 1142SOL    HW2 4326   5.154   0.383   4.090
 1143SOL     OW 4327   3.924   2.127   3.179
 1143SOL    HW1 4328   4.003   2.168   3.134
 1143SOL    HW2 4329   3.843   2.141   3.122
 1144SOL     OW 4330   0.340   4.940   4.516
 1144SOL    HW1 4331   0.389   5.027   4.508
 1144SOL    HW2 4332   0.365   4.896   4.603
 1145SOL     OW 4333   6.895   5.445   4.418
 1145SOL    HW1 4334   6.845   5.479   4.498
 1145SOL    HW2 4335   6.989   5.479   4.422
 1146SOL     OW 4336   5.753   2.035   0.906
 1146SOL    HW1 4337   5.849   2.009   0.919
 1146SOL    HW2 4338   5.723   2.005   0.815
 1147SOL     OW 4339   0.333   3.444   1.894
 1147SOL    HW1 4340   0.370   3.492   1.814
 1147SOL    HW2 4341   0.291   3.359   1.865
 1148SOL     OW 4342   3.985   6.637   6.929
 1148SOL    HW1 4343   3.890   6.653   6.902
 1148SOL    HW2 4344   3.990   6.626   0.007
 1149SOL     OW 4345   6.910   3.285   2.600
 1149SOL    HW1 4346   6.815   3.289   2.632
 1149SOL    HW2 4347   6.953   3.203   2.637
 1150SOL     OW 4348   1.640   4.974   0.358
 1150SOL    HW1 4349   1.737   4.997   0.350
 1150SOL    HW2 4350   1.628   4.903   0.427
 1151SOL     OW 4351   6.130   5.270   6.445
 1151SOL    HW1 4352   6.223   5.240   6.424
 1151SOL    HW2 4353   6.127   5.312   6.536
 1152SOL     OW 4354   1.983   0.202   4.823
 1152SOL    HW1 4355   1.888   0.194   4.794
 1152SOL    HW2 4356   1.989   0.184   4.921
 1153SOL     OW 4357   2.313   5.826   2.949
 1153SOL    HW1 4358   2.361   5.743   2.921
 1153SOL    HW2 4359   2.368   5.875   3.017
 1154SOL     OW 4360   0.388   3.655   1.720
 1154SOL    HW1 4361   0.434   3.716   1.785
 1154SOL    HW2 4362   0.389   3.697   1.629
 1155SOL     OW 4363   3.614   5.751   1.880
 1155SOL    HW1 4364   3.643   5.674   1.936
 1155SOL    HW2 4365   3.681   5.767   1.807
 1156SOL     OW 4366   2.254   0.537   4.419
 1156SOL    HW1 4367   2.286   0.478   4.345
 1156SOL    HW2 4368   2.271   0.491   4.507
 1157SOL     OW 4369   0.489   2.996   4.027
 1157SOL    HW1 4370   0.579   2.999   4.070
 1157SOL    HW2 4371   0.467   3.086   3.991
 1158SOL     OW 4372   5.524   5.260   5.195
 1158SOL    HW1 4373   5.623   5.258   5.189
 1158SOL    HW2 4374   5.487   5.169   5.176
 1159SOL     OW 4375   3.751   5.286   3.366
 1159SOL    HW1 4376   3.725   5.189   3.373
 1159SOL    HW2 4377   3.835   5.294   3.312
 1160SOL     OW 4378   4.140   3.555   2.106
 1160SOL    HW1 4379   4.115   3.485   2.173
 1160SOL    HW2 4380   4.158   3.641   2.153
 1161SOL     OW 4381   5.504   0.891   3.604
 1161SOL    HW1 4382   5.418   0.941   3.597
 1161SOL    HW2 4383   5.501   0.809   3.547
 1162SOL     OW 4384   3.374   4.119   2.213
 1162SOL    HW1 4385   3.336   4.212   2.208
 1162SOL    HW2 4386   3.469   4.121   2.181
 1163SOL     OW 4387   5.125   2.071   2.591
 1163SOL    HW1 4388   5.049   2.037   2.647
 1163SOL    HW2 4389   5.089   2.107   2.505
 1164SOL     OW 4390   5.713   2.778   3.147
 1164SOL    HW1 4391   5.687   2.694   3.194
 1164SOL    HW2 4392   5.789   2.821   3.196
 1165SOL     OW 4393   0.591   4.417   3.264
 1165SOL    HW1 4394   0.545   4.362   3.334
 1165SOL    HW2 4395   0.628   4.357   3.193
 1166SOL     OW 4396   4.182   2.615   6.112
 1166SOL    HW1 4397   4.213   2.671   6.035
 1166SOL    HW2 4398   4.218   2.522   6.101
 1167SOL     OW 4399   5.025   1.418   5.069
 1167SOL    HW1 4400   5.096   1.354   5.039
 1167SOL    HW2 4401   4.946   1.366   5.104
 1168SOL     OW 4402   6.887   6.856   3.369
 1168SOL    HW1 4403   6.982   6.828   3.377
 1168SOL    HW2 4404   6.869   6.932   3.431
 1169SOL     OW 4405   0.649   3.829   1.326
 1169SOL    HW1 4406   0.720   3.795   1.388
 1169SOL    HW2 4407   0.673   3.806   1.232
 1170SOL     OW 4408   3.143   1.231   2.273
 1170SOL    HW1 4409   3.075   1.301   2.250
 1170SOL    HW2 4410   3.102   1.141   2.265
 1171SOL     OW 4411   2.905   5.687   0.888
 1171SOL    HW1 4412   2.914   5.785   0.869
 1171SOL    HW2 4413   2.868   5.673   0.980
 1172SOL     OW 4414   3.037   3.534   4.605
 1172SOL    HW1 4415   2.991   3.545   4.516
 1172SOL    HW2 4416   3.110   3.601   4.613
 1173SOL     OW 4417   3.056   1.030   6.348
 1173SOL    HW1 4418   3.141   1.076   6.375
 1173SOL    HW2 4419   2.983   1.097   6.340
 1174SOL     OW 4420   2.927   5.978   1.210
 1174SOL    HW1 4421   2.996   6.023   1.154
 1174SOL    HW2 4422   2.941   6.002   1.306
 1175SOL     OW 4423   6.300   4.864   5.900
 1175SOL    HW1 4424   6.284   4.922   5.820
 1175SOL    HW2 4425   6.306   4.768   5.872
 1176SOL     OW 4426   5.578   4.319   1.050
 1176SOL    HW1 4427   5.548   4.243   0.993
 1176SOL    HW2 4428   5.498   4.368   1.085
 1177SOL     OW 4429   6.784   2.851   5.765
 1177SOL    HW1 4430   6.804   2.885   5.673
 1177SOL    HW2 4431   6.730   2.767   5.759
 1178SOL     OW 4432   5.733   3.368   1.598
 1178SOL    HW1 4433   5.832   3.371   1.584
 1178SOL    HW2 4434   5.692   3.453   1.565
 1179SOL     OW 4435   1.975   5.735   0.004
 1179SOL    HW1 4436   1.949   5.800   6.955
 1179SOL    HW2 4437   2.069   5.753   0.033
 1180SOL     OW 4438   1.987   2.067   4.442
 1180SOL    HW1 4439   1.991   2.011   4.524
 1180SOL    HW2 4440   1.904   2.124   4.444
 1181SOL     OW 4441   1.946   4.333   3.223
 1181SOL    HW1 4442   1.893   4.250   3.239
 1181SOL    HW2 4443   2.023   4.312   3.162
 1182SOL     OW 4444   2.392   4.493   3.948
 1182SOL    HW1 4445   2.490   4.497   3.928
 1182SOL    HW2 4446   2.347   4.574   3.909
 1183SOL     OW 4447   4.330   5.971   0.824
 1183SOL    HW1 4448   4.250   5.920   0.856
 1183SOL    HW2 4449   4.403   5.965   0.892
 1184SOL     OW 4450   2.956   2.688   5.435
 1184SOL    HW1 4451   3.045   2.730   5.420
 1184SOL    HW2 4452   2.941   2.676   5.533
 1185SOL     OW 4453   2.060   0.484   0.136
 1185SOL    HW1 4454   2.158   0.469   0.122
 1185SOL    HW2 4455   2.048   0.546   0.214
 1186SOL     OW 4456   4.991   0.687   4.634
 1186SOL    HW1 4457   4.978   0.644   4.723
 1186SOL    HW2 4458   5.087   0.712   4.623
 1187SOL     OW 4459   5.876   0.282   5.324
 1187SOL    HW1 4460   5.817   0.215   5.278
 1187SOL    HW2 4461   5.952   0.234   5.367
 1188SOL     OW 4462   1.726   0.248   6.254
 1188SOL    HW1 4463   1.711   0.190   6.334
 1188SOL    HW2 4464   1.724   0.344   6.282
 1189SOL     OW 4465   5.756   0.407   1.241
 1189SOL    HW1 4466   5.685   0.476   1.255
 1189SOL    HW2 4467   5.744   0.333   1.308
 1190SOL     OW 4468   4.380   4.917   2.307
 1190SOL    HW1 4469   4.475   4.887   2.307
 1190SOL    HW2 4470   4.323   4.850   2.355
 1191SOL     OW 4471   3.203   5.616   6.535
 1191SOL    HW1 4472   3.167   5.534   6.489
 1191SOL    HW2 4473   3.268   5.589   6.606
 1192SOL     OW 4474   5.809   5.466   2.882
 1192SOL    HW1 4475   5.726   5.507   2.844
 1192SOL    HW2 4476   5.803   5.367   2.876
 1193SOL     OW 4477   5.261   0.600   3.699
 1193SOL    HW1 4478   5.226   0.509   3.681
 1193SOL    HW2 4479   5.186   0.666   3.698
 1194SOL     OW 4480   6.282   0.331   0.431
 1194SOL    HW1 4481   6.370   0.309   0.474
 1194SOL    HW2 4482   6.226   0.385   0.493
 1195SOL     OW 4483   5.621   0.289   6.398
 1195SOL    HW1 4484   5.701   0.341   6.367
 1195SOL    HW2 4485   5.573   0.341   6.469
 1196SOL     OW 4486   0.262   5.055   2.790
 1196SOL    HW1 4487   0.220   5.085   2.704
 1196SOL    HW2 4488   0.329   5.123   2.820
 1197SOL     OW 4489   3.963   5.769   5.567
 1197SOL    HW1 4490   3.902   5.740   5.494
 1197SOL    HW2 4491   4.056   5.739   5.547
 1198SOL     OW 4492   3.134   2.204   3.294
 1198SOL    HW1 4493   3.185   2.200   3.381
 1198SOL    HW2 4494   3.196   2.181   3.219
 1199SOL     OW 4495   3.440   4.079   1.849
 1199SOL    HW1 4496   3.402   4.139   1.779
 1199SOL    HW2 4497   3.366   4.050   1.910
 1200SOL     OW 4498   3.996   4.222   6.584
 1200SOL    HW1 4499   3.935   4.143   6.575
 1200SOL    HW2 4500   3.977   4.268   6.671
 1201SOL     OW 4501   1.307   1.557   5.175
 1201SOL    HW1 4502   1.215   1.585   5.200
 1201SOL    HW2 4503   1.315   1.458   5.185
 1202SOL     OW 4504   5.903   0.080   5.108
 1202SOL    HW1 4505   5.972   0.147   5.134
 1202SOL    HW2 4506   5.926   0.041   5.019
 1203SOL     OW 4507   5.451   0.023   0.932
 1203SOL    HW1 4508   5.459   6.970   0.866
 1203SOL    HW2 4509   5.541   0.039   0.974
 1204SOL     OW 4510   3.646   0.776   0.660
 1204SOL    HW1 4511   3.558   0.820   0.636
 1204SOL    HW2 4512   3.721   0.839   0.640
 1205SOL     OW 4513   5.997   2.145   5.174
 1205SOL    HW1 4514   5.906   2.151   5.133
 1205SOL    HW2 4515   6.053   2.079   5.124
 1206SOL     OW 4516   2.143   2.100   5.067
 1206SOL    HW1 4517   2.226   2.078   5.015
 1206SOL    HW2 4518   2.118   2.195   5.050
 1207SOL     OW 4519   5.851   0.166   6.756
 1207SOL    HW1 4520   5.778   0.220   6.797
 1207SOL    HW2 4521   5.812   0.088   6.707
 1208SOL     OW 4522   3.900   3.579   2.910
 1208SOL    HW1 4523   3.965   3.592   2.985
 1208SOL    HW2 4524   3.843   3.661   2.902
 1209SOL     OW 4525   5.242   4.996   4.064
 1209SOL    HW1 4526   5.232   4.970   4.160
 1209SOL    HW2 4527   5.188   5.078   4.046
 1210SOL     OW 4528   4.338   6.907   2.434
 1210SOL    HW1 4529   4.347   6.900   2.335
 1210SOL    HW2 4530   4.428   6.915   2.476
 1211SOL     OW 4531   0.829   4.400   4.704
 1211SOL    HW1 4532   0.811   4.302   4.712
 1211SOL    HW2 4533   0.840   4.425   4.608
 1212SOL     OW 4534   1.449   4.185   5.150
 1212SOL    HW1 4535   1.397   4.106   5.182
 1212SOL    HW2 4536   1.543   4.157   5.128
 1213SOL     OW 4537   6.398   2.483   5.347
 1213SOL    HW1 4538   6.328   2.411   5.350
 1213SOL    HW2 4539   6.487   2.444   5.370
 1214SOL     OW 4540   2.029   3.965   3.682
 1214SOL    HW1 4541   2.068   3.912   3.606
 1214SOL    HW2 4542   2.091   3.961   3.760
 1215SOL     OW 4543   1.308   4.594   2.230
 1215SOL    HW1 4544   1.306   4.518   2.164
 1215SOL    HW2 4545   1.356   4.565   2.312
 1216SOL     OW 4546   1.495   0.395   1.950
 1216SOL    HW1 4547   1.400   0.385   1.922
 1216SOL    HW2 4548   1.547   0.438   1.877
 1217SOL     OW 4549   1.538   6.508   1.890
 1217SOL    HW1 4550   1.450   6.513   1.937
 1217SOL    HW2 4551   1.555   6.594   1.841
 1218SOL     OW 4552   0.482   3.729   4.151
 1218SOL    HW1 4553   0.399   3.701   4.199
 1218SOL    HW2 4554   0.556   3.666   4.175
 1219SOL     OW 4555   3.583   6.407   1.291
 1219SOL    HW1 4556   3.503   6.347   1.288
 1219SOL    HW2 4557   3.641   6.390   1.211
 1220SOL     OW 4558   5.907   3.460   3.247
 1220SOL    HW1 4559   5.989   3.460   3.189
 1220SOL    HW2 4560   5.828   3.435   3.192
 1221SOL     OW 4561   4.965   3.819   0.091
 1221SOL    HW1 4562   4.865   3.825   0.089
 1221SOL    HW2 4563   5.004   3.880   0.023
 1222SOL     OW 4564   0.155   6.383   1.198
 1222SOL    HW1 4565   0.110   6.321   1.134
 1222SOL    HW2 4566   0.086   6.426   1.256
 1223SOL     OW 4567   6.282   0.025   6.177
 1223SOL    HW1 4568   6.364   0.037   6.121
 1223SOL    HW2 4569   6.212   6.998   6.125
 1224SOL     OW 4570   4.756   5.639   1.408
 1224SOL    HW1 4571   4.673   5.683   1.444
 1224SOL    HW2 4572   4.768   5.550   1.452
 1225SOL     OW 4573   4.623   2.222   0.552
 1225SOL    HW1 4574   4.710   2.184   0.583
 1225SOL    HW2 4575   4.549   2.157   0.571
 1226SOL     OW 4576   6.181   6.224   0.924
 1226SOL    HW1 4577   6.141   6.223   1.016
 1226SOL    HW2 4578   6.247   6.300   0.918
 1227SOL     OW 4579   6.181   3.650   5.169
 1227SOL    HW1 4580   6.157   3.608   5.081
 1227SOL    HW2 4581   6.211   3.578   5.232
 1228SOL     OW 4582   3.892   3.155   2.730
 1228SOL    HW1 4583   3.872   3.087   2.659
 1228SOL    HW2 4584   3.874   3.116   2.820
 1229SOL     OW 4585   2.258   5.957   2.680
 1229SOL    HW1 4586   2.166   5.995   2.670
 1229SOL    HW2 4587   2.266   5.914   2.770
 1230SOL     OW 4588   5.259   4.972   1.235
 1230SOL    HW1 4589   5.305   4.908   1.295
 1230SOL    HW2 4590   5.325   5.012   1.172
 1231SOL     OW 4591   1.796   2.276   6.839
 1231SOL    HW1 4592   1.771   2.370   6.860
 1231SOL    HW2 4593   1.858   2.241   6.909
 1232SOL     OW 4594   2.968   0.673   5.579
 1232SOL    HW1 4595   2.993   0.769   5.577
 1232SOL    HW2 4596   2.959   0.638   5.486
 1233SOL     OW 4597   0.119   5.915   4.218
 1233SOL    HW1 4598   0.181   5.992   4.206
 1233SOL    HW2 4599   0.134   5.848   4.145
 1234SOL     OW 4600   6.507   2.933   6.675
 1234SOL    HW1 4601   6.426   2.881   6.649
 1234SOL    HW2 4602   6.486   2.987   6.757
 1235SOL     OW 4603   6.224   5.271   6.955
 1235SOL    HW1 4604   6.155   5.269   0.006
 1235SOL    HW2 4605   6.296   5.205   6.976
 1236SOL     OW 4606   1.765   1.543   1.718
 1236SOL    HW1 4607   1.779   1.448   1.690
 1236SOL    HW2 4608   1.795   1.556   1.812
 1237SOL     OW 4609   0.923   6.798   4.658
 1237SOL    HW1 4610   0.962   6.746   4.734
 1237SOL    HW2 4611   0.856   6.863   4.694
 1238SOL     OW 4612   6.740   0.816   4.041
 1238SOL    HW1 4613   6.690   0.887   3.993
 1238SOL    HW2 4614   6.789   0.759   3.976
 1239SOL     OW 4615   6.254   4.469   4.030
 1239SOL    HW1 4616   6.346   4.456   4.068
 1239SOL    HW2 4617   6.211   4.549   4.072
 1240SOL     OW 4618   5.819   4.607   3.795
 1240SOL    HW1 4619   5.781   4.654   3.716
 1240SOL    HW2 4620   5.778   4.516   3.802
 1241SOL     OW 4621   5.258   4.793   4.604
 1241SOL    HW1 4622   5.297   4.841   4.683
 1241SOL    HW2 4623   5.332   4.756   4.548
 1242SOL     OW 4624   1.132   4.593   0.105
 1242SOL    HW1 4625   1.085   4.572   0.191
 1242SOL    HW2 4626   1.082   4.665   0.056
 1243SOL     OW 4627   0.951   4.593   4.846
 1243SOL    HW1 4628   0.935   4.587   4.944
 1243SOL    HW2 4629   0.899   4.521   4.799
 1244SOL     OW 4630   5.298   6.665   4.562
 1244SOL    HW1 4631   5.360   6.586   4.558
 1244SOL    HW2 4632   5.212   6.641   4.516
 1245SOL     OW 4633   4.856   6.782   2.127
 1245SOL    HW1 4634   4.907   6.774   2.041
 1245SOL    HW2 4635   4.898   6.853   2.183
 1246SOL     OW 4636   4.510   1.484   0.348
 1246SOL    HW1 4637   4.472   1.570   0.380
 1246SOL    HW2 4638   4.565   1.500   0.266
 1247SOL     OW 4639   6.489   6.807   3.624
 1247SOL    HW1 4640   6.476   6.759   3.711
 1247SOL    HW2 4641   6.409   6.864   3.605
 1248SOL     OW 4642   1.131   6.749   4.912
 1248SOL    HW1 4643   1.108   6.697   4.995
 1248SOL    HW2 4644   1.219   6.717   4.877
 1249SOL     OW 4645   6.597   4.638   6.960
 1249SOL    HW1 4646   6.693   4.666   6.964
 1249SOL    HW2 4647   6.586   4.550   7.007
 1250SOL     OW 4648   6.702   3.211   4.760
 1250SOL    HW1 4649   6.735   3.142   4.695
 1250SOL    HW2 4650   6.698   3.300   4.714
 1251SOL     OW 4651   2.925   0.601   2.977
 1251SOL    HW1 4652   2.963   0.562   2.893
 1251SOL    HW2 4653   2.997   0.610   3.046
 1252SOL     OW 4654   1.496   5.541   0.617
 1252SOL    HW1 4655   1.413   5.591   0.594
 1252SOL    HW2 4656   1.576   5.593   0.585
 1253SOL     OW 4657   3.572   0.792   1.098
 1253SOL    HW1 4658   3.501   0.729   1.068
 1253SOL    HW2 4659   3.544   0.886   1.079
 1254SOL     OW 4660   6.755   1.393   1.735
 1254SOL    HW1 4661   6.743   1.302   1.697
 1254SOL    HW2 4662   6.748   1.389   1.835
 1255SOL     OW 4663   5.638   1.193   5.189
 1255SOL    HW1 4664   5.710   1.184   5.257
 1255SOL    HW2 4665   5.551   1.162   5.228
 1256SOL     OW 4666   0.613   5.747   5.088
 1256SOL    HW1 4667   0.589   5.770   4.994
 1256SOL    HW2 4668   0.694   5.687   5.088
 1257SOL     OW 4669   0.408   5.030   3.922
 1257SOL    HW1 4670   0.384   4.949   3.976
 1257SOL    HW2 4671   0.434   5.001   3.829
 1258SOL     OW 4672   2.981   5.820   4.629
 1258SOL    HW1 4673   2.978   5.906   4.681
 1258SOL    HW2 4674   3.028   5.836   4.542
 1259SOL     OW 4675   5.211   0.131   4.308
 1259SOL    HW1 4676   5.304   0.127   4.345
 1259SOL    HW2 4677   5.169   0.041   4.313
 1260SOL     OW 4678   2.177   0.656   2.001
 1260SOL    HW1 4679   2.240   0.581   2.018
 1260SOL    HW2 4680   2.159   0.705   2.086
 1261SOL     OW 4681   6.834   4.363   6.307
 1261SOL    HW1 4682   6.740   4.329   6.310
 1261SOL    HW2 4683   6.834   4.457   6.273
 1262SOL     OW 4684   5.148   5.261   0.226
 1262SOL    HW1 4685   5.196   5.323   0.165
 1262SOL    HW2 4686   5.207   5.183   0.248
 1263SOL     OW 4687   0.367   2.251   1.351
 1263SOL    HW1 4688   0.372   2.225   1.448
 1263SOL    HW2 4689   0.422   2.187   1.297
 1264SOL     OW 4690   0.351   3.884   3.656
 1264SOL    HW1 4691   0.322   3.827   3.733
 1264SOL    HW2 4692   0.436   3.848   3.618
 1265SOL     OW 4693   6.678   4.493   5.366
 1265SOL    HW1 4694   6.674   4.398   5.336
 1265SOL    HW2 4695   6.749   4.503   5.436
 1266SOL     OW 4696   2.976   1.716   5.546
 1266SOL    HW1 4697   3.031   1.767   5.480
 1266SOL    HW2 4698   3.034   1.648   5.592
 1267SOL     OW 4699   6.696   5.245   2.987
 1267SOL    HW1 4700   6.610   5.196   2.973
 1267SOL    HW2 4701   6.714   5.254   3.085
 1268SOL     OW 4702   5.349   2.673   6.622
 1268SOL    HW1 4703   5.365   2.746   6.689
 1268SOL    HW2 4704   5.253   2.674   6.595
 1269SOL     OW 4705   6.877   5.323   5.432
 1269SOL    HW1 4706   6.929   5.280   5.358
 1269SOL    HW2 4707   6.893   5.274   5.517
 1270SOL     OW 4708   1.717   3.626   4.516
 1270SOL    HW1 4709   1.737   3.699   4.450
 1270SOL    HW2 4710   1.677   3.548   4.468
 1271SOL     OW 4711   3.496   2.018   2.892
 1271SOL    HW1 4712   3.496   2.028   2.792
 1271SOL    HW2 4713   3.454   1.930   2.916
 1272SOL     OW 4714   0.080   5.147   1.485
 1272SOL    HW1 4715   7.015   5.169   1.530
 1272SOL    HW2 4716   0.071   5.061   1.436
 1273SOL     OW 4717   3.068   5.325   6.885
 1273SOL    HW1 4718   3.021   5.405   6.848
 1273SOL    HW2 4719   3.010   5.245   6.876
 1274SOL     OW 4720   6.838   2.819   2.251
 1274SOL    HW1 4721   6.886   2.904   2.272
 1274SOL    HW2 4722   6.739   2.837   2.248
 1275SOL     OW 4723   4.021   1.562   4.863
 1275SOL    HW1 4724   3.983   1.556   4.771
 1275SOL    HW2 4725   3.948   1.577   4.929
 1276SOL     OW 4726   1.062   0.310   2.662
 1276SOL    HW1 4727   1.039   0.289   2.758
 1276SOL    HW2 4728   1.062   0.409   2.649
 1277SOL     OW 4729   6.911   0.613   4.432
 1277SOL    HW1 4730   6.831   0.557   4.454
 1277SOL    HW2 4731   6.994   0.559   4.445
 1278SOL     OW 4732   2.218   1.974   5.507
 1278SOL    HW1 4733   2.222   2.044   5.437
 1278SOL    HW2 4734   2.269   2.004   5.587
 1279SOL     OW 4735   2.875   6.042   0.569
 1279SOL    HW1 4736   2.813   6.006   0.499
 1279SOL    HW2 4737   2.917   6.126   0.536
 1280SOL     OW 4738   2.276   0.399   3.353
 1280SOL    HW1 4739   2.207   0.452   3.304
 1280SOL    HW2 4740   2.234   0.318   3.394
 1281SOL     OW 4741   1.256   6.428   3.275
 1281SOL    HW1 4742   1.344   6.388   3.248
 1281SOL    HW2 4743   1.267   6.527   3.285
 1282SOL     OW 4744   0.761   1.143   1.103
 1282SOL    HW1 4745   0.758   1.242   1.090
 1282SOL    HW2 4746   0.822   1.121   1.179
 1283SOL     OW 4747   5.839   5.234   5.090
 1283SOL    HW1 4748   5.863   5.269   4.999
 1283SOL    HW2 4749   5.875   5.141   5.100
 1284SOL     OW 4750   3.109   2.705   1.827
 1284SOL    HW1 4751   3.019   2.735   1.793
 1284SOL    HW2 4752   3.098   2.622   1.881
 1285SOL     OW 4753   4.792   2.586   5.791
 1285SOL    HW1 4754   4.874   2.530   5.776
 1285SOL    HW2 4755   4.819   2.679   5.815
 1286SOL     OW 4756   5.600   4.175   1.717
 1286SOL    HW1 4757   5.546   4.093   1.737
 1286SOL    HW2 4758   5.539   4.253   1.706
 1287SOL     OW 4759   6.750   5.704   6.497
 1287SOL    HW1 4760   6.690   5.784   6.493
 1287SOL    HW2 4761   6.845   5.732   6.489
 1288SOL     OW 4762   0.046   3.176   0.588
 1288SOL    HW1 4763   0.066   3.274   0.588
 1288SOL    HW2 4764   0.033   3.145   0.681
 1289SOL     OW 4765   6.664   6.197   2.057
 1289SOL    HW1 4766   6.707   6.225   1.972
 1289SOL    HW2 4767   6.642   6.278   2.111
 1290SOL     OW 4768   0.613   6.625   0.446
 1290SOL    HW1 4769   0.599   6.724   0.447
 1290SOL    HW2 4770   0.681   6.601   0.377
 1291SOL     OW 4771   1.052   6.426   6.749
 1291SOL    HW1 4772   1.072   6.341   6.700
 1291SOL    HW2 4773   1.135   6.461   6.792
 1292SOL     OW 4774   0.550   4.932   1.397
 1292SOL    HW1 4775   0.464   4.892   1.365
 1292SOL    HW2 4776   0.616   4.860   1.415
 1293SOL     OW 4777   0.537   1.578   6.722
 1293SOL    HW1 4778   0.505   1.595   6.815
 1293SOL    HW2 4779   0.620   1.523   6.725
 1294SOL     OW 4780   0.223   3.005   2.246
 1294SOL    HW1 4781   0.198   2.908   2.254
 1294SOL    HW2 4782   0.307   3.021   2.297
 1295SOL     OW 4783   5.345   2.810   1.675
 1295SOL    HW1 4784   5.399   2.781   1.595
 1295SOL    HW2 4785   5.374   2.757   1.755
 1296SOL     OW 4786   3.277   2.190   6.438
 1296SOL    HW1 4787   3.246   2.208   6.344
 1296SOL    HW2 4788   3.205   2.142   6.488
 1297SOL     OW 4789   6.661   1.422   5.443
 1297SOL    HW1 4790   6.725   1.476   5.389
 1297SOL    HW2 4791   6.617   1.354   5.385
 1298SOL     OW 4792   6.096   2.928   2.441
 1298SOL    HW1 4793   6.098   2.968   2.533
 1298SOL    HW2 4794   6.028   2.976   2.386
 1299SOL     OW 4795   1.205   4.197   4.828
 1299SOL    HW1 4796   1.303   4.184   4.837
 1299SOL    HW2 4797   1.175   4.167   4.738
 1300SOL     OW 4798   3.145   3.152   1.830
 1300SOL    HW1 4799   3.095   3.216   1.890
 1300SOL    HW2 4800   3.130   3.178   1.735
 1301SOL     OW 4801   0.543   6.534   4.184
 1301SOL    HW1 4802   0.553   6.595   4.105
 1301SOL    HW2 4803   0.603   6.455   4.174
 1302SOL     OW 4804   2.382   7.007   5.134
 1302SOL    HW1 4805   2.480   7.003   5.116
 1302SOL    HW2 4806   2.340   6.918   5.114
 1303SOL     OW 4807   3.738   1.733   0.750
 1303SOL    HW1 4808   3.648   1.695   0.772
 1303SOL    HW2 4809   3.807   1.688   0.807
 1304SOL     OW 4810   1.956   0.451   6.539
 1304SOL    HW1 4811   2.023   0.427   6.468
 1304SOL    HW2 4812   1.895   0.374   6.554
 1305SOL     OW 4813   4.201   0.134   4.471
 1305SOL    HW1 4814   4.283   0.157   4.524
 1305SOL    HW2 4815   4.227   0.082   4.390
 1306SOL     OW 4816   0.391   4.247   4.377
 1306SOL    HW1 4817   0.465   4.232   4.310
 1306SOL    HW2 4818   0.430   4.280   4.463
 1307SOL     OW 4819   1.008   3.337   4.726
 1307SOL    HW1 4820   0.934   3.309   4.787
 1307SOL    HW2 4821   1.076   3.389   4.778
 1308SOL     OW 4822   4.316   5.954   4.263
 1308SOL    HW1 4823   4.368   5.967   4.180
 1308SOL    HW2 4824   4.343   6.023   4.331
 1309SOL     OW 4825   5.576   2.574   4.659
 1309SOL    HW1 4826   5.576   2.477   4.636
 1309SOL    HW2 4827   5.487   2.600   4.696
 1310SOL     OW 4828   5.681   4.020   4.041
 1310SOL    HW1 4829   5.731   3.990   4.122
 1310SOL    HW2 4830   5.613   4.089   4.067
 1311SOL     OW 4831   6.209   6.708   4.671
 1311SOL    HW1 4832   6.294   6.656   4.674
 1311SOL    HW2 4833   6.207   6.774   4.746
 1312SOL     OW 4834   0.190   0.276   0.157
 1312SOL    HW1 4835   0.262   0.306   0.095
 1312SOL    HW2 4836   0.179   0.342   0.231
 1313SOL     OW 4837   3.573   5.132   5.382
 1313SOL    HW1 4838   3.585   5.032   5.384
 1313SOL    HW2 4839   3.643   5.176   5.437
 1314SOL     OW 4840   1.121   1.657   5.617
 1314SOL    HW1 4841   1.054   1.603   5.566
 1314SOL    HW2 4842   1.209   1.609   5.618
 1315SOL     OW 4843   2.204   1.753   1.540
 1315SOL    HW1 4844   2.297   1.749   1.503
 1315SOL    HW2 4845   2.203   1.721   1.634
 1316SOL     OW 4846   2.725   0.001   3.956
 1316SOL    HW1 4847   2.714   6.984   3.864
 1316SOL    HW2 4848   2.637   7.018   4.004
 1317SOL     OW 4849   0.050   4.739   4.700
 1317SOL    HW1 4850   0.079   4.744   4.795
 1317SOL    HW2 4851   0.006   4.825   4.674
 1318SOL     OW 4852   6.828   6.973   0.049
 1318SOL    HW1 4853   6.764   6.915   0.100
 1318SOL    HW2 4854   6.805   0.047   0.062
 1319SOL     OW 4855   6.065   1.447   0.743
 1319SOL    HW1 4856   6.103   1.457   0.651
 1319SOL    HW2 4857   6.103   1.517   0.803
 1320SOL     OW 4858   6.190   4.594   6.145
 1320SOL    HW1 4859   6.114   4.636   6.096
 1320SOL    HW2 4860   6.155   4.533   6.215
 1321SOL     OW 4861   4.092   2.808   6.847
 1321SOL    HW1 4862   4.028   2.738   6.816
 1321SOL    HW2 4863   4.165   2.765   6.901
 1322SOL     OW 4864   6.369   1.544   3.607
 1322SOL    HW1 4865   6.407   1.552   3.515
 1322SOL    HW2 4866   6.389   1.454   3.644
 1323SOL     OW 4867   0.295   1.404   5.258
 1323SOL    HW1 4868   0.325   1.471   5.190
 1323SOL    HW2 4869   0.376   1.358   5.297
 1324SOL     OW 4870   1.313   2.996   1.546
 1324SOL    HW1 4871   1.215   3.002   1.566
 1324SOL    HW2 4872   1.337   3.064   1.477
 1325SOL     OW 4873   1.976   6.257   3.613
 1325SOL    HW1 4874   1.903   6.194   3.637
 1325SOL    HW2 4875   1.978   6.333   3.679
 1326SOL     OW 4876   5.614   2.782   4.429
 1326SOL    HW1 4877   5.632   2.723   4.508
 1326SOL    HW2 4878   5.518   2.774   4.403
 1327SOL     OW 4879   3.154   4.911   3.522
 1327SOL    HW1 4880   3.120   5.004   3.505
 1327SOL    HW2 4881   3.254   4.910   3.511
 1328SOL     OW 4882   1.702   1.692   6.966
 1328SOL    HW1 4883   1.658   1.648   6.888
 1328SOL    HW2 4884   1.715   1.790   6.947
 1329SOL     OW 4885   0.642   1.406   0.508
 1329SOL    HW1 4886   0.721   1.346   0.500
 1329SOL    HW2 4887   0.568   1.372   0.450
 1330SOL     OW 4888   6.705   0.508   1.255
 1330SOL    HW1 4889   6.634   0.438   1.259
 1330SOL    HW2 4890   6.792   0.468   1.282
 1331SOL     OW 4891   5.826   0.283   2.109
 1331SOL    HW1 4892   5.810   0.301   2.012
 1331SOL    HW2 4893   5.794   0.191   2.132
 1332SOL     OW 4894   4.230   1.383   1.318
 1332SOL    HW1 4895   4.196   1.385   1.412
 1332SOL    HW2 4896   4.330   1.385   1.318
 1333SOL     OW 4897   3.921   3.929   4.940
 1333SOL    HW1 4898   3.970   3.960   4.858
 1333SOL    HW2 4899   3.823   3.924   4.920
 1334SOL     OW 4900   1.037   3.976   5.212
 1334SOL    HW1 4901   0.972   3.908   5.179
 1334SOL    HW2 4902   1.043   4.051   5.146
 1335SOL     OW 4903   2.056   5.976   2.932
 1335SOL    HW1 4904   2.138   5.919   2.937
 1335SOL    HW2 4905   2.001   5.950   2.852
 1336SOL     OW 4906   0.902   1.419   5.959
 1336SOL    HW1 4907   0.956   1.336   5.974
 1336SOL    HW2 4908   0.829   1.400   5.893
 1337SOL     OW 4909   1.790   2.051   6.450
 1337SOL    HW1 4910   1.708   2.097   6.484
 1337SOL    HW2 4911   1.870   2.082   6.501
 1338SOL     OW 4912   4.362   4.752   6.679
 1338SOL    HW1 4913   4.314   4.834   6.710
 1338SOL    HW2 4914   4.380   4.758   6.581
 1339SOL     OW 4915   6.789   4.079   5.871
 1339SOL    HW1 4916   6.801   4.178   5.862
 1339SOL    HW2 4917   6.746   4.059   5.959
 1340SOL     OW 4918   1.597   2.070   0.050
 1340SOL    HW1 4919   1.517   2.123   0.022
 1340SOL    HW2 4920   1.569   2.002   0.118
 1341SOL     OW 4921   2.991   1.449   3.740
 1341SOL    HW1 4922   2.962   1.354   3.741
 1341SOL    HW2 4923   2.934   1.502   3.803
 1342SOL     OW 4924   1.225   6.075   6.931
 1342SOL    HW1 4925   1.184   5.984   6.927
 1342SOL    HW2 4926   1.293   6.084   6.858
 1343SOL     OW 4927   3.785   5.729   2.541
 1343SOL    HW1 4928   3.725   5.806   2.563
 1343SOL    HW2 4929   3.880   5.759   2.542
 1344SOL     OW 4930   6.390   1.232   2.588
 1344SOL    HW1 4931   6.361   1.210   2.681
 1344SOL    HW2 4932   6.327   1.191   2.522
 1345SOL     OW 4933   1.026   0.572   3.262
 1345SOL    HW1 4934   0.939   0.547   3.219
 1345SOL    HW2 4935   1.017   0.663   3.304
 1346SOL     OW 4936   6.832   0.277   3.867
 1346SOL    HW1 4937   6.888   0.206   3.825
 1346SOL    HW2 4938   6.785   0.329   3.796
 1347SOL     OW 4939   6.723   6.700   3.198
 1347SOL    HW1 4940   6.790   6.751   3.251
 1347SOL    HW2 4941   6.653   6.663   3.259
 1348SOL     OW 4942   5.399   4.491   3.954
 1348SOL    HW1 4943   5.478   4.551   3.946
 1348SOL    HW2 4944   5.429   4.399   3.979
 1349SOL     OW 4945   3.572   2.420   6.859
 1349SOL    HW1 4946   3.570   2.519   6.874
 1349SOL    HW2 4947   3.627   2.400   6.778
 1350SOL     OW 4948   3.173   6.687   6.763
 1350SOL    HW1 4949   3.115   6.768   6.757
 1350SOL    HW2 4950   3.149   6.634   6.844
 1351SOL     OW 4951   0.274   1.219   3.597
 1351SOL    HW1 4952   0.180   1.189   3.579
 1351SOL    HW2 4953   0.337   1.164   3.543
 1352SOL     OW 4954   0.101   0.759   2.345
 1352SOL    HW1 4955   0.154   0.839   2.316
 1352SOL    HW2 4956   0.004   0.780   2.344
 1353SOL     OW 4957   0.593   4.170   4.919
 1353SOL    HW1 4958   0.542   4.105   4.976
 1353SOL    HW2 4959   0.556   4.262   4.932
 1354SOL     OW 4960   0.196   0.373   1.657
 1354SOL    HW1 4961   0.139   0.291   1.659
 1354SOL    HW2 4962   0.288   0.348   1.624
 1355SOL     OW 4963   4.644   3.465   0.069
 1355SOL    HW1 4964   4.635   3.520   7.007
 1355SOL    HW2 4965   4.572   3.396   0.071
 1356SOL     OW 4966   3.468   3.608   2.769
 1356SOL    HW1 4967   3.439   3.592   2.675
 1356SOL    HW2 4968   3.543   3.675   2.771
 1357SOL     OW 4969   2.860   2.737   5.917
 1357SOL    HW1 4970   2.835   2.827   5.880
 1357SOL    HW2 4971   2.955   2.739   5.947
 1358SOL     OW 4972   2.624   3.391   6.565
 1358SOL    HW1 4973   2.578   3.472   6.528
 1358SOL    HW2 4974   2.577   3.309   6.535
 1359SOL     OW 4975   6.210   3.337   1.048
 1359SOL    HW1 4976   6.283   3.273   1.022
 1359SOL    HW2 4977   6.128   3.285   1.072
 1360SOL     OW 4978   3.660   4.028   2.898
 1360SOL    HW1 4979   3.603   4.079   2.961
 1360SOL    HW2 4980   3.755   4.030   2.929
 1361SOL     OW 4981   0.683   6.082   6.588
 1361SOL    HW1 4982   0.637   6.171   6.585
 1361SOL    HW2 4983   0.634   6.021   6.650
 1362SOL     OW 4984   2.712   3.618   6.305
 1362SOL    HW1 4985   2.662   3.532   6.315
 1362SOL    HW2 4986   2.793   3.616   6.364
 1363SOL     OW 4987   6.193   5.885   2.480
 1363SOL    HW1 4988   6.133   5.814   2.517
 1363SOL    HW2 4989   6.288   5.864   2.503
 1364SOL     OW 4990   6.844   3.299   0.918
 1364SOL    HW1 4991   6.921   3.359   0.942
 1364SOL    HW2 4992   6.856   3.210   0.962
 1365SOL     OW 4993   0.445   3.531   6.382
 1365SOL    HW1 4994   0.476   3.619   6.346
 1365SOL    HW2 4995   0.485   3.457   6.328
 1366SOL     OW 4996   6.875   2.405   0.535
 1366SOL    HW1 4997   6.792   2.409   0.591
 1366SOL    HW2 4998   6.898   2.497   0.503
 1367SOL     OW 4999   0.090   5.424   3.904
 1367SOL    HW1 5000   0.171   5.474   3.870
 1367SOL    HW2 5001   0.008   5.475   3.879
 1368SOL     OW 5002   0.090   0.437   3.819
 1368SOL    HW1 5003   0.134   0.373   3.756
 1368SOL    HW2 5004   0.000   0.403   3.846
 1369SOL     OW 5005   2.570   6.289   2.676
 1369SOL    HW1 5006   2.643   6.267   2.742
 1369SOL    HW2 5007   2.597   6.370   2.624
 1370SOL     OW 5008   6.649   2.130   3.278
 1370SOL    HW1 5009   6.700   2.190   3.339
 1370SOL    HW2 5010   6.571   2.179   3.240
 1371SOL     OW 5011   5.484   0.977   4.191
 1371SOL    HW1 5012   5.545   1.056   4.187
 1371SOL    HW2 5013   5.401   0.996   4.139
 1372SOL     OW 5014   6.240   2.565   0.091
 1372SOL    HW1 5015   6.339   2.582   0.091
 1372SOL    HW2 5016   6.193   2.649   0.064
 1373SOL     OW 5017   4.689   2.706   2.093
 1373SOL    HW1 5018   4.682   2.803   2.069
 1373SOL    HW2 5019   4.724   2.697   2.186
 1374SOL     OW 5020   5.374   4.222   7.006
 1374SOL    HW1 5021   5.402   4.143   0.040
 1374SOL    HW2 5022   5.278   4.212   6.979
 1375SOL     OW 5023   5.825   6.036   4.697
 1375SOL    HW1 5024   5.742   5.990   4.729
 1375SOL    HW2 5025   5.819   6.133   4.719
 1376SOL     OW 5026   2.618   5.066   7.019
 1376SOL    HW1 5027   2.551   5.051   6.947
 1376SOL    HW2 5028   2.574   5.114   0.074
 1377SOL     OW 5029   1.555   2.541   3.113
 1377SOL    HW1 5030   1.644   2.534   3.158
 1377SOL    HW2 5031   1.483   2.545   3.182
 1378SOL     OW 5032   4.314   2.047   4.640
 1378SOL    HW1 5033   4.293   1.955   4.608
 1378SOL    HW2 5034   4.232   2.103   4.638
 1379SOL     OW 5035   5.603   5.269   1.335
 1379SOL    HW1 5036   5.518   5.321   1.334
 1379SOL    HW2 5037   5.641   5.266   1.243
 1380SOL     OW 5038   6.948   5.539   1.143
 1380SOL    HW1 5039   0.001   5.606   1.143
 1380SOL    HW2 5040   6.980   5.455   1.187
 1381SOL     OW 5041   6.633   2.104   5.502
 1381SOL    HW1 5042   6.677   2.102   5.591
 1381SOL    HW2 5043   6.541   2.065   5.508
 1382SOL     OW 5044   4.142   2.538   1.372
 1382SOL    HW1 5045   4.174   2.576   1.285
 1382SOL    HW2 5046   4.209   2.472   1.407
 1383SOL     OW 5047   1.220   0.764   1.869
 1383SOL    HW1 5048   1.267   0.810   1.945
 1383SOL    HW2 5049   1.230   0.665   1.879
 1384SOL     OW 5050   5.738   0.198   0.524
 1384SOL    HW1 5051   5.653   0.147   0.534
 1384SOL    HW2 5052   5.796   0.155   0.455
 1385SOL     OW 5053   1.995   5.194   2.868
 1385SOL    HW1 5054   2.049   5.130   2.921
 1385SOL    HW2 5055   1.902   5.199   2.905
 1386SOL     OW 5056   2.741   6.040   4.116
 1386SOL    HW1 5057   2.788   5.951   4.112
 1386SOL    HW2 5058   2.681   6.049   4.037
 1387SOL     OW 5059   3.395   5.837   1.566
 1387SOL    HW1 5060   3.437   5.906   1.626
 1387SOL    HW2 5061   3.371   5.756   1.619
 1388SOL     OW 5062   6.321   0.381   0.805
 1388SOL    HW1 5063   6.238   0.328   0.822
 1388SOL    HW2 5064   6.397   0.341   0.857
 1389SOL     OW 5065   6.566   0.984   2.984
 1389SOL    HW1 5066   6.549   0.963   3.080
 1389SOL    HW2 5067   6.656   0.950   2.958
 1390SOL     OW 5068   0.594   3.245   5.775
 1390SOL    HW1 5069   0.510   3.291   5.746
 1390SOL    HW2 5070   0.649   3.222   5.695
 1391SOL     OW 5071   6.902   1.788   3.425
 1391SOL    HW1 5072   6.819   1.818   3.379
 1391SOL    HW2 5073   6.975   1.778   3.358
 1392SOL     OW 5074   5.434   5.008   5.082
 1392SOL    HW1 5075   5.472   4.916   5.071
 1392SOL    HW2 5076   5.337   5.001   5.102
 1393SOL     OW 5077   5.375   6.208   5.662
 1393SOL    HW1 5078   5.412   6.126   5.619
 1393SOL    HW2 5079   5.290   6.234   5.616
 1394SOL     OW 5080   2.844   6.183   5.587
 1394SOL    HW1 5081   2.908   6.132   5.529
 1394SOL    HW2 5082   2.893   6.256   5.634
 1395SOL     OW 5083   2.973   4.567   5.892
 1395SOL    HW1 5084   2.993   4.629   5.968
 1395SOL    HW2 5085   3.008   4.476   5.914
 1396SOL     OW 5086   6.972   0.113   4.448
 1396SOL    HW1 5087   7.004   0.163   4.529
 1396SOL    HW2 5088   6.903   0.167   4.400
 1397SOL     OW 5089   6.018   0.430   4.827
 1397SOL    HW1 5090   6.085   0.356   4.841
 1397SOL    HW2 5091   6.043   0.508   4.883
 1398SOL     OW 5092   1.743   1.447   5.128
 1398SOL    HW1 5093   1.750   1.542   5.158
 1398SOL    HW2 5094   1.749   1.442   5.029
 1399SOL     OW 5095   3.171   6.403   1.464
 1399SOL    HW1 5096   3.096   6.469   1.473
 1399SOL    HW2 5097   3.136   6.311   1.478
 1400SOL     OW 5098   0.069   1.235   2.045
 1400SOL    HW1 5099   7.003   1.239   1.996
 1400SOL    HW2 5100   0.126   1.163   2.004
 1401SOL     OW 5101   0.261   1.688   5.354
 1401SOL    HW1 5102   0.307   1.769   5.393
 1401SOL    HW2 5103   0.286   1.607   5.407
 1402SOL     OW 5104   0.071   3.184   6.756
 1402SOL    HW1 5105   7.011   3.240   6.750
 1402SOL    HW2 5106   0.049   3.089   6.734
 1403SOL     OW 5107   3.256   0.333   2.098
 1403SOL    HW1 5108   3.313   0.256   2.068
 1403SOL    HW2 5109   3.263   0.408   2.032
 1404SOL     OW 5110   5.331   0.573   0.388
 1404SOL    HW1 5111   5.315   0.536   0.297
 1404SOL    HW2 5112   5.390   0.511   0.439
 1405SOL     OW 5113   2.202   4.003   0.894
 1405SOL    HW1 5114   2.261   3.965   0.965
 1405SOL    HW2 5115   2.133   3.935   0.869
 1406SOL     OW 5116   1.340   4.977   1.554
 1406SOL    HW1 5117   1.417   4.957   1.614
 1406SOL    HW2 5118   1.369   5.040   1.482
 1407SOL     OW 5119   6.566   0.994   1.832
 1407SOL    HW1 5120   6.531   1.078   1.872
 1407SOL    HW2 5121   6.490   0.942   1.792
 1408SOL     OW 5122   5.392   0.481   6.355
 1408SOL    HW1 5123   5.427   0.555   6.412
 1408SOL    HW2 5124   5.455   0.465   6.278
 1409SOL     OW 5125   0.116   0.494   4.880
 1409SOL    HW1 5126   0.094   0.557   4.806
 1409SOL    HW2 5127   0.036   0.481   4.938
 1410SOL     OW 5128   1.762   3.262   6.555
 1410SOL    HW1 5129   1.747   3.226   6.647
 1410SOL    HW2 5130   1.719   3.352   6.546
 1411SOL     OW 5131   1.977   6.695   3.146
 1411SOL    HW1 5132   1.901   6.699   3.081
 1411SOL    HW2 5133   2.058   6.657   3.100
 1412SOL     OW 5134   1.280   2.752   0.643
 1412SOL    HW1 5135   1.207   2.709   0.589
 1412SOL    HW2 5136   1.251   2.843   0.673
 1413SOL     OW 5137   2.017   0.497   4.817
 1413SOL    HW1 5138   2.046   0.402   4.815
 1413SOL    HW2 5139   1.983   0.524   4.727
 1414SOL     OW 5140   2.609   1.480   2.063
 1414SOL    HW1 5141   2.686   1.543   2.069
 1414SOL    HW2 5142   2.588   1.462   1.967
 1415SOL     OW 5143   2.296   6.581   4.456
 1415SOL    HW1 5144   2.216   6.583   4.395
 1415SOL    HW2 5145   2.327   6.487   4.466
 1416SOL     OW 5146   4.650   4.235   2.778
 1416SOL    HW1 5147   4.591   4.315   2.765
 1416SOL    HW2 5148   4.662   4.188   2.690
 1417SOL     OW 5149   2.486   2.512   6.671
 1417SOL    HW1 5150   2.572   2.483   6.713
 1417SOL    HW2 5151   2.410   2.492   6.733
 1418SOL     OW 5152   3.259   3.897   2.997
 1418SOL    HW1 5153   3.282   3.972   2.934
 1418SOL    HW2 5154   3.168   3.863   2.976
 1419SOL     OW 5155   2.786   6.778   4.375
 1419SOL    HW1 5156   2.850   6.820   4.311
 1419SOL    HW2 5157   2.837   6.724   4.442
 1420SOL     OW 5158   1.669   6.323   2.056
 1420SOL    HW1 5159   1.586   6.293   2.102
 1420SOL    HW2 5160   1.648   6.403   2.000
 1421SOL     OW 5161   1.722   3.081   3.211
 1421SOL    HW1 5162   1.628   3.095   3.242
 1421SOL    HW2 5163   1.725   3.004   3.147
 1422SOL     OW 5164   2.475   4.580   2.041
 1422SOL    HW1 5165   2.448   4.506   2.102
 1422SOL    HW2 5166   2.524   4.542   1.962
 1423SOL     OW 5167   5.768   6.558   1.872
 1423SOL    HW1 5168   5.809   6.647   1.852
 1423SOL    HW2 5169   5.723   6.523   1.790
 1424SOL     OW 5170   5.490   4.701   4.508
 1424SOL    HW1 5171   5.587   4.708   4.533
 1424SOL    HW2 5172   5.474   4.615   4.461
 1425SOL     OW 5173   1.304   6.064   4.218
 1425SOL    HW1 5174   1.301   5.999   4.142
 1425SOL    HW2 5175   1.383   6.125   4.205
 1426SOL     OW 5176   1.046   2.151   5.774
 1426SOL    HW1 5177   1.053   2.247   5.801
 1426SOL    HW2 5178   0.992   2.144   5.690
 1427SOL     OW 5179   0.086   6.740   3.064
 1427SOL    HW1 5180   0.028   6.821   3.072
 1427SOL    HW2 5181   0.139   6.745   2.979
 1428SOL     OW 5182   5.773   2.433   0.824
 1428SOL    HW1 5183   5.728   2.500   0.765
 1428SOL    HW2 5184   5.810   2.359   0.768
 1429SOL     OW 5185   5.844   1.996   0.340
 1429SOL    HW1 5186   5.782   2.041   0.277
 1429SOL    HW2 5187   5.830   1.898   0.337
 1430SOL     OW 5188   1.375   3.915   4.358
 1430SOL    HW1 5189   1.336   3.992   4.309
 1430SOL    HW2 5190   1.453   3.947   4.413
 1431SOL     OW 5191   2.133   2.235   1.942
 1431SOL    HW1 5192   2.186   2.314   1.910
 1431SOL    HW2 5193   2.037   2.260   1.949
 1432SOL     OW 5194   2.512   1.709   3.686
 1432SOL    HW1 5195   2.552   1.769   3.617
 1432SOL    HW2 5196   2.420   1.740   3.709
 1433SOL     OW 5197   4.382   1.205   4.272
 1433SOL    HW1 5198   4.408   1.248   4.358
 1433SOL    HW2 5199   4.464   1.171   4.225
 1434SOL     OW 5200   0.253   1.121   5.225
 1434SOL    HW1 5201   0.314   1.068   5.285
 1434SOL    HW2 5202   0.247   1.215   5.259
 1435SOL     OW 5203   6.507   1.043   2.306
 1435SOL    HW1 5204   6.501   0.977   2.231
 1435SOL    HW2 5205   6.583   1.105   2.290
 1436SOL     OW 5206   4.662   4.033   6.671
 1436SOL    HW1 5207   4.595   3.960   6.684
 1436SOL    HW2 5208   4.750   4.005   6.710
 1437SOL     OW 5209   2.429   2.123   3.956
 1437SOL    HW1 5210   2.330   2.117   3.942
 1437SOL    HW2 5211   2.451   2.089   4.048
 1438SOL     OW 5212   3.727   6.247   1.465
 1438SOL    HW1 5213   3.676   6.324   1.427
 1438SOL    HW2 5214   3.802   6.223   1.403
 1439SOL     OW 5215   0.239   6.027   1.452
 1439SOL    HW1 5216   0.164   6.086   1.422
 1439SOL    HW2 5217   0.322   6.081   1.462
 1440SOL     OW 5218   3.282   3.778   1.511
 1440SOL    HW1 5219   3.208   3.841   1.532
 1440SOL    HW2 5220   3.250   3.709   1.446
 1441SOL     OW 5221   6.337   0.850   1.713
 1441SOL    HW1 5222   6.252   0.895   1.739
 1441SOL    HW2 5223   6.364   0.880   1.622
 1442SOL     OW 5224   6.221   6.557   6.786
 1442SOL    HW1 5225   6.213   6.503   6.703
 1442SOL    HW2 5226   6.272   6.641   6.767
 1443SOL     OW 5227   0.371   2.791   2.632
 1443SOL    HW1 5228   0.437   2.825   2.698
 1443SOL    HW2 5229   0.412   2.790   2.541
 1444SOL     OW 5230   5.147   7.014   0.932
 1444SOL    HW1 5231   5.164   0.013   1.029
 1444SOL    HW2 5232   5.234   7.019   0.882
 1445SOL     OW 5233   0.991   3.596   2.798
 1445SOL    HW1 5234   0.990   3.503   2.833
 1445SOL    HW2 5235   1.073   3.611   2.743
 1446SOL     OW 5236   6.365   0.556   6.408
 1446SOL    HW1 5237   6.460   0.572   6.435
 1446SOL    HW2 5238   6.352   0.584   6.313
 1447SOL     OW 5239   5.450   4.964   2.774
 1447SOL    HW1 5240   5.473   4.877   2.816
 1447SOL    HW2 5241   5.399   5.020   2.839
 1448SOL     OW 5242   0.189   3.403   4.615
 1448SOL    HW1 5243   0.252   3.346   4.668
 1448SOL    HW2 5244   0.199   3.499   4.644
 1449SOL     OW 5245   1.762   4.351   5.496
 1449SOL    HW1 5246   1.726   4.442   5.475
 1449SOL    HW2 5247   1.861   4.356   5.507
 1450SOL     OW 5248   0.975   2.032   6.020
 1450SOL    HW1 5249   0.989   2.094   5.942
 1450SOL    HW2 5250   0.959   1.939   5.986
 1451SOL     OW 5251   1.452   6.085   1.957
 1451SOL    HW1 5252   1.431   6.162   1.897
 1451SOL    HW2 5253   1.385   6.013   1.944
 1452SOL     OW 5254   4.365   2.709   5.759
 1452SOL    HW1 5255   4.357   2.752   5.849
 1452SOL    HW2 5256   4.287   2.648   5.745
 1453SOL     OW 5257   0.803   4.858   5.499
 1453SOL    HW1 5258   0.849   4.907   5.425
 1453SOL    HW2 5259   0.870   4.834   5.569
 1454SOL     OW 5260   2.549   1.912   3.124
 1454SOL    HW1 5261   2.609   1.947   3.052
 1454SOL    HW2 5262   2.526   1.816   3.106
 1455SOL     OW 5263   0.965   6.189   3.059
 1455SOL    HW1 5264   0.958   6.179   2.960
 1455SOL    HW2 5265   0.873   6.192   3.099
 1456SOL     OW 5266   6.804   6.321   6.269
 1456SOL    HW1 5267   6.784   6.320   6.367
 1456SOL    HW2 5268   6.732   6.273   6.219
 1457SOL     OW 5269   0.272   4.145   0.597
 1457SOL    HW1 5270   0.196   4.175   0.654
 1457SOL    HW2 5271   0.253   4.052   0.562
 1458SOL     OW 5272   5.715   5.078   5.426
 1458SOL    HW1 5273   5.738   5.020   5.505
 1458SOL    HW2 5274   5.616   5.083   5.416
 1459SOL     OW 5275   4.836   6.758   5.829
 1459SOL    HW1 5276   4.849   6.667   5.869
 1459SOL    HW2 5277   4.747   6.762   5.784
 1460SOL     OW 5278   1.582   6.390   5.256
 1460SOL    HW1 5279   1.675   6.393   5.220
 1460SOL    HW2 5280   1.525   6.456   5.208
 1461SOL     OW 5281   0.703   3.432   3.068
 1461SOL    HW1 5282   0.748   3.368   3.130
 1461SOL    HW2 5283   0.743   3.523   3.078
 1462SOL     OW 5284   1.014   0.735   6.982
 1462SOL    HW1 5285   0.988   0.812   6.924
 1462SOL    HW2 5286   1.044   0.768   0.049
 1463SOL     OW 5287   1.678   5.222   6.655
 1463SOL    HW1 5288   1.657   5.208   6.751
 1463SOL    HW2 5289   1.594   5.244   6.605
 1464SOL     OW 5290   6.535   4.377   3.801
 1464SOL    HW1 5291   6.504   4.403   3.893
 1464SOL    HW2 5292   6.618   4.321   3.809
 1465SOL     OW 5293   1.937   1.598   3.599
 1465SOL    HW1 5294   1.852   1.637   3.634
 1465SOL    HW2 5295   1.996   1.573   3.676
 1466SOL     OW 5296   3.680   2.565   1.769
 1466SOL    HW1 5297   3.629   2.626   1.829
 1466SOL    HW2 5298   3.697   2.478   1.817
 1467SOL     OW 5299   1.382   1.061   4.200
 1467SOL    HW1 5300   1.444   1.055   4.278
 1467SOL    HW2 5301   1.384   1.153   4.162
 1468SOL     OW 5302   2.541   5.704   1.721
 1468SOL    HW1 5303   2.559   5.713   1.818
 1468SOL    HW2 5304   2.498   5.788   1.687
 1469SOL     OW 5305   6.684   6.420   3.474
 1469SOL    HW1 5306   6.692   6.332   3.520
 1469SOL    HW2 5307   6.764   6.477   3.496
 1470SOL     OW 5308   6.792   2.761   1.081
 1470SOL    HW1 5309   6.824   2.668   1.101
 1470SOL    HW2 5310   6.713   2.782   1.138
 1471SOL     OW 5311   6.992   0.183   0.381
 1471SOL    HW1 5312   0.024   0.250   0.432
 1471SOL    HW2 5313   0.029   0.135   0.316
 1472SOL     OW 5314   2.663   6.302   6.564
 1472SOL    HW1 5315   2.683   6.248   6.646
 1472SOL    HW2 5316   2.700   6.394   6.575
 1473SOL     OW 5317   3.616   4.904   5.134
 1473SOL    HW1 5318   3.637   4.910   5.036
 1473SOL    HW2 5319   3.533   4.956   5.153
 1474SOL     OW 5320   4.153   5.119   1.845
 1474SOL    HW1 5321   4.119   5.044   1.789
 1474SOL    HW2 5322   4.092   5.198   1.835
 1475SOL     OW 5323   5.263   1.628   0.286
 1475SOL    HW1 5324   5.359   1.601   0.279
 1475SOL    HW2 5325   5.251   1.693   0.361
 1476SOL     OW 5326   3.209   1.532   1.402
 1476SOL    HW1 5327   3.157   1.467   1.346
 1476SOL    HW2 5328   3.271   1.584   1.343
 1477SOL     OW 5329   4.567   6.726   0.596
 1477SOL    HW1 5330   4.492   6.766   0.543
 1477SOL    HW2 5331   4.622   6.799   0.636
 1478SOL     OW 5332   5.358   6.564   5.126
 1478SOL    HW1 5333   5.381   6.651   5.170
 1478SOL    HW2 5334   5.357   6.491   5.194
 1479SOL     OW 5335   4.003   3.944   2.438
 1479SOL    HW1 5336   4.050   4.032   2.437
 1479SOL    HW2 5337   3.904   3.959   2.437
 1480SOL     OW 5338   2.269   0.580   6.297
 1480SOL    HW1 5339   2.199   0.579   6.225
 1480SOL    HW2 5340   2.323   0.496   6.293
 1481SOL     OW 5341   5.512   2.781   5.405
 1481SOL    HW1 5342   5.439   2.813   5.344
 1481SOL    HW2 5343   5.508   2.830   5.491
 1482SOL     OW 5344   4.422   0.510   1.059
 1482SOL    HW1 5345   4.370   0.553   0.985
 1482SOL    HW2 5346   4.481   0.439   1.021
 1483SOL     OW 5347   4.649   1.633   5.630
 1483SOL    HW1 5348   4.566   1.632   5.685
 1483SOL    HW2 5349   4.625   1.636   5.533
 1484SOL     OW 5350   3.135   4.913   4.724
 1484SOL    HW1 5351   3.162   4.817   4.722
 1484SOL    HW2 5352   3.062   4.926   4.791
 1485SOL     OW 5353   4.861   1.038   3.554
 1485SOL    HW1 5354   4.851   0.943   3.583
 1485SOL    HW2 5355   4.797   1.095   3.606
 1486SOL     OW 5356   4.945   6.740   3.693
 1486SOL    HW1 5357   4.995   6.719   3.776
 1486SOL    HW2 5358   4.959   6.836   3.669
 1487SOL     OW 5359   0.062   0.933   0.216
 1487SOL    HW1 5360   7.018   0.983   0.159
 1487SOL    HW2 5361   0.022   0.914   0.305
 1488SOL     OW 5362   6.282   0.463   2.374
 1488SOL    HW1 5363   6.256   0.559   2.365
 1488SOL    HW2 5364   6.211   0.406   2.333
 1489SOL     OW 5365   4.238   4.467   6.813
 1489SOL    HW1 5366   4.303   4.391   6.820
 1489SOL    HW2 5367   4.287   4.549   6.782
 1490SOL     OW 5368   0.101   2.270   1.693
 1490SOL    HW1 5369   0.012   2.276   1.647
 1490SOL    HW2 5370   0.158   2.202   1.646
 1491SOL     OW 5371   6.718   3.289   2.059
 1491SOL    HW1 5372   6.634   3.236   2.045
 1491SOL    HW2 5373   6.727   3.356   1.984
 1492SOL     OW 5374   6.775   0.479   2.491
 1492SOL    HW1 5375   6.871   0.497   2.513
 1492SOL    HW2 5376   6.734   0.561   2.452
 1493SOL     OW 5377   4.261   1.254   5.885
 1493SOL    HW1 5378   4.184   1.271   5.824
 1493SOL    HW2 5379   4.278   1.336   5.940
 1494SOL     OW 5380   5.616   2.393   5.921
 1494SOL    HW1 5381   5.590   2.384   6.017
 1494SOL    HW2 5382   5.538   2.428   5.868
 1495SOL     OW 5383   6.127   3.657   3.667
 1495SOL    HW1 5384   6.174   3.706   3.594
 1495SOL    HW2 5385   6.053   3.714   3.704
 1496SOL     OW 5386   0.030   6.660   7.004
 1496SOL    HW1 5387   7.003   6.627   0.062
 1496SOL    HW2 5388   0.128   6.660   0.001
 1497SOL     OW 5389   5.118   2.261   3.135
 1497SOL    HW1 5390   5.073   2.177   3.107
 1497SOL    HW2 5391   5.114   2.328   3.061
 1498SOL     OW 5392   2.650   4.385   1.459
 1498SOL    HW1 5393   2.656   4.309   1.525
 1498SOL    HW2 5394   2.743   4.418   1.440
 1499SOL     OW 5395   0.111   3.845   5.901
 1499SOL    HW1 5396   0.071   3.922   5.950
 1499SOL    HW2 5397   0.039   3.791   5.860
 1500SOL     OW 5398   0.959   5.784   0.346
 1500SOL    HW1 5399   0.963   5.774   0.446
 1500SOL    HW2 5400   0.978   5.695   0.303
 1501SOL     OW 5401   5.947   1.714   6.454
 1501SOL    HW1 5402   6.027   1.721   6.395
 1501SOL    HW2 5403   5.951   1.784   6.526
 1502SOL     OW 5404   6.638   1.175   6.068
 1502SOL    HW1 5405   6.624   1.203   5.972
 1502SOL    HW2 5406   6.595   1.243   6.128
 1503SOL     OW 5407   0.460   3.702   2.158
 1503SOL    HW1 5408   0.395   3.627   2.146
 1503SOL    HW2 5409   0.450   3.742   2.249
 1504SOL     OW 5410   0.450   0.020   4.176
 1504SOL    HW1 5411   0.493   0.087   4.115
 1504SOL    HW2 5412   0.376   0.064   4.227
 1505SOL     OW 5413   5.687   6.248   5.175
 1505SOL    HW1 5414   5.729   6.289   5.256
 1505SOL    HW2 5415   5.743   6.171   5.144
 1506SOL     OW 5416   1.503   0.359   1.198
 1506SOL    HW1 5417   1.592   0.386   1.162
 1506SOL    HW2 5418   1.510   0.266   1.235
 1507SOL     OW 5419   1.221   1.706   4.556
 1507SOL    HW1 5420   1.291   1.705   4.485
 1507SOL    HW2 5421   1.222   1.794   4.604
 1508SOL     OW 5422   0.584   1.552   0.734
 1508SOL    HW1 5423   0.625   1.486   0.672
 1508SOL    HW2 5424   0.489   1.526   0.753
 1509SOL     OW 5425   5.185   1.221   4.936
 1509SOL    HW1 5426   5.273   1.175   4.925
 1509SOL    HW2 5427   5.127   1.203   4.857
 1510SOL     OW 5428   4.079   6.936   3.843
 1510SOL    HW1 5429   3.997   6.972   3.885
 1510SOL    HW2 5430   4.157   6.948   3.904
 1511SOL     OW 5431   3.014   3.909   4.397
 1511SOL    HW1 5432   2.963   3.950   4.472
 1511SOL    HW2 5433   3.101   3.957   4.386
 1512SOL     OW 5434   6.091   5.846   1.151
 1512SOL    HW1 5435   6.061   5.911   1.221
 1512SOL    HW2 5436   6.190   5.852   1.140
 1513SOL     OW 5437   3.304   6.539   6.077
 1513SOL    HW1 5438   3.264   6.570   5.991
 1513SOL    HW2 5439   3.280   6.443   6.091
 1514SOL     OW 5440   3.541   1.836   5.598
 1514SOL    HW1 5441   3.535   1.921   5.544
 1514SOL    HW2 5442   3.475   1.770   5.562
 1515SOL     OW 5443   6.719   1.896   2.851
 1515SOL    HW1 5444   6.735   1.945   2.937
 1515SOL    HW2 5445   6.646   1.942   2.801
 1516SOL     OW 5446   6.296   5.770   4.686
 1516SOL    HW1 5447   6.239   5.694   4.719
 1516SOL    HW2 5448   6.238   5.838   4.642
 1517SOL     OW 5449   3.554   6.550   3.344
 1517SOL    HW1 5450   3.503   6.495   3.410
 1517SOL    HW2 5451   3.635   6.499   3.314
 1518SOL     OW 5452   6.515   2.560   0.098
 1518SOL    HW1 5453   6.566   2.587   0.180
 1518SOL    HW2 5454   6.545   2.616   0.020
 1519SOL     OW 5455   6.944   5.166   0.668
 1519SOL    HW1 5456   0.005   5.131   0.712
 1519SOL    HW2 5457   6.967   5.242   0.608
 1520SOL     OW 5458   0.897   4.879   1.335
 1520SOL    HW1 5459   0.860   4.970   1.354
 1520SOL    HW2 5460   0.821   4.813   1.329
 1521SOL     OW 5461   2.817   4.744   6.815
 1521SOL    HW1 5462   2.809   4.838   6.780
 1521SOL    HW2 5463   2.726   4.704   6.826
 1522SOL     OW 5464   5.278   5.652   4.887
 1522SOL    HW1 5465   5.270   5.570   4.831
 1522SOL    HW2 5466   5.299   5.627   4.981
 1523SOL     OW 5467   3.708   6.659   6.815
 1523SOL    HW1 5468   3.680   6.567   6.842
 1523SOL    HW2 5469   3.627   6.718   6.810
 1524SOL     OW 5470   2.451   2.633   3.086
 1524SOL    HW1 5471   2.460   2.558   3.152
 1524SOL    HW2 5472   2.487   2.717   3.127
 1525SOL     OW 5473   6.125   3.062   0.642
 1525SOL    HW1 5474   6.201   3.120   0.672
 1525SOL    HW2 5475   6.130   3.049   0.543
 1526SOL     OW 5476   0.698   1.846   7.004
 1526SOL    HW1 5477   0.790   1.830   6.969
 1526SOL    HW2 5478   0.699   1.842   0.082
 1527SOL     OW 5479   3.803   1.587   5.002
 1527SOL    HW1 5480   3.759   1.585   5.092
 1527SOL    HW2 5481   3.754   1.651   4.943
 1528SOL     OW 5482   4.725   4.012   1.038
 1528SOL    HW1 5483   4.737   3.994   1.135
 1528SOL    HW2 5484   4.735   4.110   1.020
 1529SOL     OW 5485   5.410   1.361   6.936
 1529SOL    HW1 5486   5.318   1.382   6.970
 1529SOL    HW2 5487   5.474   1.358   7.013
 1530SOL     OW 5488   3.341   0.323   1.715
 1530SOL    HW1 5489   3.350   0.261   1.793
 1530SOL    HW2 5490   3.423   0.379   1.706
 1531SOL     OW 5491   4.198   0.305   3.986
 1531SOL    HW1 5492   4.259   0.248   3.930
 1531SOL    HW2 5493   4.231   0.400   3.986
 1532SOL     OW 5494   3.504   4.849   5.942
 1532SOL    HW1 5495   3.443   4.771   5.956
 1532SOL    HW2 5496   3.577   4.824   5.878
 1533SOL     OW 5497   5.933   6.036   0.830
 1533SOL    HW1 5498   5.911   5.939   0.820
 1533SOL    HW2 5499   5.991   6.050   0.911
 1534SOL     OW 5500   3.768   5.616   0.199
 1534SOL    HW1 5501   3.723   5.543   0.148
 1534SOL    HW2 5502   3.699   5.677   0.238
 1535SOL     OW 5503   5.749   6.715   4.783
 1535SOL    HW1 5504   5.656   6.700   4.817
 1535SOL    HW2 5505   5.797   6.627   4.780
 1536SOL     OW 5506   4.072   4.585   7.002
 1536SOL    HW1 5507   3.974   4.568   6.989
 1536SOL    HW2 5508   4.123   4.542   6.927
 1537SOL     OW 5509   3.538   5.256   3.904
 1537SOL    HW1 5510   3.494   5.169   3.928
 1537SOL    HW2 5511   3.564   5.255   3.808
 1538SOL     OW 5512   3.546   1.513   6.883
 1538SOL    HW1 5513   3.587   1.452   6.951
 1538SOL    HW2 5514   3.545   1.606   6.918
 1539SOL     OW 5515   4.821   3.236   1.840
 1539SOL    HW1 5516   4.747   3.171   1.825
 1539SOL    HW2 5517   4.884   3.199   1.909
 1540SOL     OW 5518   1.376   6.892   5.232
 1540SOL    HW1 5519   1.291   6.942   5.250
 1540SOL    HW2 5520   1.424   6.934   5.155
 1541SOL     OW 5521   4.060   3.218   4.446
 1541SOL    HW1 5522   4.123   3.163   4.500
 1541SOL    HW2 5523   3.991   3.259   4.506
 1542SOL     OW 5524   6.591   6.520   2.083
 1542SOL    HW1 5525   6.591   6.570   1.997
 1542SOL    HW2 5526   6.497   6.494   2.106
 1543SOL     OW 5527   3.633   5.653   6.249
 1543SOL    HW1 5528   3.645   5.562   6.210
 1543SOL    HW2 5529   3.541   5.661   6.286
 1544SOL     OW 5530   3.638   3.724   4.035
 1544SOL    HW1 5531   3.556   3.668   4.037
 1544SOL    HW2 5532   3.665   3.740   3.940
 1545SOL     OW 5533   6.223   0.506   1.745
 1545SOL    HW1 5534   6.126   0.484   1.754
 1545SOL    HW2 5535   6.240   0.548   1.656
 1546SOL     OW 5536   5.285   6.663   6.106
 1546SOL    HW1 5537   5.282   6.582   6.048
 1546SOL    HW2 5538   5.367   6.659   6.164
 1547SOL     OW 5539   1.521   4.315   0.817
 1547SOL    HW1 5540   1.591   4.376   0.855
 1547SOL    HW2 5541   1.523   4.228   0.865
 1548SOL     OW 5542   6.250   3.552   6.927
 1548SOL    HW1 5543   6.311   3.621   6.966
 1548SOL    HW2 5544   6.166   3.596   6.896
 1549SOL     OW 5545   4.189   1.048   4.408
 1549SOL    HW1 5546   4.258   1.117   4.386
 1549SOL    HW2 5547   4.120   1.087   4.469
 1550SOL     OW 5548   3.354   2.868   2.481
 1550SOL    HW1 5549   3.275   2.847   2.423
 1550SOL    HW2 5550   3.335   2.841   2.575
 1551SOL     OW 5551   1.186   4.936   0.034
 1551SOL    HW1 5552   1.236   4.879   0.099
 1551SOL    HW2 5553   1.122   4.879   7.004
 1552SOL     OW 5554   2.849   4.737   0.903
 1552SOL    HW1 5555   2.821   4.778   0.990
 1552SOL    HW2 5556   2.858   4.638   0.914
 1553SOL     OW 5557   6.954   1.184   6.663
 1553SOL    HW1 5558   0.016   1.234   6.686
 1553SOL    HW2 5559   6.905   1.232   6.591
 1554SOL     OW 5560   3.055   1.932   3.797
 1554SOL    HW1 5561   3.098   2.016   3.831
 1554SOL    HW2 5562   2.956   1.938   3.811
 1555SOL     OW 5563   5.866   2.858   6.128
 1555SOL    HW1 5564   5.922   2.937   6.104
 1555SOL    HW2 5565   5.810   2.830   6.050
 1556SOL     OW 5566   2.054   0.973   6.265
 1556SOL    HW1 5567   1.998   0.987   6.346
 1556SOL    HW2 5568   2.001   0.925   6.195
 1557SOL     OW 5569   1.856   3.686   6.063
 1557SOL    HW1 5570   1.771   3.653   6.021
 1557SOL    HW2 5571   1.842   3.778   6.099
 1558SOL     OW 5572   6.209   0.466   4.481
 1558SOL    HW1 5573   6.161   0.527   4.545
 1558SOL    HW2 5574   6.143   0.405   4.437
 1559SOL     OW 5575   0.845   2.596   6.517
 1559SOL    HW1 5576   0.896   2.611   6.432
 1559SOL    HW2 5577   0.874   2.663   6.586
 1560SOL     OW 5578   0.188   1.311   6.824
 1560SOL    HW1 5579   0.213   1.218   6.852
 1560SOL    HW2 5580   0.235   1.334   6.739
 1561SOL     OW 5581   4.568   5.929   3.328
 1561SOL    HW1 5582   4.620   5.959   3.408
 1561SOL    HW2 5583   4.476   5.968   3.330
 1562SOL     OW 5584   3.995   6.589   1.851
 1562SOL    HW1 5585   3.957   6.596   1.943
 1562SOL    HW2 5586   4.072   6.524   1.851
 1563SOL     OW 5587   3.439   0.821   6.272
 1563SOL    HW1 5588   3.364   0.756   6.286
 1563SOL    HW2 5589   3.526   0.773   6.283
 1564SOL     OW 5590   1.534   0.755   2.635
 1564SOL    HW1 5591   1.482   0.692   2.692
 1564SOL    HW2 5592   1.629   0.758   2.667
 1565SOL     OW 5593   4.895   3.984   2.263
 1565SOL    HW1 5594   4.991   4.013   2.264
 1565SOL    HW2 5595   4.837   4.063   2.280
 1566SOL     OW 5596   5.421   3.496   3.502
 1566SOL    HW1 5597   5.418   3.580   3.448
 1566SOL    HW2 5598   5.357   3.504   3.579
 1567SOL     OW 5599   5.975   6.446   6.766
 1567SOL    HW1 5600   5.901   6.452   6.833
 1567SOL    HW2 5601   6.053   6.502   6.795
 1568SOL     OW 5602   1.400   0.379   0.524
 1568SOL    HW1 5603   1.499   0.378   0.539
 1568SOL    HW2 5604   1.357   0.308   0.581
 1569SOL     OW 5605   4.187   6.094   3.914
 1569SOL    HW1 5606   4.258   6.055   3.855
 1569SOL    HW2 5607   4.228   6.157   3.979
 1570SOL     OW 5608   2.808   1.325   1.701
 1570SOL    HW1 5609   2.710   1.341   1.715
 1570SOL    HW2 5610   2.826   1.309   1.604
 1571SOL     OW 5611   5.799   2.681   1.209
 1571SOL    HW1 5612   5.898   2.681   1.221
 1571SOL    HW2 5613   5.757   2.741   1.277
 1572SOL     OW 5614   0.583   0.594   2.548
 1572SOL    HW1 5615   0.536   0.558   2.468
 1572SOL    HW2 5616   0.532   0.673   2.583
 1573SOL     OW 5617   5.033   6.786   1.914
 1573SOL    HW1 5618   5.060   6.793   1.818
 1573SOL    HW2 5619   5.113   6.801   1.972
 1574SOL     OW 5620   0.411   2.037   1.772
 1574SOL    HW1 5621   0.468   1.960   1.744
 1574SOL    HW2 5622   0.422   2.053   1.870
 1575SOL     OW 5623   2.566   2.243   0.346
 1575SOL    HW1 5624   2.626   2.164   0.330
 1575SOL    HW2 5625   2.614   2.310   0.403
 1576SOL     OW 5626   5.253   6.137   3.849
 1576SOL    HW1 5627   5.320   6.154   3.921
 1576SOL    HW2 5628   5.189   6.066   3.880
 1577SOL     OW 5629   2.416   1.383   5.645
 1577SOL    HW1 5630   2.438   1.344   5.555
 1577SOL    HW2 5631   2.475   1.462   5.662
 1578SOL     OW 5632   5.741   3.670   5.103
 1578SOL    HW1 5633   5.667   3.731   5.131
 1578SOL    HW2 5634   5.828   3.708   5.133
 1579SOL     OW 5635   0.568   1.306   3.277
 1579SOL    HW1 5636   0.485   1.356   3.250
 1579SOL    HW2 5637   0.544   1.235   3.343
 1580SOL     OW 5638   2.823   4.083   5.358
 1580SOL    HW1 5639   2.725   4.083   5.379
 1580SOL    HW2 5640   2.869   4.015   5.416
 1581SOL     OW 5641   6.548   4.098   4.083
 1581SOL    HW1 5642   6.603   4.137   4.156
 1581SOL    HW2 5643   6.607   4.059   4.013
 1582SOL     OW 5644   0.565   4.629   4.593
 1582SOL    HW1 5645   0.524   4.616   4.503
 1582SOL    HW2 5646   0.523   4.708   4.638
 1583SOL     OW 5647   2.201   3.102   3.875
 1583SOL    HW1 5648   2.185   3.066   3.784
 1583SOL    HW2 5649   2.189   3.029   3.943
 1584SOL     OW 5650   2.461   6.517   5.063
 1584SOL    HW1 5651   2.460   6.604   5.014
 1584SOL    HW2 5652   2.470   6.535   5.161
 1585SOL     OW 5653   5.498   2.403   3.161
 1585SOL    HW1 5654   5.453   2.333   3.217
 1585SOL    HW2 5655   5.438   2.429   3.086
 1586SOL     OW 5656   3.671   3.587   2.049
 1586SOL    HW1 5657   3.762   3.625   2.030
 1586SOL    HW2 5658   3.635   3.544   1.966
 1587SOL     OW 5659   3.315   5.890   6.739
 1587SOL    HW1 5660   3.327   5.790   6.738
 1587SOL    HW2 5661   3.405   5.933   6.731
 1588SOL     OW 5662   5.086   1.323   2.820
 1588SOL    HW1 5663   5.133   1.248   2.866
 1588SOL    HW2 5664   5.125   1.336   2.729
 1589SOL     OW 5665   5.397   4.323   3.668
 1589SOL    HW1 5666   5.467   4.343   3.737
 1589SOL    HW2 5667   5.364   4.409   3.629
 1590SOL     OW 5668   1.643   6.831   0.208
 1590SOL    HW1 5669   1.562   6.886   0.228
 1590SOL    HW2 5670   1.715   6.853   0.275
 1591SOL     OW 5671   1.162   5.066   2.345
 1591SOL    HW1 5672   1.244   5.110   2.381
 1591SOL    HW2 5673   1.083   5.126   2.360
 1592SOL     OW 5674   3.109   3.246   2.339
 1592SOL    HW1 5675   3.142   3.336   2.312
 1592SOL    HW2 5676   3.187   3.190   2.369
 1593SOL     OW 5677   0.473   6.471   4.576
 1593SOL    HW1 5678   0.396   6.462   4.640
 1593SOL    HW2 5679   0.484   6.386   4.525
 1594SOL     OW 5680   6.632   5.407   2.663
 1594SOL    HW1 5681   6.670   5.413   2.755
 1594SOL    HW2 5682   6.647   5.314   2.628
 1595SOL     OW 5683   0.347   4.500   6.838
 1595SOL    HW1 5684   0.313   4.438   6.910
 1595SOL    HW2 5685   0.299   4.587   6.843
 1596SOL     OW 5686   1.909   4.646   5.649
 1596SOL    HW1 5687   1.940   4.621   5.557
 1596SOL    HW2 5688   1.857   4.732   5.643
 1597SOL     OW 5689   2.098   6.434   1.963
 1597SOL    HW1 5690   2.061   6.524   1.983
 1597SOL    HW2 5691   2.190   6.426   2.002
 1598SOL     OW 5692   0.488   4.045   0.776
 1598SOL    HW1 5693   0.530   3.998   0.854
 1598SOL    HW2 5694   0.510   4.142   0.780
 1599SOL     OW 5695   3.662   4.347   6.597
 1599SOL    HW1 5696   3.635   4.283   6.669
 1599SOL    HW2 5697   3.611   4.432   6.608
 1600SOL     OW 5698   5.248   1.792   5.212
 1600SOL    HW1 5699   5.224   1.878   5.167
 1600SOL    HW2 5700   5.207   1.789   5.303
 1601SOL     OW 5701   1.658   4.585   5.115
 1601SOL    HW1 5702   1.722   4.642   5.063
 1601SOL    HW2 5703   1.583   4.557   5.056
 1602SOL     OW 5704   1.098   6.223   3.308
 1602SOL    HW1 5705   1.156   6.305   3.304
 1602SOL    HW2 5706   1.053   6.211   3.220
 1603SOL     OW 5707   0.816   6.546   2.070
 1603SOL    HW1 5708   0.769   6.631   2.045
 1603SOL    HW2 5709   0.760   6.468   2.041
 1604SOL     OW 5710   6.404   5.613   6.675
 1604SOL    HW1 5711   6.310   5.633   6.648
 1604SOL    HW2 5712   6.465   5.624   6.597
 1605SOL     OW 5713   6.349   0.428   2.651
 1605SOL    HW1 5714   6.444   0.416   2.679
 1605SOL    HW2 5715   6.343   0.424   2.551
 1606SOL     OW 5716   4.754   6.829   5.323
 1606SOL    HW1 5717   4.749   6.847   5.225
 1606SOL    HW2 5718   4.662   6.808   5.358
 1607SOL     OW 5719   4.047   2.364   1.130
 1607SOL    HW1 5720   4.038   2.359   1.229
 1607SOL    HW2 5721   4.077   2.276   1.094
 1608SOL     OW 5722   2.443   6.735   0.169
 1608SOL    HW1 5723   2.486   6.728   0.259
 1608SOL    HW2 5724   2.371   6.805   0.171
 1609SOL     OW 5725   5.923   2.279   6.029
 1609SOL    HW1 5726   5.841   2.295   5.974
 1609SOL    HW2 5727   5.961   2.367   6.058
 1610SOL     OW 5728   5.911   5.758   4.851
 1610SOL    HW1 5729   5.932   5.854   4.831
 1610SOL    HW2 5730   5.819   5.737   4.817
 1611SOL     OW 5731   3.628   2.876   2.384
 1611SOL    HW1 5732   3.653   2.861   2.289
 1611SOL    HW2 5733   3.542   2.828   2.404
 1612SOL     OW 5734   2.614   1.505   5.162
 1612SOL    HW1 5735   2.701   1.553   5.150
 1612SOL    HW2 5736   2.539   1.571   5.159
 1613SOL     OW 5737   1.719   6.174   0.642
 1613SOL    HW1 5738   1.704   6.098   0.705
 1613SOL    HW2 5739   1.810   6.213   0.658
 1614SOL     OW 5740   6.023   2.697   6.690
 1614SOL    HW1 5741   5.953   2.651   6.743
 1614SOL    HW2 5742   6.067   2.631   6.628
 1615SOL     OW 5743   0.284   4.548   6.574
 1615SOL    HW1 5744   0.195   4.580   6.607
 1615SOL    HW2 5745   0.327   4.492   6.645
 1616SOL     OW 5746   4.346   2.103   6.365
 1616SOL    HW1 5747   4.337   2.119   6.463
 1616SOL    HW2 5748   4.328   2.007   6.344
 1617SOL     OW 5749   5.984   0.674   2.326
 1617SOL    HW1 5750   5.985   0.595   2.387
 1617SOL    HW2 5751   6.077   0.711   2.319
 1618SOL     OW 5752   6.931   3.387   1.479
 1618SOL    HW1 5753   6.974   3.393   1.569
 1618SOL    HW2 5754   6.862   3.314   1.481
 1619SOL     OW 5755   1.141   3.872   3.936
 1619SOL    HW1 5756   1.201   3.952   3.934
 1619SOL    HW2 5757   1.065   3.889   3.998
 1620SOL     OW 5758   1.967   6.153   1.519
 1620SOL    HW1 5759   2.019   6.070   1.497
 1620SOL    HW2 5760   1.950   6.157   1.617
 1621SOL     OW 5761   0.803   0.336   0.754
 1621SOL    HW1 5762   0.738   0.260   0.764
 1621SOL    HW2 5763   0.861   0.319   0.674
 1622SOL     OW 5764   1.475   1.784   4.429
 1622SOL    HW1 5765   1.525   1.732   4.359
 1622SOL    HW2 5766   1.515   1.765   4.519
 1623SOL     OW 5767   2.336   2.707   6.330
 1623SOL    HW1 5768   2.335   2.795   6.282
 1623SOL    HW2 5769   2.284   2.640   6.278
 1624SOL     OW 5770   3.216   1.107   6.703
 1624SOL    HW1 5771   3.287   1.107   6.773
 1624SOL    HW2 5772   3.130   1.139   6.742
 1625SOL     OW 5773   0.694   5.084   2.325
 1625SOL    HW1 5774   0.620   5.148   2.306
 1625SOL    HW2 5775   0.781   5.124   2.297
 1626SOL     OW 5776   2.263   2.806   6.587
 1626SOL    HW1 5777   2.355   2.834   6.616
 1626SOL    HW2 5778   2.269   2.761   6.498
 1627SOL     OW 5779   6.140   2.295   3.753
 1627SOL    HW1 5780   6.176   2.259   3.839
 1627SOL    HW2 5781   6.157   2.394   3.748
 1628SOL     OW 5782   3.202   5.010   1.056
 1628SOL    HW1 5783   3.124   5.042   1.001
 1628SOL    HW2 5784   3.171   4.984   1.147
 1629SOL     OW 5785   3.448   2.067   4.509
 1629SOL    HW1 5786   3.548   2.077   4.509
 1629SOL    HW2 5787   3.418   2.036   4.419
 1630SOL     OW 5788   0.844   5.168   5.592
 1630SOL    HW1 5789   0.876   5.154   5.686
 1630SOL    HW2 5790   0.754   5.126   5.581
 1631SOL     OW 5791   0.230   0.338   5.714
 1631SOL    HW1 5792   0.148   0.310   5.762
 1631SOL    HW2 5793   0.205   0.387   5.630
 1632SOL     OW 5794   0.116   1.075   6.919
 1632SOL    HW1 5795   0.136   1.026   7.004
 1632SOL    HW2 5796   0.128   1.014   6.841
 1633SOL     OW 5797   5.764   1.795   3.017
 1633SOL    HW1 5798   5.854   1.787   2.972
 1633SOL    HW2 5799   5.773   1.771   3.113
 1634SOL     OW 5800   3.053   5.839   6.502
 1634SOL    HW1 5801   3.033   5.863   6.597
 1634SOL    HW2 5802   3.101   5.751   6.499
 1635SOL     OW 5803   0.248   5.257   4.603
 1635SOL    HW1 5804   0.343   5.267   4.573
 1635SOL    HW2 5805   0.199   5.198   4.538
 1636SOL     OW 5806   2.535   5.550   1.401
 1636SOL    HW1 5807   2.457   5.490   1.418
 1636SOL    HW2 5808   2.552   5.607   1.481
 1637SOL     OW 5809   0.049   3.104   2.750
 1637SOL    HW1 5810   0.053   3.010   2.782
 1637SOL    HW2 5811   0.135   3.130   2.708
 1638SOL     OW 5812   0.393   3.431   3.729
 1638SOL    HW1 5813   0.406   3.521   3.771
 1638SOL    HW2 5814   0.336   3.441   3.647
 1639SOL     OW 5815   4.778   5.639   2.809
 1639SOL    HW1 5816   4.837   5.683   2.876
 1639SOL    HW2 5817   4.808   5.662   2.716
 1640SOL     OW 5818   6.368   1.773   0.542
 1640SOL    HW1 5819   6.428   1.696   0.518
 1640SOL    HW2 5820   6.324   1.808   0.459
 1641SOL     OW 5821   6.090   2.873   4.128
 1641SOL    HW1 5822   6.172   2.821   4.152
 1641SOL    HW2 5823   6.032   2.818   4.069
 1642SOL     OW 5824   6.900   2.477   0.086
 1642SOL    HW1 5825   6.974   2.421   0.125
 1642SOL    HW2 5826   6.828   2.417   0.051
 1643SOL     OW 5827   3.258   6.544   5.236
 1643SOL    HW1 5828   3.161   6.522   5.232
 1643SOL    HW2 5829   3.309   6.480   5.177
 1644SOL     OW 5830   3.403   1.858   1.752
 1644SOL    HW1 5831   3.361   1.789   1.694
 1644SOL    HW2 5832   3.446   1.928   1.695
 1645SOL     OW 5833   2.807   5.947   5.992
 1645SOL    HW1 5834   2.725   6.002   6.005
 1645SOL    HW2 5835   2.791   5.855   6.027
 1646SOL     OW 5836   1.584   4.621   0.475
 1646SOL    HW1 5837   1.644   4.545   0.449
 1646SOL    HW2 5838   1.629   4.677   0.545
 1647SOL     OW 5839   5.981   3.050   3.693
 1647SOL    HW1 5840   5.946   2.965   3.732
 1647SOL    HW2 5841   6.080   3.043   3.682
 1648SOL     OW 5842   4.896   0.239   1.843
 1648SOL    HW1 5843   4.903   0.319   1.783
 1648SOL    HW2 5844   4.862   0.161   1.790
 1649SOL     OW 5845   3.146   0.666   3.104
 1649SOL    HW1 5846   3.134   0.750   3.051
 1649SOL    HW2 5847   3.124   0.684   3.200
 1650SOL     OW 5848   2.657   0.782   3.974
 1650SOL    HW1 5849   2.673   0.698   4.025
 1650SOL    HW2 5850   2.743   0.833   3.967
 1651SOL     OW 5851   0.134   0.532   0.254
 1651SOL    HW1 5852   0.035   0.549   0.250
 1651SOL    HW2 5853   0.183   0.619   0.256
 1652SOL     OW 5854   3.272   2.119   1.105
 1652SOL    HW1 5855   3.201   2.049   1.107
 1652SOL    HW2 5856   3.234   2.207   1.134
 1653SOL     OW 5857   6.968   5.500   0.381
 1653SOL    HW1 5858   6.912   5.481   0.461
 1653SOL    HW2 5859   6.952   5.594   0.350
 1654SOL     OW 5860   0.028   3.513   2.610
 1654SOL    HW1 5861   0.117   3.512   2.655
 1654SOL    HW2 5862   7.015   3.419   2.603
 1655SOL     OW 5863   5.483   4.302   6.131
 1655SOL    HW1 5864   5.466   4.386   6.079
 1655SOL    HW2 5865   5.516   4.325   6.223
 1656SOL     OW 5866   1.010   4.685   3.258
 1656SOL    HW1 5867   1.019   4.655   3.353
 1656SOL    HW2 5868   1.078   4.755   3.238
 1657SOL     OW 5869   1.859   1.089   5.729
 1657SOL    HW1 5870   1.769   1.068   5.767
 1657SOL    HW2 5871   1.930   1.046   5.785
 1658SOL     OW 5872   5.928   6.390   2.616
 1658SOL    HW1 5873   5.934   6.457   2.541
 1658SOL    HW2 5874   5.848   6.410   2.672
 1659SOL     OW 5875   3.780   2.583   6.275
 1659SOL    HW1 5876   3.684   2.566   6.255
 1659SOL    HW2 5877   3.812   2.660   6.220
 1660SOL     OW 5878   0.968   5.738   3.873
 1660SOL    HW1 5879   0.902   5.712   3.943
 1660SOL    HW2 5880   0.973   5.667   3.804
 1661SOL     OW 5881   3.239   1.654   2.537
 1661SOL    HW1 5882   3.159   1.712   2.519
 1661SOL    HW2 5883   3.220   1.595   2.616
 1662SOL     OW 5884   6.946   1.834   3.045
 1662SOL    HW1 5885   6.910   1.758   2.991
 1662SOL    HW2 5886   6.887   1.914   3.033
 1663SOL     OW 5887   3.076   6.748   3.030
 1663SOL    HW1 5888   3.049   6.678   2.964
 1663SOL    HW2 5889   3.106   6.830   2.981
 1664SOL     OW 5890   1.656   7.002   4.273
 1664SOL    HW1 5891   1.650   7.020   4.371
 1664SOL    HW2 5892   1.587   0.035   4.226
 1665SOL     OW 5893   0.732   1.761   2.463
 1665SOL    HW1 5894   0.685   1.763   2.551
 1665SOL    HW2 5895   0.764   1.668   2.445
 1666SOL     OW 5896   5.817   2.872   5.525
 1666SOL    HW1 5897   5.763   2.920   5.457
 1666SOL    HW2 5898   5.767   2.793   5.559
 1667SOL     OW 5899   6.177   6.661   6.143
 1667SOL    HW1 5900   6.277   6.668   6.138
 1667SOL    HW2 5901   6.136   6.727   6.079
 1668SOL     OW 5902   4.203   0.389   4.265
 1668SOL    HW1 5903   4.250   0.301   4.254
 1668SOL    HW2 5904   4.244   0.456   4.204
 1669SOL     OW 5905   5.906   0.189   6.299
 1669SOL    HW1 5906   5.970   0.126   6.344
 1669SOL    HW2 5907   5.916   0.280   6.338
 1670SOL     OW 5908   5.811   4.713   5.650
 1670SOL    HW1 5909   5.777   4.806   5.641
 1670SOL    HW2 5910   5.909   4.714   5.665
 1671SOL     OW 5911   4.460   3.712   0.507
 1671SOL    HW1 5912   4.520   3.751   0.577
 1671SOL    HW2 5913   4.406   3.638   0.547
 1672SOL     OW 5914   1.922   4.132   2.483
 1672SOL    HW1 5915   1.993   4.107   2.418
 1672SOL    HW2 5916   1.915   4.063   2.555
 1673SOL     OW 5917   6.886   3.672   4.605
 1673SOL    HW1 5918   6.805   3.726   4.626
 1673SOL    HW2 5919   6.898   3.602   4.676
 1674SOL     OW 5920   1.137   4.018   0.646
 1674SOL    HW1 5921   1.207   4.085   0.670
 1674SOL    HW2 5922   1.047   4.059   0.656
 1675SOL     OW 5923   4.933   1.300   6.832
 1675SOL    HW1 5924   4.997   1.249   6.775
 1675SOL    HW2 5925   4.963   1.395   6.838
 1676SOL     OW 5926   2.455   1.165   1.981
 1676SOL    HW1 5927   2.522   1.191   2.051
 1676SOL    HW2 5928   2.502   1.156   1.892
 1677SOL     OW 5929   5.628   1.602   5.286
 1677SOL    HW1 5930   5.574   1.618   5.369
 1677SOL    HW2 5931   5.566   1.596   5.208
 1678SOL     OW 5932   4.879   6.183   2.316
 1678SOL    HW1 5933   4.830   6.259   2.359
 1678SOL    HW2 5934   4.977   6.201   2.317
 1679SOL     OW 5935   1.073   2.921   5.854
 1679SOL    HW1 5936   1.145   2.987   5.832
 1679SOL    HW2 5937   1.021   2.953   5.933
 1680SOL     OW 5938   0.879   1.524   3.938
 1680SOL    HW1 5939   0.963   1.522   3.884
 1680SOL    HW2 5940   0.899   1.560   4.029
 1681SOL     OW 5941   6.115   5.241   1.087
 1681SOL    HW1 5942   6.187   5.278   1.028
 1681SOL    HW2 5943   6.127   5.142   1.095
 1682SOL     OW 5944   0.044   2.997   4.615
 1682SOL    HW1 5945   0.102   3.001   4.533
 1682SOL    HW2 5946   0.099   3.018   4.696
 1683SOL     OW 5947   4.782   5.100   1.250
 1683SOL    HW1 5948   4.860   5.091   1.189
 1683SOL    HW2 5949   4.800   5.049   1.335
 1684SOL     OW 5950   0.547   6.743   5.013
 1684SOL    HW1 5951   0.607   6.816   5.047
 1684SOL    HW2 5952   0.528   6.760   4.916
 1685SOL     OW 5953   1.585   1.020   0.412
 1685SOL    HW1 5954   1.520   1.096   0.404
 1685SOL    HW2 5955   1.535   0.937   0.439
 1686SOL     OW 5956   1.382   5.476   5.474
 1686SOL    HW1 5957   1.351   5.540   5.545
 1686SOL    HW2 5958   1.408   5.389   5.517
 1687SOL     OW 5959   1.781   4.335   2.406
 1687SOL    HW1 5960   1.835   4.251   2.411
 1687SOL    HW2 5961   1.825   4.407   2.460
 1688SOL     OW 5962   1.720   1.497   3.017
 1688SOL    HW1 5963   1.801   1.484   3.075
 1688SOL    HW2 5964   1.638   1.469   3.067
 1689SOL     OW 5965   3.414   2.104   2.336
 1689SOL    HW1 5966   3.380   2.168   2.267
 1689SOL    HW2 5967   3.478   2.041   2.294
 1690SOL     OW 5968   1.539   1.399   2.303
 1690SOL    HW1 5969   1.625   1.392   2.252
 1690SOL    HW2 5970   1.474   1.332   2.267
 1691SOL     OW 5971   5.158   3.243   3.071
 1691SOL    HW1 5972   5.193   3.280   3.157
 1691SOL    HW2 5973   5.068   3.281   3.052
 1692SOL     OW 5974   0.410   6.866   1.500
 1692SOL    HW1 5975   0.404   6.777   1.544
 1692SOL    HW2 5976   0.499   6.907   1.522
 1693SOL     OW 5977   2.373   2.725   3.539
 1693SOL    HW1 5978   2.393   2.731   3.637
 1693SOL    HW2 5979   2.418   2.644   3.501
 1694SOL     OW 5980   4.409   5.817   4.845
 1694SOL    HW1 5981   4.501   5.818   4.884
 1694SOL    HW2 5982   4.394   5.732   4.794
 1695SOL     OW 5983   2.799   2.512   5.313
 1695SOL    HW1 5984   2.839   2.597   5.349
 1695SOL    HW2 5985   2.861   2.436   5.331
 1696SOL     OW 5986   5.045   5.701   0.482
 1696SOL    HW1 5987   4.958   5.674   0.523
 1696SOL    HW2 5988   5.100   5.619   0.464
 1697SOL     OW 5989   1.196   6.853   1.628
 1697SOL    HW1 5990   1.234   6.864   1.720
 1697SOL    HW2 5991   1.155   6.940   1.598
 1698SOL     OW 5992   4.876   2.367   1.911
 1698SOL    HW1 5993   4.934   2.448   1.907
 1698SOL    HW2 5994   4.918   2.299   1.971
 1699SOL     OW 5995   2.883   2.908   1.101
 1699SOL    HW1 5996   2.855   2.867   1.015
 1699SOL    HW2 5997   2.806   2.908   1.165
 1700SOL     OW 5998   6.763   2.833   3.048
 1700SOL    HW1 5999   6.756   2.922   3.004
 1700SOL    HW2 6000   6.684   2.777   3.023
 1701SOL     OW 6001   6.303   2.716   4.135
 1701SOL    HW1 6002   6.356   2.637   4.104
 1701SOL    HW2 6003   6.358   2.769   4.199
 1702SOL     OW 6004   5.817   3.468   1.024
 1702SOL    HW1 6005   5.779   3.436   0.937
 1702SOL    HW2 6006   5.782   3.412   1.099
 1703SOL     OW 6007   2.329   3.636   1.027
 1703SOL    HW1 6008   2.360   3.711   0.969
 1703SOL    HW2 6009   2.398   3.563   1.027
 1704SOL     OW 6010   0.157   0.794   1.256
 1704SOL    HW1 6011   0.100   0.719   1.290
 1704SOL    HW2 6012   0.152   0.797   1.157
 1705SOL     OW 6013   3.567   2.303   1.379
 1705SOL    HW1 6014   3.474   2.276   1.403
 1705SOL    HW2 6015   3.632   2.255   1.439
 1706SOL     OW 6016   4.404   0.570   0.378
 1706SOL    HW1 6017   4.483   0.577   0.316
 1706SOL    HW2 6018   4.333   0.514   0.336
 1707SOL     OW 6019   5.443   1.922   3.102
 1707SOL    HW1 6020   5.361   1.971   3.128
 1707SOL    HW2 6021   5.493   1.974   3.033
 1708SOL     OW 6022   6.335   6.202   2.515
 1708SOL    HW1 6023   6.413   6.144   2.488
 1708SOL    HW2 6024   6.365   6.266   2.586
 1709SOL     OW 6025   2.605   6.651   2.290
 1709SOL    HW1 6026   2.552   6.666   2.206
 1709SOL    HW2 6027   2.564   6.703   2.365
 1710SOL     OW 6028   0.661   4.808   3.924
 1710SOL    HW1 6029   0.719   4.883   3.891
 1710SOL    HW2 6030   0.598   4.842   3.993
 1711SOL     OW 6031   1.516   4.660   5.742
 1711SOL    HW1 6032   1.585   4.629   5.677
 1711SOL    HW2 6033   1.446   4.590   5.752
 1712SOL     OW 6034   0.150   4.015   0.130
 1712SOL    HW1 6035   0.155   4.024   0.031
 1712SOL    HW2 6036   0.117   4.100   0.170
 1713SOL     OW 6037   1.593   2.611   1.853
 1713SOL    HW1 6038   1.656   2.669   1.801
 1713SOL    HW2 6039   1.527   2.668   1.901
 1714SOL     OW 6040   3.779   1.978   6.655
 1714SOL    HW1 6041   3.874   2.009   6.650
 1714SOL    HW2 6042   3.740   1.974   6.564
 1715SOL     OW 6043   0.747   3.059   2.943
 1715SOL    HW1 6044   0.720   3.079   2.849
 1715SOL    HW2 6045   0.831   3.004   2.942
 1716SOL     OW 6046   6.674   6.829   0.348
 1716SOL    HW1 6047   6.717   6.902   0.403
 1716SOL    HW2 6048   6.586   6.861   0.314
 1717SOL     OW 6049   2.550   6.588   6.962
 1717SOL    HW1 6050   2.634   6.633   6.993
 1717SOL    HW2 6051   2.475   6.614   0.001
 1718SOL     OW 6052   2.154   3.760   0.185
 1718SOL    HW1 6053   2.202   3.791   0.103
 1718SOL    HW2 6054   2.068   3.716   0.159
 1719SOL     OW 6055   2.249   3.051   1.500
 1719SOL    HW1 6056   2.228   3.073   1.405
 1719SOL    HW2 6057   2.168   3.015   1.544
 1720SOL     OW 6058   6.682   1.655   0.777
 1720SOL    HW1 6059   6.708   1.700   0.691
 1720SOL    HW2 6060   6.750   1.586   0.799
 1721SOL     OW 6061   1.725   6.279   3.343
 1721SOL    HW1 6062   1.775   6.304   3.261
 1721SOL    HW2 6063   1.785   6.285   3.423
 1722SOL     OW 6064   6.053   0.266   2.263
 1722SOL    HW1 6065   6.076   0.180   2.218
 1722SOL    HW2 6066   5.968   0.302   2.224
 1723SOL     OW 6067   0.117   2.050   2.674
 1723SOL    HW1 6068   0.062   2.016   2.598
 1723SOL    HW2 6069   0.126   1.979   2.743
 1724SOL     OW 6070   5.177   1.050   6.926
 1724SOL    HW1 6071   5.112   1.027   6.854
 1724SOL    HW2 6072   5.268   1.063   6.887
 1725SOL     OW 6073   3.504   4.233   1.182
 1725SOL    HW1 6074   3.519   4.156   1.243
 1725SOL    HW2 6075   3.407   4.257   1.182
 1726SOL     OW 6076   6.961   4.550   5.060
 1726SOL    HW1 6077   6.873   4.503   5.060
 1726SOL    HW2 6078   0.003   4.505   4.998
 1727SOL     OW 6079   4.137   3.318   4.828
 1727SOL    HW1 6080   4.163   3.226   4.854
 1727SOL    HW2 6081   4.107   3.369   4.909
 1728SOL     OW 6082   4.499   4.500   4.130
 1728SOL    HW1 6083   4.470   4.509   4.226
 1728SOL    HW2 6084   4.530   4.588   4.096
 1729SOL     OW 6085   0.919   3.993   2.896
 1729SOL    HW1 6086   0.972   3.976   2.979
 1729SOL    HW2 6087   0.837   3.936   2.897
 1730SOL     OW 6088   6.574   1.614   4.545
 1730SOL    HW1 6089   6.515   1.580   4.472
 1730SOL    HW2 6090   6.629   1.690   4.511
 1731SOL     OW 6091   2.285   4.855   1.559
 1731SOL    HW1 6092   2.252   4.949   1.572
 1731SOL    HW2 6093   2.312   4.842   1.463
 1732SOL     OW 6094   1.956   4.620   0.117
 1732SOL    HW1 6095   2.006   4.534   0.123
 1732SOL    HW2 6096   1.859   4.601   0.099
 1733SOL     OW 6097   1.034   3.858   1.669
 1733SOL    HW1 6098   1.124   3.833   1.634
 1733SOL    HW2 6099   1.036   3.951   1.704
 1734SOL     OW 6100   4.503   3.312   0.824
 1734SOL    HW1 6101   4.505   3.259   0.909
 1734SOL    HW2 6102   4.493   3.409   0.845
 1735SOL     OW 6103   6.094   4.987   1.255
 1735SOL    HW1 6104   6.065   5.024   1.344
 1735SOL    HW2 6105   6.147   4.904   1.270
 1736SOL     OW 6106   3.311   3.133   0.125
 1736SOL    HW1 6107   3.361   3.054   0.162
 1736SOL    HW2 6108   3.310   3.206   0.193
 1737SOL     OW 6109   1.988   0.583   4.187
 1737SOL    HW1 6110   2.049   0.519   4.235
 1737SOL    HW2 6111   2.030   0.609   4.100
 1738SOL     OW 6112   2.207   2.911   2.343
 1738SOL    HW1 6113   2.224   2.871   2.252
 1738SOL    HW2 6114   2.194   3.010   2.334
 1739SOL     OW 6115   4.327   2.360   4.668
 1739SOL    HW1 6116   4.301   2.324   4.579
 1739SOL    HW2 6117   4.392   2.436   4.657
 1740SOL     OW 6118   0.030   0.550   6.942
 1740SOL    HW1 6119   0.057   0.552   0.016
 1740SOL    HW2 6120   0.046   0.459   6.904
 1741SOL     OW 6121   2.514   0.752   2.657
 1741SOL    HW1 6122   2.470   0.839   2.681
 1741SOL    HW2 6123   2.595   0.740   2.714
 1742SOL     OW 6124   5.823   0.629   4.803
 1742SOL    HW1 6125   5.741   0.609   4.749
 1742SOL    HW2 6126   5.862   0.543   4.836
 1743SOL     OW 6127   3.302   1.601   1.646
 1743SOL    HW1 6128   3.235   1.659   1.692
 1743SOL    HW2 6129   3.266   1.574   1.557
 1744SOL     OW 6130   2.502   0.842   2.028
 1744SOL    HW1 6131   2.507   0.908   1.953
 1744SOL    HW2 6132   2.407   0.826   2.051
 1745SOL     OW 6133   0.094   1.777   3.249
 1745SOL    HW1 6134   0.175   1.836   3.251
 1745SOL    HW2 6135   0.044   1.792   3.164
 1746SOL     OW 6136   3.041   0.213   6.281
 1746SOL    HW1 6137   3.095   0.166   6.350
 1746SOL    HW2 6138   2.980   0.279   6.325
 1747SOL     OW 6139   4.126   0.173   1.368
 1747SOL    HW1 6140   4.071   0.101   1.325
 1747SOL    HW2 6141   4.153   0.239   1.298
 1748SOL     OW 6142   6.036   1.906   3.616
 1748SOL    HW1 6143   6.123   1.921   3.664
 1748SOL    HW2 6144   5.967   1.968   3.653
 1749SOL     OW 6145   4.521   6.656   6.569
 1749SOL    HW1 6146   4.451   6.675   6.500
 1749SOL    HW2 6147   4.566   6.569   6.548
 1750SOL     OW 6148   5.423   1.202   2.671
 1750SOL    HW1 6149   5.504   1.205   2.612
 1750SOL    HW2 6150   5.347   1.248   2.626
 1751SOL     OW 6151   1.961   5.276   4.716
 1751SOL    HW1 6152   1.868   5.256   4.749
 1751SOL    HW2 6153   1.961   5.278   4.616
 1752SOL     OW 6154   6.830   2.060   0.705
 1752SOL    HW1 6155   6.775   2.141   0.728
 1752SOL    HW2 6156   6.913   2.060   0.760
 1753SOL     OW 6157   0.736   0.300   0.404
 1753SOL    HW1 6158   0.645   0.337   0.421
 1753SOL    HW2 6159   0.729   0.215   0.352
 1754SOL     OW 6160   3.141   3.196   1.316
 1754SOL    HW1 6161   3.189   3.210   1.403
 1754SOL    HW2 6162   3.154   3.102   1.285
 1755SOL     OW 6163   5.238   5.074   1.722
 1755SOL    HW1 6164   5.194   5.112   1.641
 1755SOL    HW2 6165   5.286   5.146   1.771
 1756SOL     OW 6166   6.226   4.698   4.187
 1756SOL    HW1 6167   6.136   4.728   4.217
 1756SOL    HW2 6168   6.280   4.668   4.266
 1757SOL     OW 6169   2.755   6.263   4.538
 1757SOL    HW1 6170   2.708   6.177   4.521
 1757SOL    HW2 6171   2.716   6.334   4.479
 1758SOL     OW 6172   3.158   1.363   3.325
 1758SOL    HW1 6173   3.126   1.437   3.384
 1758SOL    HW2 6174   3.118   1.276   3.355
 1759SOL     OW 6175   0.459   4.786   6.236
 1759SOL    HW1 6176   0.525   4.793   6.162
 1759SOL    HW2 6177   0.366   4.790   6.200
 1760SOL     OW 6178   6.064   1.336   1.458
 1760SOL    HW1 6179   6.121   1.349   1.539
 1760SOL    HW2 6180   6.118   1.356   1.376
 1761SOL     OW 6181   5.885   1.075   0.451
 1761SOL    HW1 6182   5.985   1.071   0.444
 1761SOL    HW2 6183   5.844   1.038   0.367
 1762SOL     OW 6184   6.769   2.143   5.099
 1762SOL    HW1 6185   6.732   2.054   5.074
 1762SOL    HW2 6186   6.867   2.147   5.078
 1763SOL     OW 6187   1.909   4.355   4.533
 1763SOL    HW1 6188   1.880   4.424   4.600
 1763SOL    HW2 6189   1.984   4.301   4.570
 1764SOL     OW 6190   1.715   3.338   3.119
 1764SOL    HW1 6191   1.625   3.370   3.146
 1764SOL    HW2 6192   1.728   3.244   3.151
 1765SOL     OW 6193   2.813   1.416   0.281
 1765SOL    HW1 6194   2.900   1.458   0.258
 1765SOL    HW2 6195   2.811   1.322   0.249
 1766SOL     OW 6196   5.246   3.112   4.918
 1766SOL    HW1 6197   5.205   3.203   4.917
 1766SOL    HW2 6198   5.230   3.070   5.007
 1767SOL     OW 6199   5.369   3.722   1.980
 1767SOL    HW1 6200   5.384   3.623   1.972
 1767SOL    HW2 6201   5.383   3.751   2.074
 1768SOL     OW 6202   4.148   0.152   3.690
 1768SOL    HW1 6203   4.113   0.074   3.741
 1768SOL    HW2 6204   4.239   0.177   3.724
 1769SOL     OW 6205   4.068   1.860   4.072
 1769SOL    HW1 6206   3.999   1.932   4.065
 1769SOL    HW2 6207   4.117   1.869   4.159
 1770SOL     OW 6208   1.868   5.732   5.232
 1770SOL    HW1 6209   1.963   5.765   5.230
 1770SOL    HW2 6210   1.826   5.761   5.318
 1771SOL     OW 6211   3.307   6.095   6.952
 1771SOL    HW1 6212   3.285   6.044   6.870
 1771SOL    HW2 6213   3.348   6.035   7.020
 1772SOL     OW 6214   3.787   6.879   3.949
 1772SOL    HW1 6215   3.703   6.902   3.998
 1772SOL    HW2 6216   3.765   6.815   3.875
 1773SOL     OW 6217   2.389   5.003   6.046
 1773SOL    HW1 6218   2.365   4.967   6.136
 1773SOL    HW2 6219   2.487   5.023   6.043
 1774SOL     OW 6220   3.794   5.787   1.670
 1774SOL    HW1 6221   3.871   5.784   1.734
 1774SOL    HW2 6222   3.809   5.859   1.602
 1775SOL     OW 6223   0.596   4.308   2.298
 1775SOL    HW1 6224   0.649   4.245   2.355
 1775SOL    HW2 6225   0.639   4.315   2.208
 1776SOL     OW 6226   3.985   6.346   4.227
 1776SOL    HW1 6227   4.072   6.389   4.205
 1776SOL    HW2 6228   3.969   6.351   4.326
 1777SOL     OW 6229   3.727   5.903   6.954
 1777SOL    HW1 6230   3.796   5.943   7.015
 1777SOL    HW2 6231   3.694   5.973   6.891
 1778SOL     OW 6232   4.635   3.313   5.511
 1778SOL    HW1 6233   4.619   3.222   5.549
 1778SOL    HW2 6234   4.696   3.307   5.432
 1779SOL     OW 6235   3.997   0.586   4.621
 1779SOL    HW1 6236   3.932   0.661   4.634
 1779SOL    HW2 6237   4.050   0.602   4.537
 1780SOL     OW 6238   3.733   2.981   6.574
 1780SOL    HW1 6239   3.827   3.007   6.595
 1780SOL    HW2 6240   3.729   2.884   6.552
 1781SOL     OW 6241   3.641   6.087   2.418
 1781SOL    HW1 6242   3.716   6.051   2.362
 1781SOL    HW2 6243   3.627   6.027   2.497
 1782SOL     OW 6244   3.073   1.662   3.188
 1782SOL    HW1 6245   3.020   1.641   3.271
 1782SOL    HW2 6246   3.166   1.687   3.213
 1783SOL     OW 6247   2.727   5.566   6.282
 1783SOL    HW1 6248   2.688   5.481   6.245
 1783SOL    HW2 6249   2.696   5.579   6.376
 1784SOL     OW 6250   4.275   0.839   5.612
 1784SOL    HW1 6251   4.286   0.824   5.710
 1784SOL    HW2 6252   4.181   0.868   5.594
 1785SOL     OW 6253   6.253   3.887   2.627
 1785SOL    HW1 6254   6.206   3.923   2.707
 1785SOL    HW2 6255   6.189   3.835   2.571
 1786SOL     OW 6256   1.976   2.703   6.601
 1786SOL    HW1 6257   2.070   2.737   6.610
 1786SOL    HW2 6258   1.912   2.778   6.618
 1787SOL     OW 6259   2.827   1.264   5.424
 1787SOL    HW1 6260   2.918   1.255   5.465
 1787SOL    HW2 6261   2.833   1.323   5.344
 1788SOL     OW 6262   2.188   4.722   6.106
 1788SOL    HW1 6263   2.266   4.701   6.164
 1788SOL    HW2 6264   2.114   4.657   6.123
 1789SOL     OW 6265   5.977   2.265   1.062
 1789SOL    HW1 6266   6.006   2.173   1.036
 1789SOL    HW2 6267   6.036   2.332   1.017
 1790SOL     OW 6268   3.759   6.312   3.578
 1790SOL    HW1 6269   3.720   6.338   3.666
 1790SOL    HW2 6270   3.858   6.301   3.587
 1791SOL     OW 6271   6.900   0.686   2.717
 1791SOL    HW1 6272   6.878   0.780   2.692
 1791SOL    HW2 6273   6.955   0.644   2.644
 1792SOL     OW 6274   0.002   3.710   4.912
 1792SOL    HW1 6275   7.002   3.795   4.863
 1792SOL    HW2 6276   6.975   3.634   4.868
 1793SOL     OW 6277   5.986   0.233   3.967
 1793SOL    HW1 6278   5.988   0.298   3.891
 1793SOL    HW2 6279   6.035   0.150   3.940
 1794SOL     OW 6280   5.135   5.807   5.662
 1794SOL    HW1 6281   5.071   5.762   5.599
 1794SOL    HW2 6282   5.204   5.857   5.609
 1795SOL     OW 6283   0.851   2.736   1.089
 1795SOL    HW1 6284   0.928   2.710   1.147
 1795SOL    HW2 6285   0.822   2.829   1.112
 1796SOL     OW 6286   2.820   1.407   6.066
 1796SOL    HW1 6287   2.727   1.444   6.054
 1796SOL    HW2 6288   2.863   1.395   5.977
 1797SOL     OW 6289   1.387   0.203   0.009
 1797SOL    HW1 6290   1.289   0.196   7.012
 1797SOL    HW2 6291   1.401   0.228   0.105
 1798SOL     OW 6292   4.508   2.457   4.025
 1798SOL    HW1 6293   4.597   2.413   4.027
 1798SOL    HW2 6294   4.520   2.556   4.012
 1799SOL     OW 6295   0.062   2.634   4.336
 1799SOL    HW1 6296   0.152   2.648   4.379
 1799SOL    HW2 6297   0.046   2.705   4.268
 1800SOL     OW 6298   4.543   4.132   1.430
 1800SOL    HW1 6299   4.553   4.106   1.526
 1800SOL    HW2 6300   4.607   4.079   1.374
 1801SOL     OW 6301   0.554   0.424   2.294
 1801SOL    HW1 6302   0.477   0.369   2.324
 1801SOL    HW2 6303   0.608   0.372   2.227
 1802SOL     OW 6304   5.138   5.884   4.270
 1802SOL    HW1 6305   5.139   5.983   4.255
 1802SOL    HW2 6306   5.220   5.843   4.229
 1803SOL     OW 6307   0.399   5.469   6.981
 1803SOL    HW1 6308   0.339   5.495   6.906
 1803SOL    HW2 6309   0.439   5.552   7.021
 1804SOL     OW 6310   2.560   4.093   5.358
 1804SOL    HW1 6311   2.556   4.026   5.432
 1804SOL    HW2 6312   2.499   4.065   5.284
 1805SOL     OW 6313   5.084   3.521   6.140
 1805SOL    HW1 6314   5.071   3.479   6.230
 1805SOL    HW2 6315   5.002   3.507   6.085
 1806SOL     OW 6316   0.170   6.846   6.366
 1806SOL    HW1 6317   0.181   6.762   6.314
 1806SOL    HW2 6318   0.196   6.924   6.309
 1807SOL     OW 6319   5.363   2.807   4.704
 1807SOL    HW1 6320   5.280   2.863   4.706
 1807SOL    HW2 6321   5.395   2.791   4.797
 1808SOL     OW 6322   0.202   4.416   5.551
 1808SOL    HW1 6323   0.256   4.411   5.635
 1808SOL    HW2 6324   0.256   4.461   5.480
 1809SOL     OW 6325   2.563   2.176   5.369
 1809SOL    HW1 6326   2.592   2.211   5.458
 1809SOL    HW2 6327   2.637   2.191   5.303
 1810SOL     OW 6328   2.602   0.296   4.062
 1810SOL    HW1 6329   2.673   0.266   4.126
 1810SOL    HW2 6330   2.513   0.289   4.106
 1811SOL     OW 6331   5.782   5.913   3.468
 1811SOL    HW1 6332   5.715   5.875   3.403
 1811SOL    HW2 6333   5.734   5.955   3.544
 1812SOL     OW 6334   4.157   5.809   4.955
 1812SOL    HW1 6335   4.252   5.802   4.927
 1812SOL    HW2 6336   4.101   5.835   4.876
 1813SOL     OW 6337   5.804   4.128   0.868
 1813SOL    HW1 6338   5.766   4.050   0.916
 1813SOL    HW2 6339   5.903   4.126   0.872
 1814SOL     OW 6340   4.880   7.015   1.723
 1814SOL    HW1 6341   4.961   6.967   1.757
 1814SOL    HW2 6342   4.867   6.994   1.626
 1815SOL     OW 6343   0.581   2.044   2.265
 1815SOL    HW1 6344   0.677   2.023   2.280
 1815SOL    HW2 6345   0.537   1.968   2.218
 1816SOL     OW 6346   2.826   2.810   0.842
 1816SOL    HW1 6347   2.853   2.713   0.842
 1816SOL    HW2 6348   2.752   2.824   0.776
 1817SOL     OW 6349   1.649   6.337   2.338
 1817SOL    HW1 6350   1.737   6.294   2.320
 1817SOL    HW2 6351   1.653   6.434   2.313
 1818SOL     OW 6352   1.368   0.140   3.426
 1818SOL    HW1 6353   1.379   0.154   3.524
 1818SOL    HW2 6354   1.403   0.219   3.376
 1819SOL     OW 6355   1.252   4.390   2.010
 1819SOL    HW1 6356   1.268   4.379   1.912
 1819SOL    HW2 6357   1.178   4.330   2.040
 1820SOL     OW 6358   4.456   1.386   2.497
 1820SOL    HW1 6359   4.492   1.386   2.590
 1820SOL    HW2 6360   4.408   1.472   2.480
 1821SOL     OW 6361   2.252   1.194   2.646
 1821SOL    HW1 6362   2.183   1.173   2.716
 1821SOL    HW2 6363   2.274   1.291   2.650
 1822SOL     OW 6364   3.365   2.629   1.711
 1822SOL    HW1 6365   3.271   2.659   1.729
 1822SOL    HW2 6366   3.373   2.532   1.730
 1823SOL     OW 6367   4.016   6.316   3.138
 1823SOL    HW1 6368   4.062   6.402   3.116
 1823SOL    HW2 6369   4.011   6.259   3.056
 1824SOL     OW 6370   4.196   2.592   1.108
 1824SOL    HW1 6371   4.134   2.514   1.100
 1824SOL    HW2 6372   4.263   2.590   1.033
 1825SOL     OW 6373   0.777   0.434   1.792
 1825SOL    HW1 6374   0.820   0.520   1.815
 1825SOL    HW2 6375   0.829   0.358   1.831
 1826SOL     OW 6376   2.781   1.745   1.778
 1826SOL    HW1 6377   2.847   1.818   1.759
 1826SOL    HW2 6378   2.827   1.672   1.828
 1827SOL     OW 6379   0.004   4.830   2.069
 1827SOL    HW1 6380   7.012   4.926   2.045
 1827SOL    HW2 6381   0.096   4.817   2.105
 1828SOL     OW 6382   0.810   3.043   0.085
 1828SOL    HW1 6383   0.820   3.048   0.185
 1828SOL    HW2 6384   0.716   3.017   0.062
 1829SOL     OW 6385   5.094   6.437   3.341
 1829SOL    HW1 6386   5.058   6.507   3.279
 1829SOL    HW2 6387   5.182   6.404   3.307
 1830SOL     OW 6388   4.807   6.922   3.891
 1830SOL    HW1 6389   4.755   6.856   3.944
 1830SOL    HW2 6390   4.902   6.922   3.922
 1831SOL     OW 6391   6.057   6.762   2.623
 1831SOL    HW1 6392   6.002   6.686   2.586
 1831SOL    HW2 6393   6.151   6.753   2.592
 1832SOL     OW 6394   4.626   2.415   1.054
 1832SOL    HW1 6395   4.694   2.489   1.050
 1832SOL    HW2 6396   4.624   2.378   1.147
 1833SOL     OW 6397   5.356   6.912   4.669
 1833SOL    HW1 6398   5.447   6.951   4.661
 1833SOL    HW2 6399   5.353   6.825   4.619
 1834SOL     OW 6400   3.575   3.512   0.782
 1834SOL    HW1 6401   3.632   3.579   0.735
 1834SOL    HW2 6402   3.512   3.470   0.716
 1835SOL     OW 6403   1.647   4.149   1.279
 1835SOL    HW1 6404   1.692   4.084   1.218
 1835SOL    HW2 6405   1.671   4.128   1.374
 1836SOL     OW 6406   7.012   1.752   0.726
 1836SOL    HW1 6407   6.930   1.767   0.671
 1836SOL    HW2 6408   7.005   1.805   0.811
 1837SOL     OW 6409   1.073   2.459   4.328
 1837SOL    HW1 6410   1.046   2.390   4.395
 1837SOL    HW2 6411   1.070   2.418   4.236
 1838SOL     OW 6412   0.225   2.410   3.776
 1838SOL    HW1 6413   0.155   2.432   3.844
 1838SOL    HW2 6414   0.236   2.487   3.713
 1839SOL     OW 6415   5.490   3.033   4.945
 1839SOL    HW1 6416   5.402   3.065   4.911
 1839SOL    HW2 6417   5.562   3.097   4.916
 1840SOL     OW 6418   2.322   5.961   1.065
 1840SOL    HW1 6419   2.401   5.952   1.126
 1840SOL    HW2 6420   2.274   6.046   1.086
 1841SOL     OW 6421   2.208   3.901   4.396
 1841SOL    HW1 6422   2.297   3.865   4.424
 1841SOL    HW2 6423   2.144   3.892   4.473
 1842SOL     OW 6424   0.297   5.077   1.141
 1842SOL    HW1 6425   0.396   5.064   1.148
 1842SOL    HW2 6426   0.251   5.016   1.206
 1843SOL     OW 6427   1.737   2.308   5.447
 1843SOL    HW1 6428   1.824   2.262   5.432
 1843SOL    HW2 6429   1.744   2.404   5.420
 1844SOL     OW 6430   3.999   2.179   4.948
 1844SOL    HW1 6431   3.998   2.080   4.936
 1844SOL    HW2 6432   3.971   2.201   5.042
 1845SOL     OW 6433   2.975   0.269   6.576
 1845SOL    HW1 6434   2.879   0.271   6.603
 1845SOL    HW2 6435   3.028   0.326   6.639
 1846SOL     OW 6436   4.046   2.062   6.641
 1846SOL    HW1 6437   4.101   1.986   6.607
 1846SOL    HW2 6438   4.083   2.094   6.728
 1847SOL     OW 6439   0.732   0.900   0.083
 1847SOL    HW1 6440   0.749   0.940   7.015
 1847SOL    HW2 6441   0.788   0.817   0.094
 1848SOL     OW 6442   2.047   6.220   2.793
 1848SOL    HW1 6443   2.127   6.279   2.795
 1848SOL    HW2 6444   2.058   6.146   2.859
 1849SOL     OW 6445   4.213   0.729   0.168
 1849SOL    HW1 6446   4.208   0.733   0.069
 1849SOL    HW2 6447   4.285   0.790   0.201
 1850SOL     OW 6448   6.074   1.521   3.332
 1850SOL    HW1 6449   6.004   1.504   3.262
 1850SOL    HW2 6450   6.045   1.478   3.418
 1851SOL     OW 6451   0.387   1.517   1.517
 1851SOL    HW1 6452   0.425   1.487   1.604
 1851SOL    HW2 6453   0.294   1.481   1.507
 1852SOL     OW 6454   4.456   4.022   0.521
 1852SOL    HW1 6455   4.547   3.991   0.550
 1852SOL    HW2 6456   4.444   4.118   0.545
 1853SOL     OW 6457   0.895   3.763   1.456
 1853SOL    HW1 6458   0.924   3.765   1.551
 1853SOL    HW2 6459   0.938   3.838   1.406
 1854SOL     OW 6460   2.786   5.797   3.954
 1854SOL    HW1 6461   2.724   5.766   3.882
 1854SOL    HW2 6462   2.819   5.719   4.006
 1855SOL     OW 6463   5.193   5.452   0.446
 1855SOL    HW1 6464   5.134   5.432   0.368
 1855SOL    HW2 6465   5.199   5.371   0.505
 1856SOL     OW 6466   5.955   2.534   5.499
 1856SOL    HW1 6467   5.968   2.612   5.560
 1856SOL    HW2 6468   5.878   2.479   5.531
 1857SOL     OW 6469   4.600   1.003   4.530
 1857SOL    HW1 6470   4.614   0.961   4.620
 1857SOL    HW2 6471   4.664   0.963   4.464
 1858SOL     OW 6472   5.413   3.501   3.919
 1858SOL    HW1 6473   5.456   3.569   3.978
 1858SOL    HW2 6474   5.391   3.419   3.972
 1859SOL     OW 6475   4.222   2.302   3.556
 1859SOL    HW1 6476   4.217   2.206   3.528
 1859SOL    HW2 6477   4.317   2.326   3.576
 1860SOL     OW 6478   6.486   1.366   3.795
 1860SOL    HW1 6479   6.519   1.342   3.886
 1860SOL    HW2 6480   6.560   1.353   3.728
 1861SOL     OW 6481   4.825   6.458   1.810
 1861SOL    HW1 6482   4.728   6.475   1.827
 1861SOL    HW2 6483   4.878   6.488   1.890
 1862SOL     OW 6484   2.266   0.263   6.940
 1862SOL    HW1 6485   2.344   0.324   6.923
 1862SOL    HW2 6486   2.294   0.168   6.925
 1863SOL     OW 6487   2.741   2.193   0.940
 1863SOL    HW1 6488   2.712   2.130   0.868
 1863SOL    HW2 6489   2.742   2.145   1.028
 1864SOL     OW 6490   0.712   6.935   5.094
 1864SOL    HW1 6491   0.791   6.961   5.038
 1864SOL    HW2 6492   0.704   6.997   5.171
 1865SOL     OW 6493   3.670   1.506   5.676
 1865SOL    HW1 6494   3.575   1.536   5.668
 1865SOL    HW2 6495   3.692   1.491   5.772
 1866SOL     OW 6496   4.564   4.561   2.025
 1866SOL    HW1 6497   4.656   4.574   2.061
 1866SOL    HW2 6498   4.544   4.463   2.021
 1867SOL     OW 6499   0.163   4.239   0.344
 1867SOL    HW1 6500   0.064   4.232   0.332
 1867SOL    HW2 6501   0.189   4.189   0.427
 1868SOL     OW 6502   5.798   4.331   6.689
 1868SOL    HW1 6503   5.844   4.407   6.736
 1868SOL    HW2 6504   5.726   4.294   6.746
 1869SOL     OW 6505   6.722   2.447   5.081
 1869SOL    HW1 6506   6.722   2.358   5.127
 1869SOL    HW2 6507   6.817   2.478   5.069
 1870SOL     OW 6508   2.313   4.481   5.762
 1870SOL    HW1 6509   2.261   4.559   5.795
 1870SOL    HW2 6510   2.383   4.511   5.697
 1871SOL     OW 6511   1.838   6.890   1.053
 1871SOL    HW1 6512   1.931   6.923   1.032
 1871SOL    HW2 6513   1.774   6.966   1.045
 1872SOL     OW 6514   3.102   4.513   0.388
 1872SOL    HW1 6515   3.156   4.432   0.364
 1872SOL    HW2 6516   3.138   4.592   0.339
 1873SOL     OW 6517   4.002   0.854   5.420
 1873SOL    HW1 6518   3.956   0.943   5.422
 1873SOL    HW2 6519   4.002   0.820   5.326
 1874SOL     OW 6520   2.506   1.471   1.783
 1874SOL    HW1 6521   2.547   1.559   1.759
 1874SOL    HW2 6522   2.407   1.474   1.766
 1875SOL     OW 6523   0.624   0.068   6.507
 1875SOL    HW1 6524   0.688   0.035   6.438
 1875SOL    HW2 6525   0.656   0.040   6.598
 1876SOL     OW 6526   3.032   6.898   4.786
 1876SOL    HW1 6527   2.948   6.848   4.767
 1876SOL    HW2 6528   3.063   6.946   4.704
 1877SOL     OW 6529   0.805   0.647   3.993
 1877SOL    HW1 6530   0.832   0.552   4.004
 1877SOL    HW2 6531   0.724   0.665   4.048
 1878SOL     OW 6532   0.078   1.705   3.800
 1878SOL    HW1 6533   0.168   1.735   3.830
 1878SOL    HW2 6534   0.072   1.712   3.700
 1879SOL     OW 6535   1.301   3.480   4.380
 1879SOL    HW1 6536   1.279   3.383   4.381
 1879SOL    HW2 6537   1.396   3.492   4.348
 1880SOL     OW 6538   6.888   1.483   4.822
 1880SOL    HW1 6539   6.983   1.458   4.841
 1880SOL    HW2 6540   6.877   1.504   4.725
 1881SOL     OW 6541   6.048   2.053   1.264
 1881SOL    HW1 6542   6.110   1.994   1.315
 1881SOL    HW2 6543   6.083   2.146   1.264
 1882SOL     OW 6544   1.425   4.147   6.605
 1882SOL    HW1 6545   1.517   4.118   6.628
 1882SOL    HW2 6546   1.366   4.140   6.685
 1883SOL     OW 6547   6.337   2.334   2.112
 1883SOL    HW1 6548   6.332   2.252   2.170
 1883SOL    HW2 6549   6.433   2.363   2.104
 1884SOL     OW 6550   0.934   1.381   0.720
 1884SOL    HW1 6551   0.995   1.344   0.790
 1884SOL    HW2 6552   0.967   1.355   0.629
 1885SOL     OW 6553   1.952   1.906   5.652
 1885SOL    HW1 6554   2.032   1.903   5.592
 1885SOL    HW2 6555   1.963   1.839   5.726
 1886SOL     OW 6556   2.136   0.245   2.205
 1886SOL    HW1 6557   2.203   0.173   2.189
 1886SOL    HW2 6558   2.182   0.333   2.211
 1887SOL     OW 6559   0.972   5.537   5.929
 1887SOL    HW1 6560   0.981   5.488   5.842
 1887SOL    HW2 6561   1.019   5.487   6.001
 1888SOL     OW 6562   3.296   1.769   0.140
 1888SOL    HW1 6563   3.315   1.704   0.213
 1888SOL    HW2 6564   3.308   1.862   0.174
 1889SOL     OW 6565   0.933   3.898   4.148
 1889SOL    HW1 6566   0.840   3.910   4.113
 1889SOL    HW2 6567   0.930   3.849   4.235
 1890SOL     OW 6568   0.682   5.611   4.311
 1890SOL    HW1 6569   0.631   5.568   4.236
 1890SOL    HW2 6570   0.681   5.552   4.391
 1891SOL     OW 6571   4.116   3.163   1.682
 1891SOL    HW1 6572   4.071   3.245   1.719
 1891SOL    HW2 6573   4.049   3.089   1.676
 1892SOL     OW 6574   0.026   0.766   1.754
 1892SOL    HW1 6575   6.991   0.835   1.710
 1892SOL    HW2 6576   0.088   0.725   1.687
 1893SOL     OW 6577   3.805   3.082   2.146
 1893SOL    HW1 6578   3.813   3.084   2.245
 1893SOL    HW2 6579   3.851   3.000   2.110
 1894SOL     OW 6580   3.392   3.937   4.179
 1894SOL    HW1 6581   3.479   3.908   4.219
 1894SOL    HW2 6582   3.407   4.015   4.119
 1895SOL     OW 6583   4.337   0.207   1.058
 1895SOL    HW1 6584   4.288   0.288   1.092
 1895SOL    HW2 6585   4.323   0.199   0.960
 1896SOL     OW 6586   6.487   1.502   0.871
 1896SOL    HW1 6587   6.417   1.563   0.908
 1896SOL    HW2 6588   6.559   1.556   0.828
 1897SOL     OW 6589   1.492   5.253   2.244
 1897SOL    HW1 6590   1.430   5.331   2.252
 1897SOL    HW2 6591   1.486   5.215   2.152
 1898SOL     OW 6592   2.298   4.658   2.700
 1898SOL    HW1 6593   2.365   4.595   2.660
 1898SOL    HW2 6594   2.270   4.725   2.631
 1899SOL     OW 6595   0.585   0.525   0.848
 1899SOL    HW1 6596   0.651   0.539   0.922
 1899SOL    HW2 6597   0.629   0.540   0.760
 1900SOL     OW 6598   2.940   0.279   7.004
 1900SOL    HW1 6599   2.892   0.356   6.962
 1900SOL    HW2 6600   3.030   0.270   6.963
 1901SOL     OW 6601   2.587   2.734   1.091
 1901SOL    HW1 6602   2.550   2.653   1.045
 1901SOL    HW2 6603   2.612   2.710   1.185
 1902SOL     OW 6604   2.763   0.268   4.873
 1902SOL    HW1 6605   2.809   0.342   4.922
 1902SOL    HW2 6606   2.670   0.295   4.850
 1903SOL     OW 6607   0.733   3.145   3.570
 1903SOL    HW1 6608   0.746   3.046   3.572
 1903SOL    HW2 6609   0.822   3.191   3.576
 1904SOL     OW 6610   5.416   4.788   2.557
 1904SOL    HW1 6611   5.413   4.839   2.642
 1904SOL    HW2 6612   5.504   4.803   2.511
 1905SOL     OW 6613   0.697   0.385   3.720
 1905SOL    HW1 6614   0.729   0.432   3.637
 1905SOL    HW2 6615   0.619   0.434   3.758
 1906SOL     OW 6616   2.745   0.365   6.190
 1906SOL    HW1 6617   2.720   0.308   6.268
 1906SOL    HW2 6618   2.821   0.425   6.216
 1907SOL     OW 6619   4.625   2.718   0.812
 1907SOL    HW1 6620   4.543   2.674   0.849
 1907SOL    HW2 6621   4.705   2.689   0.865
 1908SOL     OW 6622   4.146   6.730   6.686
 1908SOL    HW1 6623   4.096   6.700   6.767
 1908SOL    HW2 6624   4.090   6.794   6.634
 1909SOL     OW 6625   0.128   3.067   3.858
 1909SOL    HW1 6626   0.196   3.137   3.879
 1909SOL    HW2 6627   0.148   3.027   3.769
 1910SOL     OW 6628   6.266   6.092   5.808
 1910SOL    HW1 6629   6.341   6.157   5.799
 1910SOL    HW2 6630   6.253   6.044   5.721
 1911SOL     OW 6631   0.140   4.601   4.252
 1911SOL    HW1 6632   0.076   4.667   4.212
 1911SOL    HW2 6633   0.191   4.645   4.326
 1912SOL     OW 6634   2.896   5.287   2.277
 1912SOL    HW1 6635   2.846   5.227   2.215
 1912SOL    HW2 6636   2.945   5.232   2.344
 1913SOL     OW 6637   2.165   5.901   4.908
 1913SOL    HW1 6638   2.166   5.813   4.861
 1913SOL    HW2 6639   2.130   5.889   5.001
 1914SOL     OW 6640   3.155   4.086   6.077
 1914SOL    HW1 6641   3.130   4.176   6.041
 1914SOL    HW2 6642   3.074   4.042   6.115
 1915SOL     OW 6643   4.339   2.968   6.522
 1915SOL    HW1 6644   4.270   3.031   6.486
 1915SOL    HW2 6645   4.425   2.979   6.472
 1916SOL     OW 6646   3.999   0.174   0.983
 1916SOL    HW1 6647   3.926   0.237   0.957
 1916SOL    HW2 6648   4.058   0.218   1.051
 1917SOL     OW 6649   2.574   4.448   0.382
 1917SOL    HW1 6650   2.592   4.357   0.343
 1917SOL    HW2 6651   2.514   4.499   0.320
 1918SOL     OW 6652   0.958   0.871   5.024
 1918SOL    HW1 6653   1.000   0.815   4.952
 1918SOL    HW2 6654   1.006   0.855   5.110
 1919SOL     OW 6655   1.725   1.876   1.112
 1919SOL    HW1 6656   1.796   1.813   1.144
 1919SOL    HW2 6657   1.660   1.893   1.186
 1920SOL     OW 6658   5.854   2.312   2.217
 1920SOL    HW1 6659   5.880   2.320   2.121
 1920SOL    HW2 6660   5.811   2.397   2.248
 1921SOL     OW 6661   1.698   2.431   0.474
 1921SOL    HW1 6662   1.661   2.523   0.471
 1921SOL    HW2 6663   1.668   2.380   0.393
 1922SOL     OW 6664   3.371   3.495   1.940
 1922SOL    HW1 6665   3.285   3.512   1.892
 1922SOL    HW2 6666   3.446   3.489   1.874
 1923SOL     OW 6667   5.283   0.197   6.418
 1923SOL    HW1 6668   5.185   0.183   6.406
 1923SOL    HW2 6669   5.307   0.292   6.398
 1924SOL     OW 6670   4.417   0.353   1.540
 1924SOL    HW1 6671   4.389   0.258   1.529
 1924SOL    HW2 6672   4.367   0.394   1.616
 1925SOL     OW 6673   1.223   4.061   1.196
 1925SOL    HW1 6674   1.252   3.978   1.148
 1925SOL    HW2 6675   1.301   4.101   1.243
 1926SOL     OW 6676   3.811   0.080   1.693
 1926SOL    HW1 6677   3.749   0.002   1.682
 1926SOL    HW2 6678   3.902   0.054   1.660
 1927SOL     OW 6679   2.083   4.599   1.194
 1927SOL    HW1 6680   2.057   4.667   1.262
 1927SOL    HW2 6681   2.026   4.517   1.205
 1928SOL     OW 6682   4.738   4.474   4.301
 1928SOL    HW1 6683   4.667   4.457   4.232
 1928SOL    HW2 6684   4.695   4.485   4.390
 1929SOL     OW 6685   3.130   0.892   2.710
 1929SOL    HW1 6686   3.210   0.945   2.683
 1929SOL    HW2 6687   3.154   0.795   2.715
 1930SOL     OW 6688   4.596   3.108   6.281
 1930SOL    HW1 6689   4.538   3.177   6.324
 1930SOL    HW2 6690   4.657   3.152   6.215
 1931SOL     OW 6691   0.761   1.535   6.209
 1931SOL    HW1 6692   0.688   1.602   6.221
 1931SOL    HW2 6693   0.760   1.502   6.115
 1932SOL     OW 6694   4.779   2.292   3.454
 1932SOL    HW1 6695   4.811   2.239   3.376
 1932SOL    HW2 6696   4.804   2.244   3.539
 1933SOL     OW 6697   0.526   2.051   6.938
 1933SOL    HW1 6698   0.553   2.124   7.001
 1933SOL    HW2 6699   0.578   1.968   6.959
 1934SOL     OW 6700   0.144   0.486   5.496
 1934SOL    HW1 6701   0.079   0.423   5.453
 1934SOL    HW2 6702   0.105   0.578   5.499
 1935SOL     OW 6703   5.033   4.565   3.219
 1935SOL    HW1 6704   5.031   4.547   3.317
 1935SOL    HW2 6705   4.991   4.654   3.201
 1936SOL     OW 6706   5.305   3.216   4.478
 1936SOL    HW1 6707   5.280   3.299   4.429
 1936SOL    HW2 6708   5.368   3.239   4.553
 1937SOL     OW 6709   4.907   5.533   6.561
 1937SOL    HW1 6710   4.952   5.445   6.576
 1937SOL    HW2 6711   4.976   5.603   6.540
 1938SOL     OW 6712   0.806   2.214   6.472
 1938SOL    HW1 6713   0.894   2.261   6.471
 1938SOL    HW2 6714   0.807   2.137   6.408
 1939SOL     OW 6715   0.845   5.566   5.069
 1939SOL    HW1 6716   0.819   5.499   5.139
 1939SOL    HW2 6717   0.931   5.610   5.095
 1940SOL     OW 6718   6.016   4.712   1.803
 1940SOL    HW1 6719   6.028   4.753   1.713
 1940SOL    HW2 6720   6.061   4.768   1.872
 1941SOL     OW 6721   0.838   3.013   3.905
 1941SOL    HW1 6722   0.754   3.049   3.864
 1941SOL    HW2 6723   0.834   3.024   4.005
 1942SOL     OW 6724   5.413   3.333   2.702
 1942SOL    HW1 6725   5.384   3.427   2.685
 1942SOL    HW2 6726   5.407   3.314   2.800
 1943SOL     OW 6727   1.414   1.208   2.148
 1943SOL    HW1 6728   1.348   1.144   2.188
 1943SOL    HW2 6729   1.378   1.242   2.061
 1944SOL     OW 6730   0.076   3.056   0.847
 1944SOL    HW1 6731   0.110   2.972   0.804
 1944SOL    HW2 6732   0.014   3.032   0.922
 1945SOL     OW 6733   3.991   6.605   0.666
 1945SOL    HW1 6734   4.067   6.605   0.730
 1945SOL    HW2 6735   3.988   6.693   0.618
 1946SOL     OW 6736   6.994   6.081   1.222
 1946SOL    HW1 6737   7.003   6.138   1.304
 1946SOL    HW2 6738   6.956   5.993   1.247
 1947SOL     OW 6739   5.694   3.975   3.335
 1947SOL    HW1 6740   5.691   4.002   3.239
 1947SOL    HW2 6741   5.648   3.887   3.347
 1948SOL     OW 6742   5.729   3.466   3.020
 1948SOL    HW1 6743   5.699   3.375   3.048
 1948SOL    HW2 6744   5.701   3.533   3.090
 1949SOL     OW 6745   4.109   4.409   0.730
 1949SOL    HW1 6746   4.182   4.458   0.779
 1949SOL    HW2 6747   4.045   4.476   0.691
 1950SOL     OW 6748   3.763   4.056   3.922
 1950SOL    HW1 6749   3.775   4.072   3.824
 1950SOL    HW2 6750   3.672   4.085   3.950
 1951SOL     OW 6751   6.609   4.692   5.743
 1951SOL    HW1 6752   6.682   4.653   5.799
 1951SOL    HW2 6753   6.538   4.623   5.729
 1952SOL     OW 6754   5.695   3.761   0.626
 1952SOL    HW1 6755   5.595   3.763   0.625
 1952SOL    HW2 6756   5.727   3.667   0.612
 1953SOL     OW 6757   0.599   1.488   6.445
 1953SOL    HW1 6758   0.581   1.547   6.524
 1953SOL    HW2 6759   0.695   1.498   6.417
 1954SOL     OW 6760   4.129   0.203   1.641
 1954SOL    HW1 6761   4.113   0.175   1.547
 1954SOL    HW2 6762   4.153   0.300   1.644
 1955SOL     OW 6763   0.988   1.558   2.168
 1955SOL    HW1 6764   0.971   1.653   2.142
 1955SOL    HW2 6765   1.006   1.504   2.086
 1956SOL     OW 6766   6.126   0.973   1.856
 1956SOL    HW1 6767   6.063   0.927   1.793
 1956SOL    HW2 6768   6.145   0.913   1.934
 1957SOL     OW 6769   5.396   2.386   3.990
 1957SOL    HW1 6770   5.482   2.377   3.939
 1957SOL    HW2 6771   5.393   2.476   4.034
 1958SOL     OW 6772   4.505   1.530   0.654
 1958SOL    HW1 6773   4.457   1.613   0.684
 1958SOL    HW2 6774   4.506   1.526   0.555
 1959SOL     OW 6775   6.909   7.014   3.831
 1959SOL    HW1 6776   6.855   6.974   3.757
 1959SOL    HW2 6777   6.964   6.943   3.875
 1960SOL     OW 6778   5.872   3.116   3.143
 1960SOL    HW1 6779   5.843   3.076   3.056
 1960SOL    HW2 6780   5.954   3.172   3.128
 1961SOL     OW 6781   6.361   4.330   5.269
 1961SOL    HW1 6782   6.291   4.300   5.335
 1961SOL    HW2 6783   6.371   4.261   5.198
 1962SOL     OW 6784   1.218   6.875   3.083
 1962SOL    HW1 6785   1.281   6.835   3.017
 1962SOL    HW2 6786   1.142   6.918   3.034
 1963SOL     OW 6787   1.114   1.923   1.653
 1963SOL    HW1 6788   1.129   1.840   1.599
 1963SOL    HW2 6789   1.172   1.921   1.734
 1964SOL     OW 6790   5.674   4.536   1.693
 1964SOL    HW1 6791   5.588   4.506   1.734
 1964SOL    HW2 6792   5.750   4.504   1.750
 1965SOL     OW 6793   0.483   4.600   4.330
 1965SOL    HW1 6794   0.385   4.583   4.317
 1965SOL    HW2 6795   0.535   4.524   4.292
 1966SOL     OW 6796   1.747   4.738   1.129
 1966SOL    HW1 6797   1.659   4.723   1.173
 1966SOL    HW2 6798   1.815   4.762   1.198
 1967SOL     OW 6799   6.286   2.721   3.376
 1967SOL    HW1 6800   6.273   2.810   3.334
 1967SOL    HW2 6801   6.314   2.733   3.472
 1968SOL     OW 6802   2.201   1.560   5.622
 1968SOL    HW1 6803   2.286   1.509   5.633
 1968SOL    HW2 6804   2.133   1.502   5.577
 1969SOL     OW 6805   3.043   6.987   1.053
 1969SOL    HW1 6806   3.021   6.890   1.040
 1969SOL    HW2 6807   3.134   6.995   1.093
 1970SOL     OW 6808   6.749   5.460   4.747
 1970SOL    HW1 6809   6.788   5.547   4.719
 1970SOL    HW2 6810   6.749   5.453   4.847
 1971SOL     OW 6811   1.507   6.830   5.467
 1971SOL    HW1 6812   1.604   6.850   5.456
 1971SOL    HW2 6813   1.462   6.833   5.378
 1972SOL     OW 6814   6.211   2.361   1.410
 1972SOL    HW1 6815   6.113   2.349   1.397
 1972SOL    HW2 6816   6.235   2.458   1.402
 1973SOL     OW 6817   2.252   4.084   0.644
 1973SOL    HW1 6818   2.296   4.174   0.645
 1973SOL    HW2 6819   2.241   4.052   0.738
 1974SOL     OW 6820   3.881   6.724   4.921
 1974SOL    HW1 6821   3.901   6.781   5.002
 1974SOL    HW2 6822   3.895   6.628   4.944
 1975SOL     OW 6823   1.833   3.528   2.961
 1975SOL    HW1 6824   1.809   3.457   3.027
 1975SOL    HW2 6825   1.931   3.524   2.941
 1976SOL     OW 6826   6.770   0.241   6.131
 1976SOL    HW1 6827   6.717   0.326   6.132
 1976SOL    HW2 6828   6.770   0.200   6.222
 1977SOL     OW 6829   1.980   4.097   6.972
 1977SOL    HW1 6830   1.885   4.090   6.942
 1977SOL    HW2 6831   2.041   4.090   6.893
 1978SOL     OW 6832   2.511   6.766   2.516
 1978SOL    HW1 6833   2.459   6.836   2.565
 1978SOL    HW2 6834   2.609   6.781   2.532
 1979SOL     OW 6835   5.931   5.545   6.532
 1979SOL    HW1 6836   5.893   5.566   6.442
 1979SOL    HW2 6837   5.865   5.491   6.584
 1980SOL     OW 6838   2.908   1.521   1.888
 1980SOL    HW1 6839   2.860   1.450   1.836
 1980SOL    HW2 6840   2.980   1.479   1.943
 1981SOL     OW 6841   4.609   2.629   3.088
 1981SOL    HW1 6842   4.643   2.672   3.172
 1981SOL    HW2 6843   4.520   2.588   3.105
 1982SOL     OW 6844   6.622   3.060   3.685
 1982SOL    HW1 6845   6.603   3.032   3.779
 1982SOL    HW2 6846   6.681   3.140   3.684
 1983SOL     OW 6847   7.015   0.386   0.948
 1983SOL    HW1 6848   0.088   0.369   0.973
 1983SOL    HW2 6849   6.954   0.338   1.012
 1984SOL     OW 6850   5.995   2.858   5.234
 1984SOL    HW1 6851   6.006   2.870   5.135
 1984SOL    HW2 6852   5.916   2.800   5.252
 1985SOL     OW 6853   6.531   4.749   2.080
 1985SOL    HW1 6854   6.601   4.762   2.151
 1985SOL    HW2 6855   6.480   4.665   2.097
 1986SOL     OW 6856   3.354   1.540   0.284
 1986SOL    HW1 6857   3.401   1.475   0.344
 1986SOL    HW2 6858   3.278   1.493   0.238
 1987SOL     OW 6859   1.598   0.524   3.614
 1987SOL    HW1 6860   1.593   0.623   3.603
 1987SOL    HW2 6861   1.516   0.482   3.575
 1988SOL     OW 6862   6.952   2.319   0.945
 1988SOL    HW1 6863   6.962   2.311   0.846
 1988SOL    HW2 6864   7.018   2.260   0.991
 1989SOL     OW 6865   2.952   4.953   5.614
 1989SOL    HW1 6866   2.906   4.901   5.542
 1989SOL    HW2 6867   3.050   4.932   5.613
 1990SOL     OW 6868   3.560   0.826   0.085
 1990SOL    HW1 6869   3.599   0.867   0.167
 1990SOL    HW2 6870   3.469   0.791   0.105
 1991SOL     OW 6871   3.108   5.533   0.542
 1991SOL    HW1 6872   3.010   5.543   0.523
 1991SOL    HW2 6873   3.160   5.592   0.481
 1992SOL     OW 6874   0.369   6.359   0.103
 1992SOL    HW1 6875   0.285   6.305   0.091
 1992SOL    HW2 6876   0.364   6.409   0.190
 1993SOL     OW 6877   1.858   3.274   4.351
 1993SOL    HW1 6878   1.791   3.212   4.392
 1993SOL    HW2 6879   1.888   3.340   4.419
 1994SOL     OW 6880   3.367   3.375   0.270
 1994SOL    HW1 6881   3.385   3.434   0.192
 1994SOL    HW2 6882   3.447   3.373   0.330
 1995SOL     OW 6883   5.596   2.277   4.665
 1995SOL    HW1 6884   5.579   2.247   4.571
 1995SOL    HW2 6885   5.560   2.208   4.729
 1996SOL     OW 6886   3.950   1.667   0.927
 1996SOL    HW1 6887   3.865   1.686   0.976
 1996SOL    HW2 6888   4.004   1.602   0.980
 1997SOL     OW 6889   3.213   1.534   3.868
 1997SOL    HW1 6890   3.236   1.500   3.959
 1997SOL    HW2 6891   3.122   1.502   3.842
 1998SOL     OW 6892   1.032   3.037   1.576
 1998SOL    HW1 6893   0.979   3.022   1.492
 1998SOL    HW2 6894   0.969   3.057   1.652
 1999SOL     OW 6895   0.878   0.217   5.435
 1999SOL    HW1 6896   0.917   0.230   5.344
 1999SOL    HW2 6897   0.927   0.273   5.501
 2000SOL     OW 6898   3.751   3.924   6.795
 2000SOL    HW1 6899   3.783   3.892   6.884
 2000SOL    HW2 6900   3.652   3.910   6.788
 2001SOL     OW 6901   1.892   1.365   6.617
 2001SOL    HW1 6902   1.927   1.438   6.558
 2001SOL    HW2 6903   1.962   1.295   6.628
 2002SOL     OW 6904   6.665   5.733   0.990
 2002SOL    HW1 6905   6.662   5.806   0.921
 2002SOL    HW2 6906   6.715   5.654   0.953
 2003SOL     OW 6907   6.139   5.022   2.274
 2003SOL    HW1 6908   6.236   5.039   2.257
 2003SOL    HW2 6909   6.084   5.092   2.228
 2004SOL     OW 6910   3.539   0.853   3.613
 2004SOL    HW1 6911   3.483   0.825   3.691
 2004SOL    HW2 6912   3.605   0.781   3.591
 2005SOL     OW 6913   1.020   6.102   0.593
 2005SOL    HW1 6914   1.078   6.093   0.512
 2005SOL    HW2 6915   0.950   6.171   0.576
 2006SOL     OW 6916   5.173   6.896   3.326
 2006SOL    HW1 6917   5.116   6.828   3.280
 2006SOL    HW2 6918   5.132   6.920   3.414
 2007SOL     OW 6919   5.430   4.486   0.327
 2007SOL    HW1 6920   5.440   4.390   0.352
 2007SOL    HW2 6921   5.339   4.518   0.356
 2008SOL     OW 6922   2.269   4.118   3.657
 2008SOL    HW1 6923   2.174   4.140   3.682
 2008SOL    HW2 6924   2.312   4.068   3.732
 2009SOL     OW 6925   6.516   6.233   1.786
 2009SOL    HW1 6926   6.514   6.220   1.885
 2009SOL    HW2 6927   6.504   6.145   1.741
 2010SOL     OW 6928   1.374   2.402   1.824
 2010SOL    HW1 6929   1.339   2.434   1.735
 2010SOL    HW2 6930   1.466   2.439   1.838
 2011SOL     OW 6931   6.868   6.162   5.397
 2011SOL    HW1 6932   6.930   6.130   5.325
 2011SOL    HW2 6933   6.887   6.112   5.482
 2012SOL     OW 6934   1.524   3.156   2.693
 2012SOL    HW1 6935   1.450   3.197   2.745
 2012SOL    HW2 6936   1.610   3.166   2.742
 2013SOL     OW 6937   0.863   3.256   3.285
 2013SOL    HW1 6938   0.876   3.295   3.376
 2013SOL    HW2 6939   0.944   3.204   3.259
 2014SOL     OW 6940   2.880   0.497   3.716
 2014SOL    HW1 6941   2.954   0.433   3.695
 2014SOL    HW2 6942   2.916   0.571   3.774
 2015SOL     OW 6943   3.775   0.803   1.971
 2015SOL    HW1 6944   3.809   0.802   2.065
 2015SOL    HW2 6945   3.690   0.749   1.966
 2016SOL     OW 6946   2.119   0.273   6.197
 2016SOL    HW1 6947   2.045   0.214   6.163
 2016SOL    HW2 6948   2.085   0.367   6.205
 2017SOL     OW 6949   4.122   6.942   2.571
 2017SOL    HW1 6950   4.133   6.865   2.633
 2017SOL    HW2 6951   4.207   6.957   2.521
 2018SOL     OW 6952   0.416   1.710   3.178
 2018SOL    HW1 6953   0.431   1.617   3.212
 2018SOL    HW2 6954   0.452   1.776   3.245
 2019SOL     OW 6955   6.426   4.669   6.076
 2019SOL    HW1 6956   6.338   4.626   6.097
 2019SOL    HW2 6957   6.411   4.765   6.052
 2020SOL     OW 6958   1.629   6.433   6.131
 2020SOL    HW1 6959   1.587   6.407   6.044
 2020SOL    HW2 6960   1.573   6.504   6.174
 2021SOL     OW 6961   6.082   6.199   3.140
 2021SOL    HW1 6962   6.071   6.190   3.041
 2021SOL    HW2 6963   6.046   6.116   3.184
 2022SOL     OW 6964   2.247   4.344   5.355
 2022SOL    HW1 6965   2.338   4.361   5.318
 2022SOL    HW2 6966   2.202   4.273   5.302
 2023SOL     OW 6967   6.985   6.887   6.852
 2023SOL    HW1 6968   6.923   6.932   6.916
 2023SOL    HW2 6969   7.019   6.802   6.894
 2024SOL     OW 6970   0.672   5.508   4.554
 2024SOL    HW1 6971   0.734   5.583   4.575
 2024SOL    HW2 6972   0.608   5.495   4.629
 2025SOL     OW 6973   2.487   0.361   4.902
 2025SOL    HW1 6974   2.416   0.291   4.909
 2025SOL    HW2 6975   2.475   0.428   4.975
 2026SOL     OW 6976   5.909   1.035   6.062
 2026SOL    HW1 6977   5.977   1.108   6.059
 2026SOL    HW2 6978   5.818   1.075   6.045
 2027SOL     OW 6979   0.743   6.028   2.486
 2027SOL    HW1 6980   0.758   5.963   2.560
 2027SOL    HW2 6981   0.651   6.067   2.493
 2028SOL     OW 6982   4.039   5.800   2.631
 2028SOL    HW1 6983   4.060   5.870   2.699
 2028SOL    HW2 6984   4.117   5.739   2.621
 2029SOL     OW 6985   6.590   2.901   6.154
 2029SOL    HW1 6986   6.607   2.915   6.252
 2029SOL    HW2 6987   6.677   2.902   6.105
 2030SOL     OW 6988   2.685   6.243   3.179
 2030SOL    HW1 6989   2.738   6.160   3.201
 2030SOL    HW2 6990   2.689   6.306   3.257
 2031SOL     OW 6991   6.658   5.537   2.919
 2031SOL    HW1 6992   6.713   5.458   2.948
 2031SOL    HW2 6993   6.562   5.519   2.936
 2032SOL     OW 6994   3.128   1.684   6.286
 2032SOL    HW1 6995   3.151   1.659   6.380
 2032SOL    HW2 6996   3.199   1.652   6.224
 2033SOL     OW 6997   2.076   1.462   1.091
 2033SOL    HW1 6998   2.090   1.542   1.150
 2033SOL    HW2 6999   2.113   1.481   1.001
 2034SOL     OW 7000   0.602   4.831   5.999
 2034SOL    HW1 7001   0.667   4.755   5.990
 2034SOL    HW2 7002   0.584   4.870   5.908
 2035SOL     OW 7003   5.682   0.257   2.473
 2035SOL    HW1 7004   5.742   0.178   2.457
 2035SOL    HW2 7005   5.669   0.307   2.387
 2036SOL     OW 7006   0.740   3.614   2.154
 2036SOL    HW1 7007   0.803   3.627   2.231
 2036SOL    HW2 7008   0.652   3.657   2.175
 2037SOL     OW 7009   0.497   3.058   6.266
 2037SOL    HW1 7010   0.530   3.149   6.287
 2037SOL    HW2 7011   0.452   3.019   6.346
 2038SOL     OW 7012   2.251   1.719   0.411
 2038SOL    HW1 7013   2.225   1.632   0.368
 2038SOL    HW2 7014   2.173   1.758   0.458
 2039SOL     OW 7015   6.557   6.074   2.389
 2039SOL    HW1 7016   6.558   5.991   2.446
 2039SOL    HW2 7017   6.623   6.063   2.314
 2040SOL     OW 7018   2.585   3.024   6.961
 2040SOL    HW1 7019   2.497   3.004   7.003
 2040SOL    HW2 7020   2.620   3.110   6.998
 2041SOL     OW 7021   1.831   0.204   6.643
 2041SOL    HW1 7022   1.739   0.184   6.607
 2041SOL    HW2 7023   1.823   0.232   6.739
 2042SOL     OW 7024   5.112   1.018   5.555
 2042SOL    HW1 7025   5.045   1.050   5.487
 2042SOL    HW2 7026   5.077   1.036   5.647
 2043SOL     OW 7027   6.633   3.695   1.330
 2043SOL    HW1 7028   6.684   3.780   1.341
 2043SOL    HW2 7029   6.696   3.621   1.309
 2044SOL     OW 7030   4.993   0.813   0.753
 2044SOL    HW1 7031   4.909   0.776   0.793
 2044SOL    HW2 7032   5.011   0.767   0.666
 2045SOL     OW 7033   1.656   6.447   6.524
 2045SOL    HW1 7034   1.729   6.475   6.462
 2045SOL    HW2 7035   1.694   6.391   6.597
 2046SOL     OW 7036   0.946   2.325   5.129
 2046SOL    HW1 7037   0.904   2.376   5.055
 2046SOL    HW2 7038   1.021   2.378   5.169
 2047SOL     OW 7039   6.597   1.604   6.842
 2047SOL    HW1 7040   6.520   1.661   6.815
 2047SOL    HW2 7041   6.678   1.661   6.857
 2048SOL     OW 7042   1.113   1.363   4.350
 2048SOL    HW1 7043   1.203   1.407   4.352
 2048SOL    HW2 7044   1.105   1.308   4.267
 2049SOL     OW 7045   4.737   1.567   4.752
 2049SOL    HW1 7046   4.815   1.571   4.689
 2049SOL    HW2 7047   4.739   1.647   4.812
 2050SOL     OW 7048   0.693   1.322   3.959
 2050SOL    HW1 7049   0.597   1.338   3.982
 2050SOL    HW2 7050   0.743   1.409   3.960
 2051SOL     OW 7051   3.364   6.111   1.095
 2051SOL    HW1 7052   3.458   6.076   1.091
 2051SOL    HW2 7053   3.301   6.033   1.105
 2052SOL     OW 7054   1.392   4.213   6.927
 2052SOL    HW1 7055   1.416   4.228   0.001
 2052SOL    HW2 7056   1.338   4.291   6.893
 2053SOL     OW 7057   0.729   5.285   3.965
 2053SOL    HW1 7058   0.709   5.248   3.875
 2053SOL    HW2 7059   0.722   5.212   4.033
 2054SOL     OW 7060   3.313   3.253   3.688
 2054SOL    HW1 7061   3.231   3.202   3.714
 2054SOL    HW2 7062   3.385   3.238   3.756
 2055SOL     OW 7063   2.525   2.089   5.815
 2055SOL    HW1 7064   2.430   2.119   5.827
 2055SOL    HW2 7065   2.527   1.995   5.781
 2056SOL     OW 7066   3.961   4.675   0.972
 2056SOL    HW1 7067   4.020   4.755   0.954
 2056SOL    HW2 7068   3.867   4.706   0.982
 2057SOL     OW 7069   5.917   2.405   4.584
 2057SOL    HW1 7070   5.851   2.373   4.652
 2057SOL    HW2 7071   5.939   2.501   4.602
 2058SOL     OW 7072   0.612   5.892   3.489
 2058SOL    HW1 7073   0.528   5.872   3.538
 2058SOL    HW2 7074   0.631   5.990   3.495
 2059SOL     OW 7075   1.914   0.137   6.094
 2059SOL    HW1 7076   1.899   0.124   5.996
 2059SOL    HW2 7077   1.832   0.176   6.136
 2060SOL     OW 7078   1.022   3.414   6.982
 2060SOL    HW1 7079   1.012   3.478   6.907
 2060SOL    HW2 7080   0.999   3.321   6.952
 2061SOL     OW 7081   2.199   2.257   2.664
 2061SOL    HW1 7082   2.165   2.166   2.639
 2061SOL    HW2 7083   2.296   2.251   2.688
 2062SOL     OW 7084   6.585   5.024   5.189
 2062SOL    HW1 7085   6.489   5.033   5.163
 2062SOL    HW2 7086   6.631   4.961   5.125
 2063SOL     OW 7087   1.652   1.172   5.083
 2063SOL    HW1 7088   1.639   1.167   4.984
 2063SOL    HW2 7089   1.672   1.267   5.109
 2064SOL     OW 7090   0.311   3.119   3.622
 2064SOL    HW1 7091   0.354   3.205   3.649
 2064SOL    HW2 7092   0.339   3.096   3.529
 2065SOL     OW 7093   4.536   2.456   5.824
 2065SOL    HW1 7094   4.626   2.499   5.824
 2065SOL    HW2 7095   4.466   2.525   5.808
 2066SOL     OW 7096   6.261   3.057   5.122
 2066SOL    HW1 7097   6.203   3.103   5.189
 2066SOL    HW2 7098   6.210   2.982   5.080
 2067SOL     OW 7099   6.617   4.918   0.940
 2067SOL    HW1 7100   6.689   4.968   0.892
 2067SOL    HW2 7101   6.536   4.912   0.881
 2068SOL     OW 7102   3.949   0.560   4.052
 2068SOL    HW1 7103   3.976   0.640   4.106
 2068SOL    HW2 7104   4.031   0.515   4.017
 2069SOL     OW 7105   0.442   2.363   4.026
 2069SOL    HW1 7106   0.460   2.431   4.097
 2069SOL    HW2 7107   0.343   2.350   4.017
 2070SOL     OW 7108   0.768   4.478   2.073
 2070SOL    HW1 7109   0.806   4.562   2.036
 2070SOL    HW2 7110   0.699   4.443   2.010
 2071SOL     OW 7111   6.458   1.669   6.408
 2071SOL    HW1 7112   6.447   1.570   6.401
 2071SOL    HW2 7113   6.539   1.697   6.357
 2072SOL     OW 7114   3.921   4.776   5.598
 2072SOL    HW1 7115   3.923   4.706   5.527
 2072SOL    HW2 7116   3.827   4.805   5.614
 2073SOL     OW 7117   3.432   6.210   0.275
 2073SOL    HW1 7118   3.396   6.188   0.366
 2073SOL    HW2 7119   3.477   6.129   0.237
 2074SOL     OW 7120   1.209   3.884   5.393
 2074SOL    HW1 7121   1.242   3.941   5.467
 2074SOL    HW2 7122   1.131   3.928   5.348
 2075SOL     OW 7123   6.818   1.752   1.686
 2075SOL    HW1 7124   6.745   1.684   1.670
 2075SOL    HW2 7125   6.789   1.841   1.650
 2076SOL     OW 7126   5.398   6.391   4.514
 2076SOL    HW1 7127   5.463   6.389   4.591
 2076SOL    HW2 7128   5.324   6.325   4.531
 2077SOL     OW 7129   6.970   3.844   1.125
 2077SOL    HW1 7130   6.876   3.826   1.096
 2077SOL    HW2 7131   6.973   3.926   1.182
 2078SOL     OW 7132   1.641   3.418   5.893
 2078SOL    HW1 7133   1.633   3.515   5.871
 2078SOL    HW2 7134   1.642   3.407   5.993
 2079SOL     OW 7135   5.157   2.079   1.859
 2079SOL    HW1 7136   5.157   1.981   1.845
 2079SOL    HW2 7137   5.222   2.102   1.932
 2080SOL     OW 7138   2.514   2.889   5.710
 2080SOL    HW1 7139   2.541   2.899   5.614
 2080SOL    HW2 7140   2.419   2.919   5.721
 2081SOL     OW 7141   6.658   0.435   3.361
 2081SOL    HW1 7142   6.558   0.441   3.371
 2081SOL    HW2 7143   6.681   0.359   3.301
 2082SOL     OW 7144   0.162   6.204   2.437
 2082SOL    HW1 7145   0.170   6.292   2.390
 2082SOL    HW2 7146   0.091   6.149   2.393
 2083SOL     OW 7147   6.822   6.127   4.390
 2083SOL    HW1 7148   6.782   6.035   4.387
 2083SOL    HW2 7149   6.748   6.194   4.391
 2084SOL     OW 7150   0.335   2.632   1.951
 2084SOL    HW1 7151   0.402   2.694   1.990
 2084SOL    HW2 7152   0.335   2.546   2.003
 2085SOL     OW 7153   5.358   5.434   0.794
 2085SOL    HW1 7154   5.432   5.462   0.732
 2085SOL    HW2 7155   5.330   5.341   0.773
 2086SOL     OW 7156   4.385   0.162   6.787
 2086SOL    HW1 7157   4.379   0.066   6.759
 2086SOL    HW2 7158   4.463   0.174   6.849
 2087SOL     OW 7159   3.935   2.296   6.529
 2087SOL    HW1 7160   3.969   2.211   6.570
 2087SOL    HW2 7161   4.005   2.334   6.468
 2088SOL     OW 7162   0.256   6.027   5.005
 2088SOL    HW1 7163   0.266   5.941   5.055
 2088SOL    HW2 7164   0.317   6.096   5.044
 2089SOL     OW 7165   3.371   3.514   6.732
 2089SOL    HW1 7166   3.405   3.515   6.826
 2089SOL    HW2 7167   3.296   3.580   6.723
 2090SOL     OW 7168   4.287   3.401   5.246
 2090SOL    HW1 7169   4.204   3.411   5.190
 2090SOL    HW2 7170   4.367   3.422   5.190
 2091SOL     OW 7171   5.988   5.623   1.761
 2091SOL    HW1 7172   5.912   5.674   1.720
 2091SOL    HW2 7173   6.069   5.682   1.766
 2092SOL     OW 7174   4.513   3.834   1.328
 2092SOL    HW1 7175   4.598   3.885   1.323
 2092SOL    HW2 7176   4.532   3.738   1.351
 2093SOL     OW 7177   3.726   2.095   2.980
 2093SOL    HW1 7178   3.785   2.145   2.917
 2093SOL    HW2 7179   3.634   2.086   2.940
 2094SOL     OW 7180   5.464   2.401   6.145
 2094SOL    HW1 7181   5.412   2.486   6.136
 2094SOL    HW2 7182   5.457   2.367   6.238
 2095SOL     OW 7183   5.071   6.322   3.793
 2095SOL    HW1 7184   5.068   6.330   3.694
 2095SOL    HW2 7185   5.153   6.273   3.821
 2096SOL     OW 7186   4.651   6.619   2.806
 2096SOL    HW1 7187   4.618   6.532   2.768
 2096SOL    HW2 7188   4.580   6.688   2.795
 2097SOL     OW 7189   1.337   5.258   6.483
 2097SOL    HW1 7190   1.338   5.169   6.437
 2097SOL    HW2 7191   1.244   5.295   6.485
 2098SOL     OW 7192   2.885   6.481   3.072
 2098SOL    HW1 7193   2.893   6.514   2.978
 2098SOL    HW2 7194   2.977   6.461   3.108
 2099SOL     OW 7195   5.562   1.310   0.147
 2099SOL    HW1 7196   5.531   1.253   0.223
 2099SOL    HW2 7197   5.652   1.279   0.117
 2100SOL     OW 7198   5.357   0.800   1.312
 2100SOL    HW1 7199   5.456   0.810   1.306
 2100SOL    HW2 7200   5.323   0.758   1.228
 2101SOL     OW 7201   0.130   6.594   1.943
 2101SOL    HW1 7202   0.032   6.576   1.946
 2101SOL    HW2 7203   0.148   6.687   1.974
 2102SOL     OW 7204   3.390   3.477   0.591
 2102SOL    HW1 7205   3.388   3.574   0.570
 2102SOL    HW2 7206   3.311   3.454   0.649
 2103SOL     OW 7207   2.890   5.940   0.817
 2103SOL    HW1 7208   2.964   6.002   0.838
 2103SOL    HW2 7209   2.856   5.957   0.724
 2104SOL     OW 7210   1.281   5.170   2.818
 2104SOL    HW1 7211   1.381   5.181   2.816
 2104SOL    HW2 7212   1.259   5.073   2.828
 2105SOL     OW 7213   5.644   3.811   6.295
 2105SOL    HW1 7214   5.714   3.877   6.269
 2105SOL    HW2 7215   5.681   3.718   6.284
 2106SOL     OW 7216   5.102   3.617   1.885
 2106SOL    HW1 7217   5.062   3.577   1.967
 2106SOL    HW2 7218   5.202   3.615   1.893
 2107SOL     OW 7219   5.554   3.796   5.519
 2107SOL    HW1 7220   5.488   3.867   5.545
 2107SOL    HW2 7221   5.506   3.709   5.508
 2108SOL     OW 7222   5.787   6.970   5.783
 2108SOL    HW1 7223   5.717   0.009   5.821
 2108SOL    HW2 7224   5.811   7.000   5.691
 2109SOL     OW 7225   2.290   5.707   3.291
 2109SOL    HW1 7226   2.303   5.803   3.267
 2109SOL    HW2 7227   2.353   5.651   3.237
 2110SOL     OW 7228   4.416   0.193   6.493
 2110SOL    HW1 7229   4.326   0.174   6.455
 2110SOL    HW2 7230   4.407   0.212   6.591
 2111SOL     OW 7231   1.272   2.437   5.898
 2111SOL    HW1 7232   1.266   2.505   5.971
 2111SOL    HW2 7233   1.192   2.446   5.838
 2112SOL     OW 7234   0.162   1.392   0.498
 2112SOL    HW1 7235   0.064   1.390   0.519
 2112SOL    HW2 7236   0.189   1.303   0.461
 2113SOL     OW 7237   1.260   0.115   4.780
 2113SOL    HW1 7238   1.268   0.208   4.745
 2113SOL    HW2 7239   1.222   0.056   4.709
 2114SOL     OW 7240   1.901   2.312   6.588
 2114SOL    HW1 7241   1.872   2.317   6.683
 2114SOL    HW2 7242   1.895   2.402   6.545
 2115SOL     OW 7243   6.444   5.866   3.295
 2115SOL    HW1 7244   6.408   5.958   3.280
 2115SOL    HW2 7245   6.395   5.824   3.371
 2116SOL     OW 7246   0.592   2.576   6.825
 2116SOL    HW1 7247   0.687   2.607   6.824
 2116SOL    HW2 7248   0.558   2.571   6.732
 2117SOL     OW 7249   6.123   1.286   1.859
 2117SOL    HW1 7250   6.064   1.304   1.938
 2117SOL    HW2 7251   6.143   1.188   1.854
 2118SOL     OW 7252   6.327   2.618   2.113
 2118SOL    HW1 7253   6.352   2.632   2.209
 2118SOL    HW2 7254   6.302   2.522   2.100
 2119SOL     OW 7255   3.164   0.767   0.075
 2119SOL    HW1 7256   3.184   0.779   0.172
 2119SOL    HW2 7257   3.229   0.702   0.036
 2120SOL     OW 7258   5.844   1.593   0.643
 2120SOL    HW1 7259   5.910   1.524   0.673
 2120SOL    HW2 7260   5.878   1.684   0.667
 2121SOL     OW 7261   1.315   0.537   6.563
 2121SOL    HW1 7262   1.328   0.470   6.636
 2121SOL    HW2 7263   1.282   0.623   6.602
 2122SOL     OW 7264   6.072   0.952   4.714
 2122SOL    HW1 7265   6.167   0.954   4.747
 2122SOL    HW2 7266   6.047   0.859   4.690
 2123SOL     OW 7267   1.472   5.890   3.543
 2123SOL    HW1 7268   1.411   5.811   3.547
 2123SOL    HW2 7269   1.417   5.974   3.534
 2124SOL     OW 7270   3.761   3.338   5.805
 2124SOL    HW1 7271   3.668   3.302   5.813
 2124SOL    HW2 7272   3.760   3.416   5.741
 2125SOL     OW 7273   1.210   5.900   3.747
 2125SOL    HW1 7274   1.277   5.847   3.696
 2125SOL    HW2 7275   1.133   5.841   3.772
 2126SOL     OW 7276   3.573   4.346   6.894
 2126SOL    HW1 7277   3.578   4.253   6.857
 2126SOL    HW2 7278   3.479   4.366   6.920
 2127SOL     OW 7279   0.539   2.426   5.162
 2127SOL    HW1 7280   0.540   2.516   5.206
 2127SOL    HW2 7281   0.580   2.433   5.071
 2128SOL     OW 7282   5.419   2.665   1.447
 2128SOL    HW1 7283   5.322   2.640   1.447
 2128SOL    HW2 7284   5.454   2.660   1.353
 2129SOL     OW 7285   5.018   4.584   3.615
 2129SOL    HW1 7286   5.051   4.574   3.709
 2129SOL    HW2 7287   4.919   4.599   3.616
 2130SOL     OW 7288   2.515   1.216   2.980
 2130SOL    HW1 7289   2.548   1.235   2.887
 2130SOL    HW2 7290   2.423   1.253   2.990
 2131SOL     OW 7291   5.921   1.646   5.860
 2131SOL    HW1 7292   5.927   1.694   5.947
 2131SOL    HW2 7293   6.009   1.605   5.838
 2132SOL     OW 7294   2.690   2.360   0.066
 2132SOL    HW1 7295   2.752   2.412   0.124
 2132SOL    HW2 7296   2.685   2.266   0.098
 2133SOL     OW 7297   2.755   2.112   1.981
 2133SOL    HW1 7298   2.816   2.187   2.004
 2133SOL    HW2 7299   2.804   2.045   1.924
 2134SOL     OW 7300   0.809   6.539   4.695
 2134SOL    HW1 7301   0.791   6.636   4.676
 2134SOL    HW2 7302   0.900   6.515   4.659
 2135SOL     OW 7303   0.952   1.297   3.303
 2135SOL    HW1 7304   1.012   1.361   3.254
 2135SOL    HW2 7305   0.876   1.348   3.343
 2136SOL     OW 7306   0.400   4.421   3.744
 2136SOL    HW1 7307   0.446   4.440   3.830
 2136SOL    HW2 7308   0.394   4.323   3.729
 2137SOL     OW 7309   1.582   0.230   5.379
 2137SOL    HW1 7310   1.596   0.287   5.460
 2137SOL    HW2 7311   1.489   0.241   5.345
 2138SOL     OW 7312   0.565   2.436   0.717
 2138SOL    HW1 7313   0.605   2.371   0.781
 2138SOL    HW2 7314   0.637   2.479   0.662
 2139SOL     OW 7315   2.809   0.651   5.792
 2139SOL    HW1 7316   2.858   0.698   5.866
 2139SOL    HW2 7317   2.861   0.658   5.707
 2140SOL     OW 7318   2.479   5.510   3.198
 2140SOL    HW1 7319   2.408   5.447   3.169
 2140SOL    HW2 7320   2.533   5.469   3.272
 2141SOL     OW 7321   5.327   2.311   1.034
 2141SOL    HW1 7322   5.384   2.293   0.954
 2141SOL    HW2 7323   5.381   2.300   1.117
 2142SOL     OW 7324   2.100   2.175   3.322
 2142SOL    HW1 7325   2.183   2.133   3.284
 2142SOL    HW2 7326   2.111   2.274   3.321
 2143SOL     OW 7327   3.075   6.996   1.434
 2143SOL    HW1 7328   3.083   6.897   1.425
 2143SOL    HW2 7329   2.992   7.018   1.486
 2144SOL     OW 7330   0.748   1.087   3.290
 2144SOL    HW1 7331   0.826   1.150   3.295
 2144SOL    HW2 7332   0.690   1.111   3.212
 2145SOL     OW 7333   3.928   5.075   3.122
 2145SOL    HW1 7334   3.885   5.117   3.043
 2145SOL    HW2 7335   3.998   5.010   3.091
 2146SOL     OW 7336   3.825   3.035   2.974
 2146SOL    HW1 7337   3.729   3.018   2.997
 2146SOL    HW2 7338   3.860   3.110   3.031
 2147SOL     OW 7339   1.291   1.043   5.558
 2147SOL    HW1 7340   1.307   1.110   5.486
 2147SOL    HW2 7341   1.196   1.012   5.554
 2148SOL     OW 7342   5.009   3.403   2.748
 2148SOL    HW1 7343   4.964   3.430   2.663
 2148SOL    HW2 7344   5.073   3.328   2.729
 2149SOL     OW 7345   4.345   1.127   2.919
 2149SOL    HW1 7346   4.325   1.160   2.827
 2149SOL    HW2 7347   4.261   1.127   2.974
 2150SOL     OW 7348   2.880   2.254   3.355
 2150SOL    HW1 7349   2.832   2.191   3.416
 2150SOL    HW2 7350   2.968   2.214   3.328
 2151SOL     OW 7351   3.602   2.866   5.619
 2151SOL    HW1 7352   3.684   2.879   5.563
 2151SOL    HW2 7353   3.593   2.770   5.644
 2152SOL     OW 7354   6.109   5.920   1.801
 2152SOL    HW1 7355   6.128   5.893   1.895
 2152SOL    HW2 7356   6.016   5.956   1.795
 2153SOL     OW 7357   4.701   2.781   3.496
 2153SOL    HW1 7358   4.751   2.818   3.418
 2153SOL    HW2 7359   4.730   2.827   3.580
 2154SOL     OW 7360   3.570   6.116   5.147
 2154SOL    HW1 7361   3.650   6.139   5.093
 2154SOL    HW2 7362   3.597   6.104   5.243
 2155SOL     OW 7363   6.963   3.829   0.047
 2155SOL    HW1 7364   7.019   3.887   0.106
 2155SOL    HW2 7365   6.925   3.754   0.100
 2156SOL     OW 7366   1.911   0.285   2.050
 2156SOL    HW1 7367   1.909   0.380   2.016
 2156SOL    HW2 7368   1.992   0.272   2.106
 2157SOL     OW 7369   0.596   1.638   5.120
 2157SOL    HW1 7370   0.683   1.641   5.071
 2157SOL    HW2 7371   0.527   1.594   5.062
 2158SOL     OW 7372   3.153   6.748   1.666
 2158SOL    HW1 7373   3.193   6.758   1.575
 2158SOL    HW2 7374   3.209   6.796   1.733
 2159SOL     OW 7375   1.459   6.586   5.096
 2159SOL    HW1 7376   1.439   6.597   4.999
 2159SOL    HW2 7377   1.385   6.625   5.151
 2160SOL     OW 7378   3.124   3.721   1.254
 2160SOL    HW1 7379   3.152   3.723   1.158
 2160SOL    HW2 7380   3.024   3.709   1.259
 2161SOL     OW 7381   5.651   2.554   3.305
 2161SOL    HW1 7382   5.648   2.516   3.397
 2161SOL    HW2 7383   5.592   2.500   3.245
 2162SOL     OW 7384   0.880   0.375   6.643
 2162SOL    HW1 7385   0.868   0.413   6.735
 2162SOL    HW2 7386   0.853   0.279   6.644
 2163SOL     OW 7387   1.817   1.684   0.743
 2163SOL    HW1 7388   1.860   1.656   0.656
 2163SOL    HW2 7389   1.753   1.613   0.773
 2164SOL     OW 7390   1.247   1.158   0.026
 2164SOL    HW1 7391   1.261   1.102   0.108
 2164SOL    HW2 7392   1.280   1.250   0.042
 2165SOL     OW 7393   2.542   6.899   2.961
 2165SOL    HW1 7394   2.629   6.852   2.950
 2165SOL    HW2 7395   2.555   6.981   3.018
 2166SOL     OW 7396   0.148   2.649   6.333
 2166SOL    HW1 7397   0.086   2.580   6.295
 2166SOL    HW2 7398   0.197   2.610   6.411
 2167SOL     OW 7399   3.577   0.750   2.970
 2167SOL    HW1 7400   3.539   0.682   2.907
 2167SOL    HW2 7401   3.586   0.837   2.922
 2168SOL     OW 7402   5.747   4.756   4.840
 2168SOL    HW1 7403   5.725   4.779   4.745
 2168SOL    HW2 7404   5.827   4.809   4.869
 2169SOL     OW 7405   5.410   1.961   5.780
 2169SOL    HW1 7406   5.312   1.963   5.799
 2169SOL    HW2 7407   5.456   1.905   5.850
 2170SOL     OW 7408   3.847   4.989   4.842
 2170SOL    HW1 7409   3.912   4.939   4.785
 2170SOL    HW2 7410   3.754   4.959   4.822
 2171SOL     OW 7411   0.214   2.549   6.977
 2171SOL    HW1 7412   0.208   2.588   0.047
 2171SOL    HW2 7413   0.187   2.618   6.910
 2172SOL     OW 7414   3.396   0.591   0.978
 2172SOL    HW1 7415   3.302   0.566   0.956
 2172SOL    HW2 7416   3.452   0.508   0.983
 2173SOL     OW 7417   5.493   1.096   5.545
 2173SOL    HW1 7418   5.418   1.160   5.527
 2173SOL    HW2 7419   5.538   1.072   5.459
 2174SOL     OW 7420   0.155   5.365   4.829
 2174SOL    HW1 7421   0.196   5.311   4.755
 2174SOL    HW2 7422   0.164   5.315   4.915
 2175SOL     OW 7423   1.836   6.921   4.730
 2175SOL    HW1 7424   1.812   6.955   4.820
 2175SOL    HW2 7425   1.839   6.821   4.731
 2176SOL     OW 7426   1.704   2.857   3.072
 2176SOL    HW1 7427   1.626   2.854   3.010
 2176SOL    HW2 7428   1.678   2.821   3.161
 2177SOL     OW 7429   0.445   2.670   1.245
 2177SOL    HW1 7430   0.458   2.709   1.154
 2177SOL    HW2 7431   0.487   2.579   1.248
 2178SOL     OW 7432   0.283   4.399   0.129
 2178SOL    HW1 7433   0.223   4.479   0.117
 2178SOL    HW2 7434   0.251   4.344   0.205
 2179SOL     OW 7435   1.863   5.610   4.250
 2179SOL    HW1 7436   1.921   5.575   4.177
 2179SOL    HW2 7437   1.905   5.590   4.339
 2180SOL     OW 7438   3.344   2.897   2.765
 2180SOL    HW1 7439   3.356   2.863   2.858
 2180SOL    HW2 7440   3.430   2.935   2.731
 2181SOL     OW 7441   5.143   5.279   5.878
 2181SOL    HW1 7442   5.124   5.298   5.782
 2181SOL    HW2 7443   5.057   5.263   5.926
 2182SOL     OW 7444   6.552   3.143   6.351
 2182SOL    HW1 7445   6.464   3.148   6.305
 2182SOL    HW2 7446   6.552   3.065   6.414
 2183SOL     OW 7447   3.478   3.306   1.025
 2183SOL    HW1 7448   3.436   3.387   1.068
 2183SOL    HW2 7449   3.558   3.279   1.078
 2184SOL     OW 7450   3.781   2.730   6.524
 2184SOL    HW1 7451   3.842   2.685   6.589
 2184SOL    HW2 7452   3.762   2.668   6.448
 2185SOL     OW 7453   1.582   1.278   1.510
 2185SOL    HW1 7454   1.534   1.344   1.568
 2185SOL    HW2 7455   1.593   1.192   1.559
 2186SOL     OW 7456   0.457   6.067   3.266
 2186SOL    HW1 7457   0.486   6.145   3.321
 2186SOL    HW2 7458   0.370   6.086   3.222
 2187SOL     OW 7459   0.167   1.391   6.280
 2187SOL    HW1 7460   0.261   1.427   6.280
 2187SOL    HW2 7461   0.163   1.311   6.221
 2188SOL     OW 7462   5.733   0.229   3.142
 2188SOL    HW1 7463   5.643   0.256   3.175
 2188SOL    HW2 7464   5.741   0.251   3.045
 2189SOL     OW 7465   2.043   0.041   6.554
 2189SOL    HW1 7466   1.990   6.981   6.535
 2189SOL    HW2 7467   1.981   0.118   6.570
 2190SOL     OW 7468   4.932   2.155   2.079
 2190SOL    HW1 7469   4.871   2.081   2.110
 2190SOL    HW2 7470   4.988   2.122   2.003
 2191SOL     OW 7471   3.323   2.931   6.360
 2191SOL    HW1 7472   3.412   2.915   6.315
 2191SOL    HW2 7473   3.332   3.006   6.425
 2192SOL     OW 7474   4.881   5.734   4.880
 2192SOL    HW1 7475   4.822   5.680   4.820
 2192SOL    HW2 7476   4.895   5.825   4.839
 2193SOL     OW 7477   1.396   5.039   6.327
 2193SOL    HW1 7478   1.448   4.962   6.366
 2193SOL    HW2 7479   1.450   5.082   6.254
 2194SOL     OW 7480   2.494   0.415   1.726
 2194SOL    HW1 7481   2.431   0.366   1.665
 2194SOL    HW2 7482   2.482   0.382   1.819
 2195SOL     OW 7483   1.722   4.717   2.621
 2195SOL    HW1 7484   1.679   4.806   2.603
 2195SOL    HW2 7485   1.750   4.677   2.534
 2196SOL     OW 7486   3.505   2.166   6.254
 2196SOL    HW1 7487   3.552   2.177   6.167
 2196SOL    HW2 7488   3.450   2.247   6.273
 2197SOL     OW 7489   4.530   5.157   1.127
 2197SOL    HW1 7490   4.618   5.127   1.165
 2197SOL    HW2 7491   4.525   5.132   1.031
 2198SOL     OW 7492   6.563   3.782   0.431
 2198SOL    HW1 7493   6.465   3.778   0.450
 2198SOL    HW2 7494   6.606   3.697   0.459
 2199SOL     OW 7495   4.690   0.289   1.580
 2199SOL    HW1 7496   4.598   0.314   1.609
 2199SOL    HW2 7497   4.688   0.198   1.540
 2200SOL     OW 7498   3.054   0.897   4.723
 2200SOL    HW1 7499   3.016   0.939   4.640
 2200SOL    HW2 7500   2.979   0.864   4.780
 2201SOL     OW 7501   5.506   2.994   2.018
 2201SOL    HW1 7502   5.517   2.955   2.109
 2201SOL    HW2 7503   5.579   3.061   2.001
 2202SOL     OW 7504   4.693   6.170   3.926
 2202SOL    HW1 7505   4.743   6.242   3.974
 2202SOL    HW2 7506   4.657   6.205   3.840
 2203SOL     OW 7507   3.244   2.171   3.555
 2203SOL    HW1 7508   3.215   2.203   3.645
 2203SOL    HW2 7509   3.311   2.098   3.565
 2204SOL     OW 7510   3.319   2.608   0.493
 2204SOL    HW1 7511   3.308   2.522   0.444
 2204SOL    HW2 7512   3.229   2.644   0.518
 2205SOL     OW 7513   3.049   6.671   0.565
 2205SOL    HW1 7514   3.017   6.618   0.487
 2205SOL    HW2 7515   3.126   6.729   0.537
 2206SOL     OW 7516   2.081   2.993   6.717
 2206SOL    HW1 7517   2.153   2.928   6.694
 2206SOL    HW2 7518   2.067   3.055   6.640
 2207SOL     OW 7519   0.869   4.196   5.586
 2207SOL    HW1 7520   0.822   4.179   5.672
 2207SOL    HW2 7521   0.827   4.141   5.514
 2208SOL     OW 7522   0.321   4.019   1.651
 2208SOL    HW1 7523   0.242   4.040   1.593
 2208SOL    HW2 7524   0.372   3.943   1.613
 2209SOL     OW 7525   0.990   5.994   0.150
 2209SOL    HW1 7526   0.990   5.906   0.198
 2209SOL    HW2 7527   1.021   5.980   0.056
 2210SOL     OW 7528   0.299   5.717   4.398
 2210SOL    HW1 7529   0.225   5.765   4.444
 2210SOL    HW2 7530   0.272   5.623   4.381
 2211SOL     OW 7531   6.444   1.411   5.632
 2211SOL    HW1 7532   6.528   1.441   5.586
 2211SOL    HW2 7533   6.370   1.476   5.613
 2212SOL     OW 7534   1.429   0.075   6.148
 2212SOL    HW1 7535   1.330   0.075   6.157
 2212SOL    HW2 7536   1.460   0.164   6.116
 2213SOL     OW 7537   3.572   1.272   3.740
 2213SOL    HW1 7538   3.543   1.367   3.737
 2213SOL    HW2 7539   3.641   1.256   3.668
 2214SOL     OW 7540   4.365   0.145   4.177
 2214SOL    HW1 7541   4.330   0.179   4.090
 2214SOL    HW2 7542   4.351   0.046   4.183
 2215SOL     OW 7543   6.006   2.434   5.247
 2215SOL    HW1 7544   5.918   2.426   5.201
 2215SOL    HW2 7545   5.994   2.479   5.335
 2216SOL     OW 7546   2.048   6.817   1.356
 2216SOL    HW1 7547   2.090   6.906   1.365
 2216SOL    HW2 7548   2.035   6.776   1.446
 2217SOL     OW 7549   4.190   0.577   1.375
 2217SOL    HW1 7550   4.185   0.672   1.406
 2217SOL    HW2 7551   4.113   0.526   1.413
 2218SOL     OW 7552   0.957   5.627   0.998
 2218SOL    HW1 7553   1.007   5.675   0.925
 2218SOL    HW2 7554   0.897   5.558   0.958
 2219SOL     OW 7555   1.458   3.703   3.328
 2219SOL    HW1 7556   1.424   3.706   3.423
 2219SOL    HW2 7557   1.456   3.795   3.289
 2220SOL     OW 7558   0.148   0.941   6.689
 2220SOL    HW1 7559   0.106   0.932   6.599
 2220SOL    HW2 7560   0.247   0.927   6.681
 2221SOL     OW 7561   6.839   2.495   1.121
 2221SOL    HW1 7562   6.905   2.446   1.066
 2221SOL    HW2 7563   6.771   2.431   1.158
 2222SOL     OW 7564   5.323   6.560   2.703
 2222SOL    HW1 7565   5.402   6.502   2.683
 2222SOL    HW2 7566   5.293   6.542   2.797
 2223SOL     OW 7567   5.466   5.602   2.228
 2223SOL    HW1 7568   5.437   5.513   2.195
 2223SOL    HW2 7569   5.400   5.636   2.296
 2224SOL     OW 7570   1.399   4.846   1.119
 2224SOL    HW1 7571   1.381   4.828   1.022
 2224SOL    HW2 7572   1.423   4.942   1.130
 2225SOL     OW 7573   6.389   5.001   2.046
 2225SOL    HW1 7574   6.451   5.056   1.989
 2225SOL    HW2 7575   6.424   4.907   2.052
 2226SOL     OW 7576   4.337   3.929   1.138
 2226SOL    HW1 7577   4.401   3.906   1.212
 2226SOL    HW2 7578   4.388   3.938   1.052
 2227SOL     OW 7579   0.324   4.265   4.831
 2227SOL    HW1 7580   0.376   4.283   4.748
 2227SOL    HW2 7581   0.281   4.175   4.825
 2228SOL     OW 7582   3.238   4.921   5.578
 2228SOL    HW1 7583   3.325   4.927   5.529
 2228SOL    HW2 7584   3.249   4.960   5.670
 2229SOL     OW 7585   4.744   0.487   3.645
 2229SOL    HW1 7586   4.674   0.419   3.667
 2229SOL    HW2 7587   4.817   0.483   3.712
 2230SOL     OW 7588   1.121   6.215   0.247
 2230SOL    HW1 7589   1.219   6.193   0.253
 2230SOL    HW2 7590   1.072   6.134   0.215
 2231SOL     OW 7591   2.826   6.992   1.569
 2231SOL    HW1 7592   2.741   0.019   1.587
 2231SOL    HW2 7593   2.832   6.912   1.628
 2232SOL     OW 7594   6.311   2.958   3.036
 2232SOL    HW1 7595   6.376   2.881   3.032
 2232SOL    HW2 7596   6.359   3.043   3.013
 2233SOL     OW 7597   4.042   0.713   6.769
 2233SOL    HW1 7598   3.974   0.777   6.733
 2233SOL    HW2 7599   3.995   0.640   6.819
 2234SOL     OW 7600   3.504   1.588   0.792
 2234SOL    HW1 7601   3.544   1.497   0.781
 2234SOL    HW2 7602   3.424   1.597   0.733
 2235SOL     OW 7603   1.780   6.782   1.299
 2235SOL    HW1 7604   1.869   6.789   1.344
 2235SOL    HW2 7605   1.793   6.789   1.200
 2236SOL     OW 7606   6.742   4.158   0.868
 2236SOL    HW1 7607   6.709   4.175   0.775
 2236SOL    HW2 7608   6.740   4.060   0.887
 2237SOL     OW 7609   6.465   2.464   4.191
 2237SOL    HW1 7610   6.538   2.398   4.175
 2237SOL    HW2 7611   6.417   2.441   4.275
 2238SOL     OW 7612   1.068   6.172   2.124
 2238SOL    HW1 7613   1.165   6.186   2.140
 2238SOL    HW2 7614   1.045   6.202   2.031
 2239SOL     OW 7615   4.414   5.089   3.080
 2239SOL    HW1 7616   4.463   5.092   3.167
 2239SOL    HW2 7617   4.477   5.061   3.007
 2240SOL     OW 7618   5.718   3.956   2.401
 2240SOL    HW1 7619   5.670   4.009   2.331
 2240SOL    HW2 7620   5.767   4.018   2.462
 2241SOL     OW 7621   0.665   0.644   2.165
 2241SOL    HW1 7622   0.620   0.730   2.191
 2241SOL    HW2 7623   0.609   0.567   2.195
 2242SOL     OW 7624   5.353   2.298   2.290
 2242SOL    HW1 7625   5.274   2.341   2.333
 2242SOL    HW2 7626   5.433   2.357   2.299
 2243SOL     OW 7627   2.355   6.150   5.490
 2243SOL    HW1 7628   2.452   6.152   5.464
 2243SOL    HW2 7629   2.301   6.196   5.420
 2244SOL     OW 7630   2.946   0.539   5.321
 2244SOL    HW1 7631   2.964   0.488   5.237
 2244SOL    HW2 7632   2.869   0.498   5.369
 2245SOL     OW 7633   1.588   1.519   1.365
 2245SOL    HW1 7634   1.554   1.548   1.275
 2245SOL    HW2 7635   1.583   1.419   1.371
 2246SOL     OW 7636   1.453   3.668   5.063
 2246SOL    HW1 7637   1.392   3.738   5.102
 2246SOL    HW2 7638   1.546   3.704   5.057
 2247SOL     OW 7639   2.010   2.027   5.963
 2247SOL    HW1 7640   2.093   1.992   5.919
 2247SOL    HW2 7641   1.940   1.956   5.963
 2248SOL     OW 7642   5.073   3.285   5.072
 2248SOL    HW1 7643   5.021   3.221   5.128
 2248SOL    HW2 7644   5.155   3.314   5.122
 2249SOL     OW 7645   4.867   5.269   4.441
 2249SOL    HW1 7646   4.957   5.237   4.411
 2249SOL    HW2 7647   4.844   5.354   4.393
 2250SOL     OW 7648   6.243   4.568   6.857
 2250SOL    HW1 7649   6.232   4.660   6.820
 2250SOL    HW2 7650   6.213   4.567   6.952
 2251SOL     OW 7651   6.174   0.903   6.657
 2251SOL    HW1 7652   6.089   0.880   6.610
 2251SOL    HW2 7653   6.166   0.996   6.696
 2252SOL     OW 7654   4.145   1.816   5.667
 2252SOL    HW1 7655   4.069   1.866   5.709
 2252SOL    HW2 7656   4.212   1.882   5.633
 2253SOL     OW 7657   1.990   3.109   6.484
 2253SOL    HW1 7658   1.911   3.169   6.499
 2253SOL    HW2 7659   1.992   3.081   6.388
 2254SOL     OW 7660   1.927   3.592   6.738
 2254SOL    HW1 7661   1.865   3.536   6.683
 2254SOL    HW2 7662   1.878   3.671   6.774
 2255SOL     OW 7663   5.946   2.697   1.527
 2255SOL    HW1 7664   5.968   2.615   1.580
 2255SOL    HW2 7665   5.848   2.715   1.532
 2256SOL     OW 7666   4.296   4.827   1.606
 2256SOL    HW1 7667   4.198   4.846   1.605
 2256SOL    HW2 7668   4.325   4.814   1.701
 2257SOL     OW 7669   2.409   4.339   4.166
 2257SOL    HW1 7670   2.343   4.264   4.162
 2257SOL    HW2 7671   2.403   4.394   4.083
 2258SOL     OW 7672   1.438   5.559   3.790
 2258SOL    HW1 7673   1.402   5.539   3.881
 2258SOL    HW2 7674   1.528   5.602   3.798
 2259SOL     OW 7675   5.901   2.994   6.655
 2259SOL    HW1 7676   5.999   3.011   6.658
 2259SOL    HW2 7677   5.853   3.081   6.639
 2260SOL     OW 7678   5.638   5.189   0.820
 2260SOL    HW1 7679   5.699   5.166   0.896
 2260SOL    HW2 7680   5.564   5.123   0.815
 2261SOL     OW 7681   4.520   6.141   6.520
 2261SOL    HW1 7682   4.555   6.200   6.593
 2261SOL    HW2 7683   4.438   6.181   6.480
 2262SOL     OW 7684   4.103   1.867   3.220
 2262SOL    HW1 7685   4.159   1.786   3.206
 2262SOL    HW2 7686   4.142   1.924   3.292
 2263SOL     OW 7687   0.170   5.249   6.201
 2263SOL    HW1 7688   0.247   5.197   6.236
 2263SOL    HW2 7689   0.156   5.331   6.256
 2264SOL     OW 7690   3.401   4.144   3.999
 2264SOL    HW1 7691   3.327   4.087   3.963
 2264SOL    HW2 7692   3.363   4.229   4.035
 2265SOL     OW 7693   0.190   0.632   1.593
 2265SOL    HW1 7694   0.170   0.538   1.621
 2265SOL    HW2 7695   0.287   0.639   1.566
 2266SOL     OW 7696   6.104   6.567   0.816
 2266SOL    HW1 7697   6.071   6.646   0.868
 2266SOL    HW2 7698   6.180   6.525   0.865
 2267SOL     OW 7699   5.733   2.405   5.636
 2267SOL    HW1 7700   5.660   2.337   5.641
 2267SOL    HW2 7701   5.775   2.416   5.727
 2268SOL     OW 7702   6.228   5.641   0.394
 2268SOL    HW1 7703   6.191   5.671   0.306
 2268SOL    HW2 7704   6.175   5.683   0.468
 2269SOL     OW 7705   0.207   5.541   5.351
 2269SOL    HW1 7706   0.273   5.606   5.312
 2269SOL    HW2 7707   0.247   5.449   5.351
 2270SOL     OW 7708   4.087   3.558   1.829
 2270SOL    HW1 7709   4.093   3.553   1.929
 2270SOL    HW2 7710   4.165   3.510   1.788
 2271SOL     OW 7711   5.988   4.530   2.782
 2271SOL    HW1 7712   6.009   4.434   2.762
 2271SOL    HW2 7713   5.976   4.542   2.881
 2272SOL     OW 7714   5.596   2.105   6.227
 2272SOL    HW1 7715   5.681   2.061   6.253
 2272SOL    HW2 7716   5.552   2.144   6.308
 2273SOL     OW 7717   1.530   1.695   3.205
 2273SOL    HW1 7718   1.506   1.600   3.225
 2273SOL    HW2 7719   1.627   1.710   3.224
 2274SOL     OW 7720   1.835   3.762   3.845
 2274SOL    HW1 7721   1.862   3.858   3.845
 2274SOL    HW2 7722   1.879   3.715   3.768
 2275SOL     OW 7723   4.891   6.033   3.595
 2275SOL    HW1 7724   4.894   6.025   3.695
 2275SOL    HW2 7725   4.948   6.110   3.566
 2276SOL     OW 7726   4.879   4.726   1.405
 2276SOL    HW1 7727   4.898   4.689   1.496
 2276SOL    HW2 7728   4.900   4.824   1.404
 2277SOL     OW 7729   3.003   3.915   0.107
 2277SOL    HW1 7730   2.961   3.990   0.158
 2277SOL    HW2 7731   2.995   3.831   0.159
 2278SOL     OW 7732   5.756   6.343   1.149
 2278SOL    HW1 7733   5.749   6.331   1.050
 2278SOL    HW2 7734   5.750   6.440   1.171
 2279SOL     OW 7735   5.652   4.208   4.492
 2279SOL    HW1 7736   5.629   4.275   4.562
 2279SOL    HW2 7737   5.713   4.139   4.530
 2280SOL     OW 7738   5.824   6.782   6.293
 2280SOL    HW1 7739   5.900   6.786   6.358
 2280SOL    HW2 7740   5.805   6.874   6.258
 2281SOL     OW 7741   3.778   3.250   0.696
 2281SOL    HW1 7742   3.686   3.216   0.713
 2281SOL    HW2 7743   3.815   3.291   0.779
 2282SOL     OW 7744   3.854   5.250   2.926
 2282SOL    HW1 7745   3.764   5.225   2.891
 2282SOL    HW2 7746   3.847   5.335   2.978
 2283SOL     OW 7747   0.025   3.761   3.022
 2283SOL    HW1 7748   0.023   3.746   2.923
 2283SOL    HW2 7749   0.019   3.673   3.068
 2284SOL     OW 7750   2.255   2.775   2.097
 2284SOL    HW1 7751   2.300   2.696   2.141
 2284SOL    HW2 7752   2.294   2.789   2.006
 2285SOL     OW 7753   2.320   4.603   0.280
 2285SOL    HW1 7754   2.248   4.534   0.278
 2285SOL    HW2 7755   2.346   4.622   0.374
 2286SOL     OW 7756   6.065   6.605   4.472
 2286SOL    HW1 7757   6.116   6.637   4.552
 2286SOL    HW2 7758   6.072   6.673   4.399
 2287SOL     OW 7759   2.041   3.030   1.886
 2287SOL    HW1 7760   2.114   3.095   1.870
 2287SOL    HW2 7761   2.028   2.974   1.803
 2288SOL     OW 7762   0.299   6.447   4.096
 2288SOL    HW1 7763   0.375   6.474   4.156
 2288SOL    HW2 7764   0.244   6.527   4.074
 2289SOL     OW 7765   4.818   2.742   1.233
 2289SOL    HW1 7766   4.815   2.811   1.305
 2289SOL    HW2 7767   4.826   2.651   1.274
 2290SOL     OW 7768   3.338   3.482   3.112
 2290SOL    HW1 7769   3.366   3.572   3.146
 2290SOL    HW2 7770   3.407   3.414   3.134
 2291SOL     OW 7771   2.268   2.706   0.014
 2291SOL    HW1 7772   2.242   2.708   0.111
 2291SOL    HW2 7773   2.367   2.688   0.007
 2292SOL     OW 7774   4.394   2.238   2.771
 2292SOL    HW1 7775   4.375   2.255   2.674
 2292SOL    HW2 7776   4.482   2.192   2.780
 2293SOL     OW 7777   6.232   1.429   0.085
 2293SOL    HW1 7778   6.150   1.480   0.058
 2293SOL    HW2 7779   6.287   1.409   0.004
 2294SOL     OW 7780   0.293   1.773   5.889
 2294SOL    HW1 7781   0.238   1.699   5.849
 2294SOL    HW2 7782   0.264   1.789   5.983
 2295SOL     OW 7783   6.127   6.516   1.220
 2295SOL    HW1 7784   6.106   6.419   1.204
 2295SOL    HW2 7785   6.226   6.530   1.213
 2296SOL     OW 7786   2.665   5.605   4.278
 2296SOL    HW1 7787   2.580   5.658   4.273
 2296SOL    HW2 7788   2.694   5.597   4.373
 2297SOL     OW 7789   4.230   4.351   5.374
 2297SOL    HW1 7790   4.226   4.380   5.279
 2297SOL    HW2 7791   4.137   4.343   5.411
 2298SOL     OW 7792   4.146   3.441   4.282
 2298SOL    HW1 7793   4.093   3.450   4.198
 2298SOL    HW2 7794   4.127   3.353   4.325
 2299SOL     OW 7795   5.277   3.402   4.854
 2299SOL    HW1 7796   5.209   3.390   4.781
 2299SOL    HW2 7797   5.250   3.478   4.913
 2300SOL     OW 7798   4.471   6.436   2.425
 2300SOL    HW1 7799   4.413   6.505   2.466
 2300SOL    HW2 7800   4.414   6.364   2.385
 2301SOL     OW 7801   3.975   3.158   4.191
 2301SOL    HW1 7802   4.027   3.198   4.115
 2301SOL    HW2 7803   4.013   3.192   4.278
 2302SOL     OW 7804   3.968   2.256   0.404
 2302SOL    HW1 7805   3.977   2.226   0.498
 2302SOL    HW2 7806   4.057   2.284   0.369
 2303SOL     OW 7807   3.804   2.427   0.273
 2303SOL    HW1 7808   3.855   2.360   0.326
 2303SOL    HW2 7809   3.762   2.382   0.194
 2304SOL     OW 7810   5.472   6.005   1.967
 2304SOL    HW1 7811   5.443   6.014   2.062
 2304SOL    HW2 7812   5.526   5.921   1.956
 2305SOL     OW 7813   2.059   1.081   5.328
 2305SOL    HW1 7814   1.995   1.049   5.398
 2305SOL    HW2 7815   2.023   1.061   5.237
 2306SOL     OW 7816   1.910   5.197   4.152
 2306SOL    HW1 7817   1.902   5.280   4.097
 2306SOL    HW2 7818   1.824   5.145   4.147
 2307SOL     OW 7819   0.298   3.478   6.030
 2307SOL    HW1 7820   0.382   3.427   6.044
 2307SOL    HW2 7821   0.311   3.547   5.958
 2308SOL     OW 7822   2.284   4.607   1.727
 2308SOL    HW1 7823   2.364   4.615   1.786
 2308SOL    HW2 7824   2.291   4.672   1.652
 2309SOL     OW 7825   1.893   6.396   5.464
 2309SOL    HW1 7826   1.801   6.365   5.489
 2309SOL    HW2 7827   1.927   6.340   5.389
 2310SOL     OW 7828   4.604   6.472   1.437
 2310SOL    HW1 7829   4.608   6.374   1.415
 2310SOL    HW2 7830   4.576   6.523   1.356
 2311SOL     OW 7831   2.817   5.841   1.558
 2311SOL    HW1 7832   2.893   5.823   1.495
 2311SOL    HW2 7833   2.758   5.760   1.562
 2312SOL     OW 7834   3.224   4.840   2.621
 2312SOL    HW1 7835   3.181   4.931   2.619
 2312SOL    HW2 7836   3.160   4.772   2.587
 2313SOL     OW 7837   4.514   5.867   1.820
 2313SOL    HW1 7838   4.521   5.793   1.753
 2313SOL    HW2 7839   4.597   5.868   1.877
 2314SOL     OW 7840   2.290   5.420   4.277
 2314SOL    HW1 7841   2.278   5.496   4.213
 2314SOL    HW2 7842   2.258   5.448   4.368
 2315SOL     OW 7843   4.538   2.903   6.748
 2315SOL    HW1 7844   4.480   2.910   6.667
 2315SOL    HW2 7845   4.602   2.827   6.737
 2316SOL     OW 7846   5.655   3.432   2.559
 2316SOL    HW1 7847   5.584   3.459   2.494
 2316SOL    HW2 7848   5.632   3.345   2.600
 2317SOL     OW 7849   1.144   5.044   3.970
 2317SOL    HW1 7850   1.240   5.066   3.983
 2317SOL    HW2 7851   1.131   4.999   3.882
 2318SOL     OW 7852   6.807   1.507   3.332
 2318SOL    HW1 7853   6.856   1.427   3.365
 2318SOL    HW2 7854   6.835   1.588   3.385
 2319SOL     OW 7855   0.973   4.318   3.856
 2319SOL    HW1 7856   0.971   4.412   3.822
 2319SOL    HW2 7857   1.068   4.287   3.863
 2320SOL     OW 7858   6.350   4.143   4.860
 2320SOL    HW1 7859   6.380   4.105   4.772
 2320SOL    HW2 7860   6.263   4.190   4.849
 2321SOL     OW 7861   2.593   6.155   5.396
 2321SOL    HW1 7862   2.614   6.170   5.300
 2321SOL    HW2 7863   2.675   6.123   5.444
 2322SOL     OW 7864   2.762   0.007   5.998
 2322SOL    HW1 7865   2.862   0.005   6.002
 2322SOL    HW2 7866   2.724   6.994   6.084
 2323SOL     OW 7867   5.281   5.077   2.112
 2323SOL    HW1 7868   5.332   5.016   2.051
 2323SOL    HW2 7869   5.306   5.057   2.207
 2324SOL     OW 7870   6.515   5.127   3.375
 2324SOL    HW1 7871   6.536   5.218   3.409
 2324SOL    HW2 7872   6.469   5.074   3.446
 2325SOL     OW 7873   6.681   3.561   0.513
 2325SOL    HW1 7874   6.771   3.598   0.493
 2325SOL    HW2 7875   6.690   3.471   0.557
 2326SOL     OW 7876   1.691   5.316   0.129
 2326SOL    HW1 7877   1.718   5.412   0.117
 2326SOL    HW2 7878   1.759   5.269   0.184
 2327SOL     OW 7879   5.131   2.698   5.023
 2327SOL    HW1 7880   5.118   2.708   4.924
 2327SOL    HW2 7881   5.076   2.622   5.056
 2328SOL     OW 7882   5.150   6.255   3.550
 2328SOL    HW1 7883   5.210   6.190   3.504
 2328SOL    HW2 7884   5.109   6.316   3.482
 2329SOL     OW 7885   0.035   5.941   3.818
 2329SOL    HW1 7886   7.003   6.000   3.878
 2329SOL    HW2 7887   7.021   5.948   3.724
 2330SOL     OW 7888   0.379   4.013   2.502
 2330SOL    HW1 7889   0.297   3.961   2.523
 2330SOL    HW2 7890   0.417   4.052   2.586
 2331SOL     OW 7891   0.979   4.630   5.341
 2331SOL    HW1 7892   0.925   4.602   5.421
 2331SOL    HW2 7893   0.966   4.728   5.324
 2332SOL     OW 7894   5.540   2.763   4.966
 2332SOL    HW1 7895   5.531   2.862   4.978
 2332SOL    HW2 7896   5.626   2.743   4.919
 2333SOL     OW 7897   1.345   5.583   4.276
 2333SOL    HW1 7898   1.309   5.647   4.344
 2333SOL    HW2 7899   1.301   5.601   4.188
 2334SOL     OW 7900   2.913   0.161   0.453
 2334SOL    HW1 7901   2.842   0.096   0.426
 2334SOL    HW2 7902   2.870   0.248   0.478
 2335SOL     OW 7903   5.086   6.929   3.955
 2335SOL    HW1 7904   5.121   6.895   4.042
 2335SOL    HW2 7905   5.136   7.012   3.928
 2336SOL     OW 7906   4.617   1.531   6.332
 2336SOL    HW1 7907   4.700   1.478   6.353
 2336SOL    HW2 7908   4.610   1.543   6.233
 2337SOL     OW 7909   5.688   0.482   2.617
 2337SOL    HW1 7910   5.597   0.512   2.644
 2337SOL    HW2 7911   5.681   0.395   2.568
 2338SOL     OW 7912   1.036   6.838   6.326
 2338SOL    HW1 7913   1.108   6.908   6.321
 2338SOL    HW2 7914   1.064   6.766   6.389
 2339SOL     OW 7915   3.699   4.389   0.290
 2339SOL    HW1 7916   3.787   4.358   0.324
 2339SOL    HW2 7917   3.637   4.311   0.282
 2340SOL     OW 7918   3.328   4.997   4.950
 2340SOL    HW1 7919   3.360   4.979   5.043
 2340SOL    HW2 7920   3.279   4.918   4.915
 2341SOL     OW 7921   5.870   5.566   6.904
 2341SOL    HW1 7922   5.927   5.531   6.979
 2341SOL    HW2 7923   5.813   5.492   6.869
 2342SOL     OW 7924   6.637   0.470   5.348
 2342SOL    HW1 7925   6.643   0.372   5.327
 2342SOL    HW2 7926   6.726   0.512   5.334
 2343SOL     OW 7927   1.286   6.725   0.562
 2343SOL    HW1 7928   1.382   6.699   0.556
 2343SOL    HW2 7929   1.244   6.679   0.640
 2344SOL     OW 7930   1.844   2.155   2.495
 2344SOL    HW1 7931   1.869   2.092   2.568
 2344SOL    HW2 7932   1.924   2.209   2.468
 2345SOL     OW 7933   2.077   1.797   4.057
 2345SOL    HW1 7934   2.010   1.725   4.045
 2345SOL    HW2 7935   2.162   1.758   4.092
 2346SOL     OW 7936   4.604   3.389   5.780
 2346SOL    HW1 7937   4.645   3.374   5.691
 2346SOL    HW2 7938   4.517   3.339   5.786
 2347SOL     OW 7939   1.318   3.217   1.367
 2347SOL    HW1 7940   1.315   3.156   1.287
 2347SOL    HW2 7941   1.283   3.307   1.341
 2348SOL     OW 7942   2.617   6.632   1.976
 2348SOL    HW1 7943   2.603   6.533   1.979
 2348SOL    HW2 7944   2.679   6.659   2.049
 2349SOL     OW 7945   5.145   5.657   5.908
 2349SOL    HW1 7946   5.152   5.720   5.831
 2349SOL    HW2 7947   5.216   5.588   5.901
 2350SOL     OW 7948   2.512   6.472   5.360
 2350SOL    HW1 7949   2.486   6.376   5.364
 2350SOL    HW2 7950   2.489   6.516   5.447
 2351SOL     OW 7951   2.293   5.435   4.664
 2351SOL    HW1 7952   2.305   5.411   4.760
 2351SOL    HW2 7953   2.197   5.457   4.647
 2352SOL     OW 7954   0.394   3.377   2.164
 2352SOL    HW1 7955   0.394   3.372   2.064
 2352SOL    HW2 7956   0.483   3.349   2.199
 2353SOL     OW 7957   2.778   4.106   6.428
 2353SOL    HW1 7958   2.775   4.087   6.526
 2353SOL    HW2 7959   2.721   4.185   6.408
 2354SOL     OW 7960   4.261   2.485   0.692
 2354SOL    HW1 7961   4.273   2.558   0.624
 2354SOL    HW2 7962   4.166   2.456   0.693
 2355SOL     OW 7963   0.411   6.843   0.944
 2355SOL    HW1 7964   0.443   6.797   0.861
 2355SOL    HW2 7965   0.372   6.775   1.006
 2356SOL     OW 7966   2.832   5.046   3.506
 2356SOL    HW1 7967   2.897   5.106   3.551
 2356SOL    HW2 7968   2.741   5.087   3.508
 2357SOL     OW 7969   6.633   4.487   1.403
 2357SOL    HW1 7970   6.596   4.542   1.329
 2357SOL    HW2 7971   6.712   4.533   1.444
 2358SOL     OW 7972   4.053   1.340   5.747
 2358SOL    HW1 7973   4.069   1.439   5.752
 2358SOL    HW2 7974   3.996   1.320   5.667
 2359SOL     OW 7975   1.381   1.589   5.582
 2359SOL    HW1 7976   1.424   1.614   5.495
 2359SOL    HW2 7977   1.449   1.550   5.643
 2360SOL     OW 7978   4.561   4.522   0.633
 2360SOL    HW1 7979   4.583   4.619   0.644
 2360SOL    HW2 7980   4.609   4.485   0.554
 2361SOL     OW 7981   3.861   6.010   1.834
 2361SOL    HW1 7982   3.772   6.003   1.790
 2361SOL    HW2 7983   3.901   6.100   1.815
 2362SOL     OW 7984   3.975   6.193   3.761
 2362SOL    HW1 7985   3.930   6.105   3.744
 2362SOL    HW2 7986   4.056   6.178   3.819
 2363SOL     OW 7987   2.909   3.902   0.631
 2363SOL    HW1 7988   2.946   3.986   0.671
 2363SOL    HW2 7989   2.812   3.914   0.610
 2364SOL     OW 7990   4.344   1.614   2.484
 2364SOL    HW1 7991   4.334   1.621   2.385
 2364SOL    HW2 7992   4.349   1.706   2.523
 2365SOL     OW 7993   4.903   3.275   3.549
 2365SOL    HW1 7994   4.996   3.239   3.558
 2365SOL    HW2 7995   4.856   3.229   3.474
 2366SOL     OW 7996   2.659   4.750   5.186
 2366SOL    HW1 7997   2.574   4.698   5.179
 2366SOL    HW2 7998   2.728   4.708   5.128
 2367SOL     OW 7999   6.787   4.553   5.919
 2367SOL    HW1 8000   6.796   4.595   6.010
 2367SOL    HW2 8001   6.867   4.497   5.901
 2368SOL     OW 8002   5.286   6.435   4.093
 2368SOL    HW1 8003   5.234   6.358   4.131
 2368SOL    HW2 8004   5.345   6.473   4.163
 2369SOL     OW 8005   3.019   1.897   4.647
 2369SOL    HW1 8006   2.933   1.886   4.696
 2369SOL    HW2 8007   3.056   1.806   4.625
 2370SOL     OW 8008   5.464   2.635   1.200
 2370SOL    HW1 8009   5.389   2.604   1.141
 2370SOL    HW2 8010   5.549   2.637   1.148
 2371SOL     OW 8011   0.965   0.067   3.063
 2371SOL    HW1 8012   1.050   0.090   3.109
 2371SOL    HW2 8013   0.905   0.016   3.125
 2372SOL     OW 8014   6.140   1.165   6.096
 2372SOL    HW1 8015   6.213   1.132   6.155
 2372SOL    HW2 8016   6.178   1.188   6.006
 2373SOL     OW 8017   5.921   5.806   6.128
 2373SOL    HW1 8018   5.851   5.874   6.105
 2373SOL    HW2 8019   6.001   5.820   6.068
 2374SOL     OW 8020   5.813   6.279   1.953
 2374SOL    HW1 8021   5.847   6.277   2.047
 2374SOL    HW2 8022   5.824   6.372   1.916
 2375SOL     OW 8023   0.983   0.182   4.575
 2375SOL    HW1 8024   0.923   0.151   4.501
 2375SOL    HW2 8025   1.052   0.112   4.593
 2376SOL     OW 8026   5.893   1.469   3.145
 2376SOL    HW1 8027   5.838   1.400   3.192
 2376SOL    HW2 8028   5.892   1.451   3.047
 2377SOL     OW 8029   4.782   4.892   5.393
 2377SOL    HW1 8030   4.706   4.948   5.361
 2377SOL    HW2 8031   4.797   4.909   5.490
 2378SOL     OW 8032   6.939   1.113   0.618
 2378SOL    HW1 8033   6.935   1.206   0.581
 2378SOL    HW2 8034   6.895   1.111   0.708
 2379SOL     OW 8035   6.977   5.192   1.016
 2379SOL    HW1 8036   7.003   5.128   0.943
 2379SOL    HW2 8037   6.888   5.231   0.996
 2380SOL     OW 8038   4.890   4.620   5.132
 2380SOL    HW1 8039   4.876   4.566   5.049
 2380SOL    HW2 8040   4.988   4.628   5.151
 2381SOL     OW 8041   2.413   4.870   4.963
 2381SOL    HW1 8042   2.453   4.852   4.873
 2381SOL    HW2 8043   2.383   4.785   5.005
 2382SOL     OW 8044   0.986   6.092   2.423
 2382SOL    HW1 8045   1.012   6.138   2.338
 2382SOL    HW2 8046   0.888   6.074   2.423
 2383SOL     OW 8047   5.661   5.526   5.218
 2383SOL    HW1 8048   5.675   5.472   5.301
 2383SOL    HW2 8049   5.587   5.485   5.164
 2384SOL     OW 8050   0.853   1.957   2.296
 2384SOL    HW1 8051   0.906   1.912   2.224
 2384SOL    HW2 8052   0.791   1.891   2.339
 2385SOL     OW 8053   0.782   2.196   1.165
 2385SOL    HW1 8054   0.882   2.203   1.169
 2385SOL    HW2 8055   0.749   2.239   1.082
 2386SOL     OW 8056   4.940   6.137   4.352
 2386SOL    HW1 8057   4.929   6.119   4.254
 2386SOL    HW2 8058   4.850   6.145   4.394
 2387SOL     OW 8059   1.251   1.785   4.233
 2387SOL    HW1 8060   1.184   1.860   4.222
 2387SOL    HW2 8061   1.330   1.819   4.285
 2388SOL     OW 8062   6.888   2.029   5.457
 2388SOL    HW1 8063   6.901   1.934   5.484
 2388SOL    HW2 8064   6.794   2.043   5.425
 2389SOL     OW 8065   5.324   4.534   4.319
 2389SOL    HW1 8066   5.285   4.444   4.335
 2389SOL    HW2 8067   5.251   4.599   4.298
 2390SOL     OW 8068   4.184   4.149   5.825
 2390SOL    HW1 8069   4.118   4.223   5.840
 2390SOL    HW2 8070   4.152   4.067   5.871
 2391SOL     OW 8071   3.622   4.129   6.142
 2391SOL    HW1 8072   3.601   4.188   6.063
 2391SOL    HW2 8073   3.669   4.183   6.212
 2392SOL     OW 8074   4.166   5.190   5.599
 2392SOL    HW1 8075   4.082   5.162   5.646
 2392SOL    HW2 8076   4.193   5.281   5.629
 2393SOL     OW 8077   3.249   5.382   1.635
 2393SOL    HW1 8078   3.187   5.460   1.634
 2393SOL    HW2 8079   3.264   5.352   1.730
 2394SOL     OW 8080   1.015   2.945   3.424
 2394SOL    HW1 8081   1.018   2.977   3.518
 2394SOL    HW2 8082   1.065   2.860   3.415
 2395SOL     OW 8083   0.051   1.670   4.394
 2395SOL    HW1 8084   0.127   1.712   4.443
 2395SOL    HW2 8085   0.085   1.608   4.324
 2396SOL     OW 8086   6.577   1.239   5.253
 2396SOL    HW1 8087   6.537   1.149   5.273
 2396SOL    HW2 8088   6.661   1.227   5.200
 2397SOL     OW 8089   0.343   4.751   5.587
 2397SOL    HW1 8090   0.255   4.753   5.635
 2397SOL    HW2 8091   0.415   4.784   5.649
 2398SOL     OW 8092   3.183   6.085   3.592
 2398SOL    HW1 8093   3.235   6.043   3.518
 2398SOL    HW2 8094   3.126   6.158   3.556
 2399SOL     OW 8095   2.680   2.333   4.247
 2399SOL    HW1 8096   2.645   2.323   4.340
 2399SOL    HW2 8097   2.620   2.394   4.196
 2400SOL     OW 8098   0.519   4.301   0.801
 2400SOL    HW1 8099   0.428   4.295   0.840
 2400SOL    HW2 8100   0.577   4.358   0.858
 2401SOL     OW 8101   3.216   6.664   5.825
 2401SOL    HW1 8102   3.134   6.717   5.803
 2401SOL    HW2 8103   3.256   6.628   5.740
 2402SOL     OW 8104   1.178   4.418   2.687
 2402SOL    HW1 8105   1.244   4.357   2.642
 2402SOL    HW2 8106   1.123   4.464   2.617
 2403SOL     OW 8107   3.886   3.992   3.044
 2403SOL    HW1 8108   3.959   3.949   2.992
 2403SOL    HW2 8109   3.922   4.024   3.131
 2404SOL     OW 8110   6.160   1.766   0.715
 2404SOL    HW1 8111   6.244   1.751   0.663
 2404SOL    HW2 8112   6.164   1.713   0.800
 2405SOL     OW 8113   2.246   3.325   0.743
 2405SOL    HW1 8114   2.202   3.261   0.679
 2405SOL    HW2 8115   2.300   3.391   0.691
 2406SOL     OW 8116   2.078   6.344   4.635
 2406SOL    HW1 8117   2.053   6.380   4.724
 2406SOL    HW2 8118   2.177   6.329   4.631
 2407SOL     OW 8119   3.454   1.516   3.710
 2407SOL    HW1 8120   3.380   1.516   3.778
 2407SOL    HW2 8121   3.425   1.568   3.630
 2408SOL     OW 8122   3.397   5.605   4.962
 2408SOL    HW1 8123   3.408   5.694   5.005
 2408SOL    HW2 8124   3.360   5.540   5.028
 2409SOL     OW 8125   1.744   2.820   1.762
 2409SOL    HW1 8126   1.685   2.899   1.746
 2409SOL    HW2 8127   1.820   2.821   1.697
 2410SOL     OW 8128   0.760   3.359   5.324
 2410SOL    HW1 8129   0.691   3.422   5.362
 2410SOL    HW2 8130   0.843   3.410   5.301
 2411SOL     OW 8131   2.889   4.141   0.186
 2411SOL    HW1 8132   2.941   4.223   0.162
 2411SOL    HW2 8133   2.857   4.148   0.281
 2412SOL     OW 8134   3.819   1.701   6.735
 2412SOL    HW1 8135   3.820   1.799   6.714
 2412SOL    HW2 8136   3.757   1.655   6.672
 2413SOL     OW 8137   6.667   2.746   6.979
 2413SOL    HW1 8138   6.592   2.812   6.989
 2413SOL    HW2 8139   6.754   2.791   6.997
 2414SOL     OW 8140   6.286   2.434   4.424
 2414SOL    HW1 8141   6.210   2.370   4.433
 2414SOL    HW2 8142   6.342   2.431   4.507
 2415SOL     OW 8143   2.563   5.681   0.869
 2415SOL    HW1 8144   2.630   5.651   0.801
 2415SOL    HW2 8145   2.586   5.640   0.958
 2416SOL     OW 8146   6.779   3.593   2.518
 2416SOL    HW1 8147   6.735   3.559   2.435
 2416SOL    HW2 8148   6.873   3.559   2.522
 2417SOL     OW 8149   3.139   3.420   1.165
 2417SOL    HW1 8150   3.140   3.328   1.204
 2417SOL    HW2 8151   3.164   3.486   1.235
 2418SOL     OW 8152   4.471   3.792   5.812
 2418SOL    HW1 8153   4.418   3.764   5.892
 2418SOL    HW2 8154   4.448   3.734   5.734
 2419SOL     OW 8155   1.472   6.480   4.362
 2419SOL    HW1 8156   1.497   6.544   4.290
 2419SOL    HW2 8157   1.499   6.388   4.336
 2420SOL     OW 8158   1.364   4.258   2.563
 2420SOL    HW1 8159   1.288   4.195   2.545
 2420SOL    HW2 8160   1.448   4.205   2.577
 2421SOL     OW 8161   2.654   6.638   4.159
 2421SOL    HW1 8162   2.713   6.702   4.207
 2421SOL    HW2 8163   2.709   6.574   4.106
 2422SOL     OW 8164   4.540   6.260   0.198
 2422SOL    HW1 8165   4.606   6.334   0.187
 2422SOL    HW2 8166   4.589   6.173   0.210
 2423SOL     OW 8167   2.544   5.160   2.357
 2423SOL    HW1 8168   2.545   5.260   2.366
 2423SOL    HW2 8169   2.591   5.119   2.435
 2424SOL     OW 8170   5.665   1.256   5.670
 2424SOL    HW1 8171   5.628   1.190   5.605
 2424SOL    HW2 8172   5.687   1.341   5.622
 2425SOL     OW 8173   5.300   5.581   5.146
 2425SOL    HW1 8174   5.287   5.672   5.186
 2425SOL    HW2 8175   5.307   5.513   5.219
 2426SOL     OW 8176   2.027   4.963   6.020
 2426SOL    HW1 8177   1.953   4.911   6.063
 2426SOL    HW2 8178   2.115   4.931   6.055
 2427SOL     OW 8179   4.983   0.720   0.139
 2427SOL    HW1 8180   4.946   0.813   0.130
 2427SOL    HW2 8181   5.081   0.722   0.116
 2428SOL     OW 8182   0.286   0.767   3.548
 2428SOL    HW1 8183   0.330   0.738   3.463
 2428SOL    HW2 8184   0.356   0.793   3.615
 2429SOL     OW 8185   5.292   5.589   1.628
 2429SOL    HW1 8186   5.339   5.501   1.622
 2429SOL    HW2 8187   5.347   5.659   1.583
 2430SOL     OW 8188   6.228   2.187   6.306
 2430SOL    HW1 8189   6.249   2.279   6.337
 2430SOL    HW2 8190   6.239   2.123   6.382
 2431SOL     OW 8191   0.036   2.149   1.332
 2431SOL    HW1 8192   0.105   2.104   1.388
 2431SOL    HW2 8193   0.050   2.248   1.337
 2432SOL     OW 8194   3.466   5.212   2.538
 2432SOL    HW1 8195   3.413   5.155   2.601
 2432SOL    HW2 8196   3.450   5.309   2.558
 2433SOL     OW 8197   6.415   4.518   6.454
 2433SOL    HW1 8198   6.461   4.550   6.537
 2433SOL    HW2 8199   6.356   4.440   6.476
 2434SOL     OW 8200   4.597   1.672   3.119
 2434SOL    HW1 8201   4.626   1.754   3.069
 2434SOL    HW2 8202   4.544   1.614   3.058
 2435SOL     OW 8203   5.520   6.605   6.770
 2435SOL    HW1 8204   5.507   6.627   6.673
 2435SOL    HW2 8205   5.611   6.635   6.799
 2436SOL     OW 8206   2.321   1.633   2.050
 2436SOL    HW1 8207   2.398   1.694   2.029
 2436SOL    HW2 8208   2.335   1.591   2.139
 2437SOL     OW 8209   7.018   4.580   2.749
 2437SOL    HW1 8210   0.066   4.510   2.739
 2437SOL    HW2 8211   0.039   4.667   2.775
 2438SOL     OW 8212   3.427   1.603   5.031
 2438SOL    HW1 8213   3.346   1.635   5.081
 2438SOL    HW2 8214   3.404   1.594   4.934
 2439SOL     OW 8215   0.773   5.849   0.886
 2439SOL    HW1 8216   0.826   5.885   0.963
 2439SOL    HW2 8217   0.695   5.910   0.868
 2440SOL     OW 8218   5.157   1.037   5.226
 2440SOL    HW1 8219   5.078   1.070   5.276
 2440SOL    HW2 8220   5.197   0.959   5.274
 2441SOL     OW 8221   5.842   0.383   0.001
 2441SOL    HW1 8222   5.789   0.302   6.996
 2441SOL    HW2 8223   5.877   0.370   0.094
 2442SOL     OW 8224   5.010   3.181   2.032
 2442SOL    HW1 8225   5.083   3.120   2.001
 2442SOL    HW2 8226   4.963   3.138   2.110
 2443SOL     OW 8227   2.048   2.213   0.782
 2443SOL    HW1 8228   1.949   2.219   0.770
 2443SOL    HW2 8229   2.079   2.120   0.760
 2444SOL     OW 8230   3.814   5.940   1.426
 2444SOL    HW1 8231   3.719   5.958   1.451
 2444SOL    HW2 8232   3.816   5.877   1.348
 2445SOL     OW 8233   6.798   2.735   0.792
 2445SOL    HW1 8234   6.810   2.812   0.730
 2445SOL    HW2 8235   6.785   2.769   0.886
 2446SOL     OW 8236   1.888   4.399   1.218
 2446SOL    HW1 8237   1.829   4.372   1.141
 2446SOL    HW2 8238   1.915   4.318   1.269
 2447SOL     OW 8239   3.600   0.167   0.743
 2447SOL    HW1 8240   3.511   0.189   0.703
 2447SOL    HW2 8241   3.627   0.074   0.716
 2448SOL     OW 8242   6.012   1.395   3.579
 2448SOL    HW1 8243   6.038   1.462   3.649
 2448SOL    HW2 8244   5.917   1.369   3.592
 2449SOL     OW 8245   1.573   4.370   1.583
 2449SOL    HW1 8246   1.525   4.368   1.496
 2449SOL    HW2 8247   1.593   4.464   1.609
 2450SOL     OW 8248   1.739   6.133   6.061
 2450SOL    HW1 8249   1.725   6.084   5.974
 2450SOL    HW2 8250   1.719   6.230   6.048
 2451SOL     OW 8251   0.791   0.188   4.944
 2451SOL    HW1 8252   0.827   0.248   4.873
 2451SOL    HW2 8253   0.703   0.224   4.976
 2452SOL     OW 8254   2.788   1.905   3.859
 2452SOL    HW1 8255   2.748   1.953   3.781
 2452SOL    HW2 8256   2.749   1.941   3.944
 2453SOL     OW 8257   1.051   1.633   6.631
 2453SOL    HW1 8258   1.139   1.677   6.650
 2453SOL    HW2 8259   1.014   1.668   6.545
 2454SOL     OW 8260   3.513   5.708   0.924
 2454SOL    HW1 8261   3.498   5.640   0.995
 2454SOL    HW2 8262   3.465   5.680   0.841
 2455SOL     OW 8263   3.983   1.258   0.338
 2455SOL    HW1 8264   4.052   1.195   0.303
 2455SOL    HW2 8265   3.989   1.344   0.287
 2456SOL     OW 8266   0.634   4.463   6.813
 2456SOL    HW1 8267   0.672   4.467   6.906
 2456SOL    HW2 8268   0.535   4.469   6.817
 2457SOL     OW 8269   5.440   2.154   5.373
 2457SOL    HW1 8270   5.503   2.171   5.449
 2457SOL    HW2 8271   5.455   2.062   5.338
 2458SOL     OW 8272   1.479   6.902   2.270
 2458SOL    HW1 8273   1.483   6.882   2.172
 2458SOL    HW2 8274   1.405   6.968   2.288
 2459SOL     OW 8275   2.525   5.984   1.216
 2459SOL    HW1 8276   2.593   5.995   1.144
 2459SOL    HW2 8277   2.562   6.018   1.303
 2460SOL     OW 8278   1.591   0.924   5.811
 2460SOL    HW1 8279   1.549   0.974   5.887
 2460SOL    HW2 8280   1.521   0.870   5.764
 2461SOL     OW 8281   3.772   1.258   4.409
 2461SOL    HW1 8282   3.838   1.227   4.340
 2461SOL    HW2 8283   3.679   1.238   4.378
 2462SOL     OW 8284   0.384   5.275   0.950
 2462SOL    HW1 8285   0.389   5.361   1.001
 2462SOL    HW2 8286   0.370   5.199   1.014
 2463SOL     OW 8287   0.047   1.049   6.449
 2463SOL    HW1 8288   7.021   1.083   6.530
 2463SOL    HW2 8289   7.009   0.990   6.396
 2464SOL     OW 8290   0.646   2.034   3.193
 2464SOL    HW1 8291   0.658   2.115   3.250
 2464SOL    HW2 8292   0.594   1.965   3.243
 2465SOL     OW 8293   0.993   4.864   5.709
 2465SOL    HW1 8294   1.046   4.780   5.709
 2465SOL    HW2 8295   1.053   4.941   5.733
 2466SOL     OW 8296   1.083   2.292   1.949
 2466SOL    HW1 8297   1.165   2.321   1.999
 2466SOL    HW2 8298   1.090   2.324   1.854
 2467SOL     OW 8299   5.040   1.319   5.906
 2467SOL    HW1 8300   5.132   1.353   5.892
 2467SOL    HW2 8301   4.974   1.390   5.882
 2468SOL     OW 8302   3.613   0.029   5.501
 2468SOL    HW1 8303   3.684   7.003   5.449
 2468SOL    HW2 8304   3.654   0.069   5.583
 2469SOL     OW 8305   3.462   2.911   5.391
 2469SOL    HW1 8306   3.474   2.929   5.489
 2469SOL    HW2 8307   3.548   2.929   5.344
 2470SOL     OW 8308   3.620   4.992   0.245
 2470SOL    HW1 8309   3.552   5.029   0.308
 2470SOL    HW2 8310   3.591   4.902   0.212
 2471SOL     OW 8311   4.246   6.101   1.348
 2471SOL    HW1 8312   4.310   6.067   1.279
 2471SOL    HW2 8313   4.233   6.199   1.334
 2472SOL     OW 8314   4.761   1.909   4.224
 2472SOL    HW1 8315   4.800   1.999   4.202
 2472SOL    HW2 8316   4.677   1.897   4.172
 2473SOL     OW 8317   0.453   4.778   5.013
 2473SOL    HW1 8318   0.379   4.726   5.056
 2473SOL    HW2 8319   0.538   4.764   5.064
 2474SOL     OW 8320   0.847   5.799   1.637
 2474SOL    HW1 8321   0.903   5.875   1.669
 2474SOL    HW2 8322   0.828   5.811   1.539
 2475SOL     OW 8323   5.037   0.442   0.696
 2475SOL    HW1 8324   5.105   0.511   0.670
 2475SOL    HW2 8325   5.076   0.380   0.764
 2476SOL     OW 8326   6.120   0.484   0.600
 2476SOL    HW1 8327   6.140   0.559   0.663
 2476SOL    HW2 8328   6.096   0.402   0.652
 2477SOL     OW 8329   3.693   0.646   3.533
 2477SOL    HW1 8330   3.674   0.583   3.609
 2477SOL    HW2 8331   3.686   0.596   3.447
 2478SOL     OW 8332   4.321   1.725   3.267
 2478SOL    HW1 8333   4.385   1.791   3.306
 2478SOL    HW2 8334   4.364   1.680   3.188
 2479SOL     OW 8335   0.711   3.002   0.863
 2479SOL    HW1 8336   0.704   3.020   0.962
 2479SOL    HW2 8337   0.805   2.973   0.842
 2480SOL     OW 8338   3.313   2.562   1.111
 2480SOL    HW1 8339   3.405   2.537   1.142
 2480SOL    HW2 8340   3.301   2.661   1.117
 2481SOL     OW 8341   3.423   0.947   1.524
 2481SOL    HW1 8342   3.385   1.031   1.486
 2481SOL    HW2 8343   3.483   0.969   1.601
 2482SOL     OW 8344   5.619   3.719   6.876
 2482SOL    HW1 8345   5.545   3.673   6.925
 2482SOL    HW2 8346   5.703   3.714   6.931
 2483SOL     OW 8347   0.770   2.534   0.515
 2483SOL    HW1 8348   0.716   2.599   0.460
 2483SOL    HW2 8349   0.789   2.453   0.461
 2484SOL     OW 8350   4.867   1.543   2.502
 2484SOL    HW1 8351   4.813   1.611   2.552
 2484SOL    HW2 8352   4.810   1.501   2.432
 2485SOL     OW 8353   5.132   2.271   6.171
 2485SOL    HW1 8354   5.199   2.225   6.112
 2485SOL    HW2 8355   5.059   2.310   6.114
 2486SOL     OW 8356   0.592   4.371   5.930
 2486SOL    HW1 8357   0.676   4.325   5.959
 2486SOL    HW2 8358   0.546   4.410   6.010
 2487SOL     OW 8359   4.929   6.347   0.732
 2487SOL    HW1 8360   4.890   6.264   0.692
 2487SOL    HW2 8361   4.975   6.325   0.817
 2488SOL     OW 8362   6.873   4.390   2.003
 2488SOL    HW1 8363   6.913   4.480   1.985
 2488SOL    HW2 8364   6.926   4.320   1.956
 2489SOL     OW 8365   0.239   6.173   4.175
 2489SOL    HW1 8366   0.227   6.269   4.151
 2489SOL    HW2 8367   0.287   6.125   4.101
 2490SOL     OW 8368   1.906   6.150   2.292
 2490SOL    HW1 8369   1.898   6.163   2.193
 2490SOL    HW2 8370   1.869   6.060   2.317
 2491SOL     OW 8371   4.237   4.524   1.744
 2491SOL    HW1 8372   4.255   4.541   1.647
 2491SOL    HW2 8373   4.238   4.425   1.760
 2492SOL     OW 8374   5.098   3.471   0.716
 2492SOL    HW1 8375   5.065   3.378   0.734
 2492SOL    HW2 8376   5.038   3.516   0.651
 2493SOL     OW 8377   6.895   6.518   1.301
 2493SOL    HW1 8378   6.909   6.611   1.265
 2493SOL    HW2 8379   6.808   6.483   1.267
 2494SOL     OW 8380   6.036   2.462   1.684
 2494SOL    HW1 8381   6.121   2.470   1.736
 2494SOL    HW2 8382   6.015   2.365   1.669
 2495SOL     OW 8383   5.261   5.833   3.549
 2495SOL    HW1 8384   5.248   5.825   3.648
 2495SOL    HW2 8385   5.197   5.773   3.502
 2496SOL     OW 8386   0.045   3.547   6.890
 2496SOL    HW1 8387   6.987   3.591   6.931
 2496SOL    HW2 8388   0.031   3.539   6.791
 2497SOL     OW 8389   0.316   0.520   0.905
 2497SOL    HW1 8390   0.274   0.557   0.822
 2497SOL    HW2 8391   0.416   0.527   0.898
 2498SOL     OW 8392   3.212   2.928   5.796
 2498SOL    HW1 8393   3.305   2.957   5.815
 2498SOL    HW2 8394   3.159   3.007   5.765
 2499SOL     OW 8395   5.990   3.174   1.106
 2499SOL    HW1 8396   5.976   3.079   1.078
 2499SOL    HW2 8397   5.903   3.223   1.103
 2500SOL     OW 8398   3.448   3.738   5.958
 2500SOL    HW1 8399   3.391   3.713   6.036
 2500SOL    HW2 8400   3.439   3.670   5.886
 2501SOL     OW 8401   5.801   5.954   6.880
 2501SOL    HW1 8402   5.786   5.942   6.978
 2501SOL    HW2 8403   5.881   5.901   6.851
 2502SOL     OW 8404   2.175   6.220   5.052
 2502SOL    HW1 8405   2.213   6.156   4.985
 2502SOL    HW2 8406   2.105   6.276   5.008
 2503SOL     OW 8407   3.004   6.350   5.779
 2503SOL    HW1 8408   3.029   6.300   5.862
 2503SOL    HW2 8409   2.940   6.423   5.802
 2504SOL     OW 8410   3.151   5.117   2.599
 2504SOL    HW1 8411   3.096   5.091   2.679
 2504SOL    HW2 8412   3.164   5.216   2.598
 2505SOL     OW 8413   0.324   5.723   3.298
 2505SOL    HW1 8414   0.316   5.818   3.268
 2505SOL    HW2 8415   0.416   5.689   3.278
 2506SOL     OW 8416   6.000   3.737   5.940
 2506SOL    HW1 8417   6.040   3.687   5.864
 2506SOL    HW2 8418   5.900   3.735   5.932
 2507SOL     OW 8419   6.967   3.313   0.042
 2507SOL    HW1 8420   6.874   3.292   0.072
 2507SOL    HW2 8421   6.972   3.309   6.964
 2508SOL     OW 8422   2.796   2.335   4.811
 2508SOL    HW1 8423   2.888   2.300   4.796
 2508SOL    HW2 8424   2.790   2.376   4.902
 2509SOL     OW 8425   6.796   4.203   0.015
 2509SOL    HW1 8426   6.720   4.160   0.065
 2509SOL    HW2 8427   6.821   4.145   6.959
 2510SOL     OW 8428   3.742   4.044   1.463
 2510SOL    HW1 8429   3.746   3.961   1.518
 2510SOL    HW2 8430   3.652   4.088   1.475
 2511SOL     OW 8431   2.371   1.161   5.194
 2511SOL    HW1 8432   2.282   1.207   5.199
 2511SOL    HW2 8433   2.370   1.079   5.251
 2512SOL     OW 8434   3.910   4.590   5.379
 2512SOL    HW1 8435   3.990   4.618   5.328
 2512SOL    HW2 8436   3.863   4.515   5.331
 2513SOL     OW 8437   2.331   6.097   5.977
 2513SOL    HW1 8438   2.242   6.053   5.985
 2513SOL    HW2 8439   2.399   6.030   5.948
 2514SOL     OW 8440   0.713   3.583   4.256
 2514SOL    HW1 8441   0.697   3.487   4.278
 2514SOL    HW2 8442   0.787   3.618   4.313
 2515SOL     OW 8443   2.294   0.335   1.575
 2515SOL    HW1 8444   2.228   0.407   1.593
 2515SOL    HW2 8445   2.285   0.303   1.481
 2516SOL     OW 8446   4.886   1.340   3.215
 2516SOL    HW1 8447   4.868   1.394   3.133
 2516SOL    HW2 8448   4.985   1.331   3.227
 2517SOL     OW 8449   2.223   0.371   5.762
 2517SOL    HW1 8450   2.273   0.454   5.739
 2517SOL    HW2 8451   2.283   0.308   5.811
 2518SOL     OW 8452   1.953   5.856   0.904
 2518SOL    HW1 8453   2.047   5.830   0.884
 2518SOL    HW2 8454   1.903   5.775   0.935
 2519SOL     OW 8455   3.501   1.082   1.231
 2519SOL    HW1 8456   3.413   1.037   1.243
 2519SOL    HW2 8457   3.544   1.098   1.320
 2520SOL     OW 8458   3.354   2.025   6.850
 2520SOL    HW1 8459   3.341   1.927   6.864
 2520SOL    HW2 8460   3.323   2.075   6.931
 2521SOL     OW 8461   3.869   1.985   5.436
 2521SOL    HW1 8462   3.840   1.891   5.457
 2521SOL    HW2 8463   3.968   1.988   5.428
 2522SOL     OW 8464   1.079   1.684   5.288
 2522SOL    HW1 8465   1.011   1.637   5.345
 2522SOL    HW2 8466   1.109   1.768   5.334
 2523SOL     OW 8467   1.583   4.043   0.862
 2523SOL    HW1 8468   1.562   3.976   0.934
 2523SOL    HW2 8469   1.682   4.052   0.853
 2524SOL     OW 8470   0.244   6.937   4.750
 2524SOL    HW1 8471   0.325   6.992   4.769
 2524SOL    HW2 8472   0.242   6.857   4.810
 2525SOL     OW 8473   1.404   3.360   4.931
 2525SOL    HW1 8474   1.314   3.382   4.970
 2525SOL    HW2 8475   1.465   3.329   5.004
 2526SOL     OW 8476   1.649   4.861   6.844
 2526SOL    HW1 8477   1.743   4.840   6.817
 2526SOL    HW2 8478   1.638   4.959   6.855
 2527SOL     OW 8479   5.675   5.819   5.557
 2527SOL    HW1 8480   5.740   5.746   5.538
 2527SOL    HW2 8481   5.645   5.812   5.652
 2528SOL     OW 8482   5.377   3.992   5.404
 2528SOL    HW1 8483   5.459   3.973   5.351
 2528SOL    HW2 8484   5.400   4.057   5.478
 2529SOL     OW 8485   0.743   0.538   6.437
 2529SOL    HW1 8486   0.789   0.474   6.498
 2529SOL    HW2 8487   0.812   0.582   6.378
 2530SOL     OW 8488   2.181   5.833   5.744
 2530SOL    HW1 8489   2.157   5.930   5.740
 2530SOL    HW2 8490   2.209   5.802   5.653
 2531SOL     OW 8491   5.631   5.645   5.930
 2531SOL    HW1 8492   5.553   5.604   5.979
 2531SOL    HW2 8493   5.703   5.577   5.919
 2532SOL     OW 8494   0.169   6.030   0.829
 2532SOL    HW1 8495   0.200   6.099   0.764
 2532SOL    HW2 8496   0.205   5.941   0.803
 2533SOL     OW 8497   4.527   1.409   3.812
 2533SOL    HW1 8498   4.436   1.438   3.782
 2533SOL    HW2 8499   4.525   1.385   3.909
 2534SOL     OW 8500   4.725   1.555   1.623
 2534SOL    HW1 8501   4.769   1.548   1.712
 2534SOL    HW2 8502   4.781   1.509   1.554
 2535SOL     OW 8503   3.287   2.710   0.009
 2535SOL    HW1 8504   3.235   2.719   0.095
 2535SOL    HW2 8505   3.315   2.801   7.000
 2536SOL     OW 8506   1.507   1.090   5.991
 2536SOL    HW1 8507   1.592   1.115   6.038
 2536SOL    HW2 8508   1.432   1.087   6.057
 2537SOL     OW 8509   3.337   6.758   6.264
 2537SOL    HW1 8510   3.330   6.670   6.218
 2537SOL    HW2 8511   3.431   6.773   6.293
 2538SOL     OW 8512   0.477   4.139   3.999
 2538SOL    HW1 8513   0.414   4.118   4.074
 2538SOL    HW2 8514   0.444   4.098   3.915
 2539SOL     OW 8515   5.473   0.700   3.818
 2539SOL    HW1 8516   5.407   0.646   3.766
 2539SOL    HW2 8517   5.531   0.752   3.755
 2540SOL     OW 8518   4.318   2.111   2.991
 2540SOL    HW1 8519   4.346   2.157   2.907
 2540SOL    HW2 8520   4.399   2.076   3.038
 2541SOL     OW 8521   2.454   6.670   5.566
 2541SOL    HW1 8522   2.373   6.726   5.557
 2541SOL    HW2 8523   2.468   6.646   5.662
 2542SOL     OW 8524   3.236   4.053   6.744
 2542SOL    HW1 8525   3.161   4.084   6.686
 2542SOL    HW2 8526   3.211   4.067   6.840
 2543SOL     OW 8527   1.103   1.253   4.114
 2543SOL    HW1 8528   1.034   1.277   4.046
 2543SOL    HW2 8529   1.090   1.159   4.143
 2544SOL     OW 8530   0.390   5.917   0.654
 2544SOL    HW1 8531   0.400   5.990   0.587
 2544SOL    HW2 8532   0.459   5.846   0.636
 2545SOL     OW 8533   1.526   0.049   2.545
 2545SOL    HW1 8534   1.594   0.106   2.591
 2545SOL    HW2 8535   1.572   6.991   2.506
 2546SOL     OW 8536   6.591   1.852   0.967
 2546SOL    HW1 8537   6.672   1.878   1.020
 2546SOL    HW2 8538   6.619   1.795   0.890
 2547SOL     OW 8539   0.478   3.409   6.879
 2547SOL    HW1 8540   0.413   3.464   6.931
 2547SOL    HW2 8541   0.472   3.432   6.782
 2548SOL     OW 8542   0.336   0.238   4.510
 2548SOL    HW1 8543   0.405   0.303   4.478
 2548SOL    HW2 8544   0.358   0.207   4.602
 2549SOL     OW 8545   0.949   0.748   1.632
 2549SOL    HW1 8546   1.033   0.714   1.673
 2549SOL    HW2 8547   0.970   0.819   1.565
 2550SOL     OW 8548   6.247   6.306   0.568
 2550SOL    HW1 8549   6.256   6.385   0.629
 2550SOL    HW2 8550   6.334   6.290   0.521
 2551SOL     OW 8551   3.214   4.839   0.492
 2551SOL    HW1 8552   3.291   4.787   0.531
 2551SOL    HW2 8553   3.178   4.902   0.561
 2552SOL     OW 8554   2.480   5.548   5.185
 2552SOL    HW1 8555   2.457   5.470   5.242
 2552SOL    HW2 8556   2.573   5.537   5.147
 2553SOL     OW 8557   4.061   3.523   5.891
 2553SOL    HW1 8558   4.013   3.581   5.956
 2553SOL    HW2 8559   4.069   3.571   5.803
 2554SOL     OW 8560   2.451   1.287   0.270
 2554SOL    HW1 8561   2.467   1.372   0.219
 2554SOL    HW2 8562   2.507   1.288   0.354
 2555SOL     OW 8563   5.342   2.362   4.316
 2555SOL    HW1 8564   5.285   2.411   4.381
 2555SOL    HW2 8565   5.285   2.314   4.250
 2556SOL     OW 8566   4.044   5.840   0.232
 2556SOL    HW1 8567   4.106   5.899   0.181
 2556SOL    HW2 8568   4.018   5.762   0.176
 2557SOL     OW 8569   1.753   3.428   6.942
 2557SOL    HW1 8570   1.758   3.488   6.863
 2557SOL    HW2 8571   1.661   3.389   6.949
 2558SOL     OW 8572   5.260   0.853   5.382
 2558SOL    HW1 8573   5.230   0.763   5.351
 2558SOL    HW2 8574   5.206   0.880   5.462
 2559SOL     OW 8575   1.197   4.271   5.797
 2559SOL    HW1 8576   1.163   4.325   5.874
 2559SOL    HW2 8577   1.148   4.185   5.792
 2560SOL     OW 8578   6.708   2.564   5.718
 2560SOL    HW1 8579   6.621   2.513   5.716
 2560SOL    HW2 8580   6.781   2.506   5.684
 2561SOL     OW 8581   3.118   5.236   5.247
 2561SOL    HW1 8582   3.077   5.240   5.156
 2561SOL    HW2 8583   3.134   5.141   5.272
 2562SOL     OW 8584   2.357   4.509   1.195
 2562SOL    HW1 8585   2.272   4.549   1.159
 2562SOL    HW2 8586   2.342   4.479   1.289
 2563SOL     OW 8587   3.085   1.271   0.680
 2563SOL    HW1 8588   3.067   1.357   0.632
 2563SOL    HW2 8589   3.141   1.289   0.760
 2564SOL     OW 8590   1.180   5.041   0.718
 2564SOL    HW1 8591   1.244   5.114   0.742
 2564SOL    HW2 8592   1.186   4.968   0.786
 2565SOL     OW 8593   0.953   0.720   0.507
 2565SOL    HW1 8594   1.030   0.679   0.458
 2565SOL    HW2 8595   0.920   0.799   0.455
 2566SOL     OW 8596   2.493   6.550   1.546
 2566SOL    HW1 8597   2.519   6.455   1.533
 2566SOL    HW2 8598   2.455   6.586   1.461
 2567SOL     OW 8599   1.449   0.096   1.174
 2567SOL    HW1 8600   1.493   0.061   1.257
 2567SOL    HW2 8601   1.358   0.130   1.197
 2568SOL     OW 8602   4.292   2.404   6.756
 2568SOL    HW1 8603   4.207   2.400   6.808
 2568SOL    HW2 8604   4.341   2.488   6.778
 2569SOL     OW 8605   3.569   1.238   3.350
 2569SOL    HW1 8606   3.548   1.151   3.305
 2569SOL    HW2 8607   3.514   1.311   3.309
 2570SOL     OW 8608   5.902   0.960   5.633
 2570SOL    HW1 8609   5.989   0.958   5.683
 2570SOL    HW2 8610   5.833   0.908   5.684
 2571SOL     OW 8611   1.542   5.058   3.862
 2571SOL    HW1 8612   1.496   5.143   3.834
 2571SOL    HW2 8613   1.551   4.997   3.784
 2572SOL     OW 8614   3.037   5.047   2.817
 2572SOL    HW1 8615   2.999   4.990   2.891
 2572SOL    HW2 8616   3.000   5.139   2.824
 2573SOL     OW 8617   0.896   1.821   0.813
 2573SOL    HW1 8618   0.828   1.842   0.742
 2573SOL    HW2 8619   0.872   1.734   0.857
 2574SOL     OW 8620   5.355   3.377   0.805
 2574SOL    HW1 8621   5.324   3.290   0.843
 2574SOL    HW2 8622   5.278   3.440   0.799
 2575SOL     OW 8623   6.081   5.847   6.460
 2575SOL    HW1 8624   5.996   5.871   6.506
 2575SOL    HW2 8625   6.062   5.812   6.368
 2576SOL     OW 8626   4.505   6.447   4.840
 2576SOL    HW1 8627   4.460   6.358   4.840
 2576SOL    HW2 8628   4.437   6.519   4.844
 2577SOL     OW 8629   2.912   4.774   2.403
 2577SOL    HW1 8630   2.818   4.810   2.401
 2577SOL    HW2 8631   2.976   4.847   2.381
 2578SOL     OW 8632   3.902   1.411   3.761
 2578SOL    HW1 8633   3.867   1.428   3.853
 2578SOL    HW2 8634   3.909   1.497   3.711
 2579SOL     OW 8635   0.278   6.334   3.786
 2579SOL    HW1 8636   0.270   6.238   3.759
 2579SOL    HW2 8637   0.308   6.339   3.881
 2580SOL     OW 8638   2.061   4.781   0.305
 2580SOL    HW1 8639   2.116   4.713   0.354
 2580SOL    HW2 8640   2.017   4.737   0.227
 2581SOL     OW 8641   2.316   6.060   6.918
 2581SOL    HW1 8642   2.368   6.045   6.834
 2581SOL    HW2 8643   2.346   5.996   6.989
 2582SOL     OW 8644   6.994   4.044   1.306
 2582SOL    HW1 8645   7.015   4.122   1.247
 2582SOL    HW2 8646   0.034   4.044   1.385
 2583SOL     OW 8647   0.478   0.397   0.344
 2583SOL    HW1 8648   0.484   0.493   0.371
 2583SOL    HW2 8649   0.482   0.391   0.244
 2584SOL     OW 8650   4.757   4.963   5.675
 2584SOL    HW1 8651   4.815   4.889   5.709
 2584SOL    HW2 8652   4.661   4.939   5.689
 2585SOL     OW 8653   3.333   4.949   6.962
 2585SOL    HW1 8654   3.339   5.005   6.880
 2585SOL    HW2 8655   3.243   4.962   7.005
 2586SOL     OW 8656   2.844   1.041   5.832
 2586SOL    HW1 8657   2.927   1.086   5.799
 2586SOL    HW2 8658   2.869   0.952   5.871
 2587SOL     OW 8659   0.630   1.156   3.057
 2587SOL    HW1 8660   0.601   1.217   3.131
 2587SOL    HW2 8661   0.622   1.204   2.970
 2588SOL     OW 8662   4.065   2.271   5.535
 2588SOL    HW1 8663   4.039   2.291   5.630
 2588SOL    HW2 8664   3.997   2.310   5.473
 2589SOL     OW 8665   0.874   6.596   6.869
 2589SOL    HW1 8666   0.925   6.524   6.821
 2589SOL    HW2 8667   0.836   6.559   6.954
 2590SOL     OW 8668   2.923   4.979   0.476
 2590SOL    HW1 8669   2.879   5.026   0.399
 2590SOL    HW2 8670   3.022   4.976   0.461
 2591SOL     OW 8671   5.922   5.468   3.619
 2591SOL    HW1 8672   5.905   5.543   3.556
 2591SOL    HW2 8673   5.983   5.498   3.692
 2592SOL     OW 8674   2.358   4.245   6.717
 2592SOL    HW1 8675   2.396   4.289   6.635
 2592SOL    HW2 8676   2.393   4.152   6.724
 2593SOL     OW 8677   3.246   5.858   1.009
 2593SOL    HW1 8678   3.232   5.894   0.917
 2593SOL    HW2 8679   3.268   5.760   1.004
 2594SOL     OW 8680   2.520   4.378   6.119
 2594SOL    HW1 8681   2.598   4.394   6.058
 2594SOL    HW2 8682   2.450   4.326   6.070
 2595SOL     OW 8683   0.853   1.431   4.431
 2595SOL    HW1 8684   0.811   1.408   4.519
 2595SOL    HW2 8685   0.949   1.404   4.433
 2596SOL     OW 8686   1.628   2.988   1.393
 2596SOL    HW1 8687   1.619   3.085   1.373
 2596SOL    HW2 8688   1.626   2.936   1.308
 2597SOL     OW 8689   0.245   5.077   5.936
 2597SOL    HW1 8690   0.189   5.046   6.013
 2597SOL    HW2 8691   0.318   5.137   5.971
 2598SOL     OW 8692   5.727   1.519   1.812
 2598SOL    HW1 8693   5.783   1.600   1.795
 2598SOL    HW2 8694   5.740   1.453   1.737
 2599SOL     OW 8695   2.477   6.287   1.466
 2599SOL    HW1 8696   2.388   6.281   1.512
 2599SOL    HW2 8697   2.464   6.272   1.368
 2600SOL     OW 8698   6.227   3.549   4.711
 2600SOL    HW1 8699   6.301   3.505   4.762
 2600SOL    HW2 8700   6.213   3.641   4.747
 2601SOL     OW 8701   1.715   1.804   1.955
 2601SOL    HW1 8702   1.623   1.830   1.985
 2601SOL    HW2 8703   1.725   1.824   1.857
 2602SOL     OW 8704   2.193   4.779   4.065
 2602SOL    HW1 8705   2.171   4.830   4.148
 2602SOL    HW2 8706   2.223   4.842   3.994
 2603SOL     OW 8707   2.820   0.932   2.378
 2603SOL    HW1 8708   2.789   0.850   2.425
 2603SOL    HW2 8709   2.767   0.945   2.294
 2604SOL     OW 8710   5.187   1.838   1.680
 2604SOL    HW1 8711   5.137   1.757   1.711
 2604SOL    HW2 8712   5.282   1.814   1.660
 2605SOL     OW 8713   1.125   4.010   2.070
 2605SOL    HW1 8714   1.191   3.937   2.053
 2605SOL    HW2 8715   1.167   4.079   2.129
 2606SOL     OW 8716   5.619   4.602   1.307
 2606SOL    HW1 8717   5.683   4.571   1.377
 2606SOL    HW2 8718   5.660   4.589   1.217
 2607SOL     OW 8719   1.565   2.486   1.260
 2607SOL    HW1 8720   1.521   2.536   1.335
 2607SOL    HW2 8721   1.511   2.496   1.177
 2608SOL     OW 8722   1.819   6.382   6.950
 2608SOL    HW1 8723   1.768   6.416   0.007
 2608SOL    HW2 8724   1.893   6.323   6.981
 2609SOL     OW 8725   0.800   1.021   0.857
 2609SOL    HW1 8726   0.718   0.995   0.806
 2609SOL    HW2 8727   0.775   1.083   0.931
 2610SOL     OW 8728   1.127   5.105   4.440
 2610SOL    HW1 8729   1.182   5.165   4.383
 2610SOL    HW2 8730   1.070   5.046   4.382
 2611SOL     OW 8731   4.835   6.353   7.009
 2611SOL    HW1 8732   4.800   6.401   0.067
 2611SOL    HW2 8733   4.904   6.286   0.016
 2612SOL     OW 8734   5.001   0.149   4.642
 2612SOL    HW1 8735   4.930   0.175   4.707
 2612SOL    HW2 8736   5.034   0.231   4.595
 2613SOL     OW 8737   0.916   5.939   6.553
 2613SOL    HW1 8738   0.820   5.967   6.553
 2613SOL    HW2 8739   0.926   5.855   6.500
 2614SOL     OW 8740   5.935   1.314   5.928
 2614SOL    HW1 8741   5.998   1.278   5.859
 2614SOL    HW2 8742   5.848   1.337   5.884
 2615SOL     OW 8743   0.953   3.486   1.151
 2615SOL    HW1 8744   0.932   3.572   1.105
 2615SOL    HW2 8745   0.874   3.425   1.144
 2616SOL     OW 8746   1.626   0.896   5.184
 2616SOL    HW1 8747   1.538   0.853   5.206
 2616SOL    HW2 8748   1.611   0.990   5.154
 2617SOL     OW 8749   5.300   0.213   0.622
 2617SOL    HW1 8750   5.245   0.191   0.541
 2617SOL    HW2 8751   5.241   0.255   0.691
 2618SOL     OW 8752   1.595   5.632   5.910
 2618SOL    HW1 8753   1.581   5.709   5.972
 2618SOL    HW2 8754   1.690   5.602   5.915
 2619SOL     OW 8755   4.119   1.860   1.883
 2619SOL    HW1 8756   4.033   1.837   1.930
 2619SOL    HW2 8757   4.103   1.937   1.821
 2620SOL     OW 8758   6.399   5.917   1.744
 2620SOL    HW1 8759   6.464   5.841   1.741
 2620SOL    HW2 8760   6.324   5.894   1.807
 2621SOL     OW 8761   0.425   5.726   2.945
 2621SOL    HW1 8762   0.430   5.727   3.044
 2621SOL    HW2 8763   0.421   5.820   2.911
 2622SOL     OW 8764   3.017   3.116   5.888
 2622SOL    HW1 8765   2.985   3.211   5.880
 2622SOL    HW2 8766   2.979   3.075   5.971
 2623SOL     OW 8767   0.498   6.902   4.410
 2623SOL    HW1 8768   0.468   6.957   4.331
 2623SOL    HW2 8769   0.536   6.816   4.377
 2624SOL     OW 8770   6.548   1.974   4.335
 2624SOL    HW1 8771   6.625   1.936   4.385
 2624SOL    HW2 8772   6.551   1.942   4.240
 2625SOL     OW 8773   1.795   5.379   5.468
 2625SOL    HW1 8774   1.746   5.310   5.521
 2625SOL    HW2 8775   1.882   5.400   5.512
 2626SOL     OW 8776   6.249   6.789   5.601
 2626SOL    HW1 8777   6.329   6.844   5.575
 2626SOL    HW2 8778   6.274   6.692   5.599
 2627SOL     OW 8779   1.054   0.059   5.882
 2627SOL    HW1 8780   1.121   0.125   5.915
 2627SOL    HW2 8781   1.093   6.988   5.883
 2628SOL     OW 8782   1.688   3.727   3.514
 2628SOL    HW1 8783   1.633   3.708   3.595
 2628SOL    HW2 8784   1.651   3.677   3.436
 2629SOL     OW 8785   3.416   4.102   3.430
 2629SOL    HW1 8786   3.346   4.106   3.358
 2629SOL    HW2 8787   3.500   4.144   3.397
 2630SOL     OW 8788   4.083   1.407   3.188
 2630SOL    HW1 8789   4.109   1.469   3.262
 2630SOL    HW2 8790   3.985   1.386   3.194
 2631SOL     OW 8791   5.542   0.245   6.735
 2631SOL    HW1 8792   5.523   0.163   6.681
 2631SOL    HW2 8793   5.460   0.270   6.786
 2632SOL     OW 8794   5.809   4.921   2.155
 2632SOL    HW1 8795   5.809   4.830   2.197
 2632SOL    HW2 8796   5.718   4.962   2.164
 2633SOL     OW 8797   6.934   2.796   5.199
 2633SOL    HW1 8798   7.014   2.843   5.236
 2633SOL    HW2 8799   6.941   2.698   5.218
 2634SOL     OW 8800   6.211   0.218   4.753
 2634SOL    HW1 8801   6.284   0.166   4.708
 2634SOL    HW2 8802   6.131   0.221   4.693
 2635SOL     OW 8803   5.098   5.604   3.738
 2635SOL    HW1 8804   5.000   5.600   3.719
 2635SOL    HW2 8805   5.146   5.536   3.682
 2636SOL     OW 8806   3.750   0.723   5.886
 2636SOL    HW1 8807   3.782   0.759   5.799
 2636SOL    HW2 8808   3.823   0.672   5.930
 2637SOL     OW 8809   1.035   1.663   2.732
 2637SOL    HW1 8810   1.033   1.734   2.661
 2637SOL    HW2 8811   1.038   1.705   2.822
 2638SOL     OW 8812   1.065   0.387   4.359
 2638SOL    HW1 8813   1.055   0.379   4.459
 2638SOL    HW2 8814   1.161   0.408   4.337
 2639SOL     OW 8815   4.474   4.829   4.619
 2639SOL    HW1 8816   4.561   4.832   4.569
 2639SOL    HW2 8817   4.426   4.916   4.606
 2640SOL     OW 8818   0.849   6.756   4.401
 2640SOL    HW1 8819   0.761   6.709   4.393
 2640SOL    HW2 8820   0.874   6.762   4.497
 2641SOL     OW 8821   5.145   2.606   0.236
 2641SOL    HW1 8822   5.125   2.677   0.303
 2641SOL    HW2 8823   5.071   2.601   0.169
 2642SOL     OW 8824   0.195   1.263   3.925
 2642SOL    HW1 8825   0.111   1.277   3.977
 2642SOL    HW2 8826   0.190   1.176   3.876
 2643SOL     OW 8827   1.099   4.062   3.367
 2643SOL    HW1 8828   1.096   4.093   3.462
 2643SOL    HW2 8829   1.178   4.102   3.321
 2644SOL     OW 8830   4.918   5.446   4.652
 2644SOL    HW1 8831   5.009   5.486   4.642
 2644SOL    HW2 8832   4.906   5.372   4.586
 2645SOL     OW 8833   4.346   5.189   3.748
 2645SOL    HW1 8834   4.358   5.185   3.649
 2645SOL    HW2 8835   4.385   5.107   3.790
 2646SOL     OW 8836   0.531   3.868   5.959
 2646SOL    HW1 8837   0.614   3.879   6.014
 2646SOL    HW2 8838   0.471   3.946   5.974
 2647SOL     OW 8839   5.284   6.844   2.080
 2647SOL    HW1 8840   5.382   6.835   2.063
 2647SOL    HW2 8841   5.268   6.915   2.148
 2648SOL     OW 8842   0.658   0.253   4.258
 2648SOL    HW1 8843   0.643   0.239   4.160
 2648SOL    HW2 8844   0.719   0.182   4.293
 2649SOL     OW 8845   5.032   2.587   1.891
 2649SOL    HW1 8846   4.983   2.667   1.925
 2649SOL    HW2 8847   5.101   2.560   1.958
 2650SOL     OW 8848   3.423   5.868   5.074
 2650SOL    HW1 8849   3.359   5.886   5.000
 2650SOL    HW2 8850   3.433   5.950   5.131
 2651SOL     OW 8851   4.414   1.781   5.463
 2651SOL    HW1 8852   4.389   1.725   5.542
 2651SOL    HW2 8853   4.459   1.724   5.394
 2652SOL     OW 8854   4.993   3.420   5.672
 2652SOL    HW1 8855   4.919   3.487   5.667
 2652SOL    HW2 8856   4.957   3.333   5.704
 2653SOL     OW 8857   3.501   6.434   6.663
 2653SOL    HW1 8858   3.563   6.417   6.740
 2653SOL    HW2 8859   3.551   6.483   6.591
 2654SOL     OW 8860   5.175   0.354   0.197
 2654SOL    HW1 8861   5.247   0.414   0.163
 2654SOL    HW2 8862   5.101   0.350   0.130
 2655SOL     OW 8863   5.141   6.247   3.032
 2655SOL    HW1 8864   5.062   6.300   3.002
 2655SOL    HW2 8865   5.201   6.229   2.954
 2656SOL     OW 8866   3.612   5.523   3.899
 2656SOL    HW1 8867   3.555   5.441   3.902
 2656SOL    HW2 8868   3.695   5.504   3.846
 2657SOL     OW 8869   2.605   3.353   0.559
 2657SOL    HW1 8870   2.541   3.305   0.499
 2657SOL    HW2 8871   2.561   3.432   0.600
 2658SOL     OW 8872   4.215   4.513   6.016
 2658SOL    HW1 8873   4.137   4.529   5.956
 2658SOL    HW2 8874   4.300   4.517   5.963
 2659SOL     OW 8875   5.839   2.265   4.817
 2659SOL    HW1 8876   5.873   2.175   4.842
 2659SOL    HW2 8877   5.743   2.258   4.789
 2660SOL     OW 8878   1.421   1.634   1.161
 2660SOL    HW1 8879   1.460   1.581   1.085
 2660SOL    HW2 8880   1.324   1.648   1.145
 2661SOL     OW 8881   1.728   0.665   1.367
 2661SOL    HW1 8882   1.782   0.748   1.356
 2661SOL    HW2 8883   1.636   0.680   1.329
 2662SOL     OW 8884   3.050   0.910   2.969
 2662SOL    HW1 8885   3.111   0.981   3.005
 2662SOL    HW2 8886   3.064   0.902   2.870
 2663SOL     OW 8887   3.587   6.784   6.343
 2663SOL    HW1 8888   3.609   6.867   6.394
 2663SOL    HW2 8889   3.659   6.766   6.276
 2664SOL     OW 8890   3.928   2.695   5.669
 2664SOL    HW1 8891   3.947   2.656   5.579
 2664SOL    HW2 8892   3.981   2.779   5.680
 2665SOL     OW 8893   2.249   3.900   5.392
 2665SOL    HW1 8894   2.151   3.915   5.386
 2665SOL    HW2 8895   2.291   3.914   5.302
 2666SOL     OW 8896   2.296   4.062   2.101
 2666SOL    HW1 8897   2.374   4.052   2.040
 2666SOL    HW2 8898   2.213   4.036   2.053
 2667SOL     OW 8899   5.777   4.077   3.783
 2667SOL    HW1 8900   5.800   3.990   3.740
 2667SOL    HW2 8901   5.744   4.061   3.876
 2668SOL     OW 8902   5.882   1.477   4.171
 2668SOL    HW1 8903   5.810   1.476   4.240
 2668SOL    HW2 8904   5.868   1.554   4.109
 2669SOL     OW 8905   2.541   0.329   0.659
 2669SOL    HW1 8906   2.538   0.358   0.755
 2669SOL    HW2 8907   2.460   0.364   0.611
 2670SOL     OW 8908   6.898   1.335   5.764
 2670SOL    HW1 8909   6.903   1.287   5.851
 2670SOL    HW2 8910   6.914   1.433   5.779
 2671SOL     OW 8911   4.362   5.589   5.839
 2671SOL    HW1 8912   4.400   5.678   5.864
 2671SOL    HW2 8913   4.421   5.517   5.877
 2672SOL     OW 8914   4.179   1.010   1.675
 2672SOL    HW1 8915   4.091   1.025   1.719
 2672SOL    HW2 8916   4.211   0.917   1.695
 2673SOL     OW 8917   4.733   0.229   2.652
 2673SOL    HW1 8918   4.638   0.201   2.647
 2673SOL    HW2 8919   4.776   0.218   2.563
 2674SOL     OW 8920   1.186   5.592   3.015
 2674SOL    HW1 8921   1.146   5.649   3.087
 2674SOL    HW2 8922   1.200   5.647   2.933
 2675SOL     OW 8923   6.454   6.775   3.899
 2675SOL    HW1 8924   6.454   6.683   3.937
 2675SOL    HW2 8925   6.529   6.828   3.938
 2676SOL     OW 8926   3.344   3.724   3.197
 2676SOL    HW1 8927   3.294   3.726   3.283
 2676SOL    HW2 8928   3.306   3.792   3.135
 2677SOL     OW 8929   2.119   5.075   1.604
 2677SOL    HW1 8930   2.135   5.142   1.677
 2677SOL    HW2 8931   2.081   4.992   1.643
 2678SOL     OW 8932   5.722   2.507   2.865
 2678SOL    HW1 8933   5.649   2.569   2.836
 2678SOL    HW2 8934   5.683   2.419   2.892
 2679SOL     OW 8935   2.262   5.106   3.228
 2679SOL    HW1 8936   2.230   5.137   3.318
 2679SOL    HW2 8937   2.338   5.042   3.239
 2680SOL     OW 8938   1.441   2.227   6.868
 2680SOL    HW1 8939   1.459   2.292   6.941
 2680SOL    HW2 8940   1.522   2.218   6.810
 2681SOL     OW 8941   1.408   3.079   5.260
 2681SOL    HW1 8942   1.447   3.170   5.253
 2681SOL    HW2 8943   1.463   3.023   5.321
 2682SOL     OW 8944   4.817   4.078   1.739
 2682SOL    HW1 8945   4.807   4.045   1.833
 2682SOL    HW2 8946   4.774   4.168   1.731
 2683SOL     OW 8947   2.300   4.085   2.644
 2683SOL    HW1 8948   2.313   3.995   2.686
 2683SOL    HW2 8949   2.269   4.074   2.550
 2684SOL     OW 8950   5.531   6.262   1.933
 2684SOL    HW1 8951   5.497   6.168   1.936
 2684SOL    HW2 8952   5.630   6.261   1.922
 2685SOL     OW 8953   0.362   5.750   5.185
 2685SOL    HW1 8954   0.456   5.758   5.152
 2685SOL    HW2 8955   0.349   5.811   5.264
 2686SOL     OW 8956   1.130   1.540   4.938
 2686SOL    HW1 8957   1.200   1.608   4.957
 2686SOL    HW2 8958   1.110   1.540   4.840
 2687SOL     OW 8959   3.978   1.353   2.083
 2687SOL    HW1 8960   3.949   1.291   2.156
 2687SOL    HW2 8961   3.982   1.304   1.996
 2688SOL     OW 8962   3.466   3.011   6.127
 2688SOL    HW1 8963   3.417   3.087   6.168
 2688SOL    HW2 8964   3.446   3.007   6.029
 2689SOL     OW 8965   0.745   4.257   3.107
 2689SOL    HW1 8966   0.832   4.286   3.148
 2689SOL    HW2 8967   0.723   4.165   3.138
 2690SOL     OW 8968   3.629   1.595   6.036
 2690SOL    HW1 8969   3.686   1.655   5.979
 2690SOL    HW2 8970   3.586   1.526   5.979
 2691SOL     OW 8971   0.275   4.571   3.961
 2691SOL    HW1 8972   0.193   4.516   3.977
 2691SOL    HW2 8973   0.355   4.512   3.959
 2692SOL     OW 8974   2.959   5.871   2.672
 2692SOL    HW1 8975   2.902   5.946   2.638
 2692SOL    HW2 8976   3.055   5.892   2.655
 2693SOL     OW 8977   1.369   5.904   3.986
 2693SOL    HW1 8978   1.466   5.924   3.973
 2693SOL    HW2 8979   1.318   5.924   3.902
 2694SOL     OW 8980   3.067   6.509   4.140
 2694SOL    HW1 8981   3.095   6.602   4.115
 2694SOL    HW2 8982   3.038   6.460   4.057
 2695SOL     OW 8983   6.570   6.292   3.238
 2695SOL    HW1 8984   6.624   6.356   3.293
 2695SOL    HW2 8985   6.596   6.198   3.261
 2696SOL     OW 8986   5.063   4.227   5.876
 2696SOL    HW1 8987   5.079   4.163   5.951
 2696SOL    HW2 8988   5.004   4.184   5.807
 2697SOL     OW 8989   3.987   2.398   0.687
 2697SOL    HW1 8990   3.946   2.363   0.772
 2697SOL    HW2 8991   3.920   2.454   0.639
 2698SOL     OW 8992   1.682   4.602   6.361
 2698SOL    HW1 8993   1.712   4.523   6.307
 2698SOL    HW2 8994   1.622   4.571   6.435
 2699SOL     OW 8995   3.502   5.786   2.190
 2699SOL    HW1 8996   3.438   5.846   2.239
 2699SOL    HW2 8997   3.464   5.764   2.100
 2700SOL     OW 8998   2.695   1.941   1.421
 2700SOL    HW1 8999   2.758   1.953   1.498
 2700SOL    HW2 9000   2.606   1.979   1.446
 2701SOL     OW 9001   5.117   2.944   4.729
 2701SOL    HW1 9002   5.150   3.023   4.781
 2701SOL    HW2 9003   5.089   2.973   4.637
 2702SOL     OW 9004   2.576   2.031   4.711
 2702SOL    HW1 9005   2.544   2.107   4.767
 2702SOL    HW2 9006   2.668   2.004   4.740
 2703SOL     OW 9007   1.415   6.737   2.477
 2703SOL    HW1 9008   1.451   6.767   2.388
 2703SOL    HW2 9009   1.335   6.792   2.501
 2704SOL     OW 9010   6.357   6.116   3.240
 2704SOL    HW1 9011   6.261   6.144   3.239
 2704SOL    HW2 9012   6.415   6.195   3.216
 2705SOL     OW 9013   0.460   0.620   4.805
 2705SOL    HW1 9014   0.470   0.719   4.815
 2705SOL    HW2 9015   0.426   0.581   4.890
 2706SOL     OW 9016   6.514   4.434   4.387
 2706SOL    HW1 9017   6.450   4.510   4.394
 2706SOL    HW2 9018   6.508   4.394   4.295
 2707SOL     OW 9019   4.160   0.569   3.289
 2707SOL    HW1 9020   4.193   0.623   3.367
 2707SOL    HW2 9021   4.237   0.537   3.235
 2708SOL     OW 9022   5.434   2.883   6.799
 2708SOL    HW1 9023   5.501   2.956   6.813
 2708SOL    HW2 9024   5.391   2.860   6.886
 2709SOL     OW 9025   5.594   0.398   5.078
 2709SOL    HW1 9026   5.607   0.427   5.172
 2709SOL    HW2 9027   5.580   0.479   5.020
 2710SOL     OW 9028   1.483   3.091   4.178
 2710SOL    HW1 9029   1.408   3.025   4.177
 2710SOL    HW2 9030   1.526   3.092   4.268
 2711SOL     OW 9031   3.517   2.090   3.819
 2711SOL    HW1 9032   3.610   2.127   3.812
 2711SOL    HW2 9033   3.492   2.046   3.733
 2712SOL     OW 9034   3.855   5.483   2.645
 2712SOL    HW1 9035   3.824   5.562   2.594
 2712SOL    HW2 9036   3.952   5.493   2.668
 2713SOL     OW 9037   3.999   4.490   6.538
 2713SOL    HW1 9038   3.969   4.395   6.530
 2713SOL    HW2 9039   4.093   4.498   6.505
 2714SOL     OW 9040   3.137   4.113   6.992
 2714SOL    HW1 9041   3.131   4.207   0.002
 2714SOL    HW2 9042   3.067   4.058   0.016
 2715SOL     OW 9043   5.126   1.333   1.096
 2715SOL    HW1 9044   5.198   1.299   1.035
 2715SOL    HW2 9045   5.165   1.399   1.160
 2716SOL     OW 9046   3.951   1.726   2.998
 2716SOL    HW1 9047   4.013   1.791   2.953
 2716SOL    HW2 9048   3.976   1.718   3.095
 2717SOL     OW 9049   1.073   1.391   2.592
 2717SOL    HW1 9050   1.158   1.365   2.638
 2717SOL    HW2 9051   1.042   1.479   2.629
 2718SOL     OW 9052   0.367   0.271   6.017
 2718SOL    HW1 9053   0.441   0.303   5.958
 2718SOL    HW2 9054   0.336   0.182   5.985
 2719SOL     OW 9055   1.754   3.842   1.888
 2719SOL    HW1 9056   1.711   3.752   1.898
 2719SOL    HW2 9057   1.782   3.875   1.978
 2720SOL     OW 9058   1.172   0.018   5.323
 2720SOL    HW1 9059   1.074   0.036   5.318
 2720SOL    HW2 9060   1.209   0.061   5.406
 2721SOL     OW 9061   2.820   5.284   1.835
 2721SOL    HW1 9062   2.829   5.265   1.737
 2721SOL    HW2 9063   2.730   5.253   1.867
 2722SOL     OW 9064   4.311   5.264   6.813
 2722SOL    HW1 9065   4.377   5.337   6.798
 2722SOL    HW2 9066   4.247   5.290   6.886
 2723SOL     OW 9067   3.551   6.708   0.664
 2723SOL    HW1 9068   3.614   6.631   0.653
 2723SOL    HW2 9069   3.501   6.698   0.750
 2724SOL     OW 9070   1.056   5.800   0.819
 2724SOL    HW1 9071   1.144   5.847   0.812
 2724SOL    HW2 9072   0.982   5.866   0.813
 2725SOL     OW 9073   5.489   3.315   4.678
 2725SOL    HW1 9074   5.419   3.336   4.746
 2725SOL    HW2 9075   5.561   3.260   4.719
 2726SOL     OW 9076   0.513   1.745   1.417
 2726SOL    HW1 9077   0.591   1.748   1.355
 2726SOL    HW2 9078   0.484   1.650   1.429
 2727SOL     OW 9079   2.117   4.112   4.643
 2727SOL    HW1 9080   2.176   4.150   4.572
 2727SOL    HW2 9081   2.076   4.026   4.610
 2728SOL     OW 9082   5.210   5.047   6.550
 2728SOL    HW1 9083   5.210   5.137   6.506
 2728SOL    HW2 9084   5.295   5.035   6.602
 2729SOL     OW 9085   5.390   6.162   6.176
 2729SOL    HW1 9086   5.484   6.154   6.207
 2729SOL    HW2 9087   5.370   6.090   6.110
 2730SOL     OW 9088   0.639   5.867   2.144
 2730SOL    HW1 9089   0.731   5.893   2.114
 2730SOL    HW2 9090   0.589   5.827   2.067
 2731SOL     OW 9091   3.074   3.124   3.816
 2731SOL    HW1 9092   3.108   3.032   3.797
 2731SOL    HW2 9093   3.106   3.153   3.906
 2732SOL     OW 9094   5.172   1.405   1.694
 2732SOL    HW1 9095   5.172   1.360   1.604
 2732SOL    HW2 9096   5.266   1.423   1.722
 2733SOL     OW 9097   0.397   0.534   5.809
 2733SOL    HW1 9098   0.346   0.453   5.781
 2733SOL    HW2 9099   0.438   0.577   5.728
 2734SOL     OW 9100   3.166   5.974   1.858
 2734SOL    HW1 9101   3.101   6.050   1.866
 2734SOL    HW2 9102   3.224   5.987   1.778
 2735SOL     OW 9103   1.285   2.019   1.197
 2735SOL    HW1 9104   1.221   2.010   1.273
 2735SOL    HW2 9105   1.378   2.024   1.232
 2736SOL     OW 9106   4.684   5.667   3.528
 2736SOL    HW1 9107   4.648   5.574   3.532
 2736SOL    HW2 9108   4.698   5.693   3.432
 2737SOL     OW 9109   2.924   2.087   6.287
 2737SOL    HW1 9110   2.998   2.037   6.332
 2737SOL    HW2 9111   2.942   2.091   6.188
 2738SOL     OW 9112   5.897   0.175   1.163
 2738SOL    HW1 9113   5.990   0.140   1.179
 2738SOL    HW2 9114   5.884   0.259   1.217
 2739SOL     OW 9115   0.556   5.500   2.235
 2739SOL    HW1 9116   0.544   5.595   2.266
 2739SOL    HW2 9117   0.542   5.496   2.136
 2740SOL     OW 9118   6.900   6.371   2.661
 2740SOL    HW1 9119   6.825   6.381   2.728
 2740SOL    HW2 9120   6.911   6.274   2.640
 2741SOL     OW 9121   1.347   2.255   4.404
 2741SOL    HW1 9122   1.270   2.221   4.350
 2741SOL    HW2 9123   1.429   2.201   4.384
 2742SOL     OW 9124   3.353   4.692   1.671
 2742SOL    HW1 9125   3.427   4.683   1.738
 2742SOL    HW2 9126   3.306   4.780   1.684
 2743SOL     OW 9127   6.385   4.508   2.163
 2743SOL    HW1 9128   6.288   4.511   2.139
 2743SOL    HW2 9129   6.412   4.412   2.177
 2744SOL     OW 9130   3.315   3.828   2.707
 2744SOL    HW1 9131   3.290   3.744   2.756
 2744SOL    HW2 9132   3.232   3.877   2.681
 2745SOL     OW 9133   6.775   1.148   5.511
 2745SOL    HW1 9134   6.734   1.237   5.496
 2745SOL    HW2 9135   6.704   1.078   5.515
 2746SOL     OW 9136   1.159   1.087   3.570
 2746SOL    HW1 9137   1.143   1.078   3.472
 2746SOL    HW2 9138   1.083   1.139   3.611
 2747SOL     OW 9139   3.548   5.967   0.964
 2747SOL    HW1 9140   3.514   5.873   0.960
 2747SOL    HW2 9141   3.648   5.966   0.969
 2748SOL     OW 9142   4.442   6.779   1.318
 2748SOL    HW1 9143   4.385   6.764   1.398
 2748SOL    HW2 9144   4.425   6.871   1.282
 2749SOL     OW 9145   2.302   3.175   0.965
 2749SOL    HW1 9146   2.293   3.226   0.880
 2749SOL    HW2 9147   2.393   3.131   0.968
 2750SOL     OW 9148   2.284   5.297   2.548
 2750SOL    HW1 9149   2.258   5.393   2.549
 2750SOL    HW2 9150   2.304   5.267   2.642
 2751SOL     OW 9151   1.301   2.780   1.362
 2751SOL    HW1 9152   1.374   2.713   1.373
 2751SOL    HW2 9153   1.314   2.855   1.427
 2752SOL     OW 9154   4.264   4.809   5.435
 2752SOL    HW1 9155   4.213   4.767   5.511
 2752SOL    HW2 9156   4.229   4.774   5.348
 2753SOL     OW 9157   6.145   6.457   5.212
 2753SOL    HW1 9158   6.094   6.453   5.298
 2753SOL    HW2 9159   6.101   6.399   5.143
 2754SOL     OW 9160   0.427   6.259   6.258
 2754SOL    HW1 9161   0.474   6.316   6.191
 2754SOL    HW2 9162   0.442   6.295   6.350
 2755SOL     OW 9163   2.554   6.740   3.298
 2755SOL    HW1 9164   2.597   6.825   3.267
 2755SOL    HW2 9165   2.580   6.665   3.238
 2756SOL     OW 9166   5.346   6.436   0.501
 2756SOL    HW1 9167   5.280   6.433   0.426
 2756SOL    HW2 9168   5.427   6.486   0.473
 2757SOL     OW 9169   0.731   5.049   1.806
 2757SOL    HW1 9170   0.758   5.131   1.856
 2757SOL    HW2 9171   0.654   5.071   1.745
 2758SOL     OW 9172   5.250   0.417   5.931
 2758SOL    HW1 9173   5.263   0.333   5.985
 2758SOL    HW2 9174   5.161   0.457   5.954
 2759SOL     OW 9175   5.473   6.304   3.937
 2759SOL    HW1 9176   5.499   6.347   3.851
 2759SOL    HW2 9177   5.390   6.347   3.972
 2760SOL     OW 9178   2.368   5.042   2.172
 2760SOL    HW1 9179   2.440   5.056   2.241
 2760SOL    HW2 9180   2.290   5.101   2.193
 2761SOL     OW 9181   1.118   5.783   3.209
 2761SOL    HW1 9182   1.049   5.818   3.272
 2761SOL    HW2 9183   1.205   5.772   3.257
 2762SOL     OW 9184   1.322   6.629   5.500
 2762SOL    HW1 9185   1.287   6.623   5.407
 2762SOL    HW2 9186   1.391   6.701   5.506
 2763SOL     OW 9187   5.642   2.314   3.845
 2763SOL    HW1 9188   5.690   2.400   3.863
 2763SOL    HW2 9189   5.703   2.251   3.797
 2764SOL     OW 9190   5.724   0.016   1.005
 2764SOL    HW1 9191   5.784   0.073   1.060
 2764SOL    HW2 9192   5.765   0.000   0.916
 2765SOL     OW 9193   5.436   1.420   1.829
 2765SOL    HW1 9194   5.420   1.327   1.862
 2765SOL    HW2 9195   5.530   1.448   1.853
 2766SOL     OW 9196   5.588   1.581   1.182
 2766SOL    HW1 9197   5.613   1.678   1.184
 2766SOL    HW2 9198   5.589   1.549   1.087
 2767SOL     OW 9199   6.043   3.988   6.009
 2767SOL    HW1 9200   6.090   4.015   5.925
 2767SOL    HW2 9201   6.021   3.890   6.005
 2768SOL     OW 9202   4.830   1.254   0.083
 2768SOL    HW1 9203   4.917   1.285   0.121
 2768SOL    HW2 9204   4.839   1.242   7.006
 2769SOL     OW 9205   6.870   4.028   2.418
 2769SOL    HW1 9206   6.840   3.970   2.494
 2769SOL    HW2 9207   6.931   4.099   2.453
 2770SOL     OW 9208   1.485   5.218   1.965
 2770SOL    HW1 9209   1.391   5.251   1.951
 2770SOL    HW2 9210   1.549   5.283   1.926
 2771SOL     OW 9211   5.295   1.872   1.243
 2771SOL    HW1 9212   5.378   1.858   1.297
 2771SOL    HW2 9213   5.257   1.963   1.263
 2772SOL     OW 9214   4.434   2.630   0.459
 2772SOL    HW1 9215   4.443   2.537   0.423
 2772SOL    HW2 9216   4.521   2.659   0.498
 2773SOL     OW 9217   4.314   3.777   6.040
 2773SOL    HW1 9218   4.332   3.874   6.057
 2773SOL    HW2 9219   4.324   3.726   6.125
 2774SOL     OW 9220   5.847   2.837   2.128
 2774SOL    HW1 9221   5.935   2.811   2.089
 2774SOL    HW2 9222   5.818   2.924   2.089
 2775SOL     OW 9223   0.181   5.674   1.156
 2775SOL    HW1 9224   0.237   5.601   1.116
 2775SOL    HW2 9225   0.224   5.707   1.240
 2776SOL     OW 9226   3.791   6.279   5.401
 2776SOL    HW1 9227   3.878   6.265   5.449
 2776SOL    HW2 9228   3.747   6.191   5.387
 2777SOL     OW 9229   3.229   1.174   2.539
 2777SOL    HW1 9230   3.192   1.209   2.453
 2777SOL    HW2 9231   3.301   1.107   2.519
 2778SOL     OW 9232   2.543   1.880   5.453
 2778SOL    HW1 9233   2.570   1.973   5.427
 2778SOL    HW2 9234   2.624   1.821   5.456
 2779SOL     OW 9235   5.116   7.013   0.277
 2779SOL    HW1 9236   5.101   0.078   0.324
 2779SOL    HW2 9237   5.074   6.939   0.330
 2780SOL     OW 9238   4.690   5.376   6.068
 2780SOL    HW1 9239   4.681   5.377   6.168
 2780SOL    HW2 9240   4.745   5.454   6.038
 2781SOL     OW 9241   5.861   4.505   1.887
 2781SOL    HW1 9242   5.873   4.471   1.980
 2781SOL    HW2 9243   5.907   4.593   1.877
 2782SOL     OW 9244   3.069   2.772   6.316
 2782SOL    HW1 9245   3.052   2.792   6.220
 2782SOL    HW2 9246   3.151   2.821   6.346
 2783SOL     OW 9247   6.698   4.225   5.267
 2783SOL    HW1 9248   6.668   4.165   5.341
 2783SOL    HW2 9249   6.780   4.187   5.224
 2784SOL     OW 9250   1.904   2.751   1.520
 2784SOL    HW1 9251   1.924   2.762   1.423
 2784SOL    HW2 9252   1.887   2.654   1.540
 2785SOL     OW 9253   6.379   1.211   6.972
 2785SOL    HW1 9254   6.353   1.130   0.001
 2785SOL    HW2 9255   6.474   1.201   6.940
 2786SOL     OW 9256   4.130   6.360   0.795
 2786SOL    HW1 9257   4.210   6.338   0.738
 2786SOL    HW2 9258   4.055   6.299   0.772
 2787SOL     OW 9259   2.076   3.621   6.256
 2787SOL    HW1 9260   2.008   3.617   6.183
 2787SOL    HW2 9261   2.165   3.594   6.220
 2788SOL     OW 9262   2.584   4.220   0.238
 2788SOL    HW1 9263   2.608   4.124   0.224
 2788SOL    HW2 9264   2.489   4.234   0.210
 2789SOL     OW 9265   1.404   1.808   3.503
 2789SOL    HW1 9266   1.361   1.883   3.453
 2789SOL    HW2 9267   1.468   1.760   3.443
 2790SOL     OW 9268   3.409   5.228   3.408
 2790SOL    HW1 9269   3.334   5.245   3.345
 2790SOL    HW2 9270   3.423   5.308   3.466
 2791SOL     OW 9271   1.752   4.080   5.383
 2791SOL    HW1 9272   1.740   4.174   5.415
 2791SOL    HW2 9273   1.734   4.076   5.285
 2792SOL     OW 9274   1.268   1.055   5.016
 2792SOL    HW1 9275   1.169   1.054   4.998
 2792SOL    HW2 9276   1.291   0.985   5.083
 2793SOL     OW 9277   5.197   1.288   2.545
 2793SOL    HW1 9278   5.151   1.223   2.485
 2793SOL    HW2 9279   5.190   1.380   2.507
 2794SOL     OW 9280   0.314   2.195   0.176
 2794SOL    HW1 9281   0.359   2.220   0.090
 2794SOL    HW2 9282   0.362   2.239   0.252
 2795SOL     OW 9283   3.037   4.011   1.266
 2795SOL    HW1 9284   3.111   3.944   1.278
 2795SOL    HW2 9285   2.998   4.035   1.355
 2796SOL     OW 9286   6.047   3.738   2.474
 2796SOL    HW1 9287   5.991   3.695   2.404
 2796SOL    HW2 9288   5.993   3.750   2.557
 2797SOL     OW 9289   5.171   5.210   4.718
 2797SOL    HW1 9290   5.093   5.159   4.754
 2797SOL    HW2 9291   5.238   5.147   4.680
 2798SOL     OW 9292   0.747   3.967   3.420
 2798SOL    HW1 9293   0.712   3.981   3.328
 2798SOL    HW2 9294   0.733   4.050   3.475
 2799SOL     OW 9295   0.185   5.455   6.409
 2799SOL    HW1 9296   0.282   5.471   6.394
 2799SOL    HW2 9297   0.144   5.536   6.452
 2800SOL     OW 9298   4.424   5.249   0.078
 2800SOL    HW1 9299   4.339   5.197   0.066
 2800SOL    HW2 9300   4.490   5.223   0.008
 2801SOL     OW 9301   5.110   5.399   2.244
 2801SOL    HW1 9302   5.064   5.435   2.163
 2801SOL    HW2 9303   5.059   5.319   2.277
 2802SOL     OW 9304   3.990   1.804   6.124
 2802SOL    HW1 9305   3.939   1.775   6.205
 2802SOL    HW2 9306   3.973   1.901   6.107
 2803SOL     OW 9307   2.501   6.126   6.420
 2803SOL    HW1 9308   2.556   6.191   6.472
 2803SOL    HW2 9309   2.527   6.129   6.324
 2804SOL     OW 9310   6.753   4.811   3.279
 2804SOL    HW1 9311   6.773   4.854   3.191
 2804SOL    HW2 9312   6.837   4.773   3.317
 2805SOL     OW 9313   5.020   3.305   1.199
 2805SOL    HW1 9314   4.921   3.291   1.195
 2805SOL    HW2 9315   5.062   3.231   1.252
 2806SOL     OW 9316   6.133   5.290   2.735
 2806SOL    HW1 9317   6.082   5.371   2.763
 2806SOL    HW2 9318   6.079   5.238   2.669
 2807SOL     OW 9319   4.351   4.600   3.632
 2807SOL    HW1 9320   4.409   4.522   3.658
 2807SOL    HW2 9321   4.301   4.632   3.712
 2808SOL     OW 9322   5.153   1.355   3.246
 2808SOL    HW1 9323   5.184   1.444   3.280
 2808SOL    HW2 9324   5.232   1.295   3.236
 2809SOL     OW 9325   5.958   2.336   1.338
 2809SOL    HW1 9326   5.878   2.392   1.357
 2809SOL    HW2 9327   5.944   2.285   1.254
 2810SOL     OW 9328   2.880   6.622   5.513
 2810SOL    HW1 9329   2.806   6.687   5.497
 2810SOL    HW2 9330   2.890   6.563   5.433
 2811SOL     OW 9331   0.727   0.840   2.791
 2811SOL    HW1 9332   0.671   0.850   2.709
 2811SOL    HW2 9333   0.803   0.905   2.787
 2812SOL     OW 9334   4.908   3.399   2.457
 2812SOL    HW1 9335   4.888   3.484   2.407
 2812SOL    HW2 9336   4.995   3.362   2.426
 2813SOL     OW 9337   5.631   6.761   5.393
 2813SOL    HW1 9338   5.591   6.708   5.468
 2813SOL    HW2 9339   5.558   6.796   5.334
 2814SOL     OW 9340   4.044   4.445   5.790
 2814SOL    HW1 9341   4.093   4.506   5.728
 2814SOL    HW2 9342   3.975   4.394   5.739
 2815SOL     OW 9343   6.490   1.240   4.333
 2815SOL    HW1 9344   6.530   1.155   4.299
 2815SOL    HW2 9345   6.450   1.224   4.424
 2816SOL     OW 9346   5.973   6.909   3.865
 2816SOL    HW1 9347   5.957   6.938   3.959
 2816SOL    HW2 9348   5.904   6.950   3.805
 2817SOL     OW 9349   1.732   1.155   1.307
 2817SOL    HW1 9350   1.803   1.086   1.321
 2817SOL    HW2 9351   1.706   1.194   1.395
 2818SOL     OW 9352   6.564   5.098   6.127
 2818SOL    HW1 9353   6.496   5.070   6.194
 2818SOL    HW2 9354   6.568   5.029   6.054
 2819SOL     OW 9355   0.185   2.122   0.416
 2819SOL    HW1 9356   0.088   2.121   0.440
 2819SOL    HW2 9357   0.195   2.103   0.318
 2820SOL     OW 9358   0.304   2.529   2.600
 2820SOL    HW1 9359   0.323   2.624   2.623
 2820SOL    HW2 9360   0.267   2.482   2.680
 2821SOL     OW 9361   2.293   4.266   5.957
 2821SOL    HW1 9362   2.293   4.351   5.904
 2821SOL    HW2 9363   2.326   4.191   5.900
 2822SOL     OW 9364   4.645   2.494   6.993
 2822SOL    HW1 9365   4.614   2.408   6.953
 2822SOL    HW2 9366   4.576   2.565   6.977
 2823SOL     OW 9367   2.886   6.669   2.359
 2823SOL    HW1 9368   2.791   6.664   2.329
 2823SOL    HW2 9369   2.918   6.763   2.352
 2824SOL     OW 9370   2.551   1.319   4.962
 2824SOL    HW1 9371   2.587   1.364   5.044
 2824SOL    HW2 9372   2.452   1.305   4.972
 2825SOL     OW 9373   0.223   6.499   0.879
 2825SOL    HW1 9374   0.303   6.458   0.835
 2825SOL    HW2 9375   0.209   6.456   0.968
 2826SOL     OW 9376   5.531   1.886   5.379
 2826SOL    HW1 9377   5.473   1.811   5.410
 2826SOL    HW2 9378   5.618   1.882   5.428
 2827SOL     OW 9379   6.590   1.545   4.916
 2827SOL    HW1 9380   6.607   1.467   4.856
 2827SOL    HW2 9381   6.513   1.598   4.881
 2828SOL     OW 9382   3.706   0.856   6.130
 2828SOL    HW1 9383   3.710   0.836   6.033
 2828SOL    HW2 9384   3.629   0.918   6.149
 2829SOL     OW 9385   3.957   5.302   6.413
 2829SOL    HW1 9386   3.902   5.380   6.445
 2829SOL    HW2 9387   3.931   5.280   6.319
 2830SOL     OW 9388   6.014   3.468   6.243
 2830SOL    HW1 9389   6.088   3.525   6.207
 2830SOL    HW2 9390   6.051   3.401   6.307
 2831SOL     OW 9391   5.902   6.127   4.327
 2831SOL    HW1 9392   5.940   6.084   4.246
 2831SOL    HW2 9393   5.973   6.137   4.397
 2832SOL     OW 9394   6.992   1.461   1.336
 2832SOL    HW1 9395   6.991   1.363   1.353
 2832SOL    HW2 9396   0.037   1.482   1.264
 2833SOL     OW 9397   6.046   1.895   2.205
 2833SOL    HW1 9398   6.094   1.902   2.292
 2833SOL    HW2 9399   5.956   1.938   2.213
 2834SOL     OW 9400   3.120   1.603   6.547
 2834SOL    HW1 9401   3.065   1.520   6.540
 2834SOL    HW2 9402   3.193   1.589   6.614
 2835SOL     OW 9403   0.434   6.897   1.942
 2835SOL    HW1 9404   0.389   6.983   1.918
 2835SOL    HW2 9405   0.364   6.826   1.958
 2836SOL     OW 9406   6.859   6.987   1.569
 2836SOL    HW1 9407   6.945   6.955   1.531
 2836SOL    HW2 9408   6.873   7.016   1.664
 2837SOL     OW 9409   5.269   2.999   3.131
 2837SOL    HW1 9410   5.282   2.996   3.230
 2837SOL    HW2 9411   5.210   3.076   3.107
 2838SOL     OW 9412   2.613   4.494   1.766
 2838SOL    HW1 9413   2.588   4.575   1.713
 2838SOL    HW2 9414   2.700   4.510   1.812
 2839SOL     OW 9415   5.702   1.493   2.071
 2839SOL    HW1 9416   5.722   1.501   1.973
 2839SOL    HW2 9417   5.680   1.583   2.107
 2840SOL     OW 9418   0.336   1.214   4.959
 2840SOL    HW1 9419   0.362   1.160   5.040
 2840SOL    HW2 9420   0.393   1.187   4.882
 2841SOL     OW 9421   0.706   6.297   0.287
 2841SOL    HW1 9422   0.712   6.200   0.261
 2841SOL    HW2 9423   0.741   6.309   0.379
 2842SOL     OW 9424   6.869   3.345   3.391
 2842SOL    HW1 9425   6.819   3.267   3.354
 2842SOL    HW2 9426   6.906   3.322   3.481
 2843SOL     OW 9427   3.251   1.585   4.143
 2843SOL    HW1 9428   3.162   1.610   4.105
 2843SOL    HW2 9429   3.238   1.519   4.218
 2844SOL     OW 9430   0.907   4.145   0.111
 2844SOL    HW1 9431   1.005   4.125   0.118
 2844SOL    HW2 9432   0.870   4.161   0.202
 2845SOL     OW 9433   0.870   3.858   0.276
 2845SOL    HW1 9434   0.940   3.860   0.346
 2845SOL    HW2 9435   0.912   3.863   0.185
 2846SOL     OW 9436   5.078   1.805   6.852
 2846SOL    HW1 9437   4.979   1.813   6.870
 2846SOL    HW2 9438   5.100   1.855   6.768
 2847SOL     OW 9439   5.733   3.807   3.748
 2847SOL    HW1 9440   5.663   3.808   3.819
 2847SOL    HW2 9441   5.805   3.742   3.773
 2848SOL     OW 9442   0.535   4.424   5.536
 2848SOL    HW1 9443   0.499   4.484   5.464
 2848SOL    HW2 9444   0.563   4.480   5.614
 2849SOL     OW 9445   3.418   0.931   0.575
 2849SOL    HW1 9446   3.327   0.974   0.580
 2849SOL    HW2 9447   3.467   0.966   0.495
 2850SOL     OW 9448   3.073   0.463   1.370
 2850SOL    HW1 9449   3.096   0.506   1.457
 2850SOL    HW2 9450   3.120   0.375   1.363
 2851SOL     OW 9451   1.274   4.749   4.979
 2851SOL    HW1 9452   1.343   4.680   5.003
 2851SOL    HW2 9453   1.264   4.814   5.054
 2852SOL     OW 9454   5.915   3.723   6.518
 2852SOL    HW1 9455   5.892   3.815   6.551
 2852SOL    HW2 9456   5.946   3.729   6.423
 2853SOL     OW 9457   2.918   2.554   0.777
 2853SOL    HW1 9458   2.964   2.588   0.695
 2853SOL    HW2 9459   2.984   2.510   0.838
 2854SOL     OW 9460   2.569   0.929   4.208
 2854SOL    HW1 9461   2.486   0.920   4.263
 2854SOL    HW2 9462   2.558   0.879   4.122
 2855SOL     OW 9463   2.111   0.683   6.052
 2855SOL    HW1 9464   2.045   0.722   6.117
 2855SOL    HW2 9465   2.062   0.635   5.980
 2856SOL     OW 9466   2.432   2.794   6.006
 2856SOL    HW1 9467   2.462   2.804   5.911
 2856SOL    HW2 9468   2.503   2.745   6.058
 2857SOL     OW 9469   2.957   1.921   1.630
 2857SOL    HW1 9470   3.005   1.917   1.543
 2857SOL    HW2 9471   2.950   2.017   1.659
 2858SOL     OW 9472   6.570   2.617   2.333
 2858SOL    HW1 9473   6.527   2.531   2.361
 2858SOL    HW2 9474   6.662   2.623   2.371
 2859SOL     OW 9475   5.048   1.243   0.738
 2859SOL    HW1 9476   5.116   1.246   0.811
 2859SOL    HW2 9477   5.082   1.188   0.663
 2860SOL     OW 9478   4.156   1.553   1.829
 2860SOL    HW1 9479   4.173   1.643   1.869
 2860SOL    HW2 9480   4.098   1.499   1.891
 2861SOL     OW 9481   4.768   5.507   5.753
 2861SOL    HW1 9482   4.731   5.417   5.733
 2861SOL    HW2 9483   4.726   5.575   5.693
 2862SOL     OW 9484   5.668   2.072   4.083
 2862SOL    HW1 9485   5.765   2.076   4.106
 2862SOL    HW2 9486   5.618   2.145   4.130
 2863SOL     OW 9487   6.212   1.928   0.220
 2863SOL    HW1 9488   6.228   1.960   0.313
 2863SOL    HW2 9489   6.298   1.928   0.169
 2864SOL     OW 9490   3.815   0.651   1.072
 2864SOL    HW1 9491   3.726   0.695   1.086
 2864SOL    HW2 9492   3.887   0.711   1.105
 2865SOL     OW 9493   4.537   4.329   5.171
 2865SOL    HW1 9494   4.596   4.360   5.245
 2865SOL    HW2 9495   4.447   4.373   5.179
 2866SOL     OW 9496   6.811   6.198   6.782
 2866SOL    HW1 9497   6.782   6.210   6.687
 2866SOL    HW2 9498   6.880   6.267   6.804
 2867SOL     OW 9499   6.201   4.220   2.277
 2867SOL    HW1 9500   6.153   4.134   2.260
 2867SOL    HW2 9501   6.282   4.224   2.219
 2868SOL     OW 9502   0.405   3.683   5.556
 2868SOL    HW1 9503   0.333   3.656   5.492
 2868SOL    HW2 9504   0.367   3.745   5.625
 2869SOL     OW 9505   6.645   0.679   2.352
 2869SOL    HW1 9506   6.597   0.636   2.276
 2869SOL    HW2 9507   6.578   0.721   2.414
 2870SOL     OW 9508   6.550   1.915   3.816
 2870SOL    HW1 9509   6.590   1.835   3.772
 2870SOL    HW2 9510   6.600   1.997   3.788
 2871SOL     OW 9511   2.105   1.968   6.566
 2871SOL    HW1 9512   2.198   2.002   6.578
 2871SOL    HW2 9513   2.087   1.954   6.469
 2872SOL     OW 9514   2.837   1.619   3.901
 2872SOL    HW1 9515   2.864   1.608   3.996
 2872SOL    HW2 9516   2.844   1.716   3.876
 2873SOL     OW 9517   0.335   6.008   2.672
 2873SOL    HW1 9518   0.383   6.038   2.755
 2873SOL    HW2 9519   0.239   5.991   2.694
 2874SOL     OW 9520   5.265   4.078   2.036
 2874SOL    HW1 9521   5.330   4.147   2.002
 2874SOL    HW2 9522   5.240   4.016   1.962
 2875SOL     OW 9523   4.000   6.480   5.939
 2875SOL    HW1 9524   3.912   6.511   5.975
 2875SOL    HW2 9525   4.065   6.471   6.014
 2876SOL     OW 9526   0.759   0.902   1.794
 2876SOL    HW1 9527   0.799   0.875   1.882
 2876SOL    HW2 9528   0.819   0.873   1.720
 2877SOL     OW 9529   3.213   2.768   5.412
 2877SOL    HW1 9530   3.303   2.812   5.405
 2877SOL    HW2 9531   3.193   2.748   5.508
 2878SOL     OW 9532   2.451   4.894   5.278
 2878SOL    HW1 9533   2.474   4.974   5.334
 2878SOL    HW2 9534   2.534   4.844   5.256
 2879SOL     OW 9535   5.090   5.144   0.018
 2879SOL    HW1 9536   5.141   5.188   6.966
 2879SOL    HW2 9537   5.117   5.185   0.105
 2880SOL     OW 9538   6.819   6.138   0.640
 2880SOL    HW1 9539   6.746   6.090   0.591
 2880SOL    HW2 9540   6.844   6.221   0.590
 2881SOL     OW 9541   6.666   6.096   1.305
 2881SOL    HW1 9542   6.597   6.092   1.233
 2881SOL    HW2 9543   6.727   6.017   1.297
 2882SOL     OW 9544   0.768   3.669   2.625
 2882SOL    HW1 9545   0.678   3.633   2.653
 2882SOL    HW2 9546   0.835   3.650   2.697
 2883SOL     OW 9547   3.541   6.630   3.674
 2883SOL    HW1 9548   3.520   6.716   3.629
 2883SOL    HW2 9549   3.490   6.556   3.629
 2884SOL     OW 9550   0.929   6.951   3.422
 2884SOL    HW1 9551   0.947   6.854   3.404
 2884SOL    HW2 9552   0.840   6.976   3.385
 2885SOL     OW 9553   0.214   2.466   2.856
 2885SOL    HW1 9554   0.123   2.459   2.899
 2885SOL    HW2 9555   0.277   2.406   2.904
 2886SOL     OW 9556   1.946   2.577   6.844
 2886SOL    HW1 9557   2.003   2.616   6.915
 2886SOL    HW2 9558   1.945   2.637   6.764
 2887SOL     OW 9559   2.624   6.911   5.062
 2887SOL    HW1 9560   2.574   6.843   5.008
 2887SOL    HW2 9561   2.679   6.865   5.131
 2888SOL     OW 9562   7.004   4.726   6.341
 2888SOL    HW1 9563   0.020   4.699   6.429
 2888SOL    HW2 9564   6.985   4.825   6.341
 2889SOL     OW 9565   1.789   0.815   1.639
 2889SOL    HW1 9566   1.786   0.790   1.736
 2889SOL    HW2 9567   1.756   0.738   1.584
 2890SOL     OW 9568   3.554   0.433   1.402
 2890SOL    HW1 9569   3.632   0.412   1.342
 2890SOL    HW2 9570   3.484   0.481   1.349
 2891SOL     OW 9571   2.135   4.764   3.576
 2891SOL    HW1 9572   2.087   4.748   3.490
 2891SOL    HW2 9573   2.073   4.807   3.641
 2892SOL     OW 9574   3.995   3.963   6.713
 2892SOL    HW1 9575   4.004   4.061   6.694
 2892SOL    HW2 9576   3.899   3.940   6.730
 2893SOL     OW 9577   1.878   6.577   5.947
 2893SOL    HW1 9578   1.874   6.611   6.041
 2893SOL    HW2 9579   1.942   6.500   5.942
 2894SOL     OW 9580   2.724   2.781   6.970
 2894SOL    HW1 9581   2.807   2.829   6.943
 2894SOL    HW2 9582   2.644   2.832   6.937
 2895SOL     OW 9583   3.821   3.328   6.649
 2895SOL    HW1 9584   3.888   3.254   6.647
 2895SOL    HW2 9585   3.740   3.298   6.699
 2896SOL     OW 9586   2.840   5.359   0.332
 2896SOL    HW1 9587   2.751   5.315   0.347
 2896SOL    HW2 9588   2.910   5.309   0.383
 2897SOL     OW 9589   2.215   6.826   3.892
 2897SOL    HW1 9590   2.288   6.769   3.930
 2897SOL    HW2 9591   2.128   6.778   3.899
 2898SOL     OW 9592   4.308   5.135   2.438
 2898SOL    HW1 9593   4.349   5.062   2.384
 2898SOL    HW2 9594   4.324   5.118   2.536
 2899SOL     OW 9595   6.863   0.357   6.659
 2899SOL    HW1 9596   6.902   0.443   6.626
 2899SOL    HW2 9597   6.884   0.284   6.595
 2900SOL     OW 9598   1.323   4.808   5.899
 2900SOL    HW1 9599   1.383   4.741   5.854
 2900SOL    HW2 9600   1.275   4.764   5.974
 2901SOL     OW 9601   2.494   0.808   2.393
 2901SOL    HW1 9602   2.517   0.783   2.487
 2901SOL    HW2 9603   2.503   0.907   2.381
 2902SOL     OW 9604   5.317   5.845   0.589
 2902SOL    HW1 9605   5.243   5.878   0.530
 2902SOL    HW2 9606   5.345   5.919   0.651
 2903SOL     OW 9607   3.567   0.905   2.298
 2903SOL    HW1 9608   3.492   0.938   2.241
 2903SOL    HW2 9609   3.529   0.869   2.384
 2904SOL     OW 9610   2.460   3.326   5.376
 2904SOL    HW1 9611   2.526   3.267   5.330
 2904SOL    HW2 9612   2.373   3.324   5.327
 2905SOL     OW 9613   1.343   1.174   2.521
 2905SOL    HW1 9614   1.430   1.192   2.474
 2905SOL    HW2 9615   1.274   1.147   2.454
 2906SOL     OW 9616   5.278   5.349   1.837
 2906SOL    HW1 9617   5.217   5.326   1.913
 2906SOL    HW2 9618   5.360   5.395   1.873
 2907SOL     OW 9619   6.940   1.597   5.105
 2907SOL    HW1 9620   0.017   1.612   5.095
 2907SOL    HW2 9621   6.896   1.608   5.017
 2908SOL     OW 9622   3.666   6.555   4.446
 2908SOL    HW1 9623   3.621   6.553   4.357
 2908SOL    HW2 9624   3.597   6.554   4.519
 2909SOL     OW 9625   0.743   5.244   4.607
 2909SOL    HW1 9626   0.842   5.234   4.596
 2909SOL    HW2 9627   0.717   5.339   4.592
 2910SOL     OW 9628   3.042   6.420   5.348
 2910SOL    HW1 9629   2.951   6.423   5.307
 2910SOL    HW2 9630   3.072   6.324   5.354
 2911SOL     OW 9631   2.440   4.909   3.243
 2911SOL    HW1 9632   2.473   4.815   3.236
 2911SOL    HW2 9633   2.480   4.964   3.169
 2912SOL     OW 9634   2.964   5.898   0.237
 2912SOL    HW1 9635   2.950   5.912   0.139
 2912SOL    HW2 9636   3.053   5.936   0.263
 2913SOL     OW 9637   1.374   3.845   2.027
 2913SOL    HW1 9638   1.389   3.928   1.974
 2913SOL    HW2 9639   1.410   3.857   2.119
 2914SOL     OW 9640   5.599   4.600   5.523
 2914SOL    HW1 9641   5.611   4.665   5.448
 2914SOL    HW2 9642   5.668   4.619   5.594
 2915SOL     OW 9643   4.326   1.482   4.215
 2915SOL    HW1 9644   4.414   1.435   4.220
 2915SOL    HW2 9645   4.282   1.480   4.305
 2916SOL     OW 9646   6.176   4.431   5.505
 2916SOL    HW1 9647   6.162   4.430   5.604
 2916SOL    HW2 9648   6.104   4.485   5.462
 2917SOL     OW 9649   4.295   0.178   0.791
 2917SOL    HW1 9650   4.272   0.237   0.713
 2917SOL    HW2 9651   4.261   0.085   0.774
 2918SOL     OW 9652   0.448   3.533   3.120
 2918SOL    HW1 9653   0.480   3.582   3.201
 2918SOL    HW2 9654   0.526   3.492   3.073
 2919SOL     OW 9655   6.152   7.006   0.142
 2919SOL    HW1 9656   6.112   6.922   0.105
 2919SOL    HW2 9657   6.104   0.063   0.103
 2920SOL     OW 9658   3.478   2.123   2.618
 2920SOL    HW1 9659   3.449   2.091   2.528
 2920SOL    HW2 9660   3.577   2.114   2.626
 2921SOL     OW 9661   0.282   1.308   2.183
 2921SOL    HW1 9662   0.194   1.276   2.150
 2921SOL    HW2 9663   0.268   1.365   2.264
 2922SOL     OW 9664   5.252   6.641   5.735
 2922SOL    HW1 9665   5.229   6.718   5.796
 2922SOL    HW2 9666   5.248   6.556   5.786
 2923SOL     OW 9667   6.858   5.143   2.464
 2923SOL    HW1 9668   6.848   5.155   2.563
 2923SOL    HW2 9669   6.804   5.064   2.435
 2924SOL     OW 9670   1.081   1.626   5.895
 2924SOL    HW1 9671   1.039   1.540   5.924
 2924SOL    HW2 9672   1.086   1.629   5.795
 2925SOL     OW 9673   5.677   2.354   2.577
 2925SOL    HW1 9674   5.634   2.274   2.618
 2925SOL    HW2 9675   5.607   2.425   2.564
 2926SOL     OW 9676   6.991   1.813   4.759
 2926SOL    HW1 9677   6.893   1.820   4.741
 2926SOL    HW2 9678   7.013   1.851   4.848
 2927SOL     OW 9679   1.167   2.930   2.463
 2927SOL    HW1 9680   1.091   2.980   2.422
 2927SOL    HW2 9681   1.175   2.840   2.420
 2928SOL     OW 9682   6.884   0.822   6.564
 2928SOL    HW1 9683   6.862   0.912   6.525
 2928SOL    HW2 9684   6.921   0.833   6.656
 2929SOL     OW 9685   0.370   0.871   6.170
 2929SOL    HW1 9686   0.452   0.867   6.226
 2929SOL    HW2 9687   0.297   0.819   6.214
 2930SOL     OW 9688   5.015   0.262   4.973
 2930SOL    HW1 9689   5.107   0.244   4.937
 2930SOL    HW2 9690   5.016   0.252   5.072
 2931SOL     OW 9691   4.725   5.945   6.571
 2931SOL    HW1 9692   4.754   5.942   6.475
 2931SOL    HW2 9693   4.644   6.003   6.579
 2932SOL     OW 9694   1.631   4.633   1.661
 2932SOL    HW1 9695   1.607   4.645   1.757
 2932SOL    HW2 9696   1.561   4.675   1.603
 2933SOL     OW 9697   5.375   2.602   4.138
 2933SOL    HW1 9698   5.399   2.694   4.170
 2933SOL    HW2 9699   5.381   2.538   4.215
 2934SOL     OW 9700   4.002   6.862   0.575
 2934SOL    HW1 9701   3.954   6.947   0.595
 2934SOL    HW2 9702   4.041   6.866   0.484
 2935SOL     OW 9703   6.569   3.363   1.252
 2935SOL    HW1 9704   6.643   3.316   1.299
 2935SOL    HW2 9705   6.493   3.376   1.315
 2936SOL     OW 9706   4.914   5.721   0.930
 2936SOL    HW1 9707   5.000   5.761   0.898
 2936SOL    HW2 9708   4.838   5.775   0.895
 2937SOL     OW 9709   3.454   5.406   1.049
 2937SOL    HW1 9710   3.462   5.368   1.141
 2937SOL    HW2 9711   3.445   5.331   0.983
 2938SOL     OW 9712   5.180   4.998   5.202
 2938SOL    HW1 9713   5.142   4.912   5.237
 2938SOL    HW2 9714   5.111   5.044   5.146
 2939SOL     OW 9715   5.950   7.007   4.849
 2939SOL    HW1 9716   5.952   0.063   4.787
 2939SOL    HW2 9717   5.943   6.922   4.796
 2940SOL     OW 9718   5.392   6.816   5.217
 2940SOL    HW1 9719   5.461   6.872   5.171
 2940SOL    HW2 9720   5.301   6.849   5.191
 2941SOL     OW 9721   1.476   2.244   5.351
 2941SOL    HW1 9722   1.569   2.269   5.379
 2941SOL    HW2 9723   1.444   2.167   5.407
 2942SOL     OW 9724   3.196   0.424   2.340
 2942SOL    HW1 9725   3.226   0.382   2.254
 2942SOL    HW2 9726   3.098   0.442   2.335
 2943SOL     OW 9727   5.770   2.806   2.568
 2943SOL    HW1 9728   5.730   2.898   2.567
 2943SOL    HW2 9729   5.751   2.760   2.481
 2944SOL     OW 9730   3.193   5.017   5.826
 2944SOL    HW1 9731   3.255   5.084   5.865
 2944SOL    HW2 9732   3.126   4.990   5.895
 2945SOL     OW 9733   3.908   3.229   3.152
 2945SOL    HW1 9734   3.845   3.290   3.104
 2945SOL    HW2 9735   4.001   3.263   3.141
 2946SOL     OW 9736   6.420   6.553   5.403
 2946SOL    HW1 9737   6.504   6.581   5.450
 2946SOL    HW2 9738   6.349   6.533   5.470
 2947SOL     OW 9739   6.649   3.894   6.074
 2947SOL    HW1 9740   6.651   3.806   6.028
 2947SOL    HW2 9741   6.562   3.939   6.054
 2948SOL     OW 9742   6.654   3.213   5.840
 2948SOL    HW1 9743   6.565   3.179   5.873
 2948SOL    HW2 9744   6.720   3.138   5.842
 2949SOL     OW 9745   1.636   6.601   0.999
 2949SOL    HW1 9746   1.657   6.546   0.918
 2949SOL    HW2 9747   1.543   6.638   0.990
 2950SOL     OW 9748   5.479   3.573   4.302
 2950SOL    HW1 9749   5.547   3.528   4.244
 2950SOL    HW2 9750   5.479   3.671   4.282
 2951SOL     OW 9751   6.780   2.233   0.273
 2951SOL    HW1 9752   6.849   2.239   0.201
 2951SOL    HW2 9753   6.790   2.311   0.335
 2952SOL     OW 9754   0.847   4.687   2.773
 2952SOL    HW1 9755   0.941   4.673   2.744
 2952SOL    HW2 9756   0.843   4.699   2.872
 2953SOL     OW 9757   4.858   2.569   2.284
 2953SOL    HW1 9758   4.955   2.551   2.298
 2953SOL    HW2 9759   4.810   2.483   2.268
 2954SOL     OW 9760   0.634   6.349   1.979
 2954SOL    HW1 9761   0.565   6.305   1.922
 2954SOL    HW2 9762   0.594   6.372   2.068
 2955SOL     OW 9763   0.626   3.166   0.532
 2955SOL    HW1 9764   0.594   3.156   0.438
 2955SOL    HW2 9765   0.647   3.075   0.570
 2956SOL     OW 9766   0.216   6.087   3.095
 2956SOL    HW1 9767   0.131   6.037   3.111
 2956SOL    HW2 9768   0.198   6.185   3.101
 2957SOL     OW 9769   0.450   3.687   0.676
 2957SOL    HW1 9770   0.544   3.701   0.645
 2957SOL    HW2 9771   0.401   3.631   0.609
 2958SOL     OW 9772   1.782   4.432   6.116
 2958SOL    HW1 9773   1.789   4.475   6.026
 2958SOL    HW2 9774   1.767   4.334   6.105
 2959SOL     OW 9775   5.686   4.594   5.870
 2959SOL    HW1 9776   5.743   4.616   5.790
 2959SOL    HW2 9777   5.593   4.626   5.854
 2960SOL     OW 9778   2.978   1.512   0.566
 2960SOL    HW1 9779   2.893   1.523   0.618
 2960SOL    HW2 9780   2.957   1.509   0.468
 2961SOL     OW 9781   5.542   3.454   4.961
 2961SOL    HW1 9782   5.454   3.407   4.963
 2961SOL    HW2 9783   5.537   3.538   5.014
 2962SOL     OW 9784   4.809   1.450   3.719
 2962SOL    HW1 9785   4.844   1.370   3.767
 2962SOL    HW2 9786   4.710   1.443   3.709
 2963SOL     OW 9787   2.233   1.926   5.827
 2963SOL    HW1 9788   2.251   1.896   5.921
 2963SOL    HW2 9789   2.162   1.869   5.787
 2964SOL     OW 9790   1.844   0.038   2.007
 2964SOL    HW1 9791   1.852   0.136   2.024
 2964SOL    HW2 9792   1.841   7.010   2.093
 2965SOL     OW 9793   0.304   0.770   5.198
 2965SOL    HW1 9794   0.206   0.781   5.213
 2965SOL    HW2 9795   0.330   0.810   5.111
 2966SOL     OW 9796   5.189   4.291   3.355
 2966SOL    HW1 9797   5.285   4.318   3.349
 2966SOL    HW2 9798   5.148   4.293   3.264
 2967SOL     OW 9799   6.000   2.401   3.304
 2967SOL    HW1 9800   6.050   2.339   3.365
 2967SOL    HW2 9801   5.953   2.470   3.359
 2968SOL     OW 9802   0.732   3.881   5.213
 2968SOL    HW1 9803   0.654   3.855   5.270
 2968SOL    HW2 9804   0.734   3.824   5.131
 2969SOL     OW 9805   5.489   1.800   4.776
 2969SOL    HW1 9806   5.528   1.830   4.863
 2969SOL    HW2 9807   5.501   1.702   4.766
 2970SOL     OW 9808   1.230   4.636   6.532
 2970SOL    HW1 9809   1.248   4.537   6.535
 2970SOL    HW2 9810   1.300   4.683   6.586
 2971SOL     OW 9811   5.738   3.251   3.914
 2971SOL    HW1 9812   5.801   3.185   3.956
 2971SOL    HW2 9813   5.786   3.302   3.843
 2972SOL     OW 9814   6.327   3.709   6.586
 2972SOL    HW1 9815   6.362   3.704   6.493
 2972SOL    HW2 9816   6.369   3.787   6.633
 2973SOL     OW 9817   5.495   0.329   4.039
 2973SOL    HW1 9818   5.396   0.321   4.049
 2973SOL    HW2 9819   5.539   0.313   4.128
 2974SOL     OW 9820   5.755   4.350   3.137
 2974SOL    HW1 9821   5.824   4.370   3.206
 2974SOL    HW2 9822   5.683   4.419   3.140
 2975SOL     OW 9823   0.573   1.571   5.383
 2975SOL    HW1 9824   0.566   1.602   5.288
 2975SOL    HW2 9825   0.578   1.471   5.385
 2976SOL     OW 9826   3.863   1.258   2.756
 2976SOL    HW1 9827   3.904   1.332   2.809
 2976SOL    HW2 9828   3.889   1.170   2.795
 2977SOL     OW 9829   2.768   0.243   4.288
 2977SOL    HW1 9830   2.806   0.328   4.324
 2977SOL    HW2 9831   2.765   0.175   4.361
 2978SOL     OW 9832   4.855   5.125   0.200
 2978SOL    HW1 9833   4.856   5.033   0.160
 2978SOL    HW2 9834   4.943   5.169   0.185
 2979SOL     OW 9835   3.192   0.459   3.478
 2979SOL    HW1 9836   3.137   0.380   3.452
 2979SOL    HW2 9837   3.244   0.437   3.561
 2980SOL     OW 9838   0.608   6.638   4.413
 2980SOL    HW1 9839   0.593   6.576   4.491
 2980SOL    HW2 9840   0.600   6.587   4.328
 2981SOL     OW 9841   1.399   1.204   5.766
 2981SOL    HW1 9842   1.370   1.134   5.701
 2981SOL    HW2 9843   1.467   1.165   5.829
 2982SOL     OW 9844   4.097   5.970   2.837
 2982SOL    HW1 9845   4.108   6.064   2.805
 2982SOL    HW2 9846   4.162   5.952   2.912
 2983SOL     OW 9847   0.667   0.699   4.219
 2983SOL    HW1 9848   0.729   0.622   4.232
 2983SOL    HW2 9849   0.578   0.677   4.260
 2984SOL     OW 9850   6.322   5.560   1.237
 2984SOL    HW1 9851   6.388   5.558   1.312
 2984SOL    HW2 9852   6.320   5.471   1.192
 2985SOL     OW 9853   0.541   1.795   4.492
 2985SOL    HW1 9854   0.446   1.772   4.472
 2985SOL    HW2 9855   0.545   1.869   4.559
 2986SOL     OW 9856   2.275   4.104   5.562
 2986SOL    HW1 9857   2.272   4.031   5.494
 2986SOL    HW2 9858   2.253   4.192   5.519
 2987SOL     OW 9859   4.895   1.070   4.535
 2987SOL    HW1 9860   4.879   0.985   4.485
 2987SOL    HW2 9861   4.857   1.147   4.483
 2988SOL     OW 9862   1.377   0.618   2.120
 2988SOL    HW1 9863   1.402   0.524   2.097
 2988SOL    HW2 9864   1.300   0.618   2.183
 2989SOL     OW 9865   6.614   4.892   1.223
 2989SOL    HW1 9866   6.624   4.915   1.126
 2989SOL    HW2 9867   6.571   4.968   1.271
 2990SOL     OW 9868   3.477   0.496   2.798
 2990SOL    HW1 9869   3.569   0.460   2.812
 2990SOL    HW2 9870   3.445   0.470   2.707
 2991SOL     OW 9871   6.905   3.837   0.488
 2991SOL    HW1 9872   6.809   3.845   0.516
 2991SOL    HW2 9873   6.953   3.776   0.550
 2992SOL     OW 9874   3.523   5.384   6.647
 2992SOL    HW1 9875   3.594   5.314   6.658
 2992SOL    HW2 9876   3.467   5.363   6.567
 2993SOL     OW 9877   1.902   4.441   1.686
 2993SOL    HW1 9878   1.819   4.406   1.729
 2993SOL    HW2 9879   1.941   4.513   1.743
 2994SOL     OW 9880   4.904   0.434   6.838
 2994SOL    HW1 9881   4.977   0.369   6.819
 2994SOL    HW2 9882   4.841   0.437   6.761
 2995SOL     OW 9883   1.382   1.890   0.135
 2995SOL    HW1 9884   1.330   1.869   0.217
 2995SOL    HW2 9885   1.319   1.899   0.057
 2996SOL     OW 9886   2.906   5.375   5.380
 2996SOL    HW1 9887   2.895   5.466   5.341
 2996SOL    HW2 9888   2.982   5.328   5.334
 2997SOL     OW 9889   5.329   6.014   1.742
 2997SOL    HW1 9890   5.376   5.944   1.688
 2997SOL    HW2 9891   5.370   6.018   1.833
 2998SOL     OW 9892   4.873   5.749   4.314
 2998SOL    HW1 9893   4.969   5.774   4.296
 2998SOL    HW2 9894   4.821   5.753   4.229
 2999SOL     OW 9895   3.288   5.868   3.739
 2999SOL    HW1 9896   3.283   5.783   3.687
 2999SOL    HW2 9897   3.225   5.935   3.699
 3000SOL     OW 9898   1.829   3.701   5.453
 3000SOL    HW1 9899   1.876   3.701   5.541
 3000SOL    HW2 9900   1.888   3.742   5.383
 3001SOL     OW 9901   4.681   0.508   5.932
 3001SOL    HW1 9902   4.698   0.544   6.024
 3001SOL    HW2 9903   4.590   0.467   5.929
 3002SOL     OW 9904   4.240   0.269   5.245
 3002SOL    HW1 9905   4.243   0.174   5.214
 3002SOL    HW2 9906   4.154   0.311   5.216
 3003SOL     OW 9907   2.498   6.343   5.908
 3003SOL    HW1 9908   2.440   6.269   5.944
 3003SOL    HW2 9909   2.537   6.315   5.821
 3004SOL     OW 9910   6.206   4.039   3.766
 3004SOL    HW1 9911   6.138   4.110   3.744
 3004SOL    HW2 9912   6.219   3.980   3.687
 3005SOL     OW 9913   3.354   2.942   1.560
 3005SOL    HW1 9914   3.402   2.857   1.540
 3005SOL    HW2 9915   3.274   2.923   1.617
 3006SOL     OW 9916   6.004   1.047   0.927
 3006SOL    HW1 9917   6.057   1.043   0.842
 3006SOL    HW2 9918   6.062   1.081   1.001
 3007SOL     OW 9919   5.589   5.205   2.506
 3007SOL    HW1 9920   5.510   5.146   2.485
 3007SOL    HW2 9921   5.626   5.242   2.421
 3008SOL     OW 9922   3.613   0.020   5.827
 3008SOL    HW1 9923   3.675   0.079   5.776
 3008SOL    HW2 9924   3.519   0.054   5.818
 3009SOL     OW 9925   0.785   0.339   2.470
 3009SOL    HW1 9926   0.708   0.398   2.447
 3009SOL    HW2 9927   0.814   0.357   2.564
 3010SOL     OW 9928   4.310   5.876   3.047
 3010SOL    HW1 9929   4.303   5.975   3.062
 3010SOL    HW2 9930   4.391   5.857   2.993
 3011SOL     OW 9931   5.945   0.836   6.533
 3011SOL    HW1 9932   5.894   0.912   6.573
 3011SOL    HW2 9933   5.957   0.852   6.435
 3012SOL     OW 9934   0.029   3.551   3.762
 3012SOL    HW1 9935   6.960   3.590   3.770
 3012SOL    HW2 9936   0.036   3.499   3.677
 3013SOL     OW 9937   6.107   6.265   2.383
 3013SOL    HW1 9938   6.202   6.268   2.415
 3013SOL    HW2 9939   6.045   6.276   2.461
 3014SOL     OW 9940   5.762   1.672   4.030
 3014SOL    HW1 9941   5.669   1.690   3.998
 3014SOL    HW2 9942   5.828   1.716   3.969
 3015SOL     OW 9943   2.441   2.031   1.063
 3015SOL    HW1 9944   2.447   2.098   1.137
 3015SOL    HW2 9945   2.446   1.939   1.102
 3016SOL     OW 9946   3.504   5.579   4.325
 3016SOL    HW1 9947   3.468   5.489   4.304
 3016SOL    HW2 9948   3.519   5.588   4.424
 3017SOL     OW 9949   0.691   5.404   1.261
 3017SOL    HW1 9950   0.724   5.367   1.174
 3017SOL    HW2 9951   0.740   5.488   1.283
 3018SOL     OW 9952   3.926   0.488   6.864
 3018SOL    HW1 9953   3.995   0.433   6.910
 3018SOL    HW2 9954   3.841   0.436   6.858
 3019SOL     OW 9955   3.477   6.319   0.904
 3019SOL    HW1 9956   3.563   6.337   0.952
 3019SOL    HW2 9957   3.427   6.245   0.951
 3020SOL     OW 9958   3.359   3.747   2.362
 3020SOL    HW1 9959   3.306   3.821   2.321
 3020SOL    HW2 9960   3.306   3.707   2.437
 3021SOL     OW 9961   1.762   1.947   6.869
 3021SOL    HW1 9962   1.851   1.992   6.868
 3021SOL    HW2 9963   1.705   1.985   6.942
 3022SOL     OW 9964   3.611   5.924   2.692
 3022SOL    HW1 9965   3.686   5.926   2.758
 3022SOL    HW2 9966   3.524   5.918   2.741
 3023SOL     OW 9967   3.547   5.888   3.666
 3023SOL    HW1 9968   3.561   5.950   3.589
 3023SOL    HW2 9969   3.453   5.899   3.700
 3024SOL     OW 9970   3.167   0.759   6.789
 3024SOL    HW1 9971   3.095   0.822   6.761
 3024SOL    HW2 9972   3.199   0.784   6.881
 3025SOL     OW 9973   2.957   3.171   0.769
 3025SOL    HW1 9974   2.955   3.250   0.831
 3025SOL    HW2 9975   2.863   3.144   0.747
 3026SOL     OW 9976   1.649   3.506   1.240
 3026SOL    HW1 9977   1.626   3.489   1.145
 3026SOL    HW2 9978   1.601   3.588   1.272
 3027SOL     OW 9979   4.024   0.685   2.397
 3027SOL    HW1 9980   3.996   0.737   2.477
 3027SOL    HW2 9981   4.048   0.748   2.323
 3028SOL     OW 9982   1.333   4.794   0.234
 3028SOL    HW1 9983   1.357   4.703   0.268
 3028SOL    HW2 9984   1.409   4.830   0.180
 3029SOL     OW 9985   6.010   4.781   5.260
 3029SOL    HW1 9986   5.986   4.709   5.326
 3029SOL    HW2 9987   6.043   4.740   5.175
 3030SOL     OW 9988   1.006   1.042   5.459
 3030SOL    HW1 9989   1.017   1.141   5.469
 3030SOL    HW2 9990   0.959   1.005   5.539
 3031SOL     OW 9991   0.867   3.344   0.609
 3031SOL    HW1 9992   0.898   3.336   0.514
 3031SOL    HW2 9993   0.791   3.281   0.624
 3032SOL     OW 9994   4.853   0.084   6.878
 3032SOL    HW1 9995   4.807   0.149   6.817
 3032SOL    HW2 9996   4.951   0.085   6.860
 3033SOL     OW 9997   0.883   3.324   0.293
 3033SOL    HW1 9998   0.808   3.316   0.227
 3033SOL    HW2 9999   0.938   3.405   0.272
 3034SOL     OW10000   2.283   6.233   3.728
 3034SOL    HW110001   2.203   6.277   3.770
 3034SOL    HW210002   2.290   6.262   3.632
 3035SOL     OW10003   6.768   1.467   0.330
 3035SOL    HW110004   6.806   1.558   0.310
 3035SOL    HW210005   6.740   1.423   0.245
 3036SOL     OW10006   1.428   3.706   6.796
 3036SOL    HW110007   1.408   3.619   6.842
 3036SOL    HW210008   1.391   3.782   6.850
 3037SOL     OW10009   5.989   5.615   4.464
 3037SOL    HW110010   6.039   5.648   4.384
 3037SOL    HW210011   5.902   5.664   4.472
 3038SOL     OW10012   5.550   6.914   6.322
 3038SOL    HW110013   5.581   7.002   6.285
 3038SOL    HW210014   5.526   6.853   6.247
 3039SOL     OW10015   6.514   4.559   2.696
 3039SOL    HW110016   6.545   4.641   2.745
 3039SOL    HW210017   6.495   4.583   2.600
 3040SOL     OW10018   3.654   3.823   6.141
 3040SOL    HW110019   3.601   3.813   6.056
 3040SOL    HW210020   3.646   3.918   6.173
 3041SOL     OW10021   1.757   3.084   5.696
 3041SOL    HW110022   1.797   3.003   5.654
 3041SOL    HW210023   1.799   3.166   5.656
 3042SOL     OW10024   5.031   0.593   2.002
 3042SOL    HW110025   5.054   0.585   1.905
 3042SOL    HW210026   5.022   0.689   2.027
 3043SOL     OW10027   0.607   5.396   0.441
 3043SOL    HW110028   0.550   5.478   0.429
 3043SOL    HW210029   0.550   5.322   0.477
 3044SOL     OW10030   3.340   4.375   5.519
 3044SOL    HW110031   3.261   4.426   5.553
 3044SOL    HW210032   3.373   4.313   5.591
 3045SOL     OW10033   5.350   0.898   2.676
 3045SOL    HW110034   5.419   0.948   2.728
 3045SOL    HW210035   5.359   0.921   2.579
 3046SOL     OW10036   1.241   3.629   5.438
 3046SOL    HW110037   1.304   3.584   5.375
 3046SOL    HW210038   1.230   3.725   5.413
 3047SOL     OW10039   5.748   4.841   1.743
 3047SOL    HW110040   5.834   4.858   1.790
 3047SOL    HW210041   5.716   4.748   1.764
 3048SOL     OW10042   4.197   3.488   1.466
 3048SOL    HW110043   4.245   3.417   1.414
 3048SOL    HW210044   4.215   3.475   1.564
 3049SOL     OW10045   1.117   0.092   1.569
 3049SOL    HW110046   1.131   0.118   1.664
 3049SOL    HW210047   1.071   0.167   1.521
 3050SOL     OW10048   3.021   6.321   3.929
 3050SOL    HW110049   2.977   6.304   3.841
 3050SOL    HW210050   3.089   6.250   3.947
 3051SOL     OW10051   2.686   4.972   6.659
 3051SOL    HW110052   2.629   4.892   6.680
 3051SOL    HW210053   2.627   5.053   6.649
 3052SOL     OW10054   3.873   0.761   2.969
 3052SOL    HW110055   3.780   0.725   2.970
 3052SOL    HW210056   3.923   0.723   2.891
 3053SOL     OW10057   6.038   0.835   0.113
 3053SOL    HW110058   6.053   0.790   0.025
 3053SOL    HW210059   6.015   0.766   0.182
 3054SOL     OW10060   0.105   3.290   0.252
 3054SOL    HW110061   0.051   3.309   0.170
 3054SOL    HW210062   0.082   3.357   0.323
 3055SOL     OW10063   5.405   7.009   3.611
 3055SOL    HW110064   5.331   6.947   3.636
 3055SOL    HW210065   5.400   0.070   3.667
 3056SOL     OW10066   6.531   0.030   0.101
 3056SOL    HW110067   6.586   0.113   0.109
 3056SOL    HW210068   6.450   0.049   0.045
 3057SOL     OW10069   5.405   5.058   2.375
 3057SOL    HW110070   5.461   4.976   2.386
 3057SOL    HW210071   5.326   5.054   2.436
 3058SOL     OW10072   6.338   5.934   1.388
 3058SOL    HW110073   6.362   5.970   1.299
 3058SOL    HW210074   6.406   5.866   1.416
 3059SOL     OW10075   0.791   3.103   5.254
 3059SOL    HW110076   0.868   3.091   5.192
 3059SOL    HW210077   0.787   3.198   5.286
 3060SOL     OW10078   0.602   6.884   0.486
 3060SOL    HW110079   0.688   6.924   0.517
 3060SOL    HW210080   0.554   6.949   0.428
 3061SOL     OW10081   6.922   0.766   4.980
 3061SOL    HW110082   6.906   0.699   4.907
 3061SOL    HW210083   7.011   0.809   4.966
 3062SOL     OW10084   2.468   6.727   1.763
 3062SOL    HW110085   2.539   6.709   1.831
 3062SOL    HW210086   2.464   6.652   1.698
 3063SOL     OW10087   1.995   4.700   2.143
 3063SOL    HW110088   2.002   4.780   2.084
 3063SOL    HW210089   2.085   4.680   2.183
 3064SOL     OW10090   5.902   3.627   3.884
 3064SOL    HW110091   5.984   3.570   3.885
 3064SOL    HW210092   5.876   3.650   3.978
 3065SOL     OW10093   1.869   0.721   6.551
 3065SOL    HW110094   1.777   0.730   6.588
 3065SOL    HW210095   1.886   0.625   6.527
 3066SOL     OW10096   6.207   4.361   0.521
 3066SOL    HW110097   6.159   4.437   0.477
 3066SOL    HW210098   6.176   4.275   0.482
 3067SOL     OW10099   3.843   0.889   4.826
 3067SOL    HW110100   3.938   0.871   4.803
 3067SOL    HW210101   3.838   0.953   4.902
 3068SOL     OW10102   5.903   6.324   0.864
 3068SOL    HW110103   5.985   6.373   0.894
 3068SOL    HW210104   5.921   6.225   0.866
 3069SOL     OW10105   0.546   5.498   1.980
 3069SOL    HW110106   0.476   5.461   1.919
 3069SOL    HW210107   0.551   5.597   1.969
 3070SOL     OW10108   2.342   1.583   2.772
 3070SOL    HW110109   2.375   1.574   2.866
 3070SOL    HW210110   2.299   1.672   2.761
 3071SOL     OW10111   5.922   0.134   3.707
 3071SOL    HW110112   5.875   0.214   3.670
 3071SOL    HW210113   6.018   0.156   3.723
 3072SOL     OW10114   0.960   6.550   1.816
 3072SOL    HW110115   0.928   6.627   1.760
 3072SOL    HW210116   0.916   6.554   1.906
 3073SOL     OW10117   0.622   3.388   5.038
 3073SOL    HW110118   0.576   3.334   5.108
 3073SOL    HW210119   0.697   3.335   4.998
 3074SOL     OW10120   4.634   3.003   0.305
 3074SOL    HW110121   4.542   2.969   0.287
 3074SOL    HW210122   4.692   2.926   0.333
 3075SOL     OW10123   1.551   6.755   1.726
 3075SOL    HW110124   1.641   6.790   1.700
 3075SOL    HW210125   1.486   6.773   1.652
 3076SOL     OW10126   6.310   0.712   4.684
 3076SOL    HW110127   6.213   0.696   4.667
 3076SOL    HW210128   6.330   0.810   4.677
 3077SOL     OW10129   5.851   4.929   3.910
 3077SOL    HW110130   5.819   4.956   3.819
 3077SOL    HW210131   5.787   4.863   3.950
 3078SOL     OW10132   2.021   3.698   1.969
 3078SOL    HW110133   1.951   3.639   2.009
 3078SOL    HW210134   2.103   3.645   1.950
 3079SOL     OW10135   1.211   2.717   4.988
 3079SOL    HW110136   1.193   2.816   4.983
 3079SOL    HW210137   1.295   2.701   5.039
 3080SOL     OW10138   6.248   4.818   1.617
 3080SOL    HW110139   6.290   4.905   1.590
 3080SOL    HW210140   6.233   4.761   1.536
 3081SOL     OW10141   0.442   4.485   6.144
 3081SOL    HW110142   0.423   4.575   6.182
 3081SOL    HW210143   0.356   4.436   6.132
 3082SOL     OW10144   3.554   0.055   3.156
 3082SOL    HW110145   3.469   0.109   3.156
 3082SOL    HW210146   3.630   0.114   3.184
 3083SOL     OW10147   3.487   0.202   2.545
 3083SOL    HW110148   3.517   0.118   2.588
 3083SOL    HW210149   3.541   0.219   2.462
 3084SOL     OW10150   4.556   4.741   3.996
 3084SOL    HW110151   4.477   4.702   3.950
 3084SOL    HW210152   4.640   4.698   3.962
 3085SOL     OW10153   6.738   5.264   3.274
 3085SOL    HW110154   6.835   5.237   3.277
 3085SOL    HW210155   6.682   5.190   3.311
 3086SOL     OW10156   4.325   0.868   2.016
 3086SOL    HW110157   4.347   0.849   1.920
 3086SOL    HW210158   4.272   0.792   2.053
 3087SOL     OW10159   6.370   4.280   3.444
 3087SOL    HW110160   6.288   4.233   3.411
 3087SOL    HW210161   6.417   4.222   3.511
 3088SOL     OW10162   2.530   5.096   5.506
 3088SOL    HW110163   2.511   5.022   5.570
 3088SOL    HW210164   2.628   5.119   5.510
 3089SOL     OW10165   1.446   2.711   7.003
 3089SOL    HW110166   1.446   2.685   0.078
 3089SOL    HW210167   1.420   2.632   6.948
 3090SOL     OW10168   1.843   1.667   1.330
 3090SOL    HW110169   1.849   1.757   1.371
 3090SOL    HW210170   1.777   1.610   1.380
 3091SOL     OW10171   3.006   0.100   0.198
 3091SOL    HW110172   2.994   0.121   0.295
 3091SOL    HW210173   2.980   0.005   0.181
 3092SOL     OW10174   5.500   6.690   0.212
 3092SOL    HW110175   5.457   6.619   0.156
 3092SOL    HW210176   5.598   6.693   0.193
 3093SOL     OW10177   6.027   5.203   5.689
 3093SOL    HW110178   6.070   5.252   5.613
 3093SOL    HW210179   5.934   5.238   5.702
 3094SOL     OW10180   3.064   5.693   4.978
 3094SOL    HW110181   3.128   5.769   4.973
 3094SOL    HW210182   3.092   5.631   5.052
 3095SOL     OW10183   2.376   4.484   4.438
 3095SOL    HW110184   2.302   4.552   4.432
 3095SOL    HW210185   2.395   4.448   4.346
 3096SOL     OW10186   6.618   0.065   4.724
 3096SOL    HW110187   6.711   0.102   4.724
 3096SOL    HW210188   6.615   7.002   4.776
 3097SOL     OW10189   0.391   2.661   0.707
 3097SOL    HW110190   0.411   2.719   0.787
 3097SOL    HW210191   0.445   2.578   0.713
 3098SOL     OW10192   2.507   3.798   0.854
 3098SOL    HW110193   2.603   3.816   0.832
 3098SOL    HW210194   2.477   3.863   0.924
 3099SOL     OW10195   6.913   5.693   4.641
 3099SOL    HW110196   6.947   5.744   4.562
 3099SOL    HW210197   6.988   5.675   4.704
 3100SOL     OW10198   6.516   6.842   4.924
 3100SOL    HW110199   6.528   6.751   4.965
 3100SOL    HW210200   6.597   6.897   4.942
 3101SOL     OW10201   4.982   5.810   5.412
 3101SOL    HW110202   5.036   5.892   5.432
 3101SOL    HW210203   4.963   5.805   5.314
 3102SOL     OW10204   0.926   4.556   1.219
 3102SOL    HW110205   0.979   4.536   1.301
 3102SOL    HW210206   0.924   4.474   1.160
 3103SOL     OW10207   3.423   2.281   0.530
 3103SOL    HW110208   3.483   2.216   0.575
 3103SOL    HW210209   3.464   2.310   0.443
 3104SOL     OW10210   5.236   6.189   4.204
 3104SOL    HW110211   5.328   6.155   4.224
 3104SOL    HW210212   5.190   6.214   4.290
 3105SOL     OW10213   5.485   5.852   3.365
 3105SOL    HW110214   5.473   5.937   3.314
 3105SOL    HW210215   5.416   5.846   3.437
 3106SOL     OW10216   6.617   2.391   2.634
 3106SOL    HW110217   6.544   2.378   2.567
 3106SOL    HW210218   6.702   2.350   2.601
 3107SOL     OW10219   3.036   0.633   3.869
 3107SOL    HW110220   3.078   0.545   3.845
 3107SOL    HW210221   3.074   0.665   3.955
 3108SOL     OW10222   1.840   0.792   4.620
 3108SOL    HW110223   1.869   0.855   4.692
 3108SOL    HW210224   1.742   0.801   4.605
 3109SOL     OW10225   5.171   6.180   2.582
 3109SOL    HW110226   5.102   6.232   2.632
 3109SOL    HW210227   5.179   6.215   2.489
 3110SOL     OW10228   6.771   3.099   3.354
 3110SOL    HW110229   6.843   3.035   3.380
 3110SOL    HW210230   6.681   3.056   3.370
 3111SOL     OW10231   5.915   5.336   3.882
 3111SOL    HW110232   5.953   5.428   3.889
 3111SOL    HW210233   5.976   5.279   3.826
 3112SOL     OW10234   4.537   2.722   6.253
 3112SOL    HW110235   4.550   2.786   6.177
 3112SOL    HW210236   4.445   2.683   6.248
 3113SOL     OW10237   2.698   6.891   3.722
 3113SOL    HW110238   2.624   6.870   3.659
 3113SOL    HW210239   2.757   6.810   3.731
 3114SOL     OW10240   5.545   3.828   6.540
 3114SOL    HW110241   5.571   3.742   6.585
 3114SOL    HW210242   5.588   3.832   6.450
 3115SOL     OW10243   3.790   4.001   0.583
 3115SOL    HW110244   3.807   4.048   0.497
 3115SOL    HW210245   3.749   4.065   0.649
 3116SOL     OW10246   6.518   2.596   6.046
 3116SOL    HW110247   6.453   2.521   6.034
 3116SOL    HW210248   6.488   2.675   5.991
 3117SOL     OW10249   4.382   3.412   5.503
 3117SOL    HW110250   4.334   3.409   5.415
 3117SOL    HW210251   4.467   3.359   5.496
 3118SOL     OW10252   6.257   4.847   6.684
 3118SOL    HW110253   6.290   4.925   6.738
 3118SOL    HW210254   6.157   4.847   6.684
 3119SOL     OW10255   1.969   4.601   5.336
 3119SOL    HW110256   1.962   4.507   5.369
 3119SOL    HW210257   1.879   4.643   5.334
 3120SOL     OW10258   1.999   5.558   4.720
 3120SOL    HW110259   1.900   5.548   4.724
 3120SOL    HW210260   2.037   5.563   4.812
 3121SOL     OW10261   0.516   1.824   2.110
 3121SOL    HW110262   0.420   1.833   2.083
 3121SOL    HW210263   0.567   1.781   2.036
 3122SOL     OW10264   3.104   5.414   6.348
 3122SOL    HW110265   3.067   5.333   6.394
 3122SOL    HW210266   3.138   5.388   6.258
 3123SOL     OW10267   3.426   6.178   3.776
 3123SOL    HW110268   3.483   6.139   3.848
 3123SOL    HW210269   3.330   6.162   3.796
 3124SOL     OW10270   4.614   0.517   5.301
 3124SOL    HW110271   4.710   0.494   5.316
 3124SOL    HW210272   4.589   0.597   5.357
 3125SOL     OW10273   6.405   1.959   5.572
 3125SOL    HW110274   6.483   1.896   5.570
 3125SOL    HW210275   6.321   1.906   5.589
 3126SOL     OW10276   5.389   4.531   5.975
 3126SOL    HW110277   5.334   4.555   6.055
 3126SOL    HW210278   5.375   4.599   5.903
 3127SOL     OW10279   1.317   1.485   3.498
 3127SOL    HW110280   1.335   1.584   3.502
 3127SOL    HW210281   1.348   1.443   3.583
 3128SOL     OW10282   2.088   0.704   0.315
 3128SOL    HW110283   2.064   0.765   0.391
 3128SOL    HW210284   2.180   0.727   0.282
 3129SOL     OW10285   0.544   3.958   5.473
 3129SOL    HW110286   0.520   3.885   5.410
 3129SOL    HW210287   0.643   3.974   5.471
 3130SOL     OW10288   2.523   4.502   2.606
 3130SOL    HW110289   2.567   4.570   2.547
 3130SOL    HW210290   2.475   4.435   2.550
 3131SOL     OW10291   1.075   3.420   3.043
 3131SOL    HW110292   1.011   3.343   3.042
 3131SOL    HW210293   1.155   3.396   3.097
 3132SOL     OW10294   5.438   5.973   5.496
 3132SOL    HW110295   5.500   5.906   5.537
 3132SOL    HW210296   5.478   6.010   5.412
 3133SOL     OW10297   1.999   1.998   3.900
 3133SOL    HW110298   1.999   2.077   3.961
 3133SOL    HW210299   2.059   1.927   3.937
 3134SOL     OW10300   4.662   3.317   1.465
 3134SOL    HW110301   4.612   3.294   1.548
 3134SOL    HW210302   4.759   3.326   1.486
 3135SOL     OW10303   4.221   1.932   4.293
 3135SOL    HW110304   4.259   1.866   4.357
 3135SOL    HW210305   4.295   1.991   4.258
 3136SOL     OW10306   5.636   6.027   6.297
 3136SOL    HW110307   5.650   6.094   6.371
 3136SOL    HW210308   5.631   5.936   6.336
 3137SOL     OW10309   4.870   1.549   3.964
 3137SOL    HW110310   4.857   1.528   3.867
 3137SOL    HW210311   4.901   1.644   3.974
 3138SOL     OW10312   6.037   1.794   4.642
 3138SOL    HW110313   6.122   1.755   4.607
 3138SOL    HW210314   6.045   1.894   4.647
 3139SOL     OW10315   4.951   6.572   5.611
 3139SOL    HW110316   4.948   6.595   5.708
 3139SOL    HW210317   4.973   6.654   5.558
 3140SOL     OW10318   6.731   6.675   6.323
 3140SOL    HW110319   6.784   6.627   6.253
 3140SOL    HW210320   6.793   6.716   6.390
 3141SOL     OW10321   0.534   6.254   6.918
 3141SOL    HW110322   0.486   6.283   7.001
 3141SOL    HW210323   0.602   6.323   6.893
 3142SOL     OW10324   4.861   6.074   6.777
 3142SOL    HW110325   4.930   6.012   6.815
 3142SOL    HW210326   4.807   6.025   6.709
 3143SOL     OW10327   0.307   1.895   6.873
 3143SOL    HW110328   0.393   1.942   6.894
 3143SOL    HW210329   0.299   1.813   6.931
 3144SOL     OW10330   1.843   3.872   0.502
 3144SOL    HW110331   1.902   3.791   0.502
 3144SOL    HW210332   1.770   3.860   0.568
 3145SOL     OW10333   2.746   5.841   2.938
 3145SOL    HW110334   2.722   5.822   2.843
 3145SOL    HW210335   2.721   5.762   2.995
 3146SOL     OW10336   1.698   0.092   3.221
 3146SOL    HW110337   1.672   0.181   3.259
 3146SOL    HW210338   1.651   0.020   3.272
 3147SOL     OW10339   4.404   4.754   1.009
 3147SOL    HW110340   4.420   4.812   1.089
 3147SOL    HW210341   4.483   4.759   0.948
 3148SOL     OW10342   4.044   5.514   3.940
 3148SOL    HW110343   4.009   5.506   4.034
 3148SOL    HW210344   4.136   5.553   3.943
 3149SOL     OW10345   3.007   0.252   5.652
 3149SOL    HW110346   2.972   0.159   5.644
 3149SOL    HW210347   2.946   0.314   5.602
 3150SOL     OW10348   5.102   0.135   5.222
 3150SOL    HW110349   5.116   0.050   5.172
 3150SOL    HW210350   5.173   0.145   5.292
 3151SOL     OW10351   4.762   1.168   6.375
 3151SOL    HW110352   4.774   1.266   6.359
 3151SOL    HW210353   4.836   1.135   6.434
 3152SOL     OW10354   0.574   5.126   1.594
 3152SOL    HW110355   0.553   5.060   1.521
 3152SOL    HW210356   0.642   5.192   1.561
 3153SOL     OW10357   6.188   3.780   1.795
 3153SOL    HW110358   6.169   3.685   1.768
 3153SOL    HW210359   6.281   3.804   1.769
 3154SOL     OW10360   6.341   2.420   6.388
 3154SOL    HW110361   6.362   2.505   6.339
 3154SOL    HW210362   6.425   2.365   6.397
 3155SOL     OW10363   6.416   5.328   1.063
 3155SOL    HW110364   6.426   5.274   0.980
 3155SOL    HW210365   6.506   5.364   1.090
 3156SOL     OW10366   3.920   4.016   3.297
 3156SOL    HW110367   3.963   3.946   3.353
 3156SOL    HW210368   3.961   4.105   3.318
 3157SOL     OW10369   2.002   3.611   4.751
 3157SOL    HW110370   1.981   3.629   4.846
 3157SOL    HW210371   1.928   3.559   4.708
 3158SOL     OW10372   4.840   6.568   1.555
 3158SOL    HW110373   4.765   6.512   1.518
 3158SOL    HW210374   4.847   6.552   1.653
 3159SOL     OW10375   5.111   5.613   6.240
 3159SOL    HW110376   5.021   5.658   6.240
 3159SOL    HW210377   5.103   5.522   6.199
 3160SOL     OW10378   5.078   3.808   6.097
 3160SOL    HW110379   5.167   3.854   6.098
 3160SOL    HW210380   5.091   3.711   6.115
 3161SOL     OW10381   1.641   1.067   2.808
 3161SOL    HW110382   1.710   1.111   2.864
 3161SOL    HW210383   1.617   1.126   2.731
 3162SOL     OW10384   0.278   5.526   6.752
 3162SOL    HW110385   0.329   5.481   6.679
 3162SOL    HW210386   0.181   5.505   6.742
 3163SOL     OW10387   3.829   3.061   6.931
 3163SOL    HW110388   3.888   3.062   6.850
 3163SOL    HW210389   3.739   3.025   6.907
 3164SOL     OW10390   5.237   4.209   0.789
 3164SOL    HW110391   5.172   4.133   0.797
 3164SOL    HW210392   5.330   4.173   0.795
 3165SOL     OW10393   0.824   0.048   2.013
 3165SOL    HW110394   0.782   0.125   2.060
 3165SOL    HW210395   0.906   0.019   2.062
 3166SOL     OW10396   4.567   2.935   5.998
 3166SOL    HW110397   4.662   2.903   6.000
 3166SOL    HW210398   4.563   3.029   6.034
 3167SOL     OW10399   0.460   4.642   1.784
 3167SOL    HW110400   0.417   4.584   1.853
 3167SOL    HW210401   0.401   4.721   1.765
 3168SOL     OW10402   5.375   2.804   0.548
 3168SOL    HW110403   5.401   2.763   0.636
 3168SOL    HW210404   5.436   2.880   0.527
 3169SOL     OW10405   0.810   2.356   5.665
 3169SOL    HW110406   0.824   2.350   5.566
 3169SOL    HW210407   0.752   2.435   5.685
 3170SOL     OW10408   3.987   0.622   6.065
 3170SOL    HW110409   3.956   0.585   6.152
 3170SOL    HW210410   4.072   0.674   6.079
 3171SOL     OW10411   6.377   7.020   1.650
 3171SOL    HW110412   6.443   6.945   1.647
 3171SOL    HW210413   6.414   0.078   1.603
 3172SOL     OW10414   6.214   6.830   4.930
 3172SOL    HW110415   6.186   6.918   4.967
 3172SOL    HW210416   6.278   6.786   4.994
 3173SOL     OW10417   2.425   0.179   1.971
 3173SOL    HW110418   2.501   0.241   1.993
 3173SOL    HW210419   2.391   0.138   2.056
 3174SOL     OW10420   3.023   2.413   5.821
 3174SOL    HW110421   3.106   2.360   5.838
 3174SOL    HW210422   3.048   2.508   5.800
 3175SOL     OW10423   0.839   6.337   0.524
 3175SOL    HW110424   0.887   6.413   0.480
 3175SOL    HW210425   0.828   6.355   0.621
 3176SOL     OW10426   1.671   4.022   6.639
 3176SOL    HW110427   1.649   3.999   6.734
 3176SOL    HW210428   1.626   3.957   6.578
 3177SOL     OW10429   5.723   5.242   5.717
 3177SOL    HW110430   5.647   5.283   5.667
 3177SOL    HW210431   5.752   5.305   5.789
 3178SOL     OW10432   0.467   4.641   2.227
 3178SOL    HW110433   0.522   4.715   2.266
 3178SOL    HW210434   0.481   4.558   2.281
 3179SOL     OW10435   1.834   2.043   1.992
 3179SOL    HW110436   1.763   2.096   1.946
 3179SOL    HW210437   1.814   1.946   1.986
 3180SOL     OW10438   5.772   7.018   5.500
 3180SOL    HW110439   5.743   6.930   5.462
 3180SOL    HW210440   5.709   0.068   5.470
 3181SOL     OW10441   1.040   1.276   3.715
 3181SOL    HW110442   0.982   1.235   3.786
 3181SOL    HW210443   1.123   1.313   3.757
 3182SOL     OW10444   0.952   6.115   5.723
 3182SOL    HW110445   0.864   6.125   5.677
 3182SOL    HW210446   0.992   6.026   5.699
 3183SOL     OW10447   4.687   4.848   1.738
 3183SOL    HW110448   4.634   4.891   1.665
 3183SOL    HW210449   4.634   4.774   1.779
 3184SOL     OW10450   2.555   1.955   2.719
 3184SOL    HW110451   2.610   1.964   2.802
 3184SOL    HW210452   2.564   1.862   2.683
 3185SOL     OW10453   0.280   6.916   5.333
 3185SOL    HW110454   0.249   6.997   5.382
 3185SOL    HW210455   0.310   6.942   5.241
 3186SOL     OW10456   3.487   1.094   3.081
 3186SOL    HW110457   3.531   1.167   3.028
 3186SOL    HW210458   3.556   1.028   3.111
 3187SOL     OW10459   3.463   4.776   0.099
 3187SOL    HW110460   3.509   4.716   0.033
 3187SOL    HW210461   3.413   4.847   0.050
 3188SOL     OW10462   3.648   5.720   2.993
 3188SOL    HW110463   3.713   5.714   3.069
 3188SOL    HW210464   3.688   5.772   2.918
 3189SOL     OW10465   1.345   0.469   3.548
 3189SOL    HW110466   1.272   0.402   3.554
 3189SOL    HW210467   1.314   0.548   3.496
 3190SOL     OW10468   1.726   6.012   2.010
 3190SOL    HW110469   1.641   6.047   1.971
 3190SOL    HW210470   1.791   6.088   2.024
 3191SOL     OW10471   4.279   0.424   0.582
 3191SOL    HW110472   4.334   0.491   0.532
 3191SOL    HW210473   4.184   0.454   0.583
 3192SOL     OW10474   0.499   2.814   2.083
 3192SOL    HW110475   0.504   2.914   2.076
 3192SOL    HW210476   0.591   2.778   2.103
 3193SOL     OW10477   4.399   1.983   5.935
 3193SOL    HW110478   4.466   2.041   5.889
 3193SOL    HW210479   4.441   1.940   6.015
 3194SOL     OW10480   1.286   3.070   5.873
 3194SOL    HW110481   1.243   3.146   5.921
 3194SOL    HW210482   1.374   3.101   5.836
 3195SOL     OW10483   1.013   2.936   3.709
 3195SOL    HW110484   0.992   2.840   3.689
 3195SOL    HW210485   0.959   2.966   3.788
 3196SOL     OW10486   0.086   0.251   4.659
 3196SOL    HW110487   0.123   0.224   4.748
 3196SOL    HW210488   0.158   0.296   4.606
 3197SOL     OW10489   1.153   4.841   3.755
 3197SOL    HW110490   1.174   4.748   3.787
 3197SOL    HW210491   1.182   4.851   3.660
 3198SOL     OW10492   0.358   2.154   6.421
 3198SOL    HW110493   0.414   2.233   6.396
 3198SOL    HW210494   0.360   2.087   6.346
 3199SOL     OW10495   4.549   1.769   2.208
 3199SOL    HW110496   4.535   1.677   2.245
 3199SOL    HW210497   4.488   1.833   2.254
 3200SOL     OW10498   6.441   2.315   0.510
 3200SOL    HW110499   6.368   2.262   0.553
 3200SOL    HW210500   6.460   2.278   0.419
 3201SOL     OW10501   5.121   3.851   3.646
 3201SOL    HW110502   5.106   3.824   3.551
 3201SOL    HW210503   5.142   3.949   3.651
 3202SOL     OW10504   1.718   4.372   2.146
 3202SOL    HW110505   1.642   4.434   2.127
 3202SOL    HW210506   1.734   4.367   2.244
 3203SOL     OW10507   0.139   0.791   0.983
 3203SOL    HW110508   0.051   0.763   0.945
 3203SOL    HW210509   0.211   0.728   0.952
 3204SOL     OW10510   6.899   5.566   1.889
 3204SOL    HW110511   6.987   5.550   1.934
 3204SOL    HW210512   6.825   5.534   1.949
 3205SOL     OW10513   0.209   3.774   5.089
 3205SOL    HW110514   0.131   3.747   5.033
 3205SOL    HW210515   0.290   3.722   5.061
 3206SOL     OW10516   1.232   6.859   5.871
 3206SOL    HW110517   1.313   6.885   5.819
 3206SOL    HW210518   1.260   6.820   5.959
 3207SOL     OW10519   0.737   0.995   4.918
 3207SOL    HW110520   0.812   0.956   4.972
 3207SOL    HW210521   0.771   1.070   4.861
 3208SOL     OW10522   4.836   5.540   5.053
 3208SOL    HW110523   4.854   5.616   4.991
 3208SOL    HW210524   4.800   5.575   5.140
 3209SOL     OW10525   2.366   0.512   4.065
 3209SOL    HW110526   2.307   0.593   4.061
 3209SOL    HW210527   2.317   0.436   4.106
 3210SOL     OW10528   6.519   4.267   2.664
 3210SOL    HW110529   6.428   4.237   2.692
 3210SOL    HW210530   6.518   4.366   2.650
 3211SOL     OW10531   1.878   4.742   1.536
 3211SOL    HW110532   1.932   4.720   1.618
 3211SOL    HW210533   1.786   4.702   1.546
 3212SOL     OW10534   5.315   2.469   6.847
 3212SOL    HW110535   5.293   2.553   6.897
 3212SOL    HW210536   5.348   2.400   6.912
 3213SOL     OW10537   5.781   5.836   2.469
 3213SOL    HW110538   5.743   5.743   2.462
 3213SOL    HW210539   5.805   5.869   2.378
 3214SOL     OW10540   4.036   5.702   6.603
 3214SOL    HW110541   4.007   5.607   6.595
 3214SOL    HW210542   3.979   5.749   6.670
 3215SOL     OW10543   5.986   2.366   6.400
 3215SOL    HW110544   6.032   2.433   6.458
 3215SOL    HW210545   6.010   2.383   6.304
 3216SOL     OW10546   5.480   6.848   2.746
 3216SOL    HW110547   5.473   6.941   2.711
 3216SOL    HW210548   5.554   6.842   2.813
 3217SOL     OW10549   0.102   4.504   2.326
 3217SOL    HW110550   0.141   4.438   2.261
 3217SOL    HW210551   0.006   4.521   2.304
 3218SOL     OW10552   3.919   0.662   3.693
 3218SOL    HW110553   3.830   0.695   3.662
 3218SOL    HW210554   3.925   0.563   3.679
 3219SOL     OW10555   0.389   0.605   3.306
 3219SOL    HW110556   0.316   0.597   3.238
 3219SOL    HW210557   0.464   0.660   3.269
 3220SOL     OW10558   7.016   4.355   5.358
 3220SOL    HW110559   6.932   4.407   5.374
 3220SOL    HW210560   0.053   4.362   5.438
 3221SOL     OW10561   2.793   0.065   3.465
 3221SOL    HW110562   2.893   0.063   3.468
 3221SOL    HW210563   2.757   7.021   3.531
 3222SOL     OW10564   6.014   2.329   3.028
 3222SOL    HW110565   5.990   2.414   2.983
 3222SOL    HW210566   6.001   2.338   3.126
 3223SOL     OW10567   2.120   5.193   6.196
 3223SOL    HW110568   2.199   5.196   6.136
 3223SOL    HW210569   2.061   5.116   6.171
 3224SOL     OW10570   4.610   4.804   0.608
 3224SOL    HW110571   4.510   4.800   0.613
 3224SOL    HW210572   4.637   4.854   0.525
 3225SOL     OW10573   2.667   3.240   1.000
 3225SOL    HW110574   2.760   3.256   1.034
 3225SOL    HW210575   2.609   3.318   1.025
 3226SOL     OW10576   1.238   0.579   4.006
 3226SOL    HW110577   1.250   0.480   3.998
 3226SOL    HW210578   1.306   0.616   4.070
 3227SOL     OW10579   3.358   0.802   5.404
 3227SOL    HW110580   3.266   0.787   5.367
 3227SOL    HW210581   3.418   0.834   5.331
 3228SOL     OW10582   5.409   3.945   4.547
 3228SOL    HW110583   5.377   3.858   4.585
 3228SOL    HW210584   5.338   4.014   4.558
 3229SOL     OW10585   4.288   1.397   5.513
 3229SOL    HW110586   4.263   1.351   5.428
 3229SOL    HW210587   4.214   1.458   5.541
 3230SOL     OW10588   1.016   0.541   3.822
 3230SOL    HW110589   1.099   0.531   3.877
 3230SOL    HW210590   0.945   0.585   3.876
 3231SOL     OW10591   5.951   6.440   0.606
 3231SOL    HW110592   5.906   6.387   0.677
 3231SOL    HW210593   6.025   6.494   0.646
 3232SOL     OW10594   2.745   4.798   4.585
 3232SOL    HW110595   2.766   4.719   4.643
 3232SOL    HW210596   2.650   4.825   4.600
 3233SOL     OW10597   0.516   4.314   1.468
 3233SOL    HW110598   0.579   4.241   1.439
 3233SOL    HW210599   0.495   4.302   1.565
 3234SOL     OW10600   0.221   1.723   6.460
 3234SOL    HW110601   0.315   1.737   6.489
 3234SOL    HW210602   0.159   1.744   6.536
 3235SOL     OW10603   5.188   6.910   2.783
 3235SOL    HW110604   5.267   6.849   2.795
 3235SOL    HW210605   5.219   6.997   2.744
 3236SOL     OW10606   0.668   3.298   2.484
 3236SOL    HW110607   0.648   3.331   2.391
 3236SOL    HW210608   0.601   3.334   2.548
 3237SOL     OW10609   3.122   0.012   4.556
 3237SOL    HW110610   3.141   0.107   4.578
 3237SOL    HW210611   3.114   0.000   4.457
 3238SOL     OW10612   0.144   6.279   6.180
 3238SOL    HW110613   0.080   6.205   6.205
 3238SOL    HW210614   0.235   6.257   6.215
 3239SOL     OW10615   6.599   0.207   5.024
 3239SOL    HW110616   6.653   0.128   4.996
 3239SOL    HW210617   6.625   0.234   5.117
 3240SOL     OW10618   1.518   0.346   4.923
 3240SOL    HW110619   1.478   0.393   4.843
 3240SOL    HW210620   1.591   0.402   4.961
 3241SOL     OW10621   4.599   0.844   3.753
 3241SOL    HW110622   4.676   0.801   3.707
 3241SOL    HW210623   4.603   0.943   3.743
 3242SOL     OW10624   4.029   6.564   0.173
 3242SOL    HW110625   4.042   6.640   0.236
 3242SOL    HW210626   4.106   6.501   0.181
 3243SOL     OW10627   4.482   5.149   0.846
 3243SOL    HW110628   4.501   5.164   0.750
 3243SOL    HW210629   4.418   5.218   0.879
 3244SOL     OW10630   3.044   6.324   6.566
 3244SOL    HW110631   3.126   6.380   6.579
 3244SOL    HW210632   3.044   6.286   6.474
 3245SOL     OW10633   3.374   2.522   6.484
 3245SOL    HW110634   3.441   2.461   6.525
 3245SOL    HW210635   3.299   2.537   6.548
 3246SOL     OW10636   5.547   6.074   2.800
 3246SOL    HW110637   5.600   6.082   2.716
 3246SOL    HW210638   5.609   6.065   2.878
 3247SOL     OW10639   0.691   2.592   4.169
 3247SOL    HW110640   0.739   2.537   4.100
 3247SOL    HW210641   0.757   2.652   4.215
 3248SOL     OW10642   6.141   3.140   1.683
 3248SOL    HW110643   6.120   3.160   1.587
 3248SOL    HW210644   6.208   3.206   1.716
 3249SOL     OW10645   2.419   4.588   5.173
 3249SOL    HW110646   2.335   4.632   5.204
 3249SOL    HW210647   2.445   4.516   5.237
 3250SOL     OW10648   4.845   6.551   2.618
 3250SOL    HW110649   4.782   6.573   2.693
 3250SOL    HW210650   4.928   6.606   2.628
 3251SOL     OW10651   3.606   2.104   3.255
 3251SOL    HW110652   3.621   2.130   3.160
 3251SOL    HW210653   3.538   2.031   3.260
 3252SOL     OW10654   2.916   1.165   2.543
 3252SOL    HW110655   2.988   1.135   2.606
 3252SOL    HW210656   2.897   1.091   2.478
 3253SOL     OW10657   5.227   2.903   0.831
 3253SOL    HW110658   5.237   2.967   0.755
 3253SOL    HW210659   5.299   2.833   0.825
 3254SOL     OW10660   4.760   4.087   3.057
 3254SOL    HW110661   4.795   4.160   3.116
 3254SOL    HW210662   4.717   4.128   2.976
 3255SOL     OW10663   4.830   5.518   0.276
 3255SOL    HW110664   4.749   5.480   0.230
 3255SOL    HW210665   4.874   5.584   0.216
 3256SOL     OW10666   5.242   6.565   5.434
 3256SOL    HW110667   5.236   6.570   5.533
 3256SOL    HW210668   5.270   6.654   5.398
 3257SOL     OW10669   1.801   2.538   1.129
 3257SOL    HW110670   1.735   2.497   1.192
 3257SOL    HW210671   1.815   2.634   1.154
 3258SOL     OW10672   5.490   6.500   2.060
 3258SOL    HW110673   5.401   6.493   2.106
 3258SOL    HW210674   5.484   6.460   1.969
 3259SOL     OW10675   4.321   6.972   3.959
 3259SOL    HW110676   4.375   6.909   4.015
 3259SOL    HW210677   4.373   6.997   3.878
 3260SOL     OW10678   1.998   2.238   7.017
 3260SOL    HW110679   1.995   2.159   0.057
 3260SOL    HW210680   2.092   2.251   6.984
 3261SOL     OW10681   4.450   0.052   1.278
 3261SOL    HW110682   4.408   0.051   1.369
 3261SOL    HW210683   4.384   0.089   1.212
 3262SOL     OW10684   3.827   1.891   3.317
 3262SOL    HW110685   3.773   1.974   3.307
 3262SOL    HW210686   3.920   1.907   3.284
 3263SOL     OW10687   3.842   6.669   1.486
 3263SOL    HW110688   3.933   6.706   1.468
 3263SOL    HW210689   3.841   6.626   1.576
 3264SOL     OW10690   5.936   4.939   6.918
 3264SOL    HW110691   5.997   5.011   6.951
 3264SOL    HW210692   5.878   4.908   6.994
 3265SOL     OW10693   5.032   0.570   6.020
 3265SOL    HW110694   5.057   0.647   6.078
 3265SOL    HW210695   4.979   0.603   5.941
 3266SOL     OW10696   1.187   1.199   6.232
 3266SOL    HW110697   1.268   1.179   6.286
 3266SOL    HW210698   1.149   1.288   6.259
 3267SOL     OW10699   3.206   2.085   0.550
 3267SOL    HW110700   3.243   2.178   0.556
 3267SOL    HW210701   3.224   2.036   0.636
 3268SOL     OW10702   1.182   4.468   6.230
 3268SOL    HW110703   1.239   4.550   6.239
 3268SOL    HW210704   1.167   4.428   6.321
 3269SOL     OW10705   4.260   4.114   1.408
 3269SOL    HW110706   4.265   4.030   1.463
 3269SOL    HW210707   4.347   4.161   1.411
 3270SOL     OW10708   0.521   6.212   4.467
 3270SOL    HW110709   0.570   6.176   4.389
 3270SOL    HW210710   0.481   6.137   4.520
 3271SOL     OW10711   5.896   1.789   1.270
 3271SOL    HW110712   5.959   1.867   1.270
 3271SOL    HW210713   5.802   1.822   1.275
 3272SOL     OW10714   4.569   0.191   0.688
 3272SOL    HW110715   4.604   0.269   0.635
 3272SOL    HW210716   4.475   0.209   0.716
 3273SOL     OW10717   0.264   6.389   2.236
 3273SOL    HW110718   0.358   6.419   2.250
 3273SOL    HW210719   0.228   6.431   2.152
 3274SOL     OW10720   3.211   1.875   5.694
 3274SOL    HW110721   3.276   1.915   5.758
 3274SOL    HW210722   3.120   1.875   5.736
 3275SOL     OW10723   2.714   0.297   6.612
 3275SOL    HW110724   2.730   0.394   6.594
 3275SOL    HW210725   2.623   0.285   6.653
 3276SOL     OW10726   3.490   6.622   0.380
 3276SOL    HW110727   3.579   6.579   0.365
 3276SOL    HW210728   3.480   6.645   0.477
 3277SOL     OW10729   0.406   6.198   5.131
 3277SOL    HW110730   0.494   6.237   5.104
 3277SOL    HW210731   0.379   6.234   5.220
 3278SOL     OW10732   1.065   0.822   6.048
 3278SOL    HW110733   1.070   0.881   6.128
 3278SOL    HW210734   1.036   0.731   6.075
 3279SOL     OW10735   1.133   6.890   0.894
 3279SOL    HW110736   1.195   6.841   0.956
 3279SOL    HW210737   1.062   6.936   0.948
 3280SOL     OW10738   2.482   4.766   5.924
 3280SOL    HW110739   2.438   4.846   5.964
 3280SOL    HW210740   2.429   4.684   5.947
 3281SOL     OW10741   2.159   5.568   1.073
 3281SOL    HW110742   2.079   5.533   1.024
 3281SOL    HW210743   2.195   5.648   1.024
 3282SOL     OW10744   2.590   5.367   3.427
 3282SOL    HW110745   2.686   5.387   3.446
 3282SOL    HW210746   2.554   5.307   3.499
 3283SOL     OW10747   2.323   1.057   3.762
 3283SOL    HW110748   2.350   1.153   3.759
 3283SOL    HW210749   2.287   1.030   3.673
 3284SOL     OW10750   0.192   4.691   6.985
 3284SOL    HW110751   0.182   4.735   0.053
 3284SOL    HW210752   0.139   4.741   6.917
 3285SOL     OW10753   0.999   1.558   4.193
 3285SOL    HW110754   0.990   1.644   4.244
 3285SOL    HW210755   1.014   1.483   4.257
 3286SOL     OW10756   3.534   3.498   4.660
 3286SOL    HW110757   3.627   3.525   4.685
 3286SOL    HW210758   3.469   3.537   4.725
 3287SOL     OW10759   1.515   5.326   0.916
 3287SOL    HW110760   1.481   5.308   0.823
 3287SOL    HW210761   1.508   5.424   0.936
 3288SOL     OW10762   0.150   5.916   6.336
 3288SOL    HW110763   0.222   5.950   6.396
 3288SOL    HW210764   0.088   5.991   6.312
 3289SOL     OW10765   1.306   6.215   4.718
 3289SOL    HW110766   1.323   6.245   4.812
 3289SOL    HW210767   1.324   6.117   4.711
 3290SOL     OW10768   6.667   5.332   1.659
 3290SOL    HW110769   6.745   5.294   1.609
 3290SOL    HW210770   6.663   5.291   1.750
 3291SOL     OW10771   2.093   6.688   0.607
 3291SOL    HW110772   2.174   6.702   0.665
 3291SOL    HW210773   2.029   6.764   0.621
 3292SOL     OW10774   0.569   6.366   5.583
 3292SOL    HW110775   0.636   6.439   5.597
 3292SOL    HW210776   0.484   6.390   5.628
 3293SOL     OW10777   0.222   1.012   2.355
 3293SOL    HW110778   0.146   1.076   2.347
 3293SOL    HW210779   0.308   1.062   2.358
 3294SOL     OW10780   0.278   0.772   0.213
 3294SOL    HW110781   0.369   0.805   0.237
 3294SOL    HW210782   0.214   0.849   0.209
 3295SOL     OW10783   1.692   2.523   6.890
 3295SOL    HW110784   1.788   2.551   6.889
 3295SOL    HW210785   1.636   2.593   6.845
 3296SOL     OW10786   2.056   0.085   2.612
 3296SOL    HW110787   2.142   0.131   2.631
 3296SOL    HW210788   2.043   0.010   2.678
 3297SOL     OW10789   3.520   2.501   6.221
 3297SOL    HW110790   3.448   2.501   6.291
 3297SOL    HW210791   3.493   2.559   6.145
 3298SOL     OW10792   6.143   3.225   3.101
 3298SOL    HW110793   6.143   3.278   3.016
 3298SOL    HW210794   6.237   3.205   3.129
 3299SOL     OW10795   2.037   6.921   5.167
 3299SOL    HW110796   1.959   6.870   5.204
 3299SOL    HW210797   2.008   7.014   5.145
 3300SOL     OW10798   6.400   6.626   4.423
 3300SOL    HW110799   6.370   6.534   4.398
 3300SOL    HW210800   6.435   6.624   4.517
 3301SOL     OW10801   0.864   3.650   3.046
 3301SOL    HW110802   0.937   3.671   2.982
 3301SOL    HW210803   0.904   3.629   3.136
 3302SOL     OW10804   1.183   4.471   3.574
 3302SOL    HW110805   1.216   4.378   3.588
 3302SOL    HW210806   1.086   4.475   3.597
 3303SOL     OW10807   3.835   3.742   3.243
 3303SOL    HW110808   3.854   3.833   3.205
 3303SOL    HW210809   3.756   3.703   3.195
 3304SOL     OW10810   0.190   6.399   4.650
 3304SOL    HW110811   0.191   6.324   4.584
 3304SOL    HW210812   0.128   6.470   4.617
 3305SOL     OW10813   2.052   1.433   2.285
 3305SOL    HW110814   2.079   1.516   2.334
 3305SOL    HW210815   2.134   1.391   2.245
 3306SOL     OW10816   1.503   4.365   3.271
 3306SOL    HW110817   1.404   4.380   3.275
 3306SOL    HW210818   1.527   4.325   3.182
 3307SOL     OW10819   0.032   5.733   6.527
 3307SOL    HW110820   0.045   5.785   6.612
 3307SOL    HW210821   0.066   5.787   6.450
 3308SOL     OW10822   4.796   6.111   0.698
 3308SOL    HW110823   4.780   6.013   0.708
 3308SOL    HW210824   4.756   6.143   0.611
 3309SOL     OW10825   0.024   4.665   3.097
 3309SOL    HW110826   0.101   4.723   3.124
 3309SOL    HW210827   6.973   4.722   3.058
 3310SOL     OW10828   1.001   5.449   2.046
 3310SOL    HW110829   0.971   5.545   2.048
 3310SOL    HW210830   1.084   5.442   1.990
 3311SOL     OW10831   4.499   6.551   0.803
 3311SOL    HW110832   4.570   6.583   0.866
 3311SOL    HW210833   4.499   6.609   0.722
 3312SOL     OW10834   3.505   3.842   6.860
 3312SOL    HW110835   3.525   3.745   6.846
 3312SOL    HW210836   3.465   3.854   6.951
 3313SOL     OW10837   6.633   5.402   3.758
 3313SOL    HW110838   6.616   5.387   3.660
 3313SOL    HW210839   6.664   5.317   3.799
 3314SOL     OW10840   1.418   3.510   5.282
 3314SOL    HW110841   1.443   3.564   5.202
 3314SOL    HW210842   1.499   3.492   5.337
 3315SOL     OW10843   0.216   1.915   3.549
 3315SOL    HW110844   0.296   1.860   3.574
 3315SOL    HW210845   0.154   1.860   3.494
 3316SOL     OW10846   4.773   1.828   6.937
 3316SOL    HW110847   4.731   1.759   6.879
 3316SOL    HW210848   4.765   1.918   6.894
 3317SOL     OW10849   4.427   2.808   1.071
 3317SOL    HW110850   4.419   2.711   1.048
 3317SOL    HW210851   4.339   2.853   1.057
 3318SOL     OW10852   2.338   5.316   5.748
 3318SOL    HW110853   2.314   5.222   5.725
 3318SOL    HW210854   2.437   5.326   5.747
 3319SOL     OW10855   0.376   5.507   5.008
 3319SOL    HW110856   0.282   5.509   4.973
 3319SOL    HW210857   0.408   5.600   5.024
 3320SOL     OW10858   6.740   0.935   6.123
 3320SOL    HW110859   6.773   0.893   6.039
 3320SOL    HW210860   6.720   1.032   6.106
 3321SOL     OW10861   3.599   3.678   3.082
 3321SOL    HW110862   3.576   3.691   2.986
 3321SOL    HW210863   3.519   3.700   3.139
 3322SOL     OW10864   4.028   1.778   0.399
 3322SOL    HW110865   4.030   1.867   0.353
 3322SOL    HW210866   3.934   1.757   0.427
 3323SOL     OW10867   2.281   5.100   0.376
 3323SOL    HW110868   2.191   5.065   0.400
 3323SOL    HW210869   2.352   5.043   0.418
 3324SOL     OW10870   0.980   2.287   0.768
 3324SOL    HW110871   0.985   2.205   0.711
 3324SOL    HW210872   1.063   2.342   0.754
 3325SOL     OW10873   1.383   2.971   0.898
 3325SOL    HW110874   1.436   3.048   0.933
 3325SOL    HW210875   1.338   2.924   0.974
 3326SOL     OW10876   5.919   1.612   1.029
 3326SOL    HW110877   5.903   1.667   1.110
 3326SOL    HW210878   5.900   1.516   1.049
 3327SOL     OW10879   3.196   6.519   2.480
 3327SOL    HW110880   3.255   6.577   2.424
 3327SOL    HW210881   3.252   6.449   2.525
 3328SOL     OW10882   4.658   0.845   2.431
 3328SOL    HW110883   4.618   0.913   2.369
 3328SOL    HW210884   4.662   0.756   2.385
 3329SOL     OW10885   4.910   0.180   5.575
 3329SOL    HW110886   4.848   0.194   5.652
 3329SOL    HW210887   4.996   0.141   5.607
 3330SOL     OW10888   6.577   5.775   2.806
 3330SOL    HW110889   6.550   5.809   2.896
 3330SOL    HW210890   6.617   5.684   2.815
 3331SOL     OW10891   2.097   3.497   2.783
 3331SOL    HW110892   2.105   3.522   2.686
 3331SOL    HW210893   2.143   3.410   2.798
 3332SOL     OW10894   4.223   5.342   1.127
 3332SOL    HW110895   4.136   5.322   1.174
 3332SOL    HW210896   4.298   5.338   1.193
 3333SOL     OW10897   3.819   3.357   1.725
 3333SOL    HW110898   3.873   3.321   1.649
 3333SOL    HW210899   3.879   3.403   1.790
 3334SOL     OW10900   1.744   2.375   2.630
 3334SOL    HW110901   1.829   2.392   2.679
 3334SOL    HW210902   1.744   2.282   2.594
 3335SOL     OW10903   4.128   4.675   5.250
 3335SOL    HW110904   4.094   4.725   5.170
 3335SOL    HW210905   4.163   4.586   5.221
 3336SOL     OW10906   4.943   6.078   4.075
 3336SOL    HW110907   4.856   6.086   4.026
 3336SOL    HW210908   5.003   6.015   4.026
 3337SOL     OW10909   3.555   3.574   3.400
 3337SOL    HW110910   3.484   3.516   3.439
 3337SOL    HW210911   3.564   3.555   3.302
 3338SOL     OW10912   2.483   1.733   1.525
 3338SOL    HW110913   2.577   1.714   1.495
 3338SOL    HW210914   2.486   1.788   1.609
 3339SOL     OW10915   1.937   0.057   5.807
 3339SOL    HW110916   1.983   0.132   5.760
 3339SOL    HW210917   1.983   6.992   5.788
 3340SOL     OW10918   4.019   0.784   4.173
 3340SOL    HW110919   3.961   0.850   4.221
 3340SOL    HW210920   4.080   0.833   4.111
 3341SOL     OW10921   1.694   4.487   3.029
 3341SOL    HW110922   1.704   4.516   3.124
 3341SOL    HW210923   1.623   4.416   3.024
 3342SOL     OW10924   0.194   0.456   2.700
 3342SOL    HW110925   0.229   0.381   2.644
 3342SOL    HW210926   0.180   0.425   2.794
 3343SOL     OW10927   4.868   5.156   6.272
 3343SOL    HW110928   4.864   5.074   6.329
 3343SOL    HW210929   4.877   5.130   6.176
 3344SOL     OW10930   0.660   3.099   3.186
 3344SOL    HW110931   0.675   3.094   3.088
 3344SOL    HW210932   0.727   3.162   3.227
 3345SOL     OW10933   6.787   4.661   0.272
 3345SOL    HW110934   6.828   4.670   0.181
 3345SOL    HW210935   6.804   4.745   0.324
 3346SOL     OW10936   2.010   1.018   0.145
 3346SOL    HW110937   1.916   0.985   0.134
 3346SOL    HW210938   2.013   1.084   0.220
 3347SOL     OW10939   7.005   3.560   6.620
 3347SOL    HW110940   0.006   3.507   6.538
 3347SOL    HW210941   6.914   3.600   6.610
 3348SOL     OW10942   3.929   3.722   6.131
 3348SOL    HW110943   3.917   3.623   6.127
 3348SOL    HW210944   3.840   3.766   6.143
 3349SOL     OW10945   2.147   5.016   3.932
 3349SOL    HW110946   2.065   5.057   3.893
 3349SOL    HW210947   2.161   5.049   4.025
 3350SOL     OW10948   0.393   4.180   5.383
 3350SOL    HW110949   0.462   4.110   5.403
 3350SOL    HW210950   0.350   4.209   5.469
 3351SOL     OW10951   5.270   1.050   1.326
 3351SOL    HW110952   5.364   1.083   1.334
 3351SOL    HW210953   5.271   0.950   1.324
 3352SOL     OW10954   5.816   2.155   6.499
 3352SOL    HW110955   5.879   2.091   6.543
 3352SOL    HW210956   5.865   2.209   6.431
 3353SOL     OW10957   2.895   0.240   1.393
 3353SOL    HW110958   2.940   0.325   1.422
 3353SOL    HW210959   2.928   0.215   1.302
 3354SOL     OW10960   3.589   3.636   6.591
 3354SOL    HW110961   3.644   3.661   6.670
 3354SOL    HW210962   3.507   3.587   6.622
 3355SOL     OW10963   1.961   0.609   5.319
 3355SOL    HW110964   1.945   0.661   5.403
 3355SOL    HW210965   2.056   0.620   5.291
 3356SOL     OW10966   1.818   6.682   5.269
 3356SOL    HW110967   1.838   6.728   5.356
 3356SOL    HW210968   1.859   6.591   5.270
 3357SOL     OW10969   3.039   3.599   1.556
 3357SOL    HW110970   3.007   3.529   1.492
 3357SOL    HW210971   2.976   3.677   1.555
 3358SOL     OW10972   6.987   1.199   1.668
 3358SOL    HW110973   6.989   1.297   1.684
 3358SOL    HW210974   0.058   1.167   1.646
 3359SOL     OW10975   6.633   6.158   3.936
 3359SOL    HW110976   6.647   6.082   3.872
 3359SOL    HW210977   6.550   6.142   3.988
 3360SOL     OW10978   0.308   3.375   5.094
 3360SOL    HW110979   0.347   3.464   5.074
 3360SOL    HW210980   0.379   3.314   5.129
 3361SOL     OW10981   0.200   0.900   4.459
 3361SOL    HW110982   0.207   0.997   4.439
 3361SOL    HW210983   0.195   0.848   4.373
 3362SOL     OW10984   3.637   1.654   3.876
 3362SOL    HW110985   3.597   1.611   3.796
 3362SOL    HW210986   3.689   1.585   3.928
 3363SOL     OW10987   6.005   3.775   0.316
 3363SOL    HW110988   5.952   3.832   0.379
 3363SOL    HW210989   6.094   3.818   0.300
 3364SOL     OW10990   2.219   4.012   3.914
 3364SOL    HW110991   2.226   3.991   4.011
 3364SOL    HW210992   2.198   4.109   3.903
 3365SOL     OW10993   2.186   4.193   4.189
 3365SOL    HW110994   2.104   4.245   4.215
 3365SOL    HW210995   2.169   4.096   4.203
 3366SOL     OW10996   5.907   3.744   4.148
 3366SOL    HW110997   5.860   3.817   4.197
 3366SOL    HW210998   5.928   3.669   4.211
 3367SOL     OW10999   3.680   3.429   3.959
 3367SOL    HW111000   3.584   3.446   3.981
 3367SOL    HW211001   3.689   3.336   3.921
 3368SOL     OW11002   1.072   5.912   1.376
 3368SOL    HW111003   1.036   6.001   1.401
 3368SOL    HW211004   1.172   5.912   1.388
 3369SOL     OW11005   4.491   3.140   1.045
 3369SOL    HW111006   4.547   3.062   1.021
 3369SOL    HW211007   4.485   3.148   1.144
 3370SOL     OW11008   0.430   6.002   2.917
 3370SOL    HW111009   0.508   6.015   2.979
 3370SOL    HW211010   0.348   6.042   2.958
 3371SOL     OW11011   1.476   2.941   3.552
 3371SOL    HW111012   1.427   2.856   3.532
 3371SOL    HW211013   1.457   3.008   3.481
 3372SOL     OW11014   6.557   3.939   1.910
 3372SOL    HW111015   6.590   4.031   1.929
 3372SOL    HW211016   6.564   3.883   1.993
 3373SOL     OW11017   6.888   2.598   1.776
 3373SOL    HW111018   6.879   2.608   1.677
 3373SOL    HW211019   6.926   2.681   1.815
 3374SOL     OW11020   0.341   0.552   4.256
 3374SOL    HW111021   0.385   0.526   4.170
 3374SOL    HW211022   0.274   0.624   4.239
 3375SOL     OW11023   6.580   5.320   5.908
 3375SOL    HW111024   6.490   5.297   5.873
 3375SOL    HW211025   6.604   5.256   5.981
 3376SOL     OW11026   2.763   3.856   5.195
 3376SOL    HW111027   2.785   3.953   5.182
 3376SOL    HW211028   2.667   3.846   5.220
 3377SOL     OW11029   6.378   4.527   3.307
 3377SOL    HW111030   6.465   4.553   3.265
 3377SOL    HW211031   6.395   4.465   3.383
 3378SOL     OW11032   1.238   6.323   0.902
 3378SOL    HW111033   1.320   6.334   0.958
 3378SOL    HW211034   1.229   6.401   0.841
 3379SOL     OW11035   6.554   4.556   3.596
 3379SOL    HW111036   6.608   4.501   3.532
 3379SOL    HW211037   6.527   4.500   3.674
 3380SOL     OW11038   3.430   4.559   6.377
 3380SOL    HW111039   3.431   4.472   6.426
 3380SOL    HW211040   3.505   4.617   6.409
 3381SOL     OW11041   1.543   3.591   0.705
 3381SOL    HW111042   1.486   3.614   0.626
 3381SOL    HW211043   1.597   3.509   0.685
 3382SOL     OW11044   6.943   2.838   1.521
 3382SOL    HW111045   6.930   2.784   1.437
 3382SOL    HW211046   0.004   2.806   1.567
 3383SOL     OW11047   5.324   5.400   0.099
 3383SOL    HW111048   5.262   5.479   0.101
 3383SOL    HW211049   5.401   5.420   0.039
 3384SOL     OW11050   2.657   4.402   6.968
 3384SOL    HW111051   2.558   4.395   6.952
 3384SOL    HW211052   2.678   4.489   7.010
 3385SOL     OW11053   0.637   2.115   4.088
 3385SOL    HW111054   0.593   2.196   4.049
 3385SOL    HW211055   0.617   2.110   4.185
 3386SOL     OW11056   0.164   4.603   5.878
 3386SOL    HW111057   0.105   4.638   5.805
 3386SOL    HW211058   0.173   4.672   5.949
 3387SOL     OW11059   6.370   0.499   3.325
 3387SOL    HW111060   6.301   0.530   3.259
 3387SOL    HW211061   6.412   0.578   3.369
 3388SOL     OW11062   6.755   3.207   1.384
 3388SOL    HW111063   6.760   3.128   1.445
 3388SOL    HW211064   6.798   3.185   1.296
 3389SOL     OW11065   6.312   5.952   0.233
 3389SOL    HW111066   6.350   5.916   0.319
 3389SOL    HW211067   6.371   6.024   0.198
 3390SOL     OW11068   4.070   6.709   5.814
 3390SOL    HW111069   4.039   6.772   5.885
 3390SOL    HW211070   4.051   6.615   5.842
 3391SOL     OW11071   5.637   3.226   4.367
 3391SOL    HW111072   5.637   3.304   4.305
 3391SOL    HW211073   5.575   3.244   4.443
 3392SOL     OW11074   4.369   6.221   5.726
 3392SOL    HW111075   4.397   6.232   5.630
 3392SOL    HW211076   4.429   6.276   5.784
 3393SOL     OW11077   4.941   5.721   1.217
 3393SOL    HW111078   4.872   5.665   1.263
 3393SOL    HW211079   4.936   5.706   1.118
 3394SOL     OW11080   2.704   5.222   1.593
 3394SOL    HW111081   2.609   5.243   1.568
 3394SOL    HW211082   2.708   5.132   1.635
 3395SOL     OW11083   2.702   0.332   3.335
 3395SOL    HW111084   2.710   0.416   3.389
 3395SOL    HW211085   2.789   0.282   3.340
 3396SOL     OW11086   4.854   2.014   4.469
 3396SOL    HW111087   4.910   1.955   4.528
 3396SOL    HW211088   4.808   1.958   4.401
 3397SOL     OW11089   2.114   6.037   0.601
 3397SOL    HW111090   2.188   6.007   0.540
 3397SOL    HW211091   2.049   6.092   0.549
 3398SOL     OW11092   6.537   2.251   4.002
 3398SOL    HW111093   6.441   2.272   3.983
 3398SOL    HW211094   6.582   2.225   3.916
 3399SOL     OW11095   6.679   5.961   2.174
 3399SOL    HW111096   6.684   6.055   2.141
 3399SOL    HW211097   6.621   5.907   2.113
 3400SOL     OW11098   5.234   1.596   5.999
 3400SOL    HW111099   5.321   1.555   6.027
 3400SOL    HW211100   5.226   1.687   6.039
 3401SOL     OW11101   0.089   3.414   5.586
 3401SOL    HW111102   0.063   3.392   5.492
 3401SOL    HW211103   0.014   3.390   5.648
 3402SOL     OW11104   6.393   3.370   1.476
 3402SOL    HW111105   6.433   3.284   1.507
 3402SOL    HW211106   6.401   3.438   1.549
 3403SOL     OW11107   4.718   6.536   6.834
 3403SOL    HW111108   4.619   6.530   6.840
 3403SOL    HW211109   4.760   6.477   6.903
 3404SOL     OW11110   5.282   4.112   5.039
 3404SOL    HW111111   5.371   4.107   5.085
 3404SOL    HW211112   5.211   4.082   5.102
 3405SOL     OW11113   5.343   5.972   5.935
 3405SOL    HW111114   5.260   5.935   5.891
 3405SOL    HW211115   5.420   5.963   5.872
 3406SOL     OW11116   2.535   4.783   1.632
 3406SOL    HW111117   2.594   4.832   1.696
 3406SOL    HW211118   2.451   4.835   1.617
 3407SOL     OW11119   1.443   3.531   0.133
 3407SOL    HW111120   1.470   3.434   0.129
 3407SOL    HW211121   1.522   3.586   0.159
 3408SOL     OW11122   4.840   2.169   3.699
 3408SOL    HW111123   4.926   2.218   3.685
 3408SOL    HW211124   4.859   2.080   3.739
 3409SOL     OW11125   4.655   0.441   0.553
 3409SOL    HW111126   4.711   0.475   0.628
 3409SOL    HW211127   4.608   0.518   0.510
 3410SOL     OW11128   5.294   0.271   2.622
 3410SOL    HW111129   5.260   0.246   2.712
 3410SOL    HW211130   5.293   0.370   2.612
 3411SOL     OW11131   6.127   2.343   0.589
 3411SOL    HW111132   6.155   2.387   0.675
 3411SOL    HW211133   6.149   2.402   0.512
 3412SOL     OW11134   5.657   3.400   1.235
 3412SOL    HW111135   5.560   3.393   1.209
 3412SOL    HW211136   5.685   3.496   1.232
 3413SOL     OW11137   0.245   3.012   6.000
 3413SOL    HW111138   0.213   3.066   6.078
 3413SOL    HW211139   0.226   2.915   6.017
 3414SOL     OW11140   3.013   4.103   0.807
 3414SOL    HW111141   3.095   4.059   0.845
 3414SOL    HW211142   2.958   4.141   0.881
 3415SOL     OW11143   2.290   2.414   5.629
 3415SOL    HW111144   2.282   2.476   5.707
 3415SOL    HW211145   2.386   2.388   5.617
 3416SOL     OW11146   6.128   0.472   6.510
 3416SOL    HW111147   6.055   0.513   6.456
 3416SOL    HW211148   6.217   0.506   6.478
 3417SOL     OW11149   6.347   6.915   2.748
 3417SOL    HW111150   6.318   6.824   2.778
 3417SOL    HW211151   6.336   6.980   2.824
 3418SOL     OW11152   4.980   4.704   0.730
 3418SOL    HW111153   4.996   4.606   0.722
 3418SOL    HW211154   4.912   4.721   0.802
 3419SOL     OW11155   2.446   5.845   5.859
 3419SOL    HW111156   2.485   5.754   5.868
 3419SOL    HW211157   2.358   5.839   5.812
 3420SOL     OW11158   4.397   2.454   3.000
 3420SOL    HW111159   4.394   2.360   2.964
 3420SOL    HW211160   4.401   2.518   2.924
 3421SOL     OW11161   6.394   2.414   3.328
 3421SOL    HW111162   6.359   2.335   3.277
 3421SOL    HW211163   6.317   2.470   3.359
 3422SOL     OW11164   2.591   6.716   1.106
 3422SOL    HW111165   2.633   6.700   1.016
 3422SOL    HW211166   2.652   6.773   1.161
 3423SOL     OW11167   1.329   4.687   6.271
 3423SOL    HW111168   1.293   4.740   6.348
 3423SOL    HW211169   1.428   4.699   6.266
 3424SOL     OW11170   4.340   0.516   2.056
 3424SOL    HW111171   4.340   0.421   2.087
 3424SOL    HW211172   4.246   0.551   2.057
 3425SOL     OW11173   5.857   3.512   0.738
 3425SOL    HW111174   5.812   3.424   0.720
 3425SOL    HW211175   5.947   3.497   0.778
 3426SOL     OW11176   5.613   3.087   6.849
 3426SOL    HW111177   5.645   3.152   6.780
 3426SOL    HW211178   5.676   3.009   6.854
 3427SOL     OW11179   1.635   2.387   0.732
 3427SOL    HW111180   1.659   2.384   0.635
 3427SOL    HW211181   1.554   2.331   0.748
 3428SOL     OW11182   4.724   6.166   5.755
 3428SOL    HW111183   4.704   6.257   5.719
 3428SOL    HW211184   4.737   6.171   5.854
 3429SOL     OW11185   6.509   0.217   0.949
 3429SOL    HW111186   6.603   0.249   0.951
 3429SOL    HW211187   6.506   0.121   0.923
 3430SOL     OW11188   2.430   4.542   5.511
 3430SOL    HW111189   2.360   4.594   5.462
 3430SOL    HW211190   2.471   4.475   5.449
 3431SOL     OW11191   1.709   5.317   2.988
 3431SOL    HW111192   1.664   5.272   3.065
 3431SOL    HW211193   1.728   5.413   3.011
 3432SOL     OW11194   1.676   4.148   0.612
 3432SOL    HW111195   1.759   4.161   0.665
 3432SOL    HW211196   1.597   4.178   0.666
 3433SOL     OW11197   2.385   1.763   6.832
 3433SOL    HW111198   2.423   1.854   6.850
 3433SOL    HW211199   2.452   1.709   6.782
 3434SOL     OW11200   3.110   2.481   0.939
 3434SOL    HW111201   3.078   2.389   0.964
 3434SOL    HW211202   3.191   2.503   0.993
 3435SOL     OW11203   2.309   0.818   1.038
 3435SOL    HW111204   2.373   0.884   1.000
 3435SOL    HW211205   2.223   0.863   1.059
 3436SOL     OW11206   3.259   6.474   6.595
 3436SOL    HW111207   3.345   6.449   6.639
 3436SOL    HW211208   3.226   6.560   6.634
 3437SOL     OW11209   1.405   6.997   6.478
 3437SOL    HW111210   1.425   0.005   6.571
 3437SOL    HW211211   1.402   6.897   6.475
 3438SOL     OW11212   1.363   3.689   1.312
 3438SOL    HW111213   1.371   3.757   1.240
 3438SOL    HW211214   1.287   3.626   1.292
 3439SOL     OW11215   2.559   5.182   1.967
 3439SOL    HW111216   2.518   5.106   2.018
 3439SOL    HW211217   2.572   5.260   2.028
 3440SOL     OW11218   3.830   3.561   4.576
 3440SOL    HW111219   3.811   3.522   4.486
 3440SOL    HW211220   3.895   3.636   4.567
 3441SOL     OW11221   5.416   4.859   6.008
 3441SOL    HW111222   5.405   4.807   6.093
 3441SOL    HW211223   5.352   4.936   6.008
 3442SOL     OW11224   3.202   3.174   0.945
 3442SOL    HW111225   3.293   3.155   0.983
 3442SOL    HW211226   3.137   3.105   0.978
 3443SOL     OW11227   1.392   6.218   2.403
 3443SOL    HW111228   1.366   6.313   2.417
 3443SOL    HW211229   1.491   6.211   2.393
 3444SOL     OW11230   6.236   3.923   6.868
 3444SOL    HW111231   6.227   3.973   6.955
 3444SOL    HW211232   6.313   3.859   6.875
 3445SOL     OW11233   5.905   4.507   3.404
 3445SOL    HW111234   5.957   4.575   3.456
 3445SOL    HW211235   5.966   4.463   3.337
 3446SOL     OW11236   5.090   0.981   1.103
 3446SOL    HW111237   5.157   0.958   1.033
 3446SOL    HW211238   5.132   1.038   1.173
 3447SOL     OW11239   5.402   1.155   6.757
 3447SOL    HW111240   5.453   1.169   6.671
 3447SOL    HW211241   5.424   1.229   6.820
 3448SOL     OW11242   1.594   6.143   5.125
 3448SOL    HW111243   1.576   6.187   5.213
 3448SOL    HW211244   1.512   6.147   5.068
 3449SOL     OW11245   6.876   4.143   5.577
 3449SOL    HW111246   6.845   4.122   5.669
 3449SOL    HW211247   6.962   4.194   5.581
 3450SOL     OW11248   2.277   6.414   1.659
 3450SOL    HW111249   2.188   6.456   1.679
 3450SOL    HW211250   2.346   6.485   1.647
 3451SOL     OW11251   2.048   1.056   1.353
 3451SOL    HW111252   2.098   1.002   1.421
 3451SOL    HW211253   2.111   1.122   1.311
 3452SOL     OW11254   4.685   0.533   4.911
 3452SOL    HW111255   4.646   0.552   4.820
 3452SOL    HW211256   4.615   0.549   4.981
 3453SOL     OW11257   4.654   6.448   6.458
 3453SOL    HW111258   4.647   6.488   6.367
 3453SOL    HW211259   4.704   6.361   6.452
 3454SOL     OW11260   0.661   2.781   1.640
 3454SOL    HW111261   0.581   2.842   1.639
 3454SOL    HW211262   0.740   2.831   1.677
 3455SOL     OW11263   0.547   2.872   5.664
 3455SOL    HW111264   0.576   2.919   5.747
 3455SOL    HW211265   0.447   2.868   5.661
 3456SOL     OW11266   5.343   4.570   2.799
 3456SOL    HW111267   5.248   4.587   2.827
 3456SOL    HW211268   5.348   4.483   2.749
 3457SOL     OW11269   3.927   5.064   5.685
 3457SOL    HW111270   3.945   4.973   5.649
 3457SOL    HW211271   3.836   5.095   5.656
 3458SOL     OW11272   4.189   1.249   2.706
 3458SOL    HW111273   4.150   1.212   2.621
 3458SOL    HW211274   4.164   1.345   2.715
 3459SOL     OW11275   4.688   6.284   3.020
 3459SOL    HW111276   4.652   6.194   2.997
 3459SOL    HW211277   4.618   6.338   3.066
 3460SOL     OW11278   4.191   1.655   5.114
 3460SOL    HW111279   4.127   1.663   5.190
 3460SOL    HW211280   4.242   1.569   5.122
 3461SOL     OW11281   6.166   5.515   5.099
 3461SOL    HW111282   6.089   5.578   5.095
 3461SOL    HW211283   6.161   5.452   5.021
 3462SOL     OW11284   1.969   3.895   6.420
 3462SOL    HW111285   2.004   3.980   6.459
 3462SOL    HW211286   2.035   3.821   6.439
 3463SOL     OW11287   5.718   3.967   1.088
 3463SOL    HW111288   5.778   4.024   1.144
 3463SOL    HW211289   5.773   3.907   1.030
 3464SOL     OW11290   0.032   4.994   6.107
 3464SOL    HW111291   6.966   5.007   6.061
 3464SOL    HW211292   0.024   5.022   6.202
 3465SOL     OW11293   2.005   0.636   1.225
 3465SOL    HW111294   1.954   0.635   1.139
 3465SOL    HW211295   1.941   0.626   1.302
 3466SOL     OW11296   6.521   4.045   5.421
 3466SOL    HW111297   6.460   4.004   5.354
 3466SOL    HW211298   6.468   4.089   5.493
 3467SOL     OW11299   2.151   1.771   6.966
 3467SOL    HW111300   2.229   1.753   6.907
 3467SOL    HW211301   2.103   1.852   6.935
 3468SOL     OW11302   3.576   6.970   4.097
 3468SOL    HW111303   3.567   0.018   4.168
 3468SOL    HW211304   3.514   6.991   4.021
 3469SOL     OW11305   5.260   2.459   2.813
 3469SOL    HW111306   5.173   2.469   2.862
 3469SOL    HW211307   5.332   2.508   2.863
 3470SOL     OW11308   0.406   5.498   1.137
 3470SOL    HW111309   0.404   5.503   1.237
 3470SOL    HW211310   0.488   5.545   1.103
 3471SOL     OW11311   4.055   6.321   4.572
 3471SOL    HW111312   3.988   6.386   4.608
 3471SOL    HW211313   4.074   6.252   4.642
 3472SOL     OW11314   3.429   1.324   5.021
 3472SOL    HW111315   3.413   1.403   4.963
 3472SOL    HW211316   3.365   1.325   5.098
 3473SOL     OW11317   5.380   0.657   6.018
 3473SOL    HW111318   5.340   0.581   5.967
 3473SOL    HW211319   5.395   0.735   5.957
 3474SOL     OW11320   4.855   5.463   0.923
 3474SOL    HW111321   4.773   5.457   0.980
 3474SOL    HW211322   4.879   5.559   0.909
 3475SOL     OW11323   1.696   5.795   4.767
 3475SOL    HW111324   1.620   5.819   4.827
 3475SOL    HW211325   1.698   5.696   4.754
 3476SOL     OW11326   4.831   0.817   4.122
 3476SOL    HW111327   4.920   0.828   4.078
 3476SOL    HW211328   4.818   0.722   4.148
 3477SOL     OW11329   4.274   6.037   1.736
 3477SOL    HW111330   4.350   5.996   1.786
 3477SOL    HW211331   4.292   6.134   1.721
 3478SOL     OW11332   4.251   4.586   0.381
 3478SOL    HW111333   4.275   4.649   0.456
 3478SOL    HW211334   4.319   4.593   0.309
 3479SOL     OW11335   1.086   0.641   2.297
 3479SOL    HW111336   1.156   0.583   2.340
 3479SOL    HW211337   1.008   0.585   2.270
 3480SOL     OW11338   1.205   1.345   3.098
 3480SOL    HW111339   1.237   1.264   3.050
 3480SOL    HW211340   1.112   1.367   3.068
 3481SOL     OW11341   2.201   6.487   6.939
 3481SOL    HW111342   2.127   6.538   6.983
 3481SOL    HW211343   2.198   6.502   6.841
 3482SOL     OW11344   0.329   2.333   0.631
 3482SOL    HW111345   0.398   2.393   0.672
 3482SOL    HW211346   0.349   2.320   0.534
 3483SOL     OW11347   3.118   6.716   1.372
 3483SOL    HW111348   3.196   6.684   1.319
 3483SOL    HW211349   3.052   6.641   1.382
 3484SOL     OW11350   3.520   3.844   3.493
 3484SOL    HW111351   3.545   3.780   3.421
 3484SOL    HW211352   3.491   3.931   3.453
 3485SOL     OW11353   0.978   2.602   4.972
 3485SOL    HW111354   0.975   2.583   4.874
 3485SOL    HW211355   1.069   2.633   4.997
 3486SOL     OW11356   4.252   1.664   2.232
 3486SOL    HW111357   4.155   1.679   2.253
 3486SOL    HW211358   4.281   1.729   2.162
 3487SOL     OW11359   6.563   0.500   0.140
 3487SOL    HW111360   6.623   0.537   0.070
 3487SOL    HW211361   6.606   0.508   0.230
 3488SOL     OW11362   5.654   3.444   4.129
 3488SOL    HW111363   5.725   3.515   4.130
 3488SOL    HW211364   5.647   3.406   4.037
 3489SOL     OW11365   3.302   0.017   1.126
 3489SOL    HW111366   3.335   0.066   1.206
 3489SOL    HW211367   3.371   6.974   1.096
 3490SOL     OW11368   4.363   3.862   0.282
 3490SOL    HW111369   4.355   3.848   0.381
 3490SOL    HW211370   4.370   3.773   0.237
 3491SOL     OW11371   0.660   3.085   4.690
 3491SOL    HW111372   0.670   3.151   4.615
 3491SOL    HW211373   0.576   3.033   4.677
 3492SOL     OW11374   6.332   4.793   6.424
 3492SOL    HW111375   6.308   4.816   6.518
 3492SOL    HW211376   6.353   4.696   6.417
 3493SOL     OW11377   6.522   4.296   0.675
 3493SOL    HW111378   6.522   4.368   0.607
 3493SOL    HW211379   6.475   4.327   0.757
 3494SOL     OW11380   3.381   0.267   0.624
 3494SOL    HW111381   3.399   0.361   0.596
 3494SOL    HW211382   3.284   0.247   0.614
 3495SOL     OW11383   5.144   4.803   0.415
 3495SOL    HW111384   5.160   4.708   0.440
 3495SOL    HW211385   5.053   4.831   0.445
 3496SOL     OW11386   2.020   3.351   1.347
 3496SOL    HW111387   2.063   3.364   1.258
 3496SOL    HW211388   2.075   3.288   1.403
 3497SOL     OW11389   4.570   0.226   3.505
 3497SOL    HW111390   4.536   0.319   3.519
 3497SOL    HW211391   4.500   0.160   3.531
 3498SOL     OW11392   2.543   1.190   1.680
 3498SOL    HW111393   2.483   1.135   1.623
 3498SOL    HW211394   2.506   1.283   1.689
 3499SOL     OW11395   6.833   3.336   3.863
 3499SOL    HW111396   6.833   3.398   3.941
 3499SOL    HW211397   6.749   3.348   3.810
 3500SOL     OW11398   6.685   3.279   0.087
 3500SOL    HW111399   6.638   3.297   0.173
 3500SOL    HW211400   6.629   3.311   0.011
 3501SOL     OW11401   1.296   4.390   4.454
 3501SOL    HW111402   1.371   4.335   4.491
 3501SOL    HW211403   1.214   4.377   4.510
 3502SOL     OW11404   0.489   3.464   1.522
 3502SOL    HW111405   0.409   3.417   1.560
 3502SOL    HW211406   0.507   3.547   1.575
 3503SOL     OW11407   4.889   5.953   4.548
 3503SOL    HW111408   4.853   5.864   4.522
 3503SOL    HW211409   4.916   6.004   4.467
 3504SOL     OW11410   2.253   3.186   1.814
 3504SOL    HW111411   2.295   3.276   1.827
 3504SOL    HW211412   2.263   3.159   1.718
 3505SOL     OW11413   5.478   5.192   4.887
 3505SOL    HW111414   5.397   5.250   4.887
 3505SOL    HW211415   5.462   5.112   4.944
 3506SOL     OW11416   4.789   5.273   2.444
 3506SOL    HW111417   4.819   5.265   2.539
 3506SOL    HW211418   4.866   5.254   2.383
 3507SOL     OW11419   0.932   0.550   6.219
 3507SOL    HW111420   0.999   0.515   6.284
 3507SOL    HW211421   0.891   0.473   6.170
 3508SOL     OW11422   6.082   3.107   6.967
 3508SOL    HW111423   6.045   3.164   6.894
 3508SOL    HW211424   6.010   3.048   7.003
 3509SOL     OW11425   6.635   6.613   0.897
 3509SOL    HW111426   6.664   6.692   0.843
 3509SOL    HW211427   6.636   6.531   0.840
 3510SOL     OW11428   1.848   3.302   2.106
 3510SOL    HW111429   1.941   3.271   2.085
 3510SOL    HW211430   1.802   3.232   2.161
 3511SOL     OW11431   0.577   1.683   5.902
 3511SOL    HW111432   0.482   1.700   5.925
 3511SOL    HW211433   0.583   1.640   5.812
 3512SOL     OW11434   2.768   3.567   0.969
 3512SOL    HW111435   2.788   3.474   1.001
 3512SOL    HW211436   2.677   3.568   0.927
 3513SOL     OW11437   6.445   4.679   1.334
 3513SOL    HW111438   6.368   4.678   1.269
 3513SOL    HW211439   6.492   4.766   1.328
 3514SOL     OW11440   0.854   6.249   1.571
 3514SOL    HW111441   0.778   6.303   1.608
 3514SOL    HW211442   0.855   6.159   1.616
 3515SOL     OW11443   2.650   6.373   3.750
 3515SOL    HW111444   2.577   6.319   3.791
 3515SOL    HW211445   2.613   6.458   3.714
 3516SOL     OW11446   3.039   1.313   1.272
 3516SOL    HW111447   2.984   1.304   1.190
 3516SOL    HW211448   3.136   1.316   1.248
 3517SOL     OW11449   1.067   0.960   6.268
 3517SOL    HW111450   1.122   1.039   6.240
 3517SOL    HW211451   1.078   0.945   6.367
 3518SOL     OW11452   4.056   2.933   5.729
 3518SOL    HW111453   3.994   3.009   5.706
 3518SOL    HW211454   4.097   2.951   5.818
 3519SOL     OW11455   1.997   6.200   0.391
 3519SOL    HW111456   1.971   6.282   0.442
 3519SOL    HW211457   1.966   6.209   0.296
 3520SOL     OW11458   4.560   5.748   0.895
 3520SOL    HW111459   4.559   5.650   0.877
 3520SOL    HW211460   4.511   5.766   0.980
 3521SOL     OW11461   5.934   2.612   0.566
 3521SOL    HW111462   6.029   2.593   0.589
 3521SOL    HW211463   5.904   2.549   0.494
 3522SOL     OW11464   3.209   4.928   2.343
 3522SOL    HW111465   3.290   4.881   2.307
 3522SOL    HW211466   3.222   4.948   2.440
 3523SOL     OW11467   2.779   4.787   5.892
 3523SOL    HW111468   2.704   4.745   5.840
 3523SOL    HW211469   2.860   4.730   5.885
 3524SOL     OW11470   2.719   0.352   0.890
 3524SOL    HW111471   2.702   0.256   0.913
 3524SOL    HW211472   2.797   0.357   0.828
 3525SOL     OW11473   0.950   2.864   2.920
 3525SOL    HW111474   1.021   2.916   2.872
 3525SOL    HW211475   0.922   2.786   2.864
 3526SOL     OW11476   2.298   1.201   2.343
 3526SOL    HW111477   2.291   1.219   2.441
 3526SOL    HW211478   2.379   1.146   2.325
 3527SOL     OW11479   5.206   2.659   5.859
 3527SOL    HW111480   5.149   2.579   5.842
 3527SOL    HW211481   5.194   2.726   5.785
 3528SOL     OW11482   6.872   6.902   4.750
 3528SOL    HW111483   6.819   6.821   4.727
 3528SOL    HW211484   6.928   6.929   4.671
 3529SOL     OW11485   3.585   6.306   6.083
 3529SOL    HW111486   3.622   6.257   6.162
 3529SOL    HW211487   3.519   6.374   6.114
 3530SOL     OW11488   1.946   5.994   3.312
 3530SOL    HW111489   2.010   6.045   3.255
 3530SOL    HW211490   1.897   6.058   3.372
 3531SOL     OW11491   4.866   3.903   6.792
 3531SOL    HW111492   4.869   3.826   6.728
 3531SOL    HW211493   4.958   3.923   6.824
 3532SOL     OW11494   1.705   6.976   6.993
 3532SOL    HW111495   1.718   6.914   0.048
 3532SOL    HW211496   1.777   6.962   6.926
 3533SOL     OW11497   1.732   1.481   2.687
 3533SOL    HW111498   1.685   1.525   2.611
 3533SOL    HW211499   1.756   1.549   2.755
 3534SOL     OW11500   5.198   0.948   4.093
 3534SOL    HW111501   5.167   1.039   4.121
 3534SOL    HW211502   5.183   0.884   4.168
 3535SOL     OW11503   4.602   5.705   6.419
 3535SOL    HW111504   4.670   5.673   6.353
 3535SOL    HW211505   4.576   5.630   6.480
 3536SOL     OW11506   0.974   4.345   3.258
 3536SOL    HW111507   1.017   4.280   3.320
 3536SOL    HW211508   1.034   4.425   3.247
 3537SOL     OW11509   2.417   4.658   0.785
 3537SOL    HW111510   2.496   4.624   0.837
 3537SOL    HW211511   2.340   4.596   0.798
 3538SOL     OW11512   2.844   1.121   4.607
 3538SOL    HW111513   2.817   1.105   4.512
 3538SOL    HW211514   2.763   1.122   4.665
 3539SOL     OW11515   5.244   5.339   6.452
 3539SOL    HW111516   5.295   5.425   6.457
 3539SOL    HW211517   5.202   5.331   6.362
 3540SOL     OW11518   2.940   3.660   6.519
 3540SOL    HW111519   3.018   3.690   6.575
 3540SOL    HW211520   2.855   3.694   6.558
 3541SOL     OW11521   2.977   2.567   1.252
 3541SOL    HW111522   3.034   2.611   1.321
 3541SOL    HW211523   3.005   2.598   1.161
 3542SOL     OW11524   5.669   2.115   5.956
 3542SOL    HW111525   5.650   2.202   5.910
 3542SOL    HW211526   5.647   2.124   6.054
 3543SOL     OW11527   0.793   2.431   3.543
 3543SOL    HW111528   0.813   2.357   3.478
 3543SOL    HW211529   0.782   2.392   3.635
 3544SOL     OW11530   2.796   4.574   6.334
 3544SOL    HW111531   2.780   4.524   6.249
 3544SOL    HW211532   2.760   4.522   6.411
 3545SOL     OW11533   3.542   6.701   1.273
 3545SOL    HW111534   3.598   6.619   1.282
 3545SOL    HW211535   3.534   6.747   1.362
 3546SOL     OW11536   0.346   4.006   3.280
 3546SOL    HW111537   0.325   3.921   3.329
 3546SOL    HW211538   0.319   3.996   3.184
 3547SOL     OW11539   0.832   4.490   5.509
 3547SOL    HW111540   0.771   4.518   5.583
 3547SOL    HW211541   0.823   4.392   5.493
 3548SOL     OW11542   6.075   0.623   5.019
 3548SOL    HW111543   6.158   0.575   5.048
 3548SOL    HW211544   6.086   0.721   5.035
 3549SOL     OW11545   2.900   6.489   0.016
 3549SOL    HW111546   2.872   6.576   6.997
 3549SOL    HW211547   2.829   6.421   7.021
 3550SOL     OW11548   5.497   0.966   5.303
 3550SOL    HW111549   5.510   0.949   5.206
 3550SOL    HW211550   5.407   0.933   5.331
 3551SOL     OW11551   4.265   1.779   4.537
 3551SOL    HW111552   4.187   1.716   4.538
 3551SOL    HW211553   4.345   1.733   4.576
 3552SOL     OW11554   0.773   6.657   2.873
 3552SOL    HW111555   0.708   6.617   2.809
 3552SOL    HW211556   0.865   6.651   2.835
 3553SOL     OW11557   4.940   5.701   0.109
 3553SOL    HW111558   5.022   5.751   0.138
 3553SOL    HW211559   4.961   5.646   0.029
 3554SOL     OW11560   5.212   2.880   1.176
 3554SOL    HW111561   5.195   2.852   1.081
 3554SOL    HW211562   5.223   2.798   1.233
 3555SOL     OW11563   2.829   2.000   5.203
 3555SOL    HW111564   2.863   1.919   5.251
 3555SOL    HW211565   2.885   2.079   5.227
 3556SOL     OW11566   5.418   0.859   5.715
 3556SOL    HW111567   5.378   0.784   5.663
 3556SOL    HW211568   5.444   0.933   5.652
 3557SOL     OW11569   6.761   1.191   0.825
 3557SOL    HW111570   6.731   1.104   0.866
 3557SOL    HW211571   6.787   1.255   0.897
 3558SOL     OW11572   3.386   6.416   2.124
 3558SOL    HW111573   3.478   6.443   2.096
 3558SOL    HW211574   3.391   6.331   2.176
 3559SOL     OW11575   4.541   6.229   5.227
 3559SOL    HW111576   4.503   6.137   5.221
 3559SOL    HW211577   4.524   6.267   5.318
 3560SOL     OW11578   2.062   5.518   4.455
 3560SOL    HW111579   2.029   5.423   4.446
 3560SOL    HW211580   2.028   5.556   4.541
 3561SOL     OW11581   4.751   3.831   5.347
 3561SOL    HW111582   4.710   3.754   5.396
 3561SOL    HW211583   4.678   3.894   5.319
 3562SOL     OW11584   2.117   1.379   5.857
 3562SOL    HW111585   2.200   1.432   5.875
 3562SOL    HW211586   2.082   1.401   5.767
 3563SOL     OW11587   6.032   2.898   4.948
 3563SOL    HW111588   5.954   2.925   4.891
 3563SOL    HW211589   6.102   2.855   4.890
 3564SOL     OW11590   6.323   4.201   1.875
 3564SOL    HW111591   6.392   4.173   1.941
 3564SOL    HW211592   6.251   4.131   1.871
 3565SOL     OW11593   3.886   5.809   3.151
 3565SOL    HW111594   3.856   5.791   3.245
 3565SOL    HW211595   3.982   5.782   3.141
 3566SOL     OW11596   1.257   0.583   5.592
 3566SOL    HW111597   1.192   0.589   5.517
 3566SOL    HW211598   1.230   0.509   5.654
 3567SOL     OW11599   0.299   3.870   6.295
 3567SOL    HW111600   0.323   3.891   6.390
 3567SOL    HW211601   0.262   3.777   6.290
 3568SOL     OW11602   6.235   3.828   5.620
 3568SOL    HW111603   6.217   3.906   5.561
 3568SOL    HW211604   6.255   3.860   5.713
 3569SOL     OW11605   1.515   1.654   5.331
 3569SOL    HW111606   1.513   1.751   5.311
 3569SOL    HW211607   1.433   1.610   5.293
 3570SOL     OW11608   6.607   1.662   3.750
 3570SOL    HW111609   6.508   1.659   3.735
 3570SOL    HW211610   6.629   1.623   3.840
 3571SOL     OW11611   6.405   6.336   5.810
 3571SOL    HW111612   6.376   6.405   5.744
 3571SOL    HW211613   6.355   6.348   5.896
 3572SOL     OW11614   6.031   5.300   4.558
 3572SOL    HW111615   5.983   5.323   4.473
 3572SOL    HW211616   5.966   5.301   4.634
 3573SOL     OW11617   1.342   2.856   2.686
 3573SOL    HW111618   1.314   2.860   2.590
 3573SOL    HW211619   1.363   2.761   2.710
 3574SOL     OW11620   6.959   3.707   0.734
 3574SOL    HW111621   7.017   3.704   0.816
 3574SOL    HW211622   6.878   3.764   0.753
 3575SOL     OW11623   6.100   4.810   2.051
 3575SOL    HW111624   6.149   4.853   2.127
 3575SOL    HW211625   6.015   4.860   2.034
 3576SOL     OW11626   0.355   1.442   5.914
 3576SOL    HW111627   0.444   1.475   5.882
 3576SOL    HW211628   0.347   1.459   6.012
 3577SOL     OW11629   1.183   3.166   0.143
 3577SOL    HW111630   1.209   3.257   0.175
 3577SOL    HW211631   1.109   3.131   0.200
 3578SOL     OW11632   3.461   5.222   0.834
 3578SOL    HW111633   3.481   5.158   0.760
 3578SOL    HW211634   3.383   5.280   0.808
 3579SOL     OW11635   6.888   4.114   4.646
 3579SOL    HW111636   6.937   4.058   4.579
 3579SOL    HW211637   6.936   4.200   4.659
 3580SOL     OW11638   6.323   2.156   2.321
 3580SOL    HW111639   6.223   2.158   2.323
 3580SOL    HW211640   6.356   2.086   2.384
 3581SOL     OW11641   0.054   0.132   2.793
 3581SOL    HW111642   0.030   0.220   2.833
 3581SOL    HW211643   0.020   0.127   2.699
 3582SOL     OW11644   1.263   0.347   6.205
 3582SOL    HW111645   1.349   0.323   6.249
 3582SOL    HW211646   1.202   0.388   6.272
 3583SOL     OW11647   1.072   5.233   0.541
 3583SOL    HW111648   1.138   5.239   0.466
 3583SOL    HW211649   1.075   5.142   0.581
 3584SOL     OW11650   5.134   5.676   6.486
 3584SOL    HW111651   5.122   5.626   6.400
 3584SOL    HW211652   5.199   5.750   6.474
 3585SOL     OW11653   3.242   4.900   4.105
 3585SOL    HW111654   3.338   4.895   4.076
 3585SOL    HW211655   3.238   4.897   4.205
 3586SOL     OW11656   6.973   3.122   5.800
 3586SOL    HW111657   0.045   3.139   5.768
 3586SOL    HW211658   6.956   3.177   5.882
 3587SOL     OW11659   4.412   6.446   6.750
 3587SOL    HW111660   4.425   6.512   6.676
 3587SOL    HW211661   4.318   6.450   6.783
 3588SOL     OW11662   1.395   1.813   5.942
 3588SOL    HW111663   1.324   1.846   5.879
 3588SOL    HW211664   1.418   1.719   5.920
 3589SOL     OW11665   3.068   0.935   5.611
 3589SOL    HW111666   3.129   0.954   5.688
 3589SOL    HW211667   3.051   1.020   5.560
 3590SOL     OW11668   1.877   5.341   6.537
 3590SOL    HW111669   1.802   5.302   6.591
 3590SOL    HW211670   1.959   5.346   6.593
 3591SOL     OW11671   5.207   2.206   5.809
 3591SOL    HW111672   5.185   2.196   5.712
 3591SOL    HW211673   5.183   2.123   5.858
 3592SOL     OW11674   5.043   2.917   2.486
 3592SOL    HW111675   4.959   2.960   2.518
 3592SOL    HW211676   5.039   2.907   2.387
 3593SOL     OW11677   1.521   6.267   3.938
 3593SOL    HW111678   1.562   6.218   3.861
 3593SOL    HW211679   1.446   6.324   3.905
 3594SOL     OW11680   2.798   1.498   4.423
 3594SOL    HW111681   2.767   1.587   4.390
 3594SOL    HW211682   2.746   1.426   4.377
 3595SOL     OW11683   2.794   5.907   6.460
 3595SOL    HW111684   2.775   5.963   6.540
 3595SOL    HW211685   2.892   5.887   6.456
 3596SOL     OW11686   6.433   2.059   2.710
 3596SOL    HW111687   6.424   1.986   2.643
 3596SOL    HW211688   6.343   2.094   2.735
 3597SOL     OW11689   3.003   5.646   3.704
 3597SOL    HW111690   2.988   5.644   3.802
 3597SOL    HW211691   2.948   5.719   3.663
 3598SOL     OW11692   1.059   6.739   6.767
 3598SOL    HW111693   0.976   6.687   6.788
 3598SOL    HW211694   1.100   6.703   6.683
 3599SOL     OW11695   0.216   1.704   4.812
 3599SOL    HW111696   0.205   1.689   4.910
 3599SOL    HW211697   0.127   1.719   4.770
 3600SOL     OW11698   5.755   2.232   0.478
 3600SOL    HW111699   5.802   2.155   0.434
 3600SOL    HW211700   5.783   2.318   0.434
 3601SOL     OW11701   0.059   3.951   6.187
 3601SOL    HW111702   0.048   4.051   6.191
 3601SOL    HW211703   0.147   3.926   6.229
 3602SOL     OW11704   2.088   0.803   0.009
 3602SOL    HW111705   2.058   0.892   0.043
 3602SOL    HW211706   2.125   0.749   0.084
 3603SOL     OW11707   4.149   4.778   3.774
 3603SOL    HW111708   4.203   4.838   3.716
 3603SOL    HW211709   4.065   4.825   3.801
 3604SOL     OW11710   0.417   2.676   2.925
 3604SOL    HW111711   0.373   2.759   2.958
 3604SOL    HW211712   0.356   2.629   2.861
 3605SOL     OW11713   5.559   3.353   6.257
 3605SOL    HW111714   5.491   3.392   6.318
 3605SOL    HW211715   5.631   3.421   6.241
 3606SOL     OW11716   0.711   4.221   5.338
 3606SOL    HW111717   0.742   4.207   5.244
 3606SOL    HW211718   0.611   4.213   5.341
 3607SOL     OW11719   5.208   6.804   0.506
 3607SOL    HW111720   5.137   6.746   0.466
 3607SOL    HW211721   5.270   6.836   0.434
 3608SOL     OW11722   0.481   2.233   1.600
 3608SOL    HW111723   0.509   2.329   1.600
 3608SOL    HW211724   0.490   2.196   1.693
 3609SOL     OW11725   6.668   0.698   4.635
 3609SOL    HW111726   6.604   0.621   4.630
 3609SOL    HW211727   6.617   0.782   4.654
 3610SOL     OW11728   1.271   6.394   5.958
 3610SOL    HW111729   1.259   6.301   5.923
 3610SOL    HW211730   1.296   6.455   5.882
 3611SOL     OW11731   3.878   5.405   5.789
 3611SOL    HW111732   3.865   5.341   5.865
 3611SOL    HW211733   3.865   5.498   5.822
 3612SOL     OW11734   1.406   6.762   0.838
 3612SOL    HW111735   1.368   6.791   0.926
 3612SOL    HW211736   1.369   6.821   0.766
 3613SOL     OW11737   5.752   5.073   6.570
 3613SOL    HW111738   5.842   5.064   6.529
 3613SOL    HW211739   5.735   4.995   6.631
 3614SOL     OW11740   3.930   3.055   3.368
 3614SOL    HW111741   3.923   3.116   3.290
 3614SOL    HW211742   3.865   2.979   3.358
 3615SOL     OW11743   6.007   5.668   5.420
 3615SOL    HW111744   6.107   5.671   5.425
 3615SOL    HW211745   5.980   5.644   5.326
 3616SOL     OW11746   0.017   2.170   4.999
 3616SOL    HW111747   0.067   2.162   4.913
 3616SOL    HW211748   0.002   2.266   5.021
 3617SOL     OW11749   6.834   1.361   6.501
 3617SOL    HW111750   6.845   1.418   6.582
 3617SOL    HW211751   6.889   1.398   6.427
 3618SOL     OW11752   2.039   2.006   6.829
 3618SOL    HW111753   2.095   2.088   6.841
 3618SOL    HW211754   2.035   1.983   6.732
 3619SOL     OW11755   5.585   2.245   4.389
 3619SOL    HW111756   5.648   2.276   4.318
 3619SOL    HW211757   5.500   2.298   4.383
 3620SOL     OW11758   5.892   0.193   4.683
 3620SOL    HW111759   5.883   0.216   4.586
 3620SOL    HW211760   5.915   0.276   4.735
 3621SOL     OW11761   2.498   3.457   5.936
 3621SOL    HW111762   2.545   3.430   6.021
 3621SOL    HW211763   2.497   3.379   5.873
 3622SOL     OW11764   0.874   2.308   2.140
 3622SOL    HW111765   0.907   2.278   2.229
 3622SOL    HW211766   0.948   2.303   2.073
 3623SOL     OW11767   4.944   4.952   3.405
 3623SOL    HW111768   4.957   4.964   3.307
 3623SOL    HW211769   4.932   5.041   3.449
 3624SOL     OW11770   2.799   6.792   2.950
 3624SOL    HW111771   2.755   6.724   3.010
 3624SOL    HW211772   2.873   6.837   3.000
 3625SOL     OW11773   6.057   3.016   5.445
 3625SOL    HW111774   6.057   2.956   5.525
 3625SOL    HW211775   6.040   2.961   5.363
 3626SOL     OW11776   1.997   3.981   5.344
 3626SOL    HW111777   1.906   4.012   5.371
 3626SOL    HW211778   2.028   4.035   5.265
 3627SOL     OW11779   3.411   3.883   3.899
 3627SOL    HW111780   3.465   3.869   3.982
 3627SOL    HW211781   3.461   3.847   3.820
 3628SOL     OW11782   2.013   5.777   2.508
 3628SOL    HW111783   1.968   5.707   2.452
 3628SOL    HW211784   2.090   5.815   2.458
 3629SOL     OW11785   5.817   1.803   4.894
 3629SOL    HW111786   5.721   1.793   4.919
 3629SOL    HW211787   5.861   1.713   4.891
 3630SOL     OW11788   6.267   2.105   4.257
 3630SOL    HW111789   6.250   2.187   4.311
 3630SOL    HW211790   6.359   2.070   4.277
 3631SOL     OW11791   2.559   0.062   4.806
 3631SOL    HW111792   2.609   0.005   4.741
 3631SOL    HW211793   2.581   0.033   4.900
 3632SOL     OW11794   5.089   1.027   0.578
 3632SOL    HW111795   5.064   0.956   0.643
 3632SOL    HW211796   5.186   1.021   0.557
 3633SOL     OW11797   2.642   2.673   6.120
 3633SOL    HW111798   2.710   2.670   6.046
 3633SOL    HW211799   2.661   2.751   6.179
 3634SOL     OW11800   1.912   6.134   5.140
 3634SOL    HW111801   1.988   6.113   5.201
 3634SOL    HW211802   1.887   6.053   5.087
 3635SOL     OW11803   2.783   1.821   5.903
 3635SOL    HW111804   2.761   1.765   5.823
 3635SOL    HW211805   2.703   1.826   5.963
 3636SOL     OW11806   0.456   5.457   5.944
 3636SOL    HW111807   0.473   5.549   5.979
 3636SOL    HW211808   0.542   5.406   5.941
 3637SOL     OW11809   5.503   1.170   1.415
 3637SOL    HW111810   5.552   1.257   1.415
 3637SOL    HW211811   5.526   1.119   1.498
 3638SOL     OW11812   6.838   4.374   4.305
 3638SOL    HW111813   6.797   4.430   4.232
 3638SOL    HW211814   6.848   4.430   4.387
 3639SOL     OW11815   2.096   4.629   0.926
 3639SOL    HW111816   2.164   4.558   0.907
 3639SOL    HW211817   2.056   4.614   1.016
 3640SOL     OW11818   3.484   5.694   1.332
 3640SOL    HW111819   3.462   5.743   1.416
 3640SOL    HW211820   3.471   5.596   1.346
 3641SOL     OW11821   3.244   0.903   4.933
 3641SOL    HW111822   3.174   0.886   4.864
 3641SOL    HW211823   3.323   0.844   4.915
 3642SOL     OW11824   4.792   0.414   4.641
 3642SOL    HW111825   4.868   0.454   4.590
 3642SOL    HW211826   4.716   0.479   4.644
 3643SOL     OW11827   2.518   5.130   4.949
 3643SOL    HW111828   2.499   5.153   4.854
 3643SOL    HW211829   2.466   5.049   4.974
 3644SOL     OW11830   6.488   2.427   1.007
 3644SOL    HW111831   6.487   2.360   1.081
 3644SOL    HW211832   6.582   2.441   0.975
 3645SOL     OW11833   4.713   1.825   3.504
 3645SOL    HW111834   4.778   1.900   3.487
 3645SOL    HW211835   4.743   1.744   3.453
 3646SOL     OW11836   0.196   4.997   5.671
 3646SOL    HW111837   0.218   5.013   5.768
 3646SOL    HW211838   0.227   5.074   5.616
 3647SOL     OW11839   1.347   2.634   0.917
 3647SOL    HW111840   1.438   2.612   0.953
 3647SOL    HW211841   1.357   2.675   0.826
 3648SOL     OW11842   3.347   5.355   2.097
 3648SOL    HW111843   3.385   5.295   2.168
 3648SOL    HW211844   3.323   5.443   2.137
 3649SOL     OW11845   4.435   3.585   0.888
 3649SOL    HW111846   4.433   3.573   0.987
 3649SOL    HW211847   4.372   3.657   0.862
 3650SOL     OW11848   0.258   6.019   1.117
 3650SOL    HW111849   0.162   5.997   1.134
 3650SOL    HW211850   0.265   6.113   1.084
 3651SOL     OW11851   0.305   5.863   2.450
 3651SOL    HW111852   0.308   5.882   2.548
 3651SOL    HW211853   0.315   5.949   2.399
 3652SOL     OW11854   4.617   5.924   3.608
 3652SOL    HW111855   4.630   5.827   3.586
 3652SOL    HW211856   4.702   5.961   3.646
 3653SOL     OW11857   6.492   1.692   3.029
 3653SOL    HW111858   6.559   1.633   2.985
 3653SOL    HW211859   6.422   1.636   3.074
 3654SOL     OW11860   2.170   6.805   0.391
 3654SOL    HW111861   2.248   6.750   0.360
 3654SOL    HW211862   2.142   6.774   0.481
 3655SOL     OW11863   1.717   0.188   4.789
 3655SOL    HW111864   1.682   0.217   4.700
 3655SOL    HW211865   1.676   0.243   4.862
 3656SOL     OW11866   2.037   2.424   2.190
 3656SOL    HW111867   2.009   2.511   2.230
 3656SOL    HW211868   2.073   2.365   2.262
 3657SOL     OW11869   3.990   5.515   0.941
 3657SOL    HW111870   3.909   5.456   0.945
 3657SOL    HW211871   4.062   5.478   1.000
 3658SOL     OW11872   1.284   5.652   5.196
 3658SOL    HW111873   1.283   5.552   5.199
 3658SOL    HW211874   1.202   5.685   5.148
 3659SOL     OW11875   2.967   4.771   0.149
 3659SOL    HW111876   3.062   4.749   0.167
 3659SOL    HW211877   2.910   4.735   0.223
 3660SOL     OW11878   4.896   5.926   1.710
 3660SOL    HW111879   4.873   6.020   1.682
 3660SOL    HW211880   4.836   5.898   1.785
 3661SOL     OW11881   4.811   1.825   0.702
 3661SOL    HW111882   4.831   1.877   0.785
 3661SOL    HW211883   4.891   1.826   0.642
 3662SOL     OW11884   3.652   0.262   5.315
 3662SOL    HW111885   3.697   0.174   5.302
 3662SOL    HW211886   3.566   0.250   5.363
 3663SOL     OW11887   1.705   1.994   0.457
 3663SOL    HW111888   1.660   1.934   0.522
 3663SOL    HW211889   1.753   1.939   0.389
 3664SOL     OW11890   5.377   1.511   0.739
 3664SOL    HW111891   5.308   1.454   0.694
 3664SOL    HW211892   5.340   1.603   0.754
 3665SOL     OW11893   0.330   0.033   5.084
 3665SOL    HW111894   0.363   0.087   5.161
 3665SOL    HW211895   0.277   0.091   5.023
 3666SOL     OW11896   1.662   4.282   4.232
 3666SOL    HW111897   1.752   4.274   4.276
 3666SOL    HW211898   1.613   4.360   4.272
 3667SOL     OW11899   6.357   0.871   6.462
 3667SOL    HW111900   6.400   0.781   6.471
 3667SOL    HW211901   6.307   0.892   6.546
 3668SOL     OW11902   1.477   0.086   3.024
 3668SOL    HW111903   1.556   0.041   3.066
 3668SOL    HW211904   1.413   0.115   3.096
 3669SOL     OW11905   6.112   1.880   4.246
 3669SOL    HW111906   6.155   1.967   4.267
 3669SOL    HW211907   6.076   1.839   4.330
 3670SOL     OW11908   2.232   5.739   6.866
 3670SOL    HW111909   2.139   5.701   6.871
 3670SOL    HW211910   2.239   5.799   6.786
 3671SOL     OW11911   0.462   0.135   3.385
 3671SOL    HW111912   0.532   0.140   3.457
 3671SOL    HW211913   0.416   0.047   3.388
 3672SOL     OW11914   6.232   2.290   0.230
 3672SOL    HW111915   6.248   2.385   0.258
 3672SOL    HW211916   6.193   2.240   0.307
 3673SOL     OW11917   4.345   1.293   6.957
 3673SOL    HW111918   4.407   1.258   0.005
 3673SOL    HW211919   4.264   1.233   6.952
 3674SOL     OW11920   0.503   6.586   6.948
 3674SOL    HW111921   0.437   6.552   7.015
 3674SOL    HW211922   0.456   6.644   6.882
 3675SOL     OW11923   1.598   2.636   5.633
 3675SOL    HW111924   1.648   2.627   5.718
 3675SOL    HW211925   1.584   2.545   5.592
 3676SOL     OW11926   3.649   4.994   4.276
 3676SOL    HW111927   3.713   4.967   4.348
 3676SOL    HW211928   3.555   4.990   4.310
 3677SOL     OW11929   6.920   6.538   3.042
 3677SOL    HW111930   6.990   6.608   3.029
 3677SOL    HW211931   6.853   6.570   3.109
 3678SOL     OW11932   1.357   2.342   3.741
 3678SOL    HW111933   1.292   2.364   3.813
 3678SOL    HW211934   1.384   2.427   3.694
 3679SOL     OW11935   0.568   0.875   2.579
 3679SOL    HW111936   0.481   0.844   2.540
 3679SOL    HW211937   0.568   0.975   2.586
 3680SOL     OW11938   6.278   3.191   3.913
 3680SOL    HW111939   6.284   3.091   3.903
 3680SOL    HW211940   6.272   3.233   3.823
 3681SOL     OW11941   0.805   0.071   6.027
 3681SOL    HW111942   0.730   0.067   5.960
 3681SOL    HW211943   0.892   0.063   5.980
 3682SOL     OW11944   6.631   1.765   5.504
 3682SOL    HW111945   6.712   1.715   5.472
 3682SOL    HW211946   6.549   1.718   5.473
 3683SOL     OW11947   6.072   6.259   4.562
 3683SOL    HW111948   6.083   6.203   4.644
 3683SOL    HW211949   5.986   6.310   4.568
 3684SOL     OW11950   1.723   3.185   1.871
 3684SOL    HW111951   1.695   3.097   1.911
 3684SOL    HW211952   1.792   3.227   1.928
 3685SOL     OW11953   6.034   6.234   6.214
 3685SOL    HW111954   6.090   6.154   6.232
 3685SOL    HW211955   6.039   6.296   6.292
 3686SOL     OW11956   6.609   5.211   1.908
 3686SOL    HW111957   6.655   5.122   1.914
 3686SOL    HW211958   6.601   5.251   1.999
 3687SOL     OW11959   2.739   6.969   6.624
 3687SOL    HW111960   2.751   0.009   6.702
 3687SOL    HW211961   2.797   6.889   6.636
 3688SOL     OW11962   1.199   3.437   0.185
 3688SOL    HW111963   1.142   3.448   0.104
 3688SOL    HW211964   1.284   3.488   0.174
 3689SOL     OW11965   2.047   1.536   5.354
 3689SOL    HW111966   2.114   1.605   5.381
 3689SOL    HW211967   1.959   1.581   5.335
 3690SOL     OW11968   5.584   0.542   5.797
 3690SOL    HW111969   5.646   0.534   5.718
 3690SOL    HW211970   5.495   0.503   5.773
 3691SOL     OW11971   3.034   3.735   6.945
 3691SOL    HW111972   2.963   3.675   6.981
 3691SOL    HW211973   3.039   3.818   7.001
 3692SOL     OW11974   0.811   6.133   5.163
 3692SOL    HW111975   0.801   6.091   5.073
 3692SOL    HW211976   0.870   6.076   5.220
 3693SOL     OW11977   2.754   2.328   3.628
 3693SOL    HW111978   2.777   2.314   3.725
 3693SOL    HW211979   2.835   2.316   3.572
 3694SOL     OW11980   0.864   6.297   3.468
 3694SOL    HW111981   0.874   6.236   3.546
 3694SOL    HW211982   0.948   6.296   3.413
 3695SOL     OW11983   1.567   1.959   2.544
 3695SOL    HW111984   1.578   2.039   2.602
 3695SOL    HW211985   1.611   1.975   2.456
 3696SOL     OW11986   4.523   6.550   5.153
 3696SOL    HW111987   4.426   6.568   5.143
 3696SOL    HW211988   4.541   6.453   5.139
 3697SOL     OW11989   6.766   6.887   3.637
 3697SOL    HW111990   6.818   6.805   3.612
 3697SOL    HW211991   6.674   6.861   3.665
 3698SOL     OW11992   3.341   0.112   5.911
 3698SOL    HW111993   3.339   0.028   5.966
 3698SOL    HW211994   3.249   0.135   5.880
 3699SOL     OW11995   7.009   3.645   2.291
 3699SOL    HW111996   0.021   3.700   2.216
 3699SOL    HW211997   0.064   3.607   2.342
 3700SOL     OW11998   6.270   0.211   4.155
 3700SOL    HW111999   6.181   0.192   4.198
 3700SOL    HW212000   6.339   0.153   4.197
 3701SOL     OW12001   0.126   0.963   3.865
 3701SOL    HW112002   0.124   0.864   3.852
 3701SOL    HW212003   0.033   0.998   3.868
 3702SOL     OW12004   3.942   0.486   1.463
 3702SOL    HW112005   3.906   0.445   1.379
 3702SOL    HW212006   3.908   0.436   1.542
 3703SOL     OW12007   4.035   4.608   6.235
 3703SOL    HW112008   4.006   4.514   6.250
 3703SOL    HW212009   4.087   4.614   6.150
 3704SOL     OW12010   2.880   1.454   2.523
 3704SOL    HW112011   2.889   1.356   2.508
 3704SOL    HW212012   2.915   1.477   2.613
 3705SOL     OW12013   5.190   0.363   3.632
 3705SOL    HW112014   5.101   0.344   3.675
 3705SOL    HW212015   5.258   0.299   3.668
 3706SOL     OW12016   1.883   3.483   4.119
 3706SOL    HW112017   1.904   3.461   4.024
 3706SOL    HW212018   1.827   3.410   4.159
 3707SOL     OW12019   5.514   2.217   5.665
 3707SOL    HW112020   5.449   2.290   5.685
 3707SOL    HW212021   5.475   2.130   5.695
 3708SOL     OW12022   5.860   0.588   6.614
 3708SOL    HW112023   5.876   0.685   6.598
 3708SOL    HW212024   5.935   0.550   6.666
 3709SOL     OW12025   4.110   0.896   6.107
 3709SOL    HW112026   4.162   0.948   6.175
 3709SOL    HW212027   4.012   0.911   6.122
 3710SOL     OW12028   5.987   5.420   0.420
 3710SOL    HW112029   5.894   5.392   0.440
 3710SOL    HW212030   6.005   5.511   0.458
 3711SOL     OW12031   0.245   6.119   2.139
 3711SOL    HW112032   0.329   6.075   2.171
 3711SOL    HW212033   0.238   6.211   2.178
 3712SOL     OW12034   0.532   6.633   6.487
 3712SOL    HW112035   0.617   6.646   6.539
 3712SOL    HW212036   0.548   6.658   6.391
 3713SOL     OW12037   2.660   6.015   5.041
 3713SOL    HW112038   2.747   5.985   5.079
 3713SOL    HW212039   2.616   5.939   4.993
 3714SOL     OW12040   4.257   6.801   4.344
 3714SOL    HW112041   4.181   6.737   4.337
 3714SOL    HW212042   4.254   6.846   4.434
 3715SOL     OW12043   5.108   4.774   4.012
 3715SOL    HW112044   5.173   4.849   4.024
 3715SOL    HW212045   5.116   4.711   4.089
 3716SOL     OW12046   6.513   0.280   4.466
 3716SOL    HW112047   6.471   0.201   4.509
 3716SOL    HW212048   6.511   0.358   4.529
 3717SOL     OW12049   6.208   5.648   0.874
 3717SOL    HW112050   6.243   5.677   0.962
 3717SOL    HW212051   6.110   5.670   0.868
 3718SOL     OW12052   0.822   6.673   0.221
 3718SOL    HW112053   0.887   6.733   0.173
 3718SOL    HW212054   0.797   6.597   0.162
 3719SOL     OW12055   4.953   4.899   0.055
 3719SOL    HW112056   5.010   4.980   0.040
 3719SOL    HW212057   4.920   4.865   6.989
 3720SOL     OW12058   6.687   1.702   6.265
 3720SOL    HW112059   6.707   1.693   6.168
 3720SOL    HW212060   6.766   1.744   6.312
 3721SOL     OW12061   5.928   4.524   6.828
 3721SOL    HW112062   5.998   4.515   6.898
 3721SOL    HW212063   5.951   4.602   6.768
 3722SOL     OW12064   6.917   5.706   2.604
 3722SOL    HW112065   6.941   5.668   2.514
 3722SOL    HW212066   6.830   5.756   2.596
 3723SOL     OW12067   5.383   6.858   1.571
 3723SOL    HW112068   5.298   6.908   1.550
 3723SOL    HW212069   5.461   6.912   1.541
 3724SOL     OW12070   0.864   5.397   0.586
 3724SOL    HW112071   0.925   5.337   0.534
 3724SOL    HW212072   0.775   5.402   0.540
 3725SOL     OW12073   6.864   5.956   6.872
 3725SOL    HW112074   6.938   5.927   6.811
 3725SOL    HW212075   6.839   6.051   6.851
 3726SOL     OW12076   5.643   3.570   2.210
 3726SOL    HW112077   5.625   3.661   2.171
 3726SOL    HW212078   5.684   3.512   2.140
 3727SOL     OW12079   0.974   3.073   5.024
 3727SOL    HW112080   1.073   3.060   5.030
 3727SOL    HW212081   0.928   2.985   5.030
 3728SOL     OW12082   2.399   3.254   0.169
 3728SOL    HW112083   2.446   3.225   0.252
 3728SOL    HW212084   2.350   3.176   0.129
 3729SOL     OW12085   0.807   2.205   3.348
 3729SOL    HW112086   0.782   2.133   3.412
 3729SOL    HW212087   0.901   2.189   3.316
 3730SOL     OW12088   2.857   0.976   6.894
 3730SOL    HW112089   2.854   0.969   6.993
 3730SOL    HW212090   2.871   1.072   6.868
 3731SOL     OW12091   4.375   1.333   0.834
 3731SOL    HW112092   4.407   1.391   0.760
 3731SOL    HW212093   4.388   1.380   0.921
 3732SOL     OW12094   2.013   3.493   5.811
 3732SOL    HW112095   2.001   3.586   5.774
 3732SOL    HW212096   1.927   3.443   5.802
 3733SOL     OW12097   2.596   3.969   1.302
 3733SOL    HW112098   2.612   3.870   1.297
 3733SOL    HW212099   2.573   3.994   1.396
 3734SOL     OW12100   4.207   1.534   2.729
 3734SOL    HW112101   4.288   1.537   2.789
 3734SOL    HW212102   4.237   1.537   2.633
 3735SOL     OW12103   2.010   2.493   3.028
 3735SOL    HW112104   1.981   2.446   2.945
 3735SOL    HW212105   2.086   2.555   3.005
 3736SOL     OW12106   6.332   2.646   1.127
 3736SOL    HW112107   6.236   2.621   1.142
 3736SOL    HW212108   6.378   2.574   1.077
 3737SOL     OW12109   5.096   0.206   2.821
 3737SOL    HW112110   5.071   0.302   2.811
 3737SOL    HW212111   5.036   0.150   2.764
 3738SOL     OW12112   6.149   6.169   3.492
 3738SOL    HW112113   6.049   6.163   3.490
 3738SOL    HW212114   6.176   6.265   3.494
 3739SOL     OW12115   1.224   3.638   2.030
 3739SOL    HW112116   1.170   3.638   2.115
 3739SOL    HW212117   1.285   3.718   2.030
 3740SOL     OW12118   5.112   1.530   6.835
 3740SOL    HW112119   5.118   1.628   6.855
 3740SOL    HW212120   5.110   1.479   6.921
 3741SOL     OW12121   4.395   3.523   1.137
 3741SOL    HW112122   4.394   3.438   1.190
 3741SOL    HW212123   4.333   3.589   1.179
 3742SOL     OW12124   3.922   1.979   5.731
 3742SOL    HW112125   3.983   2.033   5.790
 3742SOL    HW212126   3.875   2.040   5.667
 3743SOL     OW12127   6.548   4.998   0.243
 3743SOL    HW112128   6.527   4.967   0.336
 3743SOL    HW212129   6.531   4.923   0.179
 3744SOL     OW12130   0.085   4.968   4.087
 3744SOL    HW112131   0.178   4.932   4.095
 3744SOL    HW212132   0.028   4.900   4.041
 3745SOL     OW12133   3.445   5.489   2.551
 3745SOL    HW112134   3.485   5.527   2.468
 3745SOL    HW212135   3.501   5.514   2.630
 3746SOL     OW12136   4.420   2.283   1.706
 3746SOL    HW112137   4.359   2.362   1.709
 3746SOL    HW212138   4.471   2.277   1.791
 3747SOL     OW12139   3.204   6.812   0.104
 3747SOL    HW112140   3.292   6.820   0.150
 3747SOL    HW212141   3.197   6.721   0.062
 3748SOL     OW12142   5.994   0.511   1.130
 3748SOL    HW112143   5.980   0.519   1.031
 3748SOL    HW212144   5.909   0.484   1.173
 3749SOL     OW12145   1.296   6.770   4.174
 3749SOL    HW112146   1.196   6.775   4.163
 3749SOL    HW212147   1.324   6.821   4.255
 3750SOL     OW12148   0.052   3.560   0.352
 3750SOL    HW112149   6.994   3.587   0.298
 3750SOL    HW212150   0.136   3.584   0.303
 3751SOL     OW12151   0.325   4.368   3.032
 3751SOL    HW112152   0.358   4.444   3.087
 3751SOL    HW212153   0.400   4.332   2.975
 3752SOL     OW12154   6.250   1.263   5.866
 3752SOL    HW112155   6.345   1.240   5.847
 3752SOL    HW212156   6.199   1.266   5.780
 3753SOL     OW12157   6.541   0.928   3.702
 3753SOL    HW112158   6.464   0.981   3.736
 3753SOL    HW212159   6.564   0.958   3.609
 3754SOL     OW12160   1.896   1.577   1.958
 3754SOL    HW112161   1.987   1.601   1.922
 3754SOL    HW212162   1.838   1.659   1.958
 3755SOL     OW12163   2.759   5.201   4.471
 3755SOL    HW112164   2.735   5.112   4.431
 3755SOL    HW212165   2.810   5.186   4.555
 3756SOL     OW12166   2.681   6.342   6.941
 3756SOL    HW112167   2.653   6.264   6.884
 3756SOL    HW212168   2.614   6.416   6.931
 3757SOL     OW12169   6.352   4.691   1.839
 3757SOL    HW112170   6.311   4.752   1.771
 3757SOL    HW212171   6.370   4.742   1.923
 3758SOL     OW12172   2.042   0.281   2.926
 3758SOL    HW112173   1.988   0.360   2.955
 3758SOL    HW212174   1.988   0.198   2.935
 3759SOL     OW12175   5.042   0.588   4.042
 3759SOL    HW112176   5.138   0.593   4.015
 3759SOL    HW212177   5.034   0.611   4.140
 3760SOL     OW12178   0.240   0.311   3.632
 3760SOL    HW112179   0.275   0.233   3.686
 3760SOL    HW212180   0.316   0.355   3.584
 3761SOL     OW12181   5.556   1.082   3.908
 3761SOL    HW112182   5.599   1.111   3.994
 3761SOL    HW212183   5.611   1.009   3.867
 3762SOL     OW12184   1.030   3.887   2.286
 3762SOL    HW112185   1.066   3.950   2.217
 3762SOL    HW212186   1.104   3.826   2.316
 3763SOL     OW12187   6.907   4.272   0.246
 3763SOL    HW112188   6.843   4.240   0.315
 3763SOL    HW212189   6.865   4.263   0.155
 3764SOL     OW12190   1.836   0.473   2.944
 3764SOL    HW112191   1.785   0.466   2.858
 3764SOL    HW212192   1.909   0.541   2.933
 3765SOL     OW12193   6.034   1.674   1.919
 3765SOL    HW112194   5.967   1.714   1.857
 3765SOL    HW212195   6.063   1.742   1.986
 3766SOL     OW12196   1.789   4.072   3.330
 3766SOL    HW112197   1.871   4.017   3.315
 3766SOL    HW212198   1.769   4.077   3.428
 3767SOL     OW12199   2.496   5.146   6.590
 3767SOL    HW112200   2.439   5.185   6.518
 3767SOL    HW212201   2.502   5.209   6.667
 3768SOL     OW12202   1.752   0.032   5.269
 3768SOL    HW112203   1.818   0.100   5.237
 3768SOL    HW212204   1.680   0.078   5.321
 3769SOL     OW12205   4.675   6.138   4.386
 3769SOL    HW112206   4.693   6.045   4.354
 3769SOL    HW212207   4.582   6.143   4.422
 3770SOL     OW12208   0.844   1.212   0.389
 3770SOL    HW112209   0.940   1.193   0.409
 3770SOL    HW212210   0.833   1.229   0.291
 3771SOL     OW12211   0.650   4.621   0.308
 3771SOL    HW112212   0.613   4.532   0.282
 3771SOL    HW212213   0.575   4.686   0.321
 3772SOL     OW12214   1.374   5.892   0.753
 3772SOL    HW112215   1.311   5.968   0.767
 3772SOL    HW212216   1.428   5.908   0.670
 3773SOL     OW12217   5.864   3.289   6.095
 3773SOL    HW112218   5.780   3.276   6.043
 3773SOL    HW212219   5.907   3.376   6.068
 3774SOL     OW12220   5.531   6.207   1.367
 3774SOL    HW112221   5.631   6.209   1.357
 3774SOL    HW212222   5.490   6.174   1.282
 3775SOL     OW12223   4.263   4.885   3.556
 3775SOL    HW112224   4.363   4.884   3.557
 3775SOL    HW212225   4.228   4.803   3.510
 3776SOL     OW12226   3.279   2.610   6.781
 3776SOL    HW112227   3.360   2.644   6.734
 3776SOL    HW212228   3.266   2.662   6.866
 3777SOL     OW12229   2.986   6.075   4.260
 3777SOL    HW112230   2.901   6.095   4.212
 3777SOL    HW212231   3.037   6.160   4.274
 3778SOL     OW12232   3.239   5.478   5.242
 3778SOL    HW112233   3.321   5.479   5.299
 3778SOL    HW212234   3.199   5.386   5.243
 3779SOL     OW12235   6.833   4.973   0.170
 3779SOL    HW112236   6.865   5.063   0.141
 3779SOL    HW212237   6.735   4.977   0.191
 3780SOL     OW12238   6.885   3.523   1.253
 3780SOL    HW112239   6.897   3.620   1.275
 3780SOL    HW212240   6.890   3.469   1.338
 3781SOL     OW12241   2.205   6.302   5.326
 3781SOL    HW112242   2.187   6.269   5.233
 3781SOL    HW212243   2.174   6.396   5.334
 3782SOL     OW12244   5.179   6.083   1.477
 3782SOL    HW112245   5.206   6.078   1.573
 3782SOL    HW212246   5.176   5.991   1.438
 3783SOL     OW12247   5.764   4.982   5.702
 3783SOL    HW112248   5.806   4.954   5.788
 3783SOL    HW212249   5.730   5.076   5.711
 3784SOL     OW12250   5.372   2.384   3.593
 3784SOL    HW112251   5.428   2.448   3.645
 3784SOL    HW212252   5.418   2.360   3.508
 3785SOL     OW12253   1.236   4.142   4.263
 3785SOL    HW112254   1.263   4.235   4.237
 3785SOL    HW212255   1.136   4.135   4.263
 3786SOL     OW12256   2.351   2.739   4.525
 3786SOL    HW112257   2.393   2.719   4.436
 3786SOL    HW212258   2.392   2.679   4.594
 3787SOL     OW12259   4.293   0.202   3.383
 3787SOL    HW112260   4.295   0.168   3.289
 3787SOL    HW212261   4.358   0.277   3.393
 3788SOL     OW12262   0.428   2.810   4.873
 3788SOL    HW112263   0.518   2.797   4.913
 3788SOL    HW212264   0.379   2.881   4.924
 3789SOL     OW12265   1.797   2.782   2.712
 3789SOL    HW112266   1.789   2.873   2.751
 3789SOL    HW212267   1.761   2.715   2.778
 3790SOL     OW12268   0.440   6.709   0.712
 3790SOL    HW112269   0.482   6.755   0.634
 3790SOL    HW212270   0.353   6.668   0.684
 3791SOL     OW12271   5.652   1.136   5.974
 3791SOL    HW112272   5.651   1.209   5.906
 3791SOL    HW212273   5.559   1.101   5.986
 3792SOL     OW12274   0.855   1.006   3.628
 3792SOL    HW112275   0.834   1.103   3.629
 3792SOL    HW212276   0.819   0.962   3.710
 3793SOL     OW12277   6.006   5.970   0.301
 3793SOL    HW112278   6.026   6.066   0.281
 3793SOL    HW212279   6.091   5.922   0.324
 3794SOL     OW12280   2.140   4.026   0.257
 3794SOL    HW112281   2.152   3.927   0.249
 3794SOL    HW212282   2.222   4.073   0.224
 3795SOL     OW12283   2.608   5.594   1.141
 3795SOL    HW112284   2.579   5.578   1.235
 3795SOL    HW212285   2.693   5.646   1.140
 3796SOL     OW12286   3.673   2.405   6.597
 3796SOL    HW112287   3.604   2.333   6.602
 3796SOL    HW212288   3.761   2.365   6.572
 3797SOL     OW12289   0.660   4.675   3.214
 3797SOL    HW112290   0.644   4.579   3.234
 3797SOL    HW212291   0.741   4.685   3.157
 3798SOL     OW12292   2.415   6.438   3.138
 3798SOL    HW112293   2.426   6.354   3.085
 3798SOL    HW212294   2.419   6.416   3.236
 3799SOL     OW12295   6.933   2.392   2.915
 3799SOL    HW112296   6.836   2.373   2.929
 3799SOL    HW212297   6.964   2.350   2.830
 3800SOL     OW12298   5.597   1.755   2.797
 3800SOL    HW112299   5.533   1.829   2.777
 3800SOL    HW212300   5.639   1.771   2.886
 3801SOL     OW12301   5.505   0.179   2.177
 3801SOL    HW112302   5.446   0.171   2.257
 3801SOL    HW212303   5.456   0.229   2.105
 3802SOL     OW12304   6.130   1.634   2.263
 3802SOL    HW112305   6.229   1.644   2.253
 3802SOL    HW212306   6.084   1.713   2.222
 3803SOL     OW12307   2.907   3.605   4.385
 3803SOL    HW112308   2.888   3.595   4.288
 3803SOL    HW212309   2.913   3.702   4.408
 3804SOL     OW12310   3.225   6.708   4.487
 3804SOL    HW112311   3.246   6.762   4.568
 3804SOL    HW212312   3.257   6.756   4.406
 3805SOL     OW12313   2.329   3.006   0.034
 3805SOL    HW112314   2.297   2.914   0.055
 3805SOL    HW212315   2.253   3.060   7.017
 3806SOL     OW12316   3.969   4.320   6.828
 3806SOL    HW112317   3.974   4.296   6.925
 3806SOL    HW212318   4.023   4.402   6.811
 3807SOL     OW12319   1.224   4.558   3.853
 3807SOL    HW112320   1.317   4.586   3.877
 3807SOL    HW212321   1.217   4.547   3.754
 3808SOL     OW12322   4.440   6.774   5.912
 3808SOL    HW112323   4.485   6.754   5.825
 3808SOL    HW212324   4.506   6.816   5.975
 3809SOL     OW12325   4.885   2.275   1.542
 3809SOL    HW112326   4.832   2.271   1.627
 3809SOL    HW212327   4.960   2.210   1.546
 3810SOL     OW12328   6.642   2.160   2.299
 3810SOL    HW112329   6.624   2.074   2.252
 3810SOL    HW212330   6.639   2.235   2.234
 3811SOL     OW12331   6.600   5.073   4.804
 3811SOL    HW112332   6.671   5.111   4.744
 3811SOL    HW212333   6.527   5.140   4.816
 3812SOL     OW12334   3.816   6.413   0.073
 3812SOL    HW112335   3.862   6.339   0.024
 3812SOL    HW212336   3.882   6.465   0.127
 3813SOL     OW12337   6.501   3.598   0.732
 3813SOL    HW112338   6.529   3.570   0.824
 3813SOL    HW212339   6.564   3.561   0.665
 3814SOL     OW12340   6.780   0.338   4.417
 3814SOL    HW112341   6.685   0.327   4.445
 3814SOL    HW212342   6.785   0.346   4.318
 3815SOL     OW12343   4.733   3.486   0.314
 3815SOL    HW112344   4.729   3.390   0.341
 3815SOL    HW212345   4.696   3.497   0.222
 3816SOL     OW12346   1.410   5.969   6.276
 3816SOL    HW112347   1.505   5.987   6.300
 3816SOL    HW212348   1.355   6.051   6.292
 3817SOL     OW12349   5.218   3.426   2.339
 3817SOL    HW112350   5.216   3.346   2.399
 3817SOL    HW212351   5.294   3.485   2.366
 3818SOL     OW12352   0.480   0.891   1.865
 3818SOL    HW112353   0.568   0.862   1.828
 3818SOL    HW212354   0.489   0.909   1.963
 3819SOL     OW12355   6.183   4.942   3.736
 3819SOL    HW112356   6.167   4.947   3.835
 3819SOL    HW212357   6.147   4.856   3.701
 3820SOL     OW12358   5.437   0.029   4.428
 3820SOL    HW112359   5.443   6.972   4.366
 3820SOL    HW212360   5.508   0.022   4.498
 3821SOL     OW12361   0.489   0.083   0.047
 3821SOL    HW112362   0.419   0.047   7.007
 3821SOL    HW212363   0.447   0.111   0.133
 3822SOL     OW12364   3.695   1.300   0.011
 3822SOL    HW112365   3.723   1.277   6.939
 3822SOL    HW212366   3.727   1.391   0.034
 3823SOL     OW12367   5.186   4.577   6.183
 3823SOL    HW112368   5.187   4.601   6.280
 3823SOL    HW212369   5.133   4.493   6.171
 3824SOL     OW12370   1.811   3.220   0.214
 3824SOL    HW112371   1.819   3.161   0.294
 3824SOL    HW212372   1.887   3.202   0.151
 3825SOL     OW12373   1.738   3.717   6.519
 3825SOL    HW112374   1.803   3.762   6.457
 3825SOL    HW212375   1.649   3.709   6.474
 3826SOL     OW12376   5.873   4.386   2.135
 3826SOL    HW112377   5.781   4.348   2.136
 3826SOL    HW212378   5.940   4.312   2.131
 3827SOL     OW12379   1.305   1.016   1.636
 3827SOL    HW112380   1.352   0.997   1.722
 3827SOL    HW212381   1.348   0.965   1.561
 3828SOL     OW12382   3.961   4.035   4.671
 3828SOL    HW112383   4.013   3.955   4.640
 3828SOL    HW212384   3.900   4.066   4.599
 3829SOL     OW12385   0.221   4.419   2.550
 3829SOL    HW112386   0.181   4.472   2.474
 3829SOL    HW212387   0.320   4.427   2.548
 3830SOL     OW12388   0.455   0.890   5.012
 3830SOL    HW112389   0.544   0.933   5.022
 3830SOL    HW212390   0.419   0.907   4.920
 3831SOL     OW12391   4.845   2.096   3.278
 3831SOL    HW112392   4.899   2.057   3.353
 3831SOL    HW212393   4.823   2.025   3.211
 3832SOL     OW12394   0.888   0.485   2.252
 3832SOL    HW112395   0.860   0.414   2.317
 3832SOL    HW212396   0.819   0.557   2.249
 3833SOL     OW12397   1.178   0.047   6.298
 3833SOL    HW112398   1.133   0.134   6.321
 3833SOL    HW212399   1.259   0.036   6.356
 3834SOL     OW12400   4.897   3.748   1.283
 3834SOL    HW112401   4.974   3.687   1.304
 3834SOL    HW212402   4.851   3.716   1.200
 3835SOL     OW12403   3.616   6.049   5.420
 3835SOL    HW112404   3.685   6.033   5.491
 3835SOL    HW212405   3.546   5.978   5.424
 3836SOL     OW12406   0.377   5.087   6.321
 3836SOL    HW112407   0.400   5.006   6.375
 3836SOL    HW212408   0.435   5.090   6.239
 3837SOL     OW12409   3.994   4.860   5.062
 3837SOL    HW112410   3.997   4.918   5.144
 3837SOL    HW212411   3.943   4.907   4.990
 3838SOL     OW12412   2.067   1.223   3.399
 3838SOL    HW112413   2.035   1.289   3.331
 3838SOL    HW212414   2.164   1.236   3.415
 3839SOL     OW12415   4.415   0.444   3.511
 3839SOL    HW112416   4.321   0.456   3.542
 3839SOL    HW212417   4.457   0.534   3.498
 3840SOL     OW12418   2.458   0.741   0.697
 3840SOL    HW112419   2.546   0.694   0.700
 3840SOL    HW212420   2.394   0.697   0.759
 3841SOL     OW12421   6.524   5.024   4.240
 3841SOL    HW112422   6.496   4.960   4.169
 3841SOL    HW212423   6.582   5.096   4.200
 3842SOL     OW12424   2.465   2.707   5.118
 3842SOL    HW112425   2.495   2.692   5.212
 3842SOL    HW212426   2.432   2.801   5.108
 3843SOL     OW12427   5.098   3.161   0.479
 3843SOL    HW112428   5.059   3.206   0.399
 3843SOL    HW212429   5.024   3.126   0.537
 3844SOL     OW12430   1.064   5.107   0.199
 3844SOL    HW112431   1.107   5.038   0.141
 3844SOL    HW212432   0.965   5.107   0.183
 3845SOL     OW12433   2.257   6.152   0.301
 3845SOL    HW112434   2.174   6.176   0.351
 3845SOL    HW212435   2.253   6.191   0.210
 3846SOL     OW12436   0.795   3.266   4.463
 3846SOL    HW112437   0.766   3.321   4.385
 3846SOL    HW212438   0.884   3.299   4.496
 3847SOL     OW12439   5.948   1.292   4.983
 3847SOL    HW112440   6.037   1.259   5.015
 3847SOL    HW212441   5.876   1.255   5.040
 3848SOL     OW12442   4.855   3.128   2.470
 3848SOL    HW112443   4.851   3.097   2.375
 3848SOL    HW212444   4.860   3.228   2.473
 3849SOL     OW12445   0.477   6.113   6.006
 3849SOL    HW112446   0.448   6.141   6.098
 3849SOL    HW212447   0.576   6.120   5.998
 3850SOL     OW12448   2.995   2.279   1.501
 3850SOL    HW112449   2.994   2.279   1.401
 3850SOL    HW212450   3.065   2.342   1.534
 3851SOL     OW12451   0.131   5.607   3.502
 3851SOL    HW112452   0.106   5.647   3.414
 3851SOL    HW212453   0.051   5.566   3.544
 3852SOL     OW12454   2.877   6.880   4.150
 3852SOL    HW112455   2.894   6.817   4.074
 3852SOL    HW212456   2.811   6.950   4.121
 3853SOL     OW12457   2.112   1.504   3.807
 3853SOL    HW112458   2.181   1.493   3.879
 3853SOL    HW212459   2.105   1.420   3.754
 3854SOL     OW12460   1.691   2.630   2.911
 3854SOL    HW112461   1.620   2.604   2.977
 3854SOL    HW212462   1.763   2.682   2.958
 3855SOL     OW12463   4.695   6.471   0.192
 3855SOL    HW112464   4.703   6.569   0.173
 3855SOL    HW212465   4.663   6.458   0.286
 3856SOL     OW12466   6.977   2.053   6.263
 3856SOL    HW112467   0.008   2.006   6.192
 3856SOL    HW212468   6.882   2.021   6.260
 3857SOL     OW12469   2.445   7.013   6.013
 3857SOL    HW112470   2.511   6.939   6.028
 3857SOL    HW212471   2.422   0.033   6.101
 3858SOL     OW12472   3.632   1.630   5.197
 3858SOL    HW112473   3.633   1.727   5.220
 3858SOL    HW212474   3.548   1.609   5.147
 3859SOL     OW12475   5.309   0.433   1.051
 3859SOL    HW112476   5.358   0.406   1.135
 3859SOL    HW212477   5.254   0.514   1.069
 3860SOL     OW12478   1.885   0.889   4.113
 3860SOL    HW112479   1.794   0.849   4.127
 3860SOL    HW212480   1.940   0.827   4.058
 3861SOL     OW12481   4.356   5.402   2.383
 3861SOL    HW112482   4.321   5.311   2.407
 3861SOL    HW212483   4.279   5.464   2.367
 3862SOL     OW12484   0.526   0.431   4.415
 3862SOL    HW112485   0.458   0.483   4.364
 3862SOL    HW212486   0.559   0.354   4.359
 3863SOL     OW12487   4.572   0.607   6.980
 3863SOL    HW112488   4.574   0.706   6.963
 3863SOL    HW212489   4.550   0.559   6.895
 3864SOL     OW12490   2.406   0.532   5.157
 3864SOL    HW112491   2.462   0.485   5.225
 3864SOL    HW212492   2.372   0.618   5.196
 3865SOL     OW12493   4.872   0.968   0.176
 3865SOL    HW112494   4.952   1.014   0.138
 3865SOL    HW212495   4.845   1.013   0.261
 3866SOL     OW12496   3.316   1.760   6.869
 3866SOL    HW112497   3.265   1.686   6.824
 3866SOL    HW212498   3.311   1.748   6.968
 3867SOL     OW12499   1.409   4.691   3.287
 3867SOL    HW112500   1.467   4.769   3.262
 3867SOL    HW212501   1.424   4.668   3.383
 3868SOL     OW12502   3.763   0.584   6.558
 3868SOL    HW112503   3.766   0.501   6.612
 3868SOL    HW212504   3.673   0.595   6.517
 3869SOL     OW12505   6.898   3.849   3.638
 3869SOL    HW112506   6.944   3.935   3.659
 3869SOL    HW212507   6.858   3.811   3.721
 3870SOL     OW12508   6.653   6.972   3.249
 3870SOL    HW112509   6.731   6.923   3.289
 3870SOL    HW212510   6.684   0.037   3.212
 3871SOL     OW12511   3.141   6.360   3.535
 3871SOL    HW112512   3.095   6.422   3.470
 3871SOL    HW212513   3.076   6.335   3.607
 3872SOL     OW12514   3.306   2.920   4.058
 3872SOL    HW112515   3.263   2.987   4.118
 3872SOL    HW212516   3.260   2.832   4.068
 3873SOL     OW12517   5.100   3.965   0.795
 3873SOL    HW112518   5.017   3.912   0.807
 3873SOL    HW212519   5.177   3.917   0.838
 3874SOL     OW12520   4.520   0.258   0.355
 3874SOL    HW112521   4.524   0.280   0.258
 3874SOL    HW212522   4.563   0.331   0.408
 3875SOL     OW12523   1.913   3.049   4.222
 3875SOL    HW112524   2.000   3.045   4.174
 3875SOL    HW212525   1.899   3.141   4.260
 3876SOL     OW12526   3.842   6.049   0.136
 3876SOL    HW112527   3.913   6.114   0.108
 3876SOL    HW212528   3.880   5.985   0.202
 3877SOL     OW12529   6.601   2.279   0.736
 3877SOL    HW112530   6.522   2.327   0.697
 3877SOL    HW212531   6.652   2.341   0.795
 3878SOL     OW12532   4.700   0.138   4.558
 3878SOL    HW112533   4.785   0.181   4.589
 3878SOL    HW212534   4.695   0.045   4.595
 3879SOL     OW12535   5.509   5.121   6.927
 3879SOL    HW112536   5.580   5.067   6.973
 3879SOL    HW212537   5.533   5.218   6.931
 3880SOL     OW12538   5.301   3.705   4.713
 3880SOL    HW112539   5.317   3.627   4.652
 3880SOL    HW212540   5.203   3.727   4.714
 3881SOL     OW12541   1.170   3.336   1.025
 3881SOL    HW112542   1.192   3.420   0.976
 3881SOL    HW212543   1.149   3.356   1.121
 3882SOL     OW12544   1.594   1.004   6.915
 3882SOL    HW112545   1.654   0.973   6.842
 3882SOL    HW212546   1.550   1.090   6.888
 3883SOL     OW12547   4.666   0.583   2.721
 3883SOL    HW112548   4.755   0.628   2.719
 3883SOL    HW212549   4.630   0.577   2.627
 3884SOL     OW12550   0.668   6.009   3.069
 3884SOL    HW112551   0.602   5.981   3.139
 3884SOL    HW212552   0.743   5.943   3.067
 3885SOL     OW12553   5.768   6.423   3.070
 3885SOL    HW112554   5.819   6.446   3.153
 3885SOL    HW212555   5.678   6.468   3.073
 3886SOL     OW12556   4.996   5.567   5.543
 3886SOL    HW112557   4.982   5.646   5.483
 3886SOL    HW212558   4.952   5.584   5.632
 3887SOL     OW12559   0.988   6.532   0.421
 3887SOL    HW112560   1.083   6.542   0.391
 3887SOL    HW212561   0.926   6.563   0.349
 3888SOL     OW12562   6.141   6.122   4.776
 3888SOL    HW112563   6.080   6.091   4.849
 3888SOL    HW212564   6.159   6.046   4.713
 3889SOL     OW12565   6.241   2.751   6.828
 3889SOL    HW112566   6.199   2.789   6.910
 3889SOL    HW212567   6.170   2.727   6.762
 3890SOL     OW12568   5.557   4.398   4.303
 3890SOL    HW112569   5.467   4.441   4.298
 3890SOL    HW212570   5.549   4.310   4.351
 3891SOL     OW12571   5.047   3.790   3.387
 3891SOL    HW112572   4.957   3.831   3.399
 3891SOL    HW212573   5.037   3.693   3.364
 3892SOL     OW12574   0.279   2.970   1.310
 3892SOL    HW112575   0.295   2.891   1.370
 3892SOL    HW212576   0.345   3.042   1.331
 3893SOL     OW12577   4.244   3.681   1.286
 3893SOL    HW112578   4.212   3.775   1.299
 3893SOL    HW212579   4.247   3.634   1.374
 3894SOL     OW12580   5.329   0.719   6.783
 3894SOL    HW112581   5.412   0.665   6.793
 3894SOL    HW212582   5.352   0.814   6.762
 3895SOL     OW12583   1.986   0.170   5.090
 3895SOL    HW112584   2.073   0.177   5.138
 3895SOL    HW212585   1.940   0.259   5.092
 3896SOL     OW12586   0.359   1.081   6.399
 3896SOL    HW112587   0.353   0.987   6.367
 3896SOL    HW212588   0.268   1.120   6.406
 3897SOL     OW12589   4.109   5.573   2.407
 3897SOL    HW112590   4.096   5.664   2.367
 3897SOL    HW212591   4.043   5.509   2.367
 3898SOL     OW12592   3.550   2.618   0.039
 3898SOL    HW112593   3.535   2.591   0.134
 3898SOL    HW212594   3.466   2.655   0.001
 3899SOL     OW12595   4.635   6.594   6.215
 3899SOL    HW112596   4.539   6.620   6.209
 3899SOL    HW212597   4.692   6.677   6.215
 3900SOL     OW12598   5.378   2.946   4.083
 3900SOL    HW112599   5.354   2.910   3.993
 3900SOL    HW212600   5.463   2.998   4.077
 3901SOL     OW12601   3.290   1.062   6.459
 3901SOL    HW112602   3.321   0.967   6.451
 3901SOL    HW212603   3.246   1.076   6.548
 3902SOL     OW12604   5.987   3.131   1.885
 3902SOL    HW112605   6.047   3.174   1.953
 3902SOL    HW212606   6.029   3.137   1.794
 3903SOL     OW12607   3.749   6.555   0.337
 3903SOL    HW112608   3.738   6.463   0.299
 3903SOL    HW212609   3.846   6.574   0.351
 3904SOL     OW12610   1.666   0.506   6.842
 3904SOL    HW112611   1.574   0.466   6.837
 3904SOL    HW212612   1.733   0.432   6.846
 3905SOL     OW12613   7.001   6.637   5.775
 3905SOL    HW112614   6.966   6.560   5.829
 3905SOL    HW212615   6.941   6.653   5.696
 3906SOL     OW12616   5.672   6.722   5.828
 3906SOL    HW112617   5.711   6.809   5.798
 3906SOL    HW212618   5.742   6.650   5.820
 3907SOL     OW12619   6.002   1.023   3.966
 3907SOL    HW112620   5.960   1.002   4.054
 3907SOL    HW212621   6.041   1.116   3.969
 3908SOL     OW12622   0.852   2.595   6.894
 3908SOL    HW112623   0.880   2.681   6.934
 3908SOL    HW212624   0.921   2.564   6.828
 3909SOL     OW12625   5.752   5.899   4.449
 3909SOL    HW112626   5.758   5.929   4.545
 3909SOL    HW212627   5.783   5.973   4.389
 3910SOL     OW12628   3.513   4.016   2.657
 3910SOL    HW112629   3.559   4.027   2.745
 3910SOL    HW212630   3.460   3.931   2.656
 3911SOL     OW12631   5.814   1.411   5.229
 3911SOL    HW112632   5.754   1.367   5.162
 3911SOL    HW212633   5.771   1.495   5.261
 3912SOL     OW12634   5.609   0.648   4.567
 3912SOL    HW112635   5.598   0.740   4.530
 3912SOL    HW212636   5.650   0.589   4.497
 3913SOL     OW12637   2.413   6.804   6.306
 3913SOL    HW112638   2.456   6.845   6.387
 3913SOL    HW212639   2.321   6.842   6.295
 3914SOL     OW12640   2.798   0.981   1.505
 3914SOL    HW112641   2.874   0.970   1.569
 3914SOL    HW212642   2.734   0.906   1.517
 3915SOL     OW12643   5.383   6.208   1.125
 3915SOL    HW112644   5.339   6.124   1.092
 3915SOL    HW212645   5.319   6.259   1.182
 3916SOL     OW12646   1.022   6.960   3.718
 3916SOL    HW112647   1.023   6.937   3.620
 3916SOL    HW212648   0.984   6.883   3.769
 3917SOL     OW12649   0.108   6.179   6.574
 3917SOL    HW112650   0.023   6.231   6.568
 3917SOL    HW212651   0.185   6.242   6.582
 3918SOL     OW12652   5.767   5.921   1.234
 3918SOL    HW112653   5.740   5.885   1.145
 3918SOL    HW212654   5.699   5.895   1.303
 3919SOL     OW12655   4.707   6.733   0.090
 3919SOL    HW112656   4.714   6.774   7.021
 3919SOL    HW212657   4.720   6.803   0.160
 3920SOL     OW12658   2.697   3.625   0.616
 3920SOL    HW112659   2.700   3.720   0.586
 3920SOL    HW212660   2.786   3.583   0.601
 3921SOL     OW12661   0.114   3.264   1.051
 3921SOL    HW112662   0.181   3.220   0.990
 3921SOL    HW212663   0.077   3.345   1.006
 3922SOL     OW12664   0.157   3.966   1.862
 3922SOL    HW112665   0.241   4.002   1.820
 3922SOL    HW212666   0.131   3.881   1.816
 3923SOL     OW12667   6.852   1.046   0.075
 3923SOL    HW112668   6.864   1.144   0.056
 3923SOL    HW212669   6.813   1.035   0.166
 3924SOL     OW12670   5.264   5.352   3.783
 3924SOL    HW112671   5.277   5.259   3.748
 3924SOL    HW212672   5.343   5.378   3.839
 3925SOL     OW12673   1.828   5.171   1.265
 3925SOL    HW112674   1.798   5.128   1.180
 3925SOL    HW212675   1.763   5.151   1.338
 3926SOL     OW12676   5.337   4.477   2.134
 3926SOL    HW112677   5.344   4.400   2.070
 3926SOL    HW212678   5.334   4.443   2.228
 3927SOL     OW12679   6.719   2.861   5.043
 3927SOL    HW112680   6.816   2.842   5.056
 3927SOL    HW212681   6.665   2.785   5.078
 3928SOL     OW12682   3.844   5.913   6.582
 3928SOL    HW112683   3.837   5.847   6.507
 3928SOL    HW212684   3.905   5.988   6.554
 3929SOL     OW12685   0.230   0.684   4.625
 3929SOL    HW112686   0.225   0.776   4.586
 3929SOL    HW212687   0.301   0.682   4.695
 3930SOL     OW12688   2.947   2.286   4.292
 3930SOL    HW112689   2.860   2.335   4.284
 3930SOL    HW212690   2.941   2.219   4.366
 3931SOL     OW12691   1.474   1.682   1.541
 3931SOL    HW112692   1.511   1.710   1.630
 3931SOL    HW212693   1.518   1.597   1.512
 3932SOL     OW12694   1.396   4.637   3.539
 3932SOL    HW112695   1.485   4.596   3.520
 3932SOL    HW212696   1.327   4.565   3.546
 3933SOL     OW12697   1.653   6.578   6.793
 3933SOL    HW112698   1.623   6.522   6.716
 3933SOL    HW212699   1.693   6.520   6.864
 3934SOL     OW12700   6.794   0.671   6.919
 3934SOL    HW112701   6.891   0.648   6.906
 3934SOL    HW212702   6.738   0.601   6.874
 3935SOL     OW12703   3.490   6.596   7.012
 3935SOL    HW112704   3.492   6.496   7.008
 3935SOL    HW212705   3.419   6.631   6.952
 3936SOL     OW12706   6.531   4.892   5.567
 3936SOL    HW112707   6.559   4.827   5.638
 3936SOL    HW212708   6.556   4.855   5.477
 3937SOL     OW12709   0.501   1.435   2.971
 3937SOL    HW112710   0.587   1.461   3.014
 3937SOL    HW212711   0.433   1.415   3.042
 3938SOL     OW12712   0.338   2.274   3.049
 3938SOL    HW112713   0.434   2.299   3.051
 3938SOL    HW212714   0.329   2.176   3.034
 3939SOL     OW12715   1.881   3.078   3.436
 3939SOL    HW112716   1.808   3.059   3.370
 3939SOL    HW212717   1.848   3.062   3.528
 3940SOL     OW12718   4.795   4.597   1.153
 3940SOL    HW112719   4.732   4.519   1.154
 3940SOL    HW212720   4.813   4.626   1.247
 3941SOL     OW12721   5.533   3.374   5.301
 3941SOL    HW112722   5.527   3.274   5.304
 3941SOL    HW212723   5.620   3.401   5.260
 3942SOL     OW12724   0.417   6.749   6.713
 3942SOL    HW112725   0.360   6.830   6.697
 3942SOL    HW212726   0.455   6.718   6.625
 3943SOL     OW12727   0.027   2.741   3.544
 3943SOL    HW112728   0.121   2.711   3.555
 3943SOL    HW212729   6.990   2.663   3.522
 3944SOL     OW12730   4.792   2.781   4.810
 3944SOL    HW112731   4.781   2.857   4.745
 3944SOL    HW212732   4.792   2.695   4.759
 3945SOL     OW12733   0.228   1.937   0.143
 3945SOL    HW112734   0.267   2.023   0.177
 3945SOL    HW212735   0.142   1.957   0.095
 3946SOL     OW12736   5.283   4.361   4.571
 3946SOL    HW112737   5.252   4.266   4.578
 3946SOL    HW212738   5.358   4.376   4.634
 3947SOL     OW12739   5.429   6.094   6.974
 3947SOL    HW112740   5.495   6.144   6.918
 3947SOL    HW212741   5.387   6.157   0.018
 3948SOL     OW12742   0.093   4.828   2.813
 3948SOL    HW112743   0.007   4.879   2.812
 3948SOL    HW212744   0.170   4.892   2.807
 3949SOL     OW12745   5.114   6.572   3.569
 3949SOL    HW112746   5.067   6.517   3.501
 3949SOL    HW212747   5.050   6.638   3.609
 3950SOL     OW12748   2.102   4.546   0.593
 3950SOL    HW112749   2.065   4.631   0.630
 3950SOL    HW212750   2.077   4.470   0.653
 3951SOL     OW12751   4.597   0.614   1.349
 3951SOL    HW112752   4.620   0.525   1.310
 3951SOL    HW212753   4.498   0.627   1.347
 3952SOL     OW12754   6.756   2.383   2.156
 3952SOL    HW112755   6.829   2.450   2.166
 3952SOL    HW212756   6.796   2.292   2.144
 3953SOL     OW12757   4.073   4.480   1.341
 3953SOL    HW112758   4.082   4.385   1.372
 3953SOL    HW212759   4.053   4.482   1.244
 3954SOL     OW12760   4.298   5.078   5.383
 3954SOL    HW112761   4.301   4.978   5.379
 3954SOL    HW212762   4.251   5.107   5.467
 3955SOL     OW12763   3.172   0.357   6.104
 3955SOL    HW112764   3.265   0.321   6.111
 3955SOL    HW212765   3.118   0.322   6.181
 3956SOL     OW12766   1.494   0.888   2.405
 3956SOL    HW112767   1.552   0.969   2.390
 3956SOL    HW212768   1.508   0.855   2.498
 3957SOL     OW12769   4.444   6.838   4.159
 3957SOL    HW112770   4.367   6.814   4.218
 3957SOL    HW212771   4.515   6.882   4.215
 3958SOL     OW12772   5.384   1.386   4.173
 3958SOL    HW112773   5.364   1.458   4.240
 3958SOL    HW212774   5.334   1.404   4.089
 3959SOL     OW12775   4.958   6.084   0.269
 3959SOL    HW112776   4.990   6.080   0.363
 3959SOL    HW212777   4.862   6.055   0.265
 3960SOL     OW12778   5.083   0.839   6.474
 3960SOL    HW112779   5.030   0.923   6.484
 3960SOL    HW212780   5.051   0.770   6.539
 3961SOL     OW12781   5.058   1.118   2.394
 3961SOL    HW112782   5.009   1.092   2.476
 3961SOL    HW212783   4.995   1.122   2.316
 3962SOL     OW12784   2.319   5.259   6.391
 3962SOL    HW112785   2.356   5.336   6.340
 3962SOL    HW212786   2.227   5.237   6.358
 3963SOL     OW12787   4.623   5.478   2.336
 3963SOL    HW112788   4.692   5.407   2.349
 3963SOL    HW212789   4.536   5.448   2.376
 3964SOL     OW12790   4.517   4.805   3.608
 3964SOL    HW112791   4.521   4.870   3.683
 3964SOL    HW212792   4.474   4.720   3.640
 3965SOL     OW12793   4.943   3.205   4.464
 3965SOL    HW112794   4.959   3.295   4.504
 3965SOL    HW212795   5.024   3.148   4.476
 3966SOL     OW12796   3.978   6.177   6.290
 3966SOL    HW112797   3.881   6.150   6.284
 3966SOL    HW212798   4.014   6.153   6.380
 3967SOL     OW12799   2.081   3.969   1.959
 3967SOL    HW112800   2.006   4.036   1.956
 3967SOL    HW212801   2.042   3.878   1.975
 3968SOL     OW12802   4.335   0.846   0.789
 3968SOL    HW112803   4.298   0.764   0.834
 3968SOL    HW212804   4.386   0.819   0.707
 3969SOL     OW12805   1.392   5.180   2.479
 3969SOL    HW112806   1.402   5.090   2.521
 3969SOL    HW212807   1.461   5.192   2.408
 3970SOL     OW12808   4.863   5.985   3.205
 3970SOL    HW112809   4.857   5.892   3.242
 3970SOL    HW212810   4.790   6.041   3.245
 3971SOL     OW12811   2.954   5.253   4.214
 3971SOL    HW112812   3.003   5.331   4.254
 3971SOL    HW212813   2.906   5.204   4.286
 3972SOL     OW12814   1.534   3.867   0.179
 3972SOL    HW112815   1.541   3.925   0.260
 3972SOL    HW212816   1.585   3.783   0.193
 3973SOL     OW12817   1.324   5.745   7.021
 3973SOL    HW112818   1.404   5.802   7.002
 3973SOL    HW212819   1.342   5.689   0.080
 3974SOL     OW12820   2.058   6.818   5.794
 3974SOL    HW112821   2.141   6.801   5.847
 3974SOL    HW212822   1.982   6.767   5.834
 3975SOL     OW12823   5.057   1.521   6.213
 3975SOL    HW112824   5.115   1.446   6.247
 3975SOL    HW212825   5.100   1.563   6.134
 3976SOL     OW12826   1.646   6.098   3.086
 3976SOL    HW112827   1.688   6.157   3.017
 3976SOL    HW212828   1.696   6.011   3.090
 3977SOL     OW12829   1.707   2.694   6.245
 3977SOL    HW112830   1.644   2.755   6.292
 3977SOL    HW212831   1.783   2.747   6.206
 3978SOL     OW12832   5.379   5.329   3.368
 3978SOL    HW112833   5.466   5.298   3.405
 3978SOL    HW212834   5.395   5.398   3.297
 3979SOL     OW12835   3.912   0.832   6.555
 3979SOL    HW112836   3.829   0.776   6.546
 3979SOL    HW212837   3.993   0.773   6.552
 3980SOL     OW12838   5.754   6.976   6.645
 3980SOL    HW112839   5.696   6.966   6.726
 3980SOL    HW212840   5.702   7.020   6.572
 3981SOL     OW12841   4.033   6.396   0.505
 3981SOL    HW112842   4.022   6.476   0.564
 3981SOL    HW212843   4.019   6.313   0.559
 3982SOL     OW12844   2.194   6.243   3.454
 3982SOL    HW112845   2.115   6.240   3.515
 3982SOL    HW212846   2.176   6.188   3.373
 3983SOL     OW12847   4.792   5.104   3.845
 3983SOL    HW112848   4.829   5.051   3.922
 3983SOL    HW212849   4.855   5.096   3.767
 3984SOL     OW12850   6.823   0.964   1.705
 3984SOL    HW112851   6.744   0.976   1.765
 3984SOL    HW212852   6.874   1.051   1.699
 3985SOL     OW12853   2.849   5.091   6.834
 3985SOL    HW112854   2.783   5.059   6.766
 3985SOL    HW212855   2.803   5.154   6.898
 3986SOL     OW12856   5.130   1.550   2.476
 3986SOL    HW112857   5.179   1.607   2.543
 3986SOL    HW212858   5.032   1.559   2.491
 3987SOL     OW12859   3.506   4.885   4.001
 3987SOL    HW112860   3.581   4.928   4.052
 3987SOL    HW212861   3.527   4.888   3.904
 3988SOL     OW12862   3.611   5.183   0.012
 3988SOL    HW112863   3.511   5.185   0.023
 3988SOL    HW212864   3.648   5.102   0.059
 3989SOL     OW12865   6.804   2.233   6.700
 3989SOL    HW112866   6.899   2.203   6.708
 3989SOL    HW212867   6.801   2.325   6.661
 3990SOL     OW12868   4.584   2.561   2.400
 3990SOL    HW112869   4.575   2.502   2.320
 3990SOL    HW212870   4.668   2.615   2.393
 3991SOL     OW12871   7.017   1.490   1.658
 3991SOL    HW112872   6.992   1.498   1.562
 3991SOL    HW212873   6.942   1.525   1.715
 3992SOL     OW12874   3.459   1.366   0.485
 3992SOL    HW112875   3.429   1.349   0.579
 3992SOL    HW212876   3.558   1.363   0.481
 3993SOL     OW12877   1.423   3.056   2.357
 3993SOL    HW112878   1.363   3.013   2.425
 3993SOL    HW212879   1.518   3.040   2.382
 3994SOL     OW12880   3.040   6.971   6.066
 3994SOL    HW112881   3.122   6.915   6.062
 3994SOL    HW212882   3.062   0.042   6.036
 3995SOL     OW12883   2.416   3.980   6.346
 3995SOL    HW112884   2.491   3.958   6.283
 3995SOL    HW212885   2.363   4.056   6.310
 3996SOL     OW12886   0.267   6.742   4.950
 3996SOL    HW112887   0.210   6.661   4.961
 3996SOL    HW212888   0.324   6.755   5.031
 3997SOL     OW12889   5.875   2.086   3.380
 3997SOL    HW112890   5.860   2.151   3.305
 3997SOL    HW212891   5.963   2.041   3.367
 3998SOL     OW12892   3.570   1.425   4.152
 3998SOL    HW112893   3.585   1.331   4.180
 3998SOL    HW212894   3.522   1.474   4.225
 3999SOL     OW12895   6.082   1.867   3.930
 3999SOL    HW112896   6.024   1.811   3.871
 3999SOL    HW212897   6.167   1.818   3.948
 4000SOL     OW12898   2.909   6.709   3.935
 4000SOL    HW112899   2.889   6.613   3.916
 4000SOL    HW212900   2.943   6.753   3.851
 4001SOL     OW12901   2.638   1.901   4.099
 4001SOL    HW112902   2.583   1.965   4.152
 4001SOL    HW212903   2.577   1.840   4.047
 4002SOL     OW12904   3.515   3.667   1.575
 4002SOL    HW112905   3.431   3.695   1.528
 4002SOL    HW212906   3.563   3.748   1.608
 4003SOL     OW12907   3.144   0.379   3.897
 4003SOL    HW112908   3.098   0.342   3.816
 4003SOL    HW212909   3.141   0.312   3.971
 4004SOL     OW12910   6.061   2.071   4.622
 4004SOL    HW112911   6.056   2.121   4.536
 4004SOL    HW212912   6.093   2.132   4.694
 4005SOL     OW12913   4.946   5.065   6.024
 4005SOL    HW112914   4.936   5.046   5.926
 4005SOL    HW212915   4.988   4.986   6.069
 4006SOL     OW12916   4.025   4.932   1.637
 4006SOL    HW112917   3.955   4.868   1.669
 4006SOL    HW212918   3.983   5.021   1.622
 4007SOL     OW12919   0.219   2.915   0.023
 4007SOL    HW112920   0.262   2.998   7.007
 4007SOL    HW212921   0.202   2.928   0.121
 4008SOL     OW12922   2.529   2.290   4.841
 4008SOL    HW112923   2.628   2.302   4.835
 4008SOL    HW212924   2.488   2.370   4.886
 4009SOL     OW12925   4.329   3.096   1.563
 4009SOL    HW112926   4.321   3.001   1.530
 4009SOL    HW212927   4.247   3.119   1.615
 4010SOL     OW12928   2.617   2.805   1.543
 4010SOL    HW112929   2.634   2.712   1.510
 4010SOL    HW212930   2.537   2.805   1.602
 4011SOL     OW12931   0.975   1.830   2.087
 4011SOL    HW112932   1.054   1.892   2.091
 4011SOL    HW212933   0.913   1.859   2.015
 4012SOL     OW12934   6.624   4.201   2.423
 4012SOL    HW112935   6.597   4.204   2.519
 4012SOL    HW212936   6.713   4.155   2.415
 4013SOL     OW12937   3.689   2.137   4.713
 4013SOL    HW112938   3.737   2.136   4.625
 4013SOL    HW212939   3.635   2.054   4.723
 4014SOL     OW12940   6.156   6.657   2.305
 4014SOL    HW112941   6.196   6.748   2.319
 4014SOL    HW212942   6.144   6.641   2.207
 4015SOL     OW12943   4.991   4.386   6.242
 4015SOL    HW112944   4.944   4.336   6.169
 4015SOL    HW212945   5.069   4.334   6.274
 4016SOL     OW12946   2.615   5.919   6.229
 4016SOL    HW112947   2.546   5.950   6.295
 4016SOL    HW212948   2.701   5.904   6.277
 4017SOL     OW12949   6.638   5.622   0.181
 4017SOL    HW112950   6.632   5.661   0.089
 4017SOL    HW212951   6.698   5.679   0.237
 4018SOL     OW12952   4.752   6.413   2.368
 4018SOL    HW112953   4.778   6.463   2.450
 4018SOL    HW212954   4.653   6.421   2.354
 4019SOL     OW12955   4.959   4.385   2.837
 4019SOL    HW112956   4.868   4.344   2.834
 4019SOL    HW212957   5.021   4.332   2.780
 4020SOL     OW12958   4.663   2.521   5.282
 4020SOL    HW112959   4.606   2.447   5.248
 4020SOL    HW212960   4.635   2.608   5.241
 4021SOL     OW12961   3.674   5.166   6.703
 4021SOL    HW112962   3.689   5.115   6.787
 4021SOL    HW212963   3.719   5.120   6.626
 4022SOL     OW12964   4.665   1.923   0.332
 4022SOL    HW112965   4.604   1.923   0.411
 4022SOL    HW212966   4.676   2.017   0.299
 4023SOL     OW12967   6.574   2.373   4.868
 4023SOL    HW112968   6.620   2.395   4.954
 4023SOL    HW212969   6.641   2.347   4.799
 4024SOL     OW12970   3.790   5.609   4.513
 4024SOL    HW112971   3.699   5.593   4.552
 4024SOL    HW212972   3.784   5.616   4.414
 4025SOL     OW12973   0.586   3.781   3.545
 4025SOL    HW112974   0.628   3.847   3.483
 4025SOL    HW212975   0.581   3.692   3.499
 4026SOL     OW12976   4.869   6.855   4.159
 4026SOL    HW112977   4.838   6.764   4.187
 4026SOL    HW212978   4.964   6.849   4.128
 4027SOL     OW12979   3.686   4.436   1.593
 4027SOL    HW112980   3.689   4.359   1.657
 4027SOL    HW212981   3.628   4.413   1.516
 4028SOL     OW12982   1.783   1.978   3.725
 4028SOL    HW112983   1.771   1.879   3.722
 4028SOL    HW212984   1.855   2.001   3.791
 4029SOL     OW12985   2.034   4.398   5.536
 4029SOL    HW112986   2.078   4.433   5.619
 4029SOL    HW212987   2.103   4.378   5.467
 4030SOL     OW12988   0.585   1.983   5.220
 4030SOL    HW112989   0.573   1.884   5.213
 4030SOL    HW212990   0.503   2.024   5.258
 4031SOL     OW12991   4.072   5.817   4.242
 4031SOL    HW112992   4.095   5.760   4.321
 4031SOL    HW212993   4.134   5.895   4.238
 4032SOL     OW12994   5.247   6.797   3.705
 4032SOL    HW112995   5.250   6.762   3.799
 4032SOL    HW212996   5.214   6.725   3.644
 4033SOL     OW12997   3.039   3.344   4.299
 4033SOL    HW112998   3.000   3.364   4.209
 4033SOL    HW212999   2.995   3.400   4.368
 4034SOL     OW13000   6.846   1.647   3.644
 4034SOL    HW113001   6.756   1.638   3.686
 4034SOL    HW213002   6.847   1.728   3.584
 4035SOL     OW13003   0.906   4.018   6.867
 4035SOL    HW113004   0.874   4.063   6.951
 4035SOL    HW213005   0.829   3.972   6.823
 4036SOL     OW13006   6.250   6.673   2.814
 4036SOL    HW113007   6.158   6.675   2.774
 4036SOL    HW213008   6.246   6.627   2.903
 4037SOL     OW13009   0.886   3.179   6.883
 4037SOL    HW113010   0.834   3.139   6.959
 4037SOL    HW213011   0.975   3.136   6.877
 4038SOL     OW13012   5.043   4.845   2.824
 4038SOL    HW113013   4.959   4.791   2.831
 4038SOL    HW213014   5.089   4.824   2.738
 4039SOL     OW13015   5.339   6.311   0.099
 4039SOL    HW113016   5.342   6.403   0.061
 4039SOL    HW213017   5.287   6.312   0.184
 4040SOL     OW13018   3.295   6.632   1.159
 4040SOL    HW113019   3.252   6.546   1.186
 4040SOL    HW213020   3.379   6.646   1.213
 4041SOL     OW13021   1.293   6.426   3.828
 4041SOL    HW113022   1.267   6.502   3.769
 4041SOL    HW213023   1.255   6.341   3.791
 4042SOL     OW13024   5.771   5.413   1.758
 4042SOL    HW113025   5.831   5.493   1.765
 4042SOL    HW213026   5.776   5.375   1.665
 4043SOL     OW13027   5.869   2.227   1.628
 4043SOL    HW113028   5.899   2.268   1.542
 4043SOL    HW213029   5.783   2.270   1.657
 4044SOL     OW13030   5.871   6.810   3.334
 4044SOL    HW113031   5.899   6.883   3.396
 4044SOL    HW213032   5.822   6.850   3.256
 4045SOL     OW13033   1.861   5.965   6.816
 4045SOL    HW113034   1.777   5.936   6.864
 4045SOL    HW213035   1.838   6.035   6.748
 4046SOL     OW13036   0.861   2.883   1.801
 4046SOL    HW113037   0.868   2.956   1.869
 4046SOL    HW213038   0.942   2.825   1.805
 4047SOL     OW13039   2.687   3.685   1.743
 4047SOL    HW113040   2.600   3.735   1.744
 4047SOL    HW213041   2.727   3.690   1.652
 4048SOL     OW13042   4.783   0.518   1.053
 4048SOL    HW113043   4.715   0.446   1.065
 4048SOL    HW213044   4.737   0.607   1.048
 4049SOL     OW13045   5.230   6.680   4.905
 4049SOL    HW113046   5.231   6.773   4.943
 4049SOL    HW213047   5.261   6.616   4.975
 4050SOL     OW13048   2.030   7.006   0.871
 4050SOL    HW113049   1.986   6.943   0.807
 4050SOL    HW213050   2.119   0.010   0.834
 4051SOL     OW13051   3.444   4.013   1.377
 4051SOL    HW113052   3.408   3.937   1.431
 4051SOL    HW213053   3.369   4.076   1.354
 4052SOL     OW13054   0.537   0.903   0.296
 4052SOL    HW113055   0.599   0.888   0.219
 4052SOL    HW213056   0.577   0.969   0.359
 4053SOL     OW13057   3.911   4.939   3.751
 4053SOL    HW113058   3.967   5.020   3.732
 4053SOL    HW213059   3.834   4.965   3.810
 4054SOL     OW13060   3.829   2.579   1.088
 4054SOL    HW113061   3.846   2.669   1.048
 4054SOL    HW213062   3.836   2.509   1.016
 4055SOL     OW13063   4.075   1.605   5.823
 4055SOL    HW113064   4.004   1.650   5.878
 4055SOL    HW213065   4.128   1.675   5.775
 4056SOL     OW13066   3.452   3.633   0.270
 4056SOL    HW113067   3.419   3.702   0.206
 4056SOL    HW213068   3.491   3.678   0.350
 4057SOL     OW13069   4.820   2.823   6.704
 4057SOL    HW113070   4.831   2.724   6.693
 4057SOL    HW213071   4.802   2.865   6.615
 4058SOL     OW13072   2.094   0.836   5.713
 4058SOL    HW113073   2.107   0.926   5.755
 4058SOL    HW213074   2.182   0.790   5.706
 4059SOL     OW13075   0.861   1.612   5.031
 4059SOL    HW113076   0.958   1.592   5.046
 4059SOL    HW213077   0.824   1.548   4.963
 4060SOL     OW13078   4.072   5.066   4.453
 4060SOL    HW113079   4.067   5.162   4.426
 4060SOL    HW213080   3.980   5.029   4.464
 4061SOL     OW13081   3.029   3.497   1.990
 4061SOL    HW113082   3.075   3.494   1.901
 4061SOL    HW213083   3.096   3.484   2.063
 4062SOL     OW13084   2.824   0.750   3.357
 4062SOL    HW113085   2.918   0.741   3.391
 4062SOL    HW213086   2.825   0.790   3.265
 4063SOL     OW13087   3.033   5.180   6.486
 4063SOL    HW113088   3.063   5.092   6.523
 4063SOL    HW213089   2.961   5.165   6.418
 4064SOL     OW13090   6.616   1.064   3.460
 4064SOL    HW113091   6.611   1.141   3.524
 4064SOL    HW213092   6.711   1.034   3.452
 4065SOL     OW13093   6.531   6.293   0.508
 4065SOL    HW113094   6.578   6.208   0.484
 4065SOL    HW213095   6.580   6.371   0.468
 4066SOL     OW13096   6.439   4.239   1.597
 4066SOL    HW113097   6.373   4.218   1.669
 4066SOL    HW213098   6.446   4.338   1.587
 4067SOL     OW13099   5.967   1.395   2.063
 4067SOL    HW113100   5.868   1.380   2.054
 4067SOL    HW213101   5.988   1.491   2.042
 4068SOL     OW13102   6.113   0.472   3.504
 4068SOL    HW113103   6.051   0.415   3.558
 4068SOL    HW213104   6.206   0.463   3.539
 4069SOL     OW13105   5.747   5.196   1.109
 4069SOL    HW113106   5.765   5.101   1.134
 4069SOL    HW213107   5.822   5.254   1.142
 4070SOL     OW13108   1.596   3.605   2.769
 4070SOL    HW113109   1.514   3.613   2.825
 4070SOL    HW213110   1.676   3.594   2.827
 4071SOL     OW13111   0.920   7.010   3.997
 4071SOL    HW113112   0.924   0.087   3.984
 4071SOL    HW213113   0.937   6.965   3.909
 4072SOL     OW13114   1.571   6.988   5.029
 4072SOL    HW113115   1.593   6.891   5.038
 4072SOL    HW213116   1.636   0.021   5.082
 4073SOL     OW13117   2.288   6.277   0.064
 4073SOL    HW113118   2.250   6.352   0.010
 4073SOL    HW213119   2.313   6.202   0.003
 4074SOL     OW13120   1.653   3.837   0.681
 4074SOL    HW113121   1.615   3.919   0.723
 4074SOL    HW213122   1.593   3.759   0.700
 4075SOL     OW13123   4.962   1.971   3.485
 4075SOL    HW113124   4.979   1.894   3.424
 4075SOL    HW213125   5.046   1.995   3.534
 4076SOL     OW13126   1.768   3.846   4.376
 4076SOL    HW113127   1.786   3.837   4.278
 4076SOL    HW213128   1.694   3.912   4.390
 4077SOL     OW13129   3.687   1.145   0.591
 4077SOL    HW113130   3.731   1.055   0.582
 4077SOL    HW213131   3.726   1.207   0.522
 4078SOL     OW13132   6.156   4.037   1.545
 4078SOL    HW113133   6.109   4.108   1.598
 4078SOL    HW213134   6.209   3.979   1.607
 4079SOL     OW13135   0.617   0.835   3.788
 4079SOL    HW113136   0.691   0.877   3.840
 4079SOL    HW213137   0.529   0.871   3.820
 4080SOL     OW13138   3.208   3.458   1.729
 4080SOL    HW113139   3.255   3.401   1.662
 4080SOL    HW213140   3.141   3.517   1.683
 4081SOL     OW13141   2.319   2.276   6.017
 4081SOL    HW113142   2.391   2.344   6.002
 4081SOL    HW213143   2.230   2.316   5.995
 4082SOL     OW13144   1.183   2.920   4.389
 4082SOL    HW113145   1.180   2.959   4.297
 4082SOL    HW213146   1.104   2.950   4.442
 4083SOL     OW13147   5.769   5.206   2.796
 4083SOL    HW113148   5.699   5.214   2.725
 4083SOL    HW213149   5.842   5.144   2.765
 4084SOL     OW13150   4.838   0.748   3.582
 4084SOL    HW113151   4.853   0.787   3.491
 4084SOL    HW213152   4.795   0.658   3.572
 4085SOL     OW13153   3.358   5.049   2.796
 4085SOL    HW113154   3.286   5.002   2.745
 4085SOL    HW213155   3.437   4.989   2.806
 4086SOL     OW13156   5.830   5.589   6.292
 4086SOL    HW113157   5.883   5.663   6.251
 4086SOL    HW213158   5.840   5.506   6.236
 4087SOL     OW13159   3.062   6.867   2.641
 4087SOL    HW113160   2.983   6.924   2.616
 4087SOL    HW213161   3.048   6.775   2.606
 4088SOL     OW13162   0.532   1.558   5.653
 4088SOL    HW113163   0.575   1.583   5.566
 4088SOL    HW213164   0.443   1.516   5.635
 4089SOL     OW13165   0.337   0.252   4.021
 4089SOL    HW113166   0.346   0.351   4.009
 4089SOL    HW213167   0.290   0.233   4.107
 4090SOL     OW13168   2.865   1.225   6.277
 4090SOL    HW113169   2.829   1.280   6.202
 4090SOL    HW213170   2.790   1.192   6.334
 4091SOL     OW13171   2.297   5.690   2.337
 4091SOL    HW113172   2.298   5.648   2.428
 4091SOL    HW213173   2.259   5.625   2.272
 4092SOL     OW13174   5.349   3.249   4.034
 4092SOL    HW113175   5.419   3.195   4.082
 4092SOL    HW213176   5.296   3.189   3.974
 4093SOL     OW13177   4.101   5.141   2.821
 4093SOL    HW113178   4.071   5.078   2.750
 4093SOL    HW213179   4.023   5.192   2.855
 4094SOL     OW13180   6.485   5.230   6.538
 4094SOL    HW113181   6.481   5.282   6.624
 4094SOL    HW213182   6.551   5.273   6.477
 4095SOL     OW13183   0.734   4.896   7.008
 4095SOL    HW113184   0.739   4.938   6.918
 4095SOL    HW213185   0.640   4.904   0.021
 4096SOL     OW13186   1.519   1.245   6.801
 4096SOL    HW113187   1.455   1.309   6.758
 4096SOL    HW213188   1.578   1.205   6.731
 4097SOL     OW13189   0.013   4.733   5.257
 4097SOL    HW113190   7.002   4.663   5.194
 4097SOL    HW213191   0.018   4.821   5.210
 4098SOL     OW13192   2.510   4.619   3.290
 4098SOL    HW113193   2.530   4.609   3.387
 4098SOL    HW213194   2.411   4.626   3.277
 4099SOL     OW13195   4.468   4.893   5.712
 4099SOL    HW113196   4.473   4.805   5.665
 4099SOL    HW213197   4.409   4.955   5.662
 4100SOL     OW13198   1.583   6.944   3.968
 4100SOL    HW113199   1.530   6.859   3.966
 4100SOL    HW213200   1.674   6.928   3.931
 4101SOL     OW13201   6.198   6.712   0.368
 4101SOL    HW113202   6.204   6.661   0.454
 4101SOL    HW213203   6.281   6.765   0.354
 4102SOL     OW13204   1.344   0.956   0.238
 4102SOL    HW113205   1.350   0.887   0.310
 4102SOL    HW213206   1.414   1.026   0.254
 4103SOL     OW13207   1.416   6.757   2.866
 4103SOL    HW113208   1.413   6.852   2.835
 4103SOL    HW213209   1.506   6.718   2.847
 4104SOL     OW13210   1.156   5.988   4.444
 4104SOL    HW113211   1.060   6.005   4.421
 4104SOL    HW213212   1.215   6.023   4.371
 4105SOL     OW13213   4.873   1.254   1.220
 4105SOL    HW113214   4.810   1.205   1.160
 4105SOL    HW213215   4.961   1.264   1.174
 4106SOL     OW13216   0.233   2.026   3.283
 4106SOL    HW113217   0.149   2.041   3.232
 4106SOL    HW213218   0.221   2.058   3.377
 4107SOL     OW13219   0.524   6.301   6.530
 4107SOL    HW113220   0.469   6.345   6.601
 4107SOL    HW213221   0.595   6.363   6.499
 4108SOL     OW13222   6.553   5.264   4.037
 4108SOL    HW113223   6.472   5.321   4.028
 4108SOL    HW213224   6.614   5.303   4.106
 4109SOL     OW13225   6.649   6.997   2.883
 4109SOL    HW113226   6.558   7.001   2.925
 4109SOL    HW213227   6.653   6.921   2.818
 4110SOL     OW13228   4.697   3.942   0.573
 4110SOL    HW113229   4.790   3.957   0.541
 4110SOL    HW213230   4.698   3.881   0.652
 4111SOL     OW13231   6.773   3.784   3.869
 4111SOL    HW113232   6.702   3.720   3.899
 4111SOL    HW213233   6.733   3.875   3.858
 4112SOL     OW13234   4.788   6.525   5.253
 4112SOL    HW113235   4.880   6.555   5.228
 4112SOL    HW213236   4.721   6.586   5.212
 4113SOL     OW13237   4.291   4.984   4.854
 4113SOL    HW113238   4.215   5.046   4.835
 4113SOL    HW213239   4.259   4.889   4.848
 4114SOL     OW13240   0.196   1.951   2.382
 4114SOL    HW113241   0.182   1.862   2.339
 4114SOL    HW213242   0.135   2.018   2.340
 4115SOL     OW13243   3.667   5.670   4.129
 4115SOL    HW113244   3.650   5.639   4.036
 4115SOL    HW213245   3.604   5.626   4.192
 4116SOL     OW13246   5.554   2.848   3.641
 4116SOL    HW113247   5.548   2.926   3.703
 4116SOL    HW213248   5.527   2.876   3.549
 4117SOL     OW13249   1.394   2.392   2.918
 4117SOL    HW113250   1.444   2.319   2.871
 4117SOL    HW213251   1.458   2.454   2.962
 4118SOL     OW13252   0.326   5.889   5.896
 4118SOL    HW113253   0.355   5.983   5.912
 4118SOL    HW213254   0.307   5.877   5.798
 4119SOL     OW13255   1.338   1.280   3.710
 4119SOL    HW113256   1.437   1.284   3.697
 4119SOL    HW213257   1.303   1.197   3.667
 4120SOL     OW13258   1.435   1.365   6.454
 4120SOL    HW113259   1.402   1.271   6.464
 4120SOL    HW213260   1.402   1.420   6.531
 4121SOL     OW13261   6.373   6.576   1.598
 4121SOL    HW113262   6.377   6.489   1.647
 4121SOL    HW213263   6.447   6.579   1.530
 4122SOL     OW13264   6.629   4.583   3.144
 4122SOL    HW113265   6.667   4.521   3.076
 4122SOL    HW213266   6.675   4.567   3.232
 4123SOL     OW13267   3.975   5.370   1.809
 4123SOL    HW113268   4.052   5.431   1.828
 4123SOL    HW213269   3.908   5.376   1.883
 4124SOL     OW13270   6.171   5.748   0.133
 4124SOL    HW113271   6.234   5.826   0.137
 4124SOL    HW213272   6.199   5.686   0.060
 4125SOL     OW13273   5.847   1.796   1.757
 4125SOL    HW113274   5.757   1.832   1.781
 4125SOL    HW213275   5.840   1.743   1.672
 4126SOL     OW13276   1.410   3.278   2.059
 4126SOL    HW113277   1.378   3.235   2.144
 4126SOL    HW213278   1.451   3.367   2.081
 4127SOL     OW13279   3.883   1.806   3.815
 4127SOL    HW113280   3.804   1.776   3.868
 4127SOL    HW213281   3.956   1.833   3.877
 4128SOL     OW13282   0.460   2.916   0.382
 4128SOL    HW113283   0.506   2.921   0.471
 4128SOL    HW213284   0.492   2.990   0.324
 4129SOL     OW13285   2.363   2.129   0.817
 4129SOL    HW113286   2.395   2.090   0.904
 4129SOL    HW213287   2.263   2.131   0.817
 4130SOL     OW13288   5.482   2.720   0.786
 4130SOL    HW113289   5.547   2.721   0.861
 4130SOL    HW213290   5.479   2.629   0.745
 4131SOL     OW13291   4.733   0.366   2.903
 4131SOL    HW113292   4.706   0.462   2.897
 4131SOL    HW213293   4.724   0.322   2.814
 4132SOL     OW13294   6.748   4.619   4.126
 4132SOL    HW113295   6.776   4.643   4.219
 4132SOL    HW213296   6.683   4.686   4.092
 4133SOL     OW13297   5.725   6.952   2.627
 4133SOL    HW113298   5.771   6.962   2.716
 4133SOL    HW213299   5.654   6.882   2.634
 4134SOL     OW13300   1.721   3.238   1.284
 4134SOL    HW113301   1.692   3.333   1.298
 4134SOL    HW213302   1.820   3.232   1.301
 4135SOL     OW13303   0.540   1.517   2.695
 4135SOL    HW113304   0.526   1.500   2.793
 4135SOL    HW213305   0.486   1.596   2.667
 4136SOL     OW13306   1.454   4.781   1.965
 4136SOL    HW113307   1.358   4.798   1.986
 4136SOL    HW213308   1.511   4.818   2.038
 4137SOL     OW13309   1.727   2.246   0.251
 4137SOL    HW113310   1.728   2.190   0.334
 4137SOL    HW213311   1.818   2.283   0.235
 4138SOL     OW13312   5.058   6.815   0.764
 4138SOL    HW113313   5.080   6.888   0.828
 4138SOL    HW213314   5.092   6.838   0.673
 4139SOL     OW13315   2.144   3.252   2.891
 4139SOL    HW113316   2.161   3.167   2.841
 4139SOL    HW213317   2.103   3.232   2.979
 4140SOL     OW13318   2.534   2.601   5.628
 4140SOL    HW113319   2.530   2.515   5.680
 4140SOL    HW213320   2.503   2.676   5.685
 4141SOL     OW13321   4.611   6.962   6.336
 4141SOL    HW113322   4.513   6.977   6.342
 4141SOL    HW213323   4.635   6.932   6.244
 4142SOL     OW13324   6.847   4.420   2.902
 4142SOL    HW113325   6.872   4.427   2.806
 4142SOL    HW213326   6.929   4.421   2.959
 4143SOL     OW13327   5.478   3.237   0.105
 4143SOL    HW113328   5.425   3.170   0.157
 4143SOL    HW213329   5.417   3.290   0.046
 4144SOL     OW13330   5.911   1.863   0.617
 4144SOL    HW113331   6.000   1.854   0.662
 4144SOL    HW213332   5.924   1.870   0.518
 4145SOL     OW13333   0.091   6.646   1.593
 4145SOL    HW113334   0.138   6.559   1.581
 4145SOL    HW213335   0.145   6.705   1.653
 4146SOL     OW13336   4.716   6.242   3.496
 4146SOL    HW113337   4.762   6.254   3.408
 4146SOL    HW213338   4.737   6.152   3.533
 4147SOL     OW13339   5.303   4.319   5.733
 4147SOL    HW113340   5.292   4.418   5.739
 4147SOL    HW213341   5.228   4.274   5.781
 4148SOL     OW13342   2.530   1.508   6.032
 4148SOL    HW113343   2.476   1.575   6.084
 4148SOL    HW213344   2.481   1.421   6.030
 4149SOL     OW13345   2.246   2.529   6.838
 4149SOL    HW113346   2.150   2.506   6.828
 4149SOL    HW213347   2.255   2.610   6.896
 4150SOL     OW13348   6.022   2.047   5.712
 4150SOL    HW113349   5.985   2.071   5.622
 4150SOL    HW213350   5.949   2.014   5.770
 4151SOL     OW13351   2.293   6.520   4.046
 4151SOL    HW113352   2.322   6.458   4.119
 4151SOL    HW213353   2.337   6.608   4.056
 4152SOL     OW13354   2.580   5.050   1.343
 4152SOL    HW113355   2.613   5.062   1.249
 4152SOL    HW213356   2.508   4.981   1.344
 4153SOL     OW13357   6.805   5.067   1.546
 4153SOL    HW113358   6.859   4.994   1.588
 4153SOL    HW213359   6.712   5.033   1.527
 4154SOL     OW13360   0.898   6.188   3.720
 4154SOL    HW113361   0.810   6.228   3.746
 4154SOL    HW213362   0.892   6.088   3.726
 4155SOL     OW13363   0.721   1.733   1.235
 4155SOL    HW113364   0.659   1.743   1.157
 4155SOL    HW213365   0.808   1.778   1.214
 4156SOL     OW13366   6.969   5.582   5.278
 4156SOL    HW113367   6.930   5.508   5.332
 4156SOL    HW213368   0.047   5.578   5.281
 4157SOL     OW13369   6.865   6.231   1.821
 4157SOL    HW113370   6.857   6.308   1.758
 4157SOL    HW213371   6.805   6.157   1.792
 4158SOL     OW13372   1.584   2.774   2.319
 4158SOL    HW113373   1.618   2.836   2.390
 4158SOL    HW213374   1.586   2.681   2.354
 4159SOL     OW13375   3.061   1.564   3.494
 4159SOL    HW113376   3.010   1.650   3.494
 4159SOL    HW213377   3.062   1.526   3.586
 4160SOL     OW13378   6.533   6.587   6.528
 4160SOL    HW113379   6.488   6.502   6.502
 4160SOL    HW213380   6.593   6.618   6.454
 4161SOL     OW13381   3.438   2.666   1.438
 4161SOL    HW113382   3.483   2.591   1.389
 4161SOL    HW213383   3.432   2.644   1.535
 4162SOL     OW13384   5.555   5.756   1.963
 4162SOL    HW113385   5.542   5.677   1.903
 4162SOL    HW213386   5.530   5.731   2.056
 4163SOL     OW13387   3.798   6.568   0.889
 4163SOL    HW113388   3.879   6.590   0.835
 4163SOL    HW213389   3.742   6.650   0.900
 4164SOL     OW13390   6.476   0.498   4.690
 4164SOL    HW113391   6.393   0.554   4.694
 4164SOL    HW213392   6.488   0.450   4.777
 4165SOL     OW13393   4.873   1.176   5.124
 4165SOL    HW113394   4.797   1.194   5.061
 4165SOL    HW213395   4.947   1.131   5.074
 4166SOL     OW13396   5.932   0.850   1.688
 4166SOL    HW113397   5.884   0.927   1.646
 4166SOL    HW213398   5.969   0.791   1.615
 4167SOL     OW13399   4.054   5.455   4.983
 4167SOL    HW113400   3.978   5.513   4.955
 4167SOL    HW213401   4.059   5.453   5.083
 4168SOL     OW13402   5.120   4.023   6.496
 4168SOL    HW113403   5.162   4.043   6.408
 4168SOL    HW213404   5.061   3.943   6.488
 4169SOL     OW13405   5.005   3.705   4.788
 4169SOL    HW113406   4.978   3.771   4.858
 4169SOL    HW213407   4.961   3.617   4.807
 4170SOL     OW13408   6.457   3.651   4.587
 4170SOL    HW113409   6.361   3.674   4.576
 4170SOL    HW213410   6.470   3.601   4.672
 4171SOL     OW13411   0.490   3.570   1.168
 4171SOL    HW113412   0.468   3.595   1.073
 4171SOL    HW213413   0.553   3.493   1.168
 4172SOL     OW13414   2.866   4.735   0.602
 4172SOL    HW113415   2.912   4.816   0.568
 4172SOL    HW213416   2.826   4.754   0.692
 4173SOL     OW13417   4.939   3.091   5.212
 4173SOL    HW113418   4.911   3.059   5.302
 4173SOL    HW213419   4.899   3.033   5.142
 4174SOL     OW13420   4.136   0.511   4.876
 4174SOL    HW113421   4.088   0.554   4.952
 4174SOL    HW213422   4.086   0.526   4.791
 4175SOL     OW13423   1.521   4.487   6.579
 4175SOL    HW113424   1.437   4.438   6.557
 4175SOL    HW213425   1.501   4.559   6.646
 4176SOL     OW13426   5.342   6.977   6.505
 4176SOL    HW113427   5.331   0.055   6.507
 4176SOL    HW213428   5.400   6.952   6.427
 4177SOL     OW13429   4.600   4.381   3.149
 4177SOL    HW113430   4.556   4.422   3.229
 4177SOL    HW213431   4.540   4.310   3.111
 4178SOL     OW13432   3.969   5.383   2.299
 4178SOL    HW113433   3.945   5.377   2.202
 4178SOL    HW213434   3.978   5.291   2.337
 4179SOL     OW13435   4.887   3.215   4.836
 4179SOL    HW113436   4.947   3.226   4.915
 4179SOL    HW213437   4.879   3.302   4.787
 4180SOL     OW13438   5.091   3.739   0.313
 4180SOL    HW113439   5.161   3.670   0.294
 4180SOL    HW213440   5.064   3.784   0.228
 4181SOL     OW13441   4.643   0.561   5.660
 4181SOL    HW113442   4.562   0.510   5.632
 4181SOL    HW213443   4.670   0.532   5.752
 4182SOL     OW13444   6.842   6.324   4.030
 4182SOL    HW113445   6.811   6.364   4.116
 4182SOL    HW213446   6.769   6.268   3.991
 4183SOL     OW13447   3.602   1.782   1.947
 4183SOL    HW113448   3.639   1.689   1.947
 4183SOL    HW213449   3.541   1.793   1.868
 4184SOL     OW13450   3.040   5.495   3.396
 4184SOL    HW113451   3.105   5.481   3.321
 4184SOL    HW213452   3.089   5.530   3.475
 4185SOL     OW13453   6.761   3.854   2.631
 4185SOL    HW113454   6.670   3.896   2.622
 4185SOL    HW213455   6.767   3.775   2.571
 4186SOL     OW13456   1.792   6.448   0.389
 4186SOL    HW113457   1.779   6.422   0.485
 4186SOL    HW213458   1.842   6.535   0.384
 4187SOL     OW13459   1.690   3.657   0.205
 4187SOL    HW113460   1.749   3.595   0.256
 4187SOL    HW213461   1.733   3.680   0.118
 4188SOL     OW13462   4.712   0.235   6.618
 4188SOL    HW113463   4.695   0.137   6.610
 4188SOL    HW213464   4.744   0.272   6.531
 4189SOL     OW13465   5.068   5.186   2.882
 4189SOL    HW113466   5.063   5.091   2.852
 4189SOL    HW213467   5.008   5.243   2.825
 4190SOL     OW13468   0.312   6.605   1.146
 4190SOL    HW113469   0.257   6.531   1.184
 4190SOL    HW213470   0.393   6.568   1.101
 4191SOL     OW13471   4.410   4.483   5.823
 4191SOL    HW113472   4.494   4.496   5.875
 4191SOL    HW213473   4.421   4.407   5.759
 4192SOL     OW13474   1.298   2.627   1.659
 4192SOL    HW113475   1.325   2.694   1.728
 4192SOL    HW213476   1.207   2.591   1.682
 4193SOL     OW13477   6.658   0.640   0.760
 4193SOL    HW113478   6.602   0.659   0.841
 4193SOL    HW213479   6.602   0.593   0.692
 4194SOL     OW13480   4.675   0.800   5.135
 4194SOL    HW113481   4.726   0.768   5.215
 4194SOL    HW213482   4.590   0.843   5.165
 4195SOL     OW13483   4.625   5.561   1.779
 4195SOL    HW113484   4.696   5.496   1.751
 4195SOL    HW213485   4.606   5.550   1.876
 4196SOL     OW13486   6.783   2.063   3.040
 4196SOL    HW113487   6.728   2.063   3.124
 4196SOL    HW213488   6.777   2.153   2.997
 4197SOL     OW13489   3.617   6.536   6.424
 4197SOL    HW113490   3.604   6.629   6.391
 4197SOL    HW213491   3.543   6.478   6.392
 4198SOL     OW13492   6.468   0.832   2.130
 4198SOL    HW113493   6.551   0.795   2.088
 4198SOL    HW213494   6.389   0.782   2.098
 4199SOL     OW13495   1.280   4.121   6.012
 4199SOL    HW113496   1.299   4.207   5.965
 4199SOL    HW213497   1.235   4.140   6.099
 4200SOL     OW13498   4.822   0.826   4.434
 4200SOL    HW113499   4.813   0.776   4.348
 4200SOL    HW213500   4.861   0.766   4.504
 4201SOL     OW13501   5.712   6.958   3.179
 4201SOL    HW113502   5.628   6.943   3.232
 4201SOL    HW213503   5.729   0.035   3.171
 4202SOL     OW13504   4.323   5.387   0.399
 4202SOL    HW113505   4.267   5.306   0.387
 4202SOL    HW213506   4.420   5.360   0.400
 4203SOL     OW13507   6.032   5.816   6.827
 4203SOL    HW113508   5.994   5.770   6.907
 4203SOL    HW213509   6.073   5.748   6.766
 4204SOL     OW13510   3.040   3.649   5.763
 4204SOL    HW113511   3.118   3.700   5.728
 4204SOL    HW213512   3.072   3.576   5.823
 4205SOL     OW13513   3.602   5.575   5.203
 4205SOL    HW113514   3.608   5.543   5.108
 4205SOL    HW213515   3.548   5.510   5.257
 4206SOL     OW13516   1.813   2.215   5.144
 4206SOL    HW113517   1.741   2.229   5.075
 4206SOL    HW213518   1.771   2.203   5.234
 4207SOL     OW13519   1.356   2.773   1.889
 4207SOL    HW113520   1.283   2.757   1.955
 4207SOL    HW213521   1.381   2.870   1.889
 4208SOL     OW13522   2.031   3.559   5.125
 4208SOL    HW113523   2.058   3.571   5.220
 4208SOL    HW213524   2.073   3.631   5.069
 4209SOL     OW13525   6.905   6.119   2.566
 4209SOL    HW113526   6.982   6.074   2.612
 4209SOL    HW213527   6.919   6.117   2.467
 4210SOL     OW13528   4.187   3.613   4.749
 4210SOL    HW113529   4.285   3.627   4.763
 4210SOL    HW213530   4.171   3.520   4.718
 4211SOL     OW13531   3.983   2.281   5.231
 4211SOL    HW113532   4.030   2.197   5.258
 4211SOL    HW213533   4.050   2.355   5.223
 4212SOL     OW13534   0.172   1.224   3.109
 4212SOL    HW113535   0.105   1.290   3.078
 4212SOL    HW213536   0.154   1.135   3.067
 4213SOL     OW13537   3.276   0.462   2.983
 4213SOL    HW113538   3.217   0.533   3.022
 4213SOL    HW213539   3.337   0.504   2.915
 4214SOL     OW13540   0.996   4.788   4.354
 4214SOL    HW113541   1.012   4.803   4.257
 4214SOL    HW213542   1.076   4.743   4.394
 4215SOL     OW13543   4.960   5.855   5.157
 4215SOL    HW113544   4.931   5.951   5.152
 4215SOL    HW213545   4.929   5.807   5.076
 4216SOL     OW13546   2.442   6.995   2.632
 4216SOL    HW113547   2.386   6.984   2.714
 4216SOL    HW213548   2.414   0.057   2.584
 4217SOL     OW13549   1.498   0.152   2.097
 4217SOL    HW113550   1.582   0.173   2.148
 4217SOL    HW213551   1.469   0.233   2.046
 4218SOL     OW13552   3.014   1.194   1.846
 4218SOL    HW113553   2.936   1.223   1.790
 4218SOL    HW213554   2.985   1.184   1.941
 4219SOL     OW13555   3.697   6.349   3.857
 4219SOL    HW113556   3.714   6.404   3.939
 4219SOL    HW213557   3.763   6.274   3.853
 4220SOL     OW13558   4.603   2.152   1.539
 4220SOL    HW113559   4.686   2.122   1.586
 4220SOL    HW213560   4.553   2.216   1.597
 4221SOL     OW13561   6.948   5.701   6.157
 4221SOL    HW113562   0.020   5.689   6.188
 4221SOL    HW213563   6.893   5.623   6.187
 4222SOL     OW13564   5.104   2.273   3.625
 4222SOL    HW113565   5.201   2.279   3.650
 4222SOL    HW213566   5.088   2.325   3.541
 4223SOL     OW13567   3.945   4.200   1.685
 4223SOL    HW113568   3.940   4.200   1.585
 4223SOL    HW213569   4.026   4.252   1.714
 4224SOL     OW13570   5.012   3.834   4.345
 4224SOL    HW113571   4.934   3.805   4.290
 4224SOL    HW213572   5.095   3.836   4.289
 4225SOL     OW13573   0.664   2.441   4.902
 4225SOL    HW113574   0.713   2.356   4.921
 4225SOL    HW213575   0.674   2.465   4.805
 4226SOL     OW13576   1.129   5.709   4.713
 4226SOL    HW113577   1.168   5.785   4.765
 4226SOL    HW213578   1.152   5.720   4.616
 4227SOL     OW13579   5.444   5.366   1.607
 4227SOL    HW113580   5.405   5.373   1.699
 4227SOL    HW213581   5.482   5.274   1.595
 4228SOL     OW13582   0.790   6.067   4.529
 4228SOL    HW113583   0.751   6.118   4.607
 4228SOL    HW213584   0.717   6.018   4.482
 4229SOL     OW13585   5.989   4.718   5.976
 4229SOL    HW113586   5.961   4.625   5.953
 4229SOL    HW213587   6.017   4.766   5.893
 4230SOL     OW13588   1.292   0.485   2.394
 4230SOL    HW113589   1.292   0.417   2.467
 4230SOL    HW213590   1.385   0.517   2.378
 4231SOL     OW13591   5.519   1.188   4.748
 4231SOL    HW113592   5.586   1.175   4.676
 4231SOL    HW213593   5.553   1.255   4.814
 4232SOL     OW13594   2.174   5.189   4.158
 4232SOL    HW113595   2.229   5.261   4.200
 4232SOL    HW213596   2.082   5.224   4.139
 4233SOL     OW13597   5.824   6.187   3.820
 4233SOL    HW113598   5.821   6.193   3.920
 4233SOL    HW213599   5.898   6.245   3.786
 4234SOL     OW13600   1.929   5.432   5.753
 4234SOL    HW113601   1.915   5.530   5.737
 4234SOL    HW213602   1.844   5.390   5.783
 4235SOL     OW13603   6.811   4.616   6.196
 4235SOL    HW113604   6.882   4.666   6.245
 4235SOL    HW213605   6.722   4.658   6.213
 4236SOL     OW13606   0.202   5.161   1.907
 4236SOL    HW113607   0.158   5.213   1.980
 4236SOL    HW213608   0.143   5.085   1.881
 4237SOL     OW13609   6.850   4.274   3.721
 4237SOL    HW113610   6.834   4.372   3.713
 4237SOL    HW213611   6.926   4.247   3.663
 4238SOL     OW13612   1.889   1.229   3.053
 4238SOL    HW113613   1.803   1.247   3.102
 4238SOL    HW213614   1.961   1.288   3.090
 4239SOL     OW13615   3.966   1.033   2.833
 4239SOL    HW113616   3.900   0.971   2.875
 4239SOL    HW213617   4.031   1.064   2.903
 4240SOL     OW13618   0.783   5.231   1.051
 4240SOL    HW113619   0.864   5.174   1.046
 4240SOL    HW213620   0.778   5.290   0.970
 4241SOL     OW13621   0.169   1.605   6.936
 4241SOL    HW113622   0.180   1.532   6.869
 4241SOL    HW213623   0.216   1.580   7.021
 4242SOL     OW13624   2.311   2.333   4.511
 4242SOL    HW113625   2.278   2.399   4.578
 4242SOL    HW213626   2.405   2.308   4.533
 4243SOL     OW13627   5.272   0.761   3.106
 4243SOL    HW113628   5.346   0.772   3.040
 4243SOL    HW213629   5.288   0.681   3.163
 4244SOL     OW13630   3.708   3.662   2.526
 4244SOL    HW113631   3.677   3.690   2.435
 4244SOL    HW213632   3.798   3.702   2.544
 4245SOL     OW13633   6.930   2.537   5.324
 4245SOL    HW113634   6.951   2.521   5.421
 4245SOL    HW213635   6.992   2.484   5.267
 4246SOL     OW13636   6.997   3.765   2.746
 4246SOL    HW113637   6.907   3.801   2.721
 4246SOL    HW213638   7.016   3.682   2.694
 4247SOL     OW13639   0.086   6.091   5.244
 4247SOL    HW113640   0.114   6.168   5.301
 4247SOL    HW213641   0.144   6.087   5.162
 4248SOL     OW13642   1.280   2.371   5.569
 4248SOL    HW113643   1.250   2.276   5.562
 4248SOL    HW213644   1.373   2.374   5.605
 4249SOL     OW13645   6.241   3.127   5.773
 4249SOL    HW113646   6.276   3.136   5.680
 4249SOL    HW213647   6.298   3.063   5.824
 4250SOL     OW13648   6.450   4.948   3.604
 4250SOL    HW113649   6.356   4.927   3.629
 4250SOL    HW213650   6.480   4.886   3.532
 4251SOL     OW13651   5.705   4.189   0.483
 4251SOL    HW113652   5.650   4.193   0.566
 4251SOL    HW213653   5.746   4.098   0.474
 4252SOL     OW13654   6.745   5.793   4.841
 4252SOL    HW113655   6.647   5.813   4.833
 4252SOL    HW213656   6.781   5.766   4.752
 4253SOL     OW13657   4.515   0.885   1.629
 4253SOL    HW113658   4.571   0.962   1.661
 4253SOL    HW213659   4.483   0.904   1.536
 4254SOL     OW13660   1.544   3.340   1.492
 4254SOL    HW113661   1.547   3.440   1.491
 4254SOL    HW213662   1.481   3.308   1.423
 4255SOL     OW13663   6.067   2.590   4.325
 4255SOL    HW113664   6.154   2.545   4.346
 4255SOL    HW213665   6.062   2.677   4.374
 4256SOL     OW13666   1.508   6.766   1.424
 4256SOL    HW113667   1.469   6.674   1.429
 4256SOL    HW213668   1.595   6.762   1.374
 4257SOL     OW13669   3.659   1.912   5.222
 4257SOL    HW113670   3.677   1.950   5.132
 4257SOL    HW213671   3.713   1.961   5.291
 4258SOL     OW13672   5.885   6.794   1.865
 4258SOL    HW113673   5.893   6.890   1.839
 4258SOL    HW213674   5.974   6.758   1.891
 4259SOL     OW13675   2.623   1.618   6.769
 4259SOL    HW113676   2.609   1.523   6.798
 4259SOL    HW213677   2.704   1.655   6.815
 4260SOL     OW13678   4.000   5.711   3.698
 4260SOL    HW113679   3.909   5.671   3.685
 4260SOL    HW213680   4.018   5.719   3.796
 4261SOL     OW13681   2.354   6.495   2.046
 4261SOL    HW113682   2.343   6.492   2.145
 4261SOL    HW213683   2.441   6.453   2.021
 4262SOL     OW13684   2.115   5.315   6.675
 4262SOL    HW113685   2.142   5.226   6.638
 4262SOL    HW213686   2.093   5.305   6.772
 4263SOL     OW13687   2.460   5.824   5.225
 4263SOL    HW113688   2.455   5.724   5.220
 4263SOL    HW213689   2.514   5.858   5.148
 4264SOL     OW13690   0.354   1.681   0.141
 4264SOL    HW113691   0.363   1.655   0.237
 4264SOL    HW213692   0.333   1.779   0.135
 4265SOL     OW13693   6.476   1.938   0.026
 4265SOL    HW113694   6.541   1.934   0.101
 4265SOL    HW213695   6.464   2.033   7.019
 4266SOL     OW13696   2.556   5.810   0.332
 4266SOL    HW113697   2.626   5.761   0.279
 4266SOL    HW213698   2.599   5.880   0.389
 4267SOL     OW13699   2.154   3.854   4.952
 4267SOL    HW113700   2.193   3.938   4.988
 4267SOL    HW213701   2.224   3.806   4.898
 4268SOL     OW13702   1.882   0.019   0.268
 4268SOL    HW113703   1.928   0.060   0.346
 4268SOL    HW213704   1.792   0.061   0.256
 4269SOL     OW13705   3.039   3.013   0.217
 4269SOL    HW113706   2.996   2.967   0.295
 4269SOL    HW213707   3.128   2.972   0.200
 4270SOL     OW13708   3.792   2.885   5.032
 4270SOL    HW113709   3.854   2.814   5.063
 4270SOL    HW213710   3.700   2.869   5.070
 4271SOL     OW13711   0.493   6.854   5.485
 4271SOL    HW113712   0.560   6.806   5.428
 4271SOL    HW213713   0.415   6.882   5.428
 4272SOL     OW13714   6.592   4.740   5.338
 4272SOL    HW113715   6.627   4.647   5.342
 4272SOL    HW213716   6.586   4.770   5.243
 4273SOL     OW13717   4.783   6.993   4.843
 4273SOL    HW113718   4.797   0.068   4.823
 4273SOL    HW213719   4.715   6.956   4.780
 4274SOL     OW13720   1.557   6.924   3.356
 4274SOL    HW113721   1.469   6.964   3.382
 4274SOL    HW213722   1.614   6.913   3.438
 4275SOL     OW13723   0.139   1.090   5.532
 4275SOL    HW113724   0.086   1.041   5.463
 4275SOL    HW213725   0.104   1.184   5.539
 4276SOL     OW13726   2.496   4.858   2.848
 4276SOL    HW113727   2.430   4.800   2.801
 4276SOL    HW213728   2.578   4.805   2.869
 4277SOL     OW13729   6.288   5.379   3.667
 4277SOL    HW113730   6.350   5.381   3.746
 4277SOL    HW213731   6.265   5.284   3.646
 4278SOL     OW13732   6.530   6.058   4.985
 4278SOL    HW113733   6.468   6.134   4.967
 4278SOL    HW213734   6.598   6.086   5.053
 4279SOL     OW13735   3.176   6.457   5.559
 4279SOL    HW113736   3.125   6.463   5.473
 4279SOL    HW213737   3.113   6.440   5.634
 4280SOL     OW13738   6.413   1.609   5.405
 4280SOL    HW113739   6.413   1.562   5.317
 4280SOL    HW213740   6.328   1.587   5.454
 4281SOL     OW13741   1.747   5.014   5.060
 4281SOL    HW113742   1.696   4.929   5.049
 4281SOL    HW213743   1.840   5.003   5.025
 4282SOL     OW13744   2.717   2.370   0.526
 4282SOL    HW113745   2.704   2.395   0.622
 4282SOL    HW213746   2.808   2.331   0.513
 4283SOL     OW13747   1.829   0.001   3.891
 4283SOL    HW113748   1.791   0.079   3.941
 4283SOL    HW213749   1.876   0.034   3.809
 4284SOL     OW13750   5.622   0.730   2.496
 4284SOL    HW113751   5.529   0.742   2.530
 4284SOL    HW213752   5.649   0.634   2.505
 4285SOL     OW13753   0.493   6.830   5.765
 4285SOL    HW113754   0.501   6.851   5.668
 4285SOL    HW213755   0.493   6.731   5.778
 4286SOL     OW13756   4.412   5.691   0.094
 4286SOL    HW113757   4.323   5.725   0.063
 4286SOL    HW213758   4.463   5.656   0.016
 4287SOL     OW13759   5.602   6.914   5.079
 4287SOL    HW113760   5.580   6.858   4.999
 4287SOL    HW213761   5.620   7.008   5.051
 4288SOL     OW13762   0.539   6.708   3.931
 4288SOL    HW113763   0.594   6.789   3.909
 4288SOL    HW213764   0.462   6.734   3.989
 4289SOL     OW13765   5.113   2.400   1.450
 4289SOL    HW113766   5.090   2.496   1.433
 4289SOL    HW213767   5.033   2.354   1.490
 4290SOL     OW13768   2.187   6.877   1.680
 4290SOL    HW113769   2.113   6.925   1.727
 4290SOL    HW213770   2.270   6.933   1.684
 4291SOL     OW13771   5.313   3.135   0.967
 4291SOL    HW113772   5.261   3.060   0.927
 4291SOL    HW213773   5.410   3.112   0.967
 4292SOL     OW13774   6.389   4.144   5.642
 4292SOL    HW113775   6.390   4.106   5.734
 4292SOL    HW213776   6.469   4.203   5.630
 4293SOL     OW13777   6.769   3.919   6.310
 4293SOL    HW113778   6.847   3.862   6.282
 4293SOL    HW213779   6.711   3.937   6.230
 4294SOL     OW13780   3.876   2.850   6.150
 4294SOL    HW113781   3.828   2.932   6.180
 4294SOL    HW213782   3.955   2.834   6.209
 4295SOL     OW13783   3.311   0.372   4.873
 4295SOL    HW113784   3.268   0.330   4.793
 4295SOL    HW213785   3.256   0.353   4.954
 4296SOL     OW13786   2.892   1.841   0.698
 4296SOL    HW113787   2.886   1.940   0.684
 4296SOL    HW213788   2.988   1.814   0.707
 4297SOL     OW13789   5.020   6.655   4.712
 4297SOL    HW113790   5.000   6.750   4.688
 4297SOL    HW213791   5.108   6.650   4.759
 4298SOL     OW13792   1.580   5.844   1.572
 4298SOL    HW113793   1.611   5.869   1.480
 4298SOL    HW213794   1.499   5.786   1.564
 4299SOL     OW13795   0.855   3.262   5.834
 4299SOL    HW113796   0.884   3.189   5.895
 4299SOL    HW213797   0.755   3.260   5.825
 4300SOL     OW13798   2.958   1.203   6.733
 4300SOL    HW113799   2.939   1.113   6.694
 4300SOL    HW213800   2.955   1.272   6.660
 4301SOL     OW13801   2.078   1.506   0.304
 4301SOL    HW113802   2.062   1.408   0.293
 4301SOL    HW213803   2.088   1.549   0.215
 4302SOL     OW13804   1.336   6.022   6.670
 4302SOL    HW113805   1.429   6.033   6.635
 4302SOL    HW213806   1.313   5.925   6.675
 4303SOL     OW13807   6.524   4.211   3.221
 4303SOL    HW113808   6.520   4.263   3.135
 4303SOL    HW213809   6.446   4.236   3.278
 4304SOL     OW13810   3.417   3.514   4.050
 4304SOL    HW113811   3.442   3.420   4.073
 4304SOL    HW213812   3.353   3.548   4.119
 4305SOL     OW13813   6.252   1.078   3.165
 4305SOL    HW113814   6.222   1.133   3.243
 4305SOL    HW213815   6.342   1.039   3.183
 4306SOL     OW13816   0.329   4.103   5.873
 4306SOL    HW113817   0.299   4.049   5.795
 4306SOL    HW213818   0.331   4.200   5.848
 4307SOL     OW13819   4.578   4.248   5.514
 4307SOL    HW113820   4.490   4.256   5.561
 4307SOL    HW213821   4.641   4.317   5.551
 4308SOL     OW13822   5.292   5.846   5.200
 4308SOL    HW113823   5.206   5.886   5.168
 4308SOL    HW213824   5.357   5.918   5.221
 4309SOL     OW13825   1.607   0.669   0.633
 4309SOL    HW113826   1.686   0.731   0.624
 4309SOL    HW213827   1.623   0.587   0.579
 4310SOL     OW13828   1.454   2.668   3.593
 4310SOL    HW113829   1.523   2.602   3.562
 4310SOL    HW213830   1.460   2.677   3.693
 4311SOL     OW13831   1.200   6.188   3.739
 4311SOL    HW113832   1.104   6.215   3.733
 4311SOL    HW213833   1.207   6.089   3.751
 4312SOL     OW13834   1.777   5.788   1.836
 4312SOL    HW113835   1.754   5.773   1.740
 4312SOL    HW213836   1.751   5.881   1.862
 4313SOL     OW13837   6.016   0.856   1.218
 4313SOL    HW113838   5.994   0.951   1.241
 4313SOL    HW213839   5.945   0.820   1.157
 4314SOL     OW13840   4.890   2.787   2.864
 4314SOL    HW113841   4.868   2.881   2.840
 4314SOL    HW213842   4.814   2.727   2.841
 4315SOL     OW13843   2.611   0.395   1.985
 4315SOL    HW113844   2.659   0.437   2.062
 4315SOL    HW213845   2.678   0.365   1.917
 4316SOL     OW13846   4.860   6.766   1.347
 4316SOL    HW113847   4.871   6.751   1.248
 4316SOL    HW213848   4.838   6.680   1.392
 4317SOL     OW13849   3.719   1.460   5.377
 4317SOL    HW113850   3.683   1.535   5.321
 4317SOL    HW213851   3.709   1.484   5.474
 4318SOL     OW13852   1.412   3.924   3.935
 4318SOL    HW113853   1.444   3.920   3.840
 4318SOL    HW213854   1.453   4.003   3.981
 4319SOL     OW13855   2.760   3.501   6.784
 4319SOL    HW113856   2.734   3.464   6.694
 4319SOL    HW213857   2.753   3.600   6.782
 4320SOL     OW13858   1.641   6.386   2.653
 4320SOL    HW113859   1.630   6.417   2.558
 4320SOL    HW213860   1.557   6.341   2.683
 4321SOL     OW13861   6.032   0.696   4.646
 4321SOL    HW113862   5.960   0.662   4.707
 4321SOL    HW213863   5.995   0.708   4.554
 4322SOL     OW13864   6.799   0.964   6.795
 4322SOL    HW113865   6.817   0.942   6.891
 4322SOL    HW213866   6.855   1.041   6.767
 4323SOL     OW13867   5.578   2.839   2.230
 4323SOL    HW113868   5.577   2.809   2.325
 4323SOL    HW213869   5.669   2.824   2.191
 4324SOL     OW13870   5.691   3.614   6.640
 4324SOL    HW113871   5.773   3.653   6.598
 4324SOL    HW213872   5.675   3.657   6.729
 4325SOL     OW13873   2.334   0.554   0.148
 4325SOL    HW113874   2.421   0.508   0.167
 4325SOL    HW213875   2.347   0.653   0.153
 4326SOL     OW13876   6.763   3.431   5.009
 4326SOL    HW113877   6.805   3.342   5.029
 4326SOL    HW213878   6.675   3.437   5.056
 4327SOL     OW13879   5.171   5.449   2.525
 4327SOL    HW113880   5.181   5.416   2.432
 4327SOL    HW213881   5.168   5.549   2.525
 4328SOL     OW13882   4.702   4.651   6.104
 4328SOL    HW113883   4.800   4.658   6.087
 4328SOL    HW213884   4.666   4.741   6.129
 4329SOL     OW13885   3.818   1.749   5.904
 4329SOL    HW113886   3.879   1.771   5.980
 4329SOL    HW213887   3.835   1.812   5.828
 4330SOL     OW13888   2.728   0.298   5.914
 4330SOL    HW113889   2.728   0.351   5.999
 4330SOL    HW213890   2.758   0.204   5.933
 4331SOL     OW13891   5.286   3.401   0.480
 4331SOL    HW113892   5.234   3.320   0.455
 4331SOL    HW213893   5.243   3.446   0.559
 4332SOL     OW13894   5.242   3.393   2.072
 4332SOL    HW113895   5.253   3.369   2.169
 4332SOL    HW213896   5.180   3.327   2.029
 4333SOL     OW13897   5.526   1.353   4.960
 4333SOL    HW113898   5.460   1.413   5.005
 4333SOL    HW213899   5.568   1.293   5.028
 4334SOL     OW13900   2.949   2.168   1.778
 4334SOL    HW113901   2.971   2.219   1.695
 4334SOL    HW213902   2.932   2.232   1.853
 4335SOL     OW13903   2.966   3.840   3.928
 4335SOL    HW113904   2.942   3.934   3.903
 4335SOL    HW213905   3.047   3.841   3.987
 4336SOL     OW13906   1.776   5.992   5.379
 4336SOL    HW113907   1.765   6.058   5.305
 4336SOL    HW213908   1.693   5.937   5.387
 4337SOL     OW13909   0.434   4.982   0.113
 4337SOL    HW113910   0.476   5.056   0.166
 4337SOL    HW213911   0.354   4.947   0.162
 4338SOL     OW13912   6.092   5.589   4.719
 4338SOL    HW113913   6.056   5.653   4.787
 4338SOL    HW213914   6.041   5.599   4.633
 4339SOL     OW13915   6.593   2.641   4.717
 4339SOL    HW113916   6.590   2.735   4.751
 4339SOL    HW213917   6.587   2.578   4.795
 4340SOL     OW13918   6.588   3.222   2.380
 4340SOL    HW113919   6.610   3.319   2.380
 4340SOL    HW213920   6.655   3.172   2.324
 4341SOL     OW13921   1.436   4.076   1.906
 4341SOL    HW113922   1.467   4.075   1.811
 4341SOL    HW213923   1.449   4.167   1.945
 4342SOL     OW13924   0.566   2.858   3.251
 4342SOL    HW113925   0.640   2.792   3.260
 4342SOL    HW213926   0.602   2.946   3.219
 4343SOL     OW13927   3.543   0.971   0.333
 4343SOL    HW113928   3.551   1.059   0.287
 4343SOL    HW213929   3.634   0.941   0.364
 4344SOL     OW13930   1.855   5.011   3.259
 4344SOL    HW113931   1.833   5.108   3.264
 4344SOL    HW213932   1.873   4.985   3.164
 4345SOL     OW13933   1.669   2.974   5.395
 4345SOL    HW113934   1.727   2.922   5.457
 4345SOL    HW213935   1.716   2.984   5.307
 4346SOL     OW13936   2.446   2.979   1.688
 4346SOL    HW113937   2.378   3.012   1.622
 4346SOL    HW213938   2.519   3.047   1.697
 4347SOL     OW13939   6.732   0.290   1.509
 4347SOL    HW113940   6.765   0.297   1.603
 4347SOL    HW213941   6.806   0.309   1.446
 4348SOL     OW13942   0.736   3.901   1.827
 4348SOL    HW113943   0.810   3.881   1.763
 4348SOL    HW213944   0.752   3.990   1.869
 4349SOL     OW13945   0.445   1.553   3.523
 4349SOL    HW113946   0.465   1.480   3.588
 4349SOL    HW213947   0.366   1.527   3.468
 4350SOL     OW13948   5.234   2.517   4.553
 4350SOL    HW113949   5.194   2.428   4.575
 4350SOL    HW213950   5.185   2.589   4.601
 4351SOL     OW13951   2.695   6.241   2.227
 4351SOL    HW113952   2.659   6.148   2.218
 4351SOL    HW213953   2.725   6.256   2.322
 4352SOL     OW13954   0.456   2.189   2.042
 4352SOL    HW113955   0.398   2.270   2.049
 4352SOL    HW213956   0.487   2.162   2.133
 4353SOL     OW13957   2.217   5.772   0.902
 4353SOL    HW113958   2.250   5.849   0.956
 4353SOL    HW213959   2.277   5.757   0.824
 4354SOL     OW13960   2.043   6.966   0.050
 4354SOL    HW113961   1.982   7.021   0.106
 4354SOL    HW213962   1.996   6.942   6.986
 4355SOL     OW13963   4.244   1.124   1.184
 4355SOL    HW113964   4.252   1.218   1.217
 4355SOL    HW213965   4.317   1.105   1.119
 4356SOL     OW13966   4.817   3.815   1.650
 4356SOL    HW113967   4.913   3.794   1.631
 4356SOL    HW213968   4.806   3.914   1.660
 4357SOL     OW13969   6.261   1.001   0.158
 4357SOL    HW113970   6.196   0.925   0.156
 4357SOL    HW213971   6.222   1.078   0.208
 4358SOL     OW13972   0.315   5.772   1.360
 4358SOL    HW113973   0.268   5.855   1.390
 4358SOL    HW213974   0.410   5.775   1.390
 4359SOL     OW13975   0.958   2.584   4.698
 4359SOL    HW113976   1.024   2.541   4.637
 4359SOL    HW213977   0.890   2.633   4.644
 4360SOL     OW13978   0.483   3.824   1.895
 4360SOL    HW113979   0.575   3.852   1.866
 4360SOL    HW213980   0.485   3.796   1.991
 4361SOL     OW13981   4.401   2.610   1.769
 4361SOL    HW113982   4.472   2.564   1.823
 4361SOL    HW213983   4.442   2.685   1.717
 4362SOL     OW13984   6.365   3.619   5.469
 4362SOL    HW113985   6.442   3.662   5.421
 4362SOL    HW213986   6.298   3.688   5.493
 4363SOL     OW13987   5.283   2.383   5.320
 4363SOL    HW113988   5.337   2.303   5.348
 4363SOL    HW213989   5.331   2.432   5.247
 4364SOL     OW13990   3.064   4.071   4.996
 4364SOL    HW113991   3.032   4.137   5.064
 4364SOL    HW213992   3.164   4.077   4.988
 4365SOL     OW13993   3.760   2.127   2.627
 4365SOL    HW113994   3.819   2.181   2.687
 4365SOL    HW213995   3.803   2.038   2.610
 4366SOL     OW13996   6.099   6.952   1.277
 4366SOL    HW113997   6.141   6.886   1.339
 4366SOL    HW213998   6.018   6.910   1.235
 4367SOL     OW13999   1.013   5.407   5.689
 4367SOL    HW114000   0.932   5.398   5.631
 4367SOL    HW214001   1.094   5.412   5.632
 4368SOL     OW14002   4.938   4.991   1.433
 4368SOL    HW114003   4.911   5.036   1.518
 4368SOL    HW214004   5.005   5.048   1.386
 4369SOL     OW14005   4.511   4.499   2.345
 4369SOL    HW114006   4.462   4.443   2.278
 4369SOL    HW214007   4.495   4.595   2.325
 4370SOL     OW14008   5.444   4.474   3.344
 4370SOL    HW114009   5.448   4.487   3.245
 4370SOL    HW214010   5.377   4.537   3.383
 4371SOL     OW14011   6.445   0.368   1.827
 4371SOL    HW114012   6.356   0.413   1.820
 4371SOL    HW214013   6.450   0.294   1.761
 4372SOL     OW14014   4.436   1.193   3.345
 4372SOL    HW114015   4.418   1.285   3.381
 4372SOL    HW214016   4.497   1.200   3.265
 4373SOL     OW14017   6.874   2.476   6.595
 4373SOL    HW114018   6.891   2.551   6.659
 4373SOL    HW214019   6.959   2.453   6.548
 4374SOL     OW14020   1.299   2.069   2.323
 4374SOL    HW114021   1.217   2.076   2.379
 4374SOL    HW214022   1.358   2.148   2.340
 4375SOL     OW14023   2.433   6.760   4.055
 4375SOL    HW114024   2.521   6.720   4.078
 4375SOL    HW214025   2.423   6.848   4.102
 4376SOL     OW14026   6.612   0.295   2.609
 4376SOL    HW114027   6.672   0.354   2.555
 4376SOL    HW214028   6.616   0.202   2.573
 4377SOL     OW14029   5.847   3.710   0.022
 4377SOL    HW114030   5.894   3.728   6.957
 4377SOL    HW214031   5.903   3.648   0.077
 4378SOL     OW14032   2.157   0.490   3.730
 4378SOL    HW114033   2.135   0.557   3.658
 4378SOL    HW214034   2.073   0.444   3.759
 4379SOL     OW14035   2.820   1.301   4.900
 4379SOL    HW114036   2.836   1.244   4.819
 4379SOL    HW214037   2.722   1.309   4.916
 4380SOL     OW14038   1.339   1.311   1.331
 4380SOL    HW114039   1.287   1.372   1.390
 4380SOL    HW214040   1.403   1.258   1.386
 4381SOL     OW14041   0.795   5.477   5.352
 4381SOL    HW114042   0.732   5.469   5.429
 4381SOL    HW214043   0.834   5.388   5.331
 4382SOL     OW14044   0.050   3.456   5.310
 4382SOL    HW114045   7.000   3.519   5.281
 4382SOL    HW214046   0.094   3.416   5.230
 4383SOL     OW14047   5.664   2.775   5.862
 4383SOL    HW114048   5.606   2.757   5.941
 4383SOL    HW214049   5.635   2.718   5.785
 4384SOL     OW14050   7.010   0.149   3.270
 4384SOL    HW114051   6.954   0.100   3.204
 4384SOL    HW214052   6.979   0.127   3.363
 4385SOL     OW14053   5.030   1.871   4.670
 4385SOL    HW114054   5.052   1.821   4.754
 4385SOL    HW214055   5.070   1.823   4.591
 4386SOL     OW14056   1.439   3.931   5.899
 4386SOL    HW114057   1.519   3.991   5.905
 4386SOL    HW214058   1.364   3.971   5.951
 4387SOL     OW14059   6.271   2.810   0.801
 4387SOL    HW114060   6.300   2.818   0.896
 4387SOL    HW214061   6.275   2.900   0.757
 4388SOL     OW14062   5.202   1.850   6.147
 4388SOL    HW114063   5.266   1.926   6.134
 4388SOL    HW214064   5.121   1.883   6.195
 4389SOL     OW14065   6.985   3.577   1.904
 4389SOL    HW114066   0.029   3.575   1.979
 4389SOL    HW214067   6.925   3.656   1.914
 4390SOL     OW14068   5.536   0.034   0.622
 4390SOL    HW114069   5.441   0.056   0.644
 4390SOL    HW214070   5.540   7.001   0.539
 4391SOL     OW14071   2.077   5.660   6.447
 4391SOL    HW114072   1.996   5.685   6.501
 4391SOL    HW214073   2.051   5.590   6.381
 4392SOL     OW14074   1.319   1.518   4.266
 4392SOL    HW114075   1.285   1.457   4.195
 4392SOL    HW214076   1.278   1.609   4.254
 4393SOL     OW14077   6.244   0.147   1.185
 4393SOL    HW114078   6.190   0.069   1.217
 4393SOL    HW214079   6.282   0.126   1.094
 4394SOL     OW14080   0.999   0.310   1.405
 4394SOL    HW114081   1.023   0.383   1.341
 4394SOL    HW214082   0.924   0.341   1.463
 4395SOL     OW14083   2.373   0.057   2.201
 4395SOL    HW114084   2.373   0.080   2.298
 4395SOL    HW214085   2.456   0.006   2.179
 4396SOL     OW14086   1.405   1.067   3.311
 4396SOL    HW114087   1.305   1.069   3.314
 4396SOL    HW214088   1.436   1.080   3.217
 4397SOL     OW14089   2.532   2.524   3.823
 4397SOL    HW114090   2.586   2.535   3.739
 4397SOL    HW214091   2.488   2.611   3.846
 4398SOL     OW14092   2.122   3.637   6.527
 4398SOL    HW114093   2.052   3.619   6.597
 4398SOL    HW214094   2.085   3.614   6.437
 4399SOL     OW14095   2.312   6.416   2.297
 4399SOL    HW114096   2.281   6.331   2.340
 4399SOL    HW214097   2.304   6.491   2.363
 4400SOL     OW14098   1.793   6.789   4.196
 4400SOL    HW114099   1.737   6.870   4.217
 4400SOL    HW214100   1.887   6.806   4.223
 4401SOL     OW14101   3.485   6.373   5.462
 4401SOL    HW114102   3.583   6.357   5.453
 4401SOL    HW214103   3.443   6.296   5.510
 4402SOL     OW14104   1.441   0.909   2.875
 4402SOL    HW114105   1.516   0.952   2.825
 4402SOL    HW214106   1.358   0.912   2.819
 4403SOL     OW14107   0.801   5.144   1.383
 4403SOL    HW114108   0.880   5.164   1.440
 4403SOL    HW214109   0.766   5.229   1.344
 4404SOL     OW14110   1.535   5.802   6.083
 4404SOL    HW114111   1.488   5.886   6.111
 4404SOL    HW214112   1.593   5.770   6.158
 4405SOL     OW14113   2.977   4.811   3.699
 4405SOL    HW114114   3.033   4.834   3.619
 4405SOL    HW214115   2.896   4.760   3.670
 4406SOL     OW14116   6.238   3.549   2.188
 4406SOL    HW114117   6.257   3.615   2.261
 4406SOL    HW214118   6.164   3.583   2.130
 4407SOL     OW14119   6.987   6.239   2.087
 4407SOL    HW114120   6.969   6.216   1.991
 4407SOL    HW214121   6.953   6.331   2.106
 4408SOL     OW14122   4.068   6.842   0.297
 4408SOL    HW114123   4.032   6.925   0.254
 4408SOL    HW214124   4.164   6.830   0.269
 4409SOL     OW14125   3.973   0.652   2.747
 4409SOL    HW114126   3.960   0.569   2.693
 4409SOL    HW214127   4.000   0.727   2.687
 4410SOL     OW14128   0.416   5.837   0.950
 4410SOL    HW114129   0.359   5.880   1.020
 4410SOL    HW214130   0.434   5.902   0.877
 4411SOL     OW14131   3.296   4.664   5.977
 4411SOL    HW114132   3.220   4.722   6.008
 4411SOL    HW214133   3.306   4.586   6.039
 4412SOL     OW14134   4.047   6.577   3.489
 4412SOL    HW114135   4.063   6.479   3.497
 4412SOL    HW214136   4.000   6.610   3.571
 4413SOL     OW14137   3.293   0.336   4.221
 4413SOL    HW114138   3.329   0.405   4.284
 4413SOL    HW214139   3.345   0.251   4.232
 4414SOL     OW14140   5.079   5.216   1.972
 4414SOL    HW114141   5.130   5.163   2.040
 4414SOL    HW214142   5.075   5.165   1.886
 4415SOL     OW14143   3.215   3.898   2.184
 4415SOL    HW114144   3.237   3.995   2.193
 4415SOL    HW214145   3.273   3.857   2.114
 4416SOL     OW14146   3.938   1.561   4.609
 4416SOL    HW114147   3.849   1.517   4.618
 4416SOL    HW214148   3.926   1.661   4.605
 4417SOL     OW14149   0.305   3.608   4.344
 4417SOL    HW114150   0.243   3.541   4.304
 4417SOL    HW214151   0.264   3.648   4.426
 4418SOL     OW14152   6.580   0.652   1.017
 4418SOL    HW114153   6.540   0.738   1.047
 4418SOL    HW214154   6.614   0.601   1.096
 4419SOL     OW14155   6.737   5.761   5.767
 4419SOL    HW114156   6.645   5.734   5.796
 4419SOL    HW214157   6.793   5.780   5.848
 4420SOL     OW14158   3.538   2.068   1.636
 4420SOL    HW114159   3.458   2.110   1.592
 4420SOL    HW214160   3.592   2.139   1.682
 4421SOL     OW14161   1.212   3.093   4.713
 4421SOL    HW114162   1.142   3.024   4.731
 4421SOL    HW214163   1.170   3.174   4.673
 4422SOL     OW14164   0.197   4.835   0.218
 4422SOL    HW114165   0.244   4.755   0.255
 4422SOL    HW214166   0.110   4.846   0.264
 4423SOL     OW14167   6.053   4.400   5.750
 4423SOL    HW114168   6.014   4.409   5.842
 4423SOL    HW214169   5.982   4.367   5.687
 4424SOL     OW14170   4.648   5.788   4.153
 4424SOL    HW114171   4.572   5.843   4.119
 4424SOL    HW214172   4.643   5.780   4.252
 4425SOL     OW14173   1.640   5.229   1.491
 4425SOL    HW114174   1.730   5.232   1.535
 4425SOL    HW214175   1.570   5.254   1.557
 4426SOL     OW14176   0.900   0.054   4.336
 4426SOL    HW114177   0.840   7.001   4.307
 4426SOL    HW214178   0.978   0.061   4.273
 4427SOL     OW14179   3.462   6.236   3.012
 4427SOL    HW114180   3.554   6.265   2.984
 4427SOL    HW214181   3.460   6.223   3.111
 4428SOL     OW14182   6.133   0.747   4.236
 4428SOL    HW114183   6.227   0.735   4.269
 4428SOL    HW214184   6.114   0.681   4.163
 4429SOL     OW14185   2.751   6.379   3.418
 4429SOL    HW114186   2.714   6.393   3.509
 4429SOL    HW214187   2.826   6.443   3.401
 4430SOL     OW14188   5.049   4.614   4.224
 4430SOL    HW114189   5.040   4.514   4.218
 4430SOL    HW214190   5.003   4.646   4.307
 4431SOL     OW14191   3.414   0.741   3.818
 4431SOL    HW114192   3.376   0.807   3.883
 4431SOL    HW214193   3.387   0.649   3.844
 4432SOL     OW14194   1.602   3.473   6.662
 4432SOL    HW114195   1.582   3.571   6.656
 4432SOL    HW214196   1.541   3.430   6.728
 4433SOL     OW14197   0.893   1.174   4.789
 4433SOL    HW114198   0.968   1.206   4.847
 4433SOL    HW214199   0.930   1.127   4.709
 4434SOL     OW14200   6.580   1.612   1.288
 4434SOL    HW114201   6.669   1.610   1.242
 4434SOL    HW214202   6.592   1.643   1.382
 4435SOL     OW14203   2.766   3.445   0.355
 4435SOL    HW114204   2.809   3.361   0.321
 4435SOL    HW214205   2.718   3.426   0.440
 4436SOL     OW14206   4.511   1.906   1.416
 4436SOL    HW114207   4.527   1.990   1.466
 4436SOL    HW214208   4.574   1.901   1.338
 4437SOL     OW14209   0.122   3.994   2.347
 4437SOL    HW114210   0.164   4.084   2.359
 4437SOL    HW214211   0.027   3.997   2.377
 4438SOL     OW14212   4.506   6.324   5.497
 4438SOL    HW114213   4.596   6.368   5.502
 4438SOL    HW214214   4.437   6.383   5.538
 4439SOL     OW14215   2.144   6.909   3.192
 4439SOL    HW114216   2.196   6.824   3.185
 4439SOL    HW214217   2.047   6.890   3.177
 4440SOL     OW14218   1.754   5.003   1.027
 4440SOL    HW114219   1.785   4.910   1.050
 4440SOL    HW214220   1.790   5.028   0.937
 4441SOL     OW14221   1.142   1.603   0.214
 4441SOL    HW114222   1.142   1.702   0.226
 4441SOL    HW214223   1.062   1.576   0.161
 4442SOL     OW14224   1.986   4.617   6.249
 4442SOL    HW114225   2.003   4.568   6.335
 4442SOL    HW214226   1.931   4.559   6.189
 4443SOL     OW14227   0.453   4.976   6.851
 4443SOL    HW114228   0.430   4.960   6.947
 4443SOL    HW214229   0.455   5.074   6.834
 4444SOL     OW14230   5.009   4.283   0.508
 4444SOL    HW114231   5.017   4.332   0.596
 4444SOL    HW214232   4.988   4.187   0.525
 4445SOL     OW14233   0.008   5.465   6.787
 4445SOL    HW114234   7.021   5.443   6.884
 4445SOL    HW214235   6.949   5.515   6.757
 4446SOL     OW14236   5.004   1.478   0.572
 4446SOL    HW114237   4.910   1.508   0.557
 4446SOL    HW214238   5.005   1.402   0.638
 4447SOL     OW14239   5.501   4.743   4.995
 4447SOL    HW114240   5.425   4.678   4.985
 4447SOL    HW214241   5.586   4.698   4.968
 4448SOL     OW14242   2.832   6.493   1.819
 4448SOL    HW114243   2.754   6.440   1.852
 4448SOL    HW214244   2.891   6.518   1.895
 4449SOL     OW14245   3.555   1.033   6.802
 4449SOL    HW114246   3.582   0.945   6.840
 4449SOL    HW214247   3.571   1.033   6.703
 4450SOL     OW14248   3.468   0.564   0.258
 4450SOL    HW114249   3.384   0.509   0.254
 4450SOL    HW214250   3.490   0.584   0.354
 4451SOL     OW14251   4.729   4.607   3.627
 4451SOL    HW114252   4.681   4.526   3.661
 4451SOL    HW214253   4.741   4.673   3.701
 4452SOL     OW14254   5.170   6.231   4.481
 4452SOL    HW114255   5.258   6.192   4.508
 4452SOL    HW214256   5.106   6.157   4.459
 4453SOL     OW14257   0.132   3.372   1.306
 4453SOL    HW114258   0.117   3.315   1.226
 4453SOL    HW214259   0.045   3.386   1.354
 4454SOL     OW14260   1.060   2.125   0.149
 4454SOL    HW114261   1.022   2.147   0.059
 4454SOL    HW214262   1.098   2.208   0.190
 4455SOL     OW14263   6.527   5.635   4.608
 4455SOL    HW114264   6.566   5.601   4.693
 4455SOL    HW214265   6.440   5.680   4.627
 4456SOL     OW14266   1.946   6.572   3.716
 4456SOL    HW114267   1.938   6.652   3.775
 4456SOL    HW214268   1.943   6.600   3.620
 4457SOL     OW14269   1.486   1.903   5.060
 4457SOL    HW114270   1.457   1.827   5.000
 4457SOL    HW214271   1.407   1.935   5.113
 4458SOL     OW14272   1.997   4.006   1.610
 4458SOL    HW114273   1.936   3.969   1.540
 4458SOL    HW214274   1.944   4.028   1.692
 4459SOL     OW14275   1.439   2.947   4.489
 4459SOL    HW114276   1.434   2.967   4.586
 4459SOL    HW214277   1.347   2.935   4.452
 4460SOL     OW14278   0.170   3.555   4.025
 4460SOL    HW114279   0.206   3.469   4.059
 4460SOL    HW214280   0.133   3.541   3.933
 4461SOL     OW14281   2.845   1.250   1.447
 4461SOL    HW114282   2.832   1.151   1.454
 4461SOL    HW214283   2.938   1.269   1.416
 4462SOL     OW14284   6.531   3.756   2.113
 4462SOL    HW114285   6.515   3.790   2.206
 4462SOL    HW214286   6.614   3.700   2.112
 4463SOL     OW14287   5.821   1.676   1.534
 4463SOL    HW114288   5.851   1.705   1.443
 4463SOL    HW214289   5.731   1.633   1.528
 4464SOL     OW14290   0.465   5.637   0.424
 4464SOL    HW114291   0.540   5.694   0.457
 4464SOL    HW214292   0.384   5.651   0.481
 4465SOL     OW14293   2.318   5.937   0.469
 4465SOL    HW114294   2.402   5.898   0.507
 4465SOL    HW214295   2.340   5.988   0.386
 4466SOL     OW14296   1.576   2.122   3.959
 4466SOL    HW114297   1.630   2.042   3.929
 4466SOL    HW214298   1.630   2.175   4.024
 4467SOL     OW14299   3.124   5.768   3.234
 4467SOL    HW114300   3.155   5.690   3.179
 4467SOL    HW214301   3.028   5.757   3.258
 4468SOL     OW14302   1.120   3.067   1.931
 4468SOL    HW114303   1.218   3.088   1.928
 4468SOL    HW214304   1.069   3.152   1.949
 4469SOL     OW14305   2.584   0.091   1.545
 4469SOL    HW114306   2.538   0.074   1.632
 4469SOL    HW214307   2.528   0.053   1.471
 4470SOL     OW14308   1.411   0.505   2.739
 4470SOL    HW114309   1.388   0.455   2.655
 4470SOL    HW214310   1.327   0.545   2.777
 4471SOL     OW14311   2.263   2.084   6.268
 4471SOL    HW114312   2.200   2.128   6.332
 4471SOL    HW214313   2.291   2.151   6.198
 4472SOL     OW14314   1.536   3.156   1.096
 4472SOL    HW114315   1.594   3.193   1.169
 4472SOL    HW214316   1.528   3.223   1.023
 4473SOL     OW14317   0.346   3.255   3.944
 4473SOL    HW114318   0.355   3.283   4.039
 4473SOL    HW214319   0.365   3.333   3.884
 4474SOL     OW14320   3.384   0.706   1.758
 4474SOL    HW114321   3.404   0.803   1.743
 4474SOL    HW214322   3.334   0.695   1.844
 4475SOL     OW14323   0.855   4.134   1.953
 4475SOL    HW114324   0.940   4.119   1.903
 4475SOL    HW214325   0.849   4.067   2.027
 4476SOL     OW14326   5.712   1.393   3.884
 4476SOL    HW114327   5.628   1.368   3.931
 4476SOL    HW214328   5.728   1.492   3.894
 4477SOL     OW14329   2.653   6.977   5.763
 4477SOL    HW114330   2.697   7.001   5.849
 4477SOL    HW214331   2.579   0.019   5.745
 4478SOL     OW14332   1.729   0.182   0.746
 4478SOL    HW114333   1.716   0.135   0.833
 4478SOL    HW214334   1.827   0.200   0.732
 4479SOL     OW14335   1.089   2.848   0.269
 4479SOL    HW114336   1.052   2.927   0.319
 4479SOL    HW214337   1.013   2.795   0.231
 4480SOL     OW14338   6.617   5.634   4.340
 4480SOL    HW114339   6.584   5.631   4.435
 4480SOL    HW214340   6.653   5.544   4.315
 4481SOL     OW14341   2.825   5.123   6.268
 4481SOL    HW114342   2.782   5.035   6.249
 4481SOL    HW214343   2.758   5.196   6.259
 4482SOL     OW14344   2.920   5.379   6.638
 4482SOL    HW114345   2.868   5.430   6.569
 4482SOL    HW214346   2.976   5.310   6.594
 4483SOL     OW14347   0.001   2.412   1.930
 4483SOL    HW114348   6.953   2.470   1.888
 4483SOL    HW214349   0.052   2.364   1.858
 4484SOL     OW14350   2.569   2.988   6.653
 4484SOL    HW114351   2.648   2.930   6.633
 4484SOL    HW214352   2.575   3.022   6.747
 4485SOL     OW14353   5.043   2.301   4.569
 4485SOL    HW114354   5.021   2.376   4.508
 4485SOL    HW214355   5.011   2.215   4.529
 4486SOL     OW14356   5.158   4.670   5.165
 4486SOL    HW114357   5.214   4.718   5.232
 4486SOL    HW214358   5.200   4.581   5.144
 4487SOL     OW14359   1.547   2.388   0.063
 4487SOL    HW114360   1.608   2.444   0.007
 4487SOL    HW214361   1.601   2.325   0.119
 4488SOL     OW14362   0.524   4.940   4.293
 4488SOL    HW114363   0.617   4.916   4.320
 4488SOL    HW214364   0.460   4.910   4.364
 4489SOL     OW14365   4.899   5.398   5.364
 4489SOL    HW114366   4.920   5.461   5.438
 4489SOL    HW214367   4.984   5.353   5.333
 4490SOL     OW14368   5.203   1.961   0.917
 4490SOL    HW114369   5.155   1.946   1.003
 4490SOL    HW214370   5.299   1.936   0.927
 4491SOL     OW14371   1.468   3.108   3.320
 4491SOL    HW114372   1.470   3.194   3.371
 4491SOL    HW214373   1.384   3.104   3.266
 4492SOL     OW14374   5.761   0.417   1.849
 4492SOL    HW114375   5.697   0.399   1.774
 4492SOL    HW214376   5.852   0.436   1.811
 4493SOL     OW14377   5.171   0.607   5.305
 4493SOL    HW114378   5.098   0.589   5.239
 4493SOL    HW214379   5.147   0.566   5.393
 4494SOL     OW14380   0.071   0.272   6.850
 4494SOL    HW114381   6.995   0.254   6.840
 4494SOL    HW214382   0.119   0.241   6.768
 4495SOL     OW14383   3.752   5.971   2.063
 4495SOL    HW114384   3.739   5.873   2.051
 4495SOL    HW214385   3.803   6.009   1.986
 4496SOL     OW14386   3.752   6.007   5.877
 4496SOL    HW114387   3.752   5.920   5.926
 4496SOL    HW214388   3.847   6.039   5.864
 4497SOL     OW14389   4.302   1.842   6.329
 4497SOL    HW114390   4.220   1.798   6.292
 4497SOL    HW214391   4.312   1.819   6.426
 4498SOL     OW14392   0.312   5.329   5.713
 4498SOL    HW114393   0.353   5.379   5.790
 4498SOL    HW214394   0.224   5.291   5.742
 4499SOL     OW14395   5.896   1.838   2.650
 4499SOL    HW114396   5.948   1.867   2.731
 4499SOL    HW214397   5.840   1.759   2.673
 4500SOL     OW14398   3.413   5.152   0.351
 4500SOL    HW114399   3.323   5.138   0.309
 4500SOL    HW214400   3.428   5.250   0.364
 4501SOL     OW14401   5.651   1.752   2.186
 4501SOL    HW114402   5.565   1.802   2.181
 4501SOL    HW214403   5.691   1.762   2.277
 4502SOL     OW14404   0.712   3.431   0.056
 4502SOL    HW114405   0.772   3.497   0.013
 4502SOL    HW214406   0.631   3.417   7.022
 4503SOL     OW14407   2.839   0.200   2.300
 4503SOL    HW114408   2.807   0.182   2.207
 4503SOL    HW214409   2.840   0.115   2.353
 4504SOL     OW14410   0.466   1.897   3.369
 4504SOL    HW114411   0.385   1.952   3.349
 4504SOL    HW214412   0.461   1.863   3.463
 4505SOL     OW14413   5.909   3.791   2.716
 4505SOL    HW114414   5.917   3.834   2.806
 4505SOL    HW214415   5.867   3.701   2.725
 4506SOL     OW14416   5.147   3.002   4.450
 4506SOL    HW114417   5.224   3.066   4.449
 4506SOL    HW214418   5.116   2.987   4.356
 4507SOL     OW14419   6.478   3.309   3.469
 4507SOL    HW114420   6.506   3.345   3.380
 4507SOL    HW214421   6.528   3.357   3.542
 4508SOL     OW14422   0.508   4.970   0.666
 4508SOL    HW114423   0.594   4.955   0.619
 4508SOL    HW214424   0.524   4.977   0.765
 4509SOL     OW14425   4.381   1.959   2.287
 4509SOL    HW114426   4.324   1.998   2.359
 4509SOL    HW214427   4.345   1.987   2.198
 4510SOL     OW14428   4.788   1.334   4.464
 4510SOL    HW114429   4.864   1.388   4.500
 4510SOL    HW214430   4.778   1.352   4.366
 4511SOL     OW14431   0.334   4.627   1.148
 4511SOL    HW114432   0.353   4.545   1.202
 4511SOL    HW214433   0.249   4.613   1.096
 4512SOL     OW14434   3.903   2.066   6.059
 4512SOL    HW114435   3.863   2.114   6.137
 4512SOL    HW214436   3.839   2.070   5.982
 4513SOL     OW14437   1.446   6.162   0.293
 4513SOL    HW114438   1.535   6.125   0.318
 4513SOL    HW214439   1.445   6.260   0.310
 4514SOL     OW14440   3.196   3.680   6.401
 4514SOL    HW114441   3.235   3.758   6.449
 4514SOL    HW214442   3.100   3.669   6.427
 4515SOL     OW14443   4.998   6.818   5.478
 4515SOL    HW114444   5.025   6.907   5.515
 4515SOL    HW214445   4.909   6.826   5.433
 4516SOL     OW14446   3.787   1.740   5.512
 4516SOL    HW114447   3.806   1.644   5.535
 4516SOL    HW214448   3.715   1.774   5.573
 4517SOL     OW14449   4.095   0.396   5.912
 4517SOL    HW114450   4.103   0.428   5.817
 4517SOL    HW214451   4.072   0.473   5.971
 4518SOL     OW14452   2.009   0.189   1.086
 4518SOL    HW114453   2.012   0.104   1.033
 4518SOL    HW214454   2.100   0.231   1.086
 4519SOL     OW14455   5.625   6.347   0.142
 4519SOL    HW114456   5.621   6.320   0.238
 4519SOL    HW214457   5.541   6.319   0.096
 4520SOL     OW14458   3.871   6.469   4.993
 4520SOL    HW114459   3.805   6.400   4.964
 4520SOL    HW214460   3.963   6.439   4.968
 4521SOL     OW14461   4.761   2.996   5.015
 4521SOL    HW114462   4.757   3.075   4.954
 4521SOL    HW214463   4.771   2.912   4.962
 4522SOL     OW14464   5.032   3.484   3.394
 4522SOL    HW114465   5.119   3.449   3.360
 4522SOL    HW214466   5.003   3.431   3.474
 4523SOL     OW14467   0.608   3.299   6.315
 4523SOL    HW114468   0.618   3.324   6.219
 4523SOL    HW214469   0.698   3.275   6.353
 4524SOL     OW14470   0.619   3.353   2.825
 4524SOL    HW114471   0.674   3.354   2.909
 4524SOL    HW214472   0.557   3.275   2.827
 4525SOL     OW14473   2.091   2.529   5.996
 4525SOL    HW114474   1.994   2.505   6.003
 4525SOL    HW214475   2.134   2.522   6.086
 4526SOL     OW14476   0.479   6.859   6.068
 4526SOL    HW114477   0.477   6.859   5.968
 4526SOL    HW214478   0.494   6.952   6.101
 4527SOL     OW14479   6.212   0.261   3.297
 4527SOL    HW114480   6.277   0.184   3.302
 4527SOL    HW214481   6.261   0.346   3.318
 4528SOL     OW14482   3.846   1.096   5.394
 4528SOL    HW114483   3.875   1.172   5.452
 4528SOL    HW214484   3.753   1.113   5.361
 4529SOL     OW14485   3.025   1.086   5.328
 4529SOL    HW114486   2.927   1.098   5.321
 4529SOL    HW214487   3.052   1.000   5.285
 4530SOL     OW14488   2.412   6.370   4.850
 4530SOL    HW114489   2.423   6.422   4.935
 4530SOL    HW214490   2.393   6.274   4.871
 4531SOL     OW14491   1.027   5.308   6.153
 4531SOL    HW114492   1.115   5.356   6.155
 4531SOL    HW214493   1.042   5.209   6.151
 4532SOL     OW14494   5.433   0.566   2.722
 4532SOL    HW114495   5.362   0.590   2.656
 4532SOL    HW214496   5.390   0.532   2.806
 4533SOL     OW14497   2.364   0.454   2.083
 4533SOL    HW114498   2.392   0.427   2.175
 4533SOL    HW214499   2.441   0.445   2.020
 4534SOL     OW14500   4.573   1.407   4.110
 4534SOL    HW114501   4.644   1.340   4.134
 4534SOL    HW214502   4.616   1.495   4.089
 4535SOL     OW14503   3.156   1.525   0.881
 4535SOL    HW114504   3.190   1.434   0.905
 4535SOL    HW214505   3.059   1.531   0.906
 4536SOL     OW14506   2.817   1.753   6.310
 4536SOL    HW114507   2.778   1.723   6.397
 4536SOL    HW214508   2.917   1.744   6.313
 4537SOL     OW14509   3.513   4.157   4.398
 4537SOL    HW114510   3.585   4.101   4.358
 4537SOL    HW214511   3.552   4.243   4.432
 4538SOL     OW14512   6.721   2.471   0.863
 4538SOL    HW114513   6.800   2.425   0.904
 4538SOL    HW214514   6.742   2.567   0.847
 4539SOL     OW14515   1.351   5.616   5.762
 4539SOL    HW114516   1.438   5.639   5.805
 4539SOL    HW214517   1.326   5.686   5.696
 4540SOL     OW14518   0.066   1.246   0.935
 4540SOL    HW114519   7.015   1.199   0.985
 4540SOL    HW214520   0.147   1.189   0.932
 4541SOL     OW14521   4.171   2.089   5.833
 4541SOL    HW114522   4.245   2.045   5.885
 4541SOL    HW214523   4.182   2.068   5.736
 4542SOL     OW14524   0.122   2.862   1.110
 4542SOL    HW114525   0.189   2.900   1.174
 4542SOL    HW214526   0.119   2.762   1.120
 4543SOL     OW14527   3.640   2.007   6.880
 4543SOL    HW114528   3.687   2.015   6.792
 4543SOL    HW214529   3.543   2.028   6.868
 4544SOL     OW14530   5.750   5.047   0.551
 4544SOL    HW114531   5.743   5.146   0.566
 4544SOL    HW214532   5.703   5.022   0.467
 4545SOL     OW14533   1.790   3.483   5.152
 4545SOL    HW114534   1.887   3.505   5.140
 4545SOL    HW214535   1.738   3.568   5.162
 4546SOL     OW14536   2.143   1.321   6.400
 4546SOL    HW114537   2.154   1.225   6.373
 4546SOL    HW214538   2.076   1.365   6.341
 4547SOL     OW14539   6.349   0.286   0.151
 4547SOL    HW114540   6.307   0.298   0.241
 4547SOL    HW214541   6.425   0.350   0.141
 4548SOL     OW14542   2.004   3.172   3.136
 4548SOL    HW114543   1.924   3.121   3.166
 4548SOL    HW214544   2.046   3.218   3.215
 4549SOL     OW14545   5.856   4.171   2.878
 4549SOL    HW114546   5.793   4.170   2.956
 4549SOL    HW214547   5.942   4.214   2.905
 4550SOL     OW14548   0.580   4.306   2.883
 4550SOL    HW114549   0.617   4.380   2.825
 4550SOL    HW214550   0.646   4.285   2.955
 4551SOL     OW14551   1.001   3.694   5.141
 4551SOL    HW114552   0.907   3.690   5.107
 4551SOL    HW214553   1.004   3.657   5.234
 4552SOL     OW14554   5.933   1.100   1.321
 4552SOL    HW114555   5.883   1.050   1.391
 4552SOL    HW214556   6.006   1.154   1.364
 4553SOL     OW14557   5.512   5.209   6.102
 4553SOL    HW114558   5.572   5.136   6.070
 4553SOL    HW214559   5.488   5.194   6.198
 4554SOL     OW14560   0.685   6.418   1.687
 4554SOL    HW114561   0.710   6.514   1.702
 4554SOL    HW214562   0.658   6.377   1.774
 4555SOL     OW14563   0.873   1.242   6.901
 4555SOL    HW114564   0.849   1.251   6.998
 4555SOL    HW214565   0.838   1.155   6.866
 4556SOL     OW14566   6.008   3.086   6.091
 4556SOL    HW114567   5.959   3.173   6.086
 4556SOL    HW214568   6.063   3.073   6.009
 4557SOL     OW14569   5.939   4.922   3.064
 4557SOL    HW114570   5.976   4.873   3.143
 4557SOL    HW214571   5.957   5.019   3.074
 4558SOL     OW14572   6.899   3.013   5.561
 4558SOL    HW114573   6.853   3.083   5.506
 4558SOL    HW214574   6.920   3.050   5.652
 4559SOL     OW14575   0.884   3.157   2.562
 4559SOL    HW114576   0.802   3.212   2.549
 4559SOL    HW214577   0.862   3.078   2.619
 4560SOL     OW14578   6.004   4.647   2.522
 4560SOL    HW114579   6.022   4.572   2.459
 4560SOL    HW214580   5.974   4.611   2.610
 4561SOL     OW14581   3.941   2.155   4.430
 4561SOL    HW114582   3.852   2.112   4.415
 4561SOL    HW214583   3.982   2.178   4.341
 4562SOL     OW14584   2.319   0.598   0.897
 4562SOL    HW114585   2.345   0.518   0.951
 4562SOL    HW214586   2.311   0.677   0.957
 4563SOL     OW14587   0.172   2.925   1.777
 4563SOL    HW114588   0.133   2.974   1.699
 4563SOL    HW214589   0.098   2.883   1.829
 4564SOL     OW14590   0.319   4.559   1.994
 4564SOL    HW114591   0.274   4.475   2.026
 4564SOL    HW214592   0.367   4.601   2.071
 4565SOL     OW14593   2.187   6.848   4.958
 4565SOL    HW114594   2.175   6.889   4.868
 4565SOL    HW214595   2.115   6.881   5.019
 4566SOL     OW14596   6.917   4.551   1.712
 4566SOL    HW114597   6.933   4.480   1.644
 4566SOL    HW214598   6.946   4.519   1.802
 4567SOL     OW14599   0.168   0.371   6.185
 4567SOL    HW114600   0.081   0.419   6.170
 4567SOL    HW214601   0.206   0.342   6.098
 4568SOL     OW14602   0.391   5.526   3.560
 4568SOL    HW114603   0.303   5.551   3.519
 4568SOL    HW214604   0.386   5.538   3.659
 4569SOL     OW14605   2.721   1.304   3.133
 4569SOL    HW114606   2.632   1.299   3.086
 4569SOL    HW214607   2.734   1.395   3.172
 4570SOL     OW14608   6.199   5.233   1.431
 4570SOL    HW114609   6.290   5.211   1.466
 4570SOL    HW214610   6.197   5.221   1.332
 4571SOL     OW14611   3.350   3.248   6.205
 4571SOL    HW114612   3.252   3.229   6.207
 4571SOL    HW214613   3.385   3.249   6.299
 4572SOL     OW14614   2.515   2.974   1.000
 4572SOL    HW114615   2.589   3.032   1.034
 4572SOL    HW214616   2.535   2.879   1.024
 4573SOL     OW14617   1.439   6.400   1.061
 4573SOL    HW114618   1.384   6.449   1.128
 4573SOL    HW214619   1.527   6.446   1.049
 4574SOL     OW14620   6.331   3.135   0.350
 4574SOL    HW114621   6.251   3.149   0.291
 4574SOL    HW214622   6.395   3.073   0.306
 4575SOL     OW14623   6.465   0.545   4.050
 4575SOL    HW114624   6.535   0.580   4.111
 4575SOL    HW214625   6.451   0.610   3.975
 4576SOL     OW14626   2.720   5.185   5.159
 4576SOL    HW114627   2.680   5.198   5.249
 4576SOL    HW214628   2.648   5.159   5.094
 4577SOL     OW14629   2.005   1.593   2.955
 4577SOL    HW114630   2.063   1.674   2.963
 4577SOL    HW214631   1.964   1.591   2.864
 4578SOL     OW14632   1.379   0.886   2.103
 4578SOL    HW114633   1.398   0.788   2.103
 4578SOL    HW214634   1.360   0.916   2.196
 4579SOL     OW14635   4.117   0.193   2.075
 4579SOL    HW114636   4.133   0.209   2.172
 4579SOL    HW214637   4.170   0.114   2.045
 4580SOL     OW14638   6.527   3.301   6.857
 4580SOL    HW114639   6.599   3.233   6.847
 4580SOL    HW214640   6.470   3.302   6.774
 4581SOL     OW14641   3.239   6.865   1.907
 4581SOL    HW114642   3.168   6.931   1.933
 4581SOL    HW214643   3.309   6.862   1.979
 4582SOL     OW14644   6.158   0.721   2.639
 4582SOL    HW114645   6.081   0.656   2.637
 4582SOL    HW214646   6.242   0.674   2.611
 4583SOL     OW14647   2.323   7.001   6.928
 4583SOL    HW114648   2.248   6.948   6.968
 4583SOL    HW214649   2.296   0.014   6.838
 4584SOL     OW14650   1.567   0.618   6.045
 4584SOL    HW114651   1.474   0.653   6.029
 4584SOL    HW214652   1.628   0.654   5.974
 4585SOL     OW14653   1.262   4.168   3.177
 4585SOL    HW114654   1.292   4.259   3.151
 4585SOL    HW214655   1.208   4.128   3.104
 4586SOL     OW14656   5.442   4.481   6.745
 4586SOL    HW114657   5.469   4.561   6.799
 4586SOL    HW214658   5.343   4.481   6.734
 4587SOL     OW14659   3.253   3.721   4.575
 4587SOL    HW114660   3.333   3.687   4.525
 4587SOL    HW214661   3.258   3.820   4.582
 4588SOL     OW14662   2.563   3.981   6.054
 4588SOL    HW114663   2.559   4.046   5.979
 4588SOL    HW214664   2.657   3.947   6.063
 4589SOL     OW14665   5.218   6.465   2.151
 4589SOL    HW114666   5.190   6.436   2.059
 4589SOL    HW214667   5.176   6.553   2.173
 4590SOL     OW14668   3.323   5.068   1.980
 4590SOL    HW114669   3.367   5.041   2.066
 4590SOL    HW214670   3.264   5.148   1.997
 4591SOL     OW14671   2.406   0.186   5.546
 4591SOL    HW114672   2.307   0.174   5.553
 4591SOL    HW214673   2.443   0.210   5.636
 4592SOL     OW14674   2.429   1.609   4.714
 4592SOL    HW114675   2.431   1.681   4.644
 4592SOL    HW214676   2.461   1.647   4.801
 4593SOL     OW14677   0.181   5.693   3.842
 4593SOL    HW114678   0.280   5.686   3.829
 4593SOL    HW214679   0.147   5.774   3.795
 4594SOL     OW14680   2.198   0.314   2.654
 4594SOL    HW114681   2.126   0.314   2.723
 4594SOL    HW214682   2.256   0.395   2.666
 4595SOL     OW14683   4.862   1.421   6.372
 4595SOL    HW114684   4.915   1.443   6.290
 4595SOL    HW214685   4.907   1.460   6.452
 4596SOL     OW14686   1.015   0.890   2.219
 4596SOL    HW114687   0.936   0.923   2.270
 4596SOL    HW214688   1.028   0.792   2.239
 4597SOL     OW14689   3.037   5.606   0.076
 4597SOL    HW114690   3.106   5.540   0.107
 4597SOL    HW214691   2.992   5.571   7.016
 4598SOL     OW14692   1.831   5.547   0.153
 4598SOL    HW114693   1.876   5.606   0.087
 4598SOL    HW214694   1.899   5.502   0.210
 4599SOL     OW14695   1.990   4.618   2.686
 4599SOL    HW114696   2.060   4.612   2.757
 4599SOL    HW214697   1.899   4.615   2.728
 4600SOL     OW14698   6.681   6.598   5.476
 4600SOL    HW114699   6.681   6.603   5.376
 4600SOL    HW214700   6.740   6.523   5.506
 4601SOL     OW14701   0.717   0.862   4.425
 4601SOL    HW114702   0.681   0.830   4.338
 4601SOL    HW214703   0.810   0.898   4.412
 4602SOL     OW14704   3.113   1.073   0.036
 4602SOL    HW114705   3.121   0.974   0.029
 4602SOL    HW214706   3.181   1.116   6.998
 4603SOL     OW14707   4.408   5.756   1.108
 4603SOL    HW114708   4.395   5.729   1.204
 4603SOL    HW214709   4.336   5.820   1.082
 4604SOL     OW14710   5.512   6.873   6.031
 4604SOL    HW114711   5.436   6.809   6.034
 4604SOL    HW214712   5.590   6.832   5.982
 4605SOL     OW14713   2.830   6.774   2.072
 4605SOL    HW114714   2.877   6.807   1.990
 4605SOL    HW214715   2.873   6.813   2.153
 4606SOL     OW14716   0.271   6.584   3.220
 4606SOL    HW114717   0.329   6.647   3.272
 4606SOL    HW214718   0.210   6.635   3.161
 4607SOL     OW14719   1.697   3.490   2.540
 4607SOL    HW114720   1.767   3.438   2.589
 4607SOL    HW214721   1.639   3.538   2.606
 4608SOL     OW14722   6.964   3.468   4.791
 4608SOL    HW114723   6.871   3.443   4.818
 4608SOL    HW214724   7.018   3.385   4.775
 4609SOL     OW14725   4.298   6.261   6.427
 4609SOL    HW114726   4.266   6.348   6.466
 4609SOL    HW214727   4.225   6.220   6.372
 4610SOL     OW14728   5.258   1.985   0.666
 4610SOL    HW114729   5.334   2.046   0.642
 4610SOL    HW214730   5.239   1.993   0.764
 4611SOL     OW14731   0.978   0.434   5.884
 4611SOL    HW114732   1.074   0.412   5.902
 4611SOL    HW214733   0.922   0.408   5.963
 4612SOL     OW14734   1.847   6.577   2.266
 4612SOL    HW114735   1.875   6.662   2.310
 4612SOL    HW214736   1.826   6.594   2.170
 4613SOL     OW14737   2.053   4.920   1.859
 4613SOL    HW114738   2.130   4.952   1.913
 4613SOL    HW214739   1.975   4.983   1.870
 4614SOL     OW14740   6.493   3.485   4.805
 4614SOL    HW114741   6.489   3.422   4.882
 4614SOL    HW214742   6.570   3.548   4.816
 4615SOL     OW14743   1.523   1.848   1.297
 4615SOL    HW114744   1.527   1.798   1.383
 4615SOL    HW214745   1.482   1.790   1.226
 4616SOL     OW14746   6.252   3.053   4.396
 4616SOL    HW114747   6.255   3.107   4.312
 4616SOL    HW214748   6.298   3.102   4.469
 4617SOL     OW14749   0.361   2.361   2.391
 4617SOL    HW114750   0.384   2.269   2.423
 4617SOL    HW214751   0.332   2.417   2.469
 4618SOL     OW14752   2.703   4.501   5.969
 4618SOL    HW114753   2.645   4.567   5.921
 4618SOL    HW214754   2.785   4.483   5.914
 4619SOL     OW14755   3.057   6.116   4.846
 4619SOL    HW114756   2.966   6.138   4.883
 4619SOL    HW214757   3.065   6.155   4.755
 4620SOL     OW14758   0.720   5.596   2.552
 4620SOL    HW114759   0.647   5.642   2.501
 4620SOL    HW214760   0.808   5.632   2.522
 4621SOL     OW14761   4.973   0.571   2.575
 4621SOL    HW114762   4.958   0.669   2.590
 4621SOL    HW214763   4.920   0.541   2.496
 4622SOL     OW14764   4.334   5.550   1.407
 4622SOL    HW114765   4.246   5.569   1.363
 4622SOL    HW214766   4.369   5.462   1.373
 4623SOL     OW14767   2.911   5.079   1.157
 4623SOL    HW114768   2.914   5.008   1.227
 4623SOL    HW214769   2.833   5.063   1.097
 4624SOL     OW14770   4.095   1.082   3.063
 4624SOL    HW114771   4.094   1.127   3.153
 4624SOL    HW214772   4.081   0.984   3.075
 4625SOL     OW14773   1.817   5.071   1.845
 4625SOL    HW114774   1.776   5.073   1.937
 4625SOL    HW214775   1.766   5.007   1.788
 4626SOL     OW14776   3.897   3.939   1.794
 4626SOL    HW114777   3.906   4.037   1.773
 4626SOL    HW214778   3.968   3.888   1.746
 4627SOL     OW14779   6.731   6.395   4.825
 4627SOL    HW114780   6.828   6.420   4.834
 4627SOL    HW214781   6.718   6.343   4.741
 4628SOL     OW14782   4.677   5.334   3.376
 4628SOL    HW114783   4.629   5.249   3.352
 4628SOL    HW214784   4.704   5.382   3.293
 4629SOL     OW14785   2.055   6.146   6.911
 4629SOL    HW114786   1.999   6.075   6.867
 4629SOL    HW214787   2.149   6.113   6.921
 4630SOL     OW14788   1.701   4.294   1.867
 4630SOL    HW114789   1.703   4.326   1.962
 4630SOL    HW214790   1.650   4.358   1.811
 4631SOL     OW14791   0.362   0.971   3.737
 4631SOL    HW114792   0.282   0.950   3.794
 4631SOL    HW214793   0.348   1.059   3.693
 4632SOL     OW14794   3.516   4.911   2.552
 4632SOL    HW114795   3.522   4.902   2.452
 4632SOL    HW214796   3.435   4.862   2.585
 4633SOL     OW14797   5.237   1.364   3.931
 4633SOL    HW114798   5.282   1.434   3.876
 4633SOL    HW214799   5.249   1.275   3.887
 4634SOL     OW14800   3.223   3.297   4.660
 4634SOL    HW114801   3.163   3.219   4.645
 4634SOL    HW214802   3.169   3.377   4.688
 4635SOL     OW14803   5.375   5.637   0.399
 4635SOL    HW114804   5.319   5.567   0.443
 4635SOL    HW214805   5.368   5.722   0.451
 4636SOL     OW14806   2.215   5.662   0.161
 4636SOL    HW114807   2.191   5.666   0.258
 4636SOL    HW214808   2.189   5.573   0.123
 4637SOL     OW14809   1.931   0.250   2.397
 4637SOL    HW114810   2.010   0.268   2.337
 4637SOL    HW214811   1.963   0.211   2.483
 4638SOL     OW14812   4.166   4.974   0.682
 4638SOL    HW114813   4.189   5.070   0.665
 4638SOL    HW214814   4.097   4.944   0.617
 4639SOL     OW14815   2.024   1.868   0.528
 4639SOL    HW114816   2.015   1.954   0.478
 4639SOL    HW214817   1.964   1.799   0.486
 4640SOL     OW14818   6.782   3.230   5.343
 4640SOL    HW114819   6.837   3.214   5.261
 4640SOL    HW214820   6.711   3.160   5.349
 4641SOL     OW14821   0.620   5.743   3.982
 4641SOL    HW114822   0.699   5.686   4.005
 4641SOL    HW214823   0.563   5.754   4.063
 4642SOL     OW14824   1.311   2.040   3.362
 4642SOL    HW114825   1.388   2.104   3.360
 4642SOL    HW214826   1.260   2.053   3.447
 4643SOL     OW14827   0.052   1.968   6.915
 4643SOL    HW114828   0.144   1.952   6.880
 4643SOL    HW214829   0.008   2.042   6.863
 4644SOL     OW14830   1.983   0.836   0.879
 4644SOL    HW114831   1.944   0.927   0.864
 4644SOL    HW214832   2.021   0.830   0.971
 4645SOL     OW14833   1.484   0.846   3.472
 4645SOL    HW114834   1.431   0.906   3.410
 4645SOL    HW214835   1.570   0.821   3.428
 4646SOL     OW14836   1.822   5.174   3.557
 4646SOL    HW114837   1.740   5.229   3.573
 4646SOL    HW214838   1.797   5.091   3.506
 4647SOL     OW14839   1.702   6.937   2.810
 4647SOL    HW114840   1.748   6.858   2.768
 4647SOL    HW214841   1.690   7.009   2.742
 4648SOL     OW14842   3.073   1.447   4.495
 4648SOL    HW114843   3.065   1.390   4.576
 4648SOL    HW214844   2.987   1.448   4.445
 4649SOL     OW14845   6.113   0.567   0.221
 4649SOL    HW114846   6.130   0.516   0.136
 4649SOL    HW214847   6.081   0.504   0.291
 4650SOL     OW14848   5.247   6.698   1.336
 4650SOL    HW114849   5.286   6.752   1.410
 4650SOL    HW214850   5.196   6.620   1.374
 4651SOL     OW14851   6.185   2.860   5.905
 4651SOL    HW114852   6.261   2.808   5.867
 4651SOL    HW214853   6.150   2.814   5.987
 4652SOL     OW14854   0.041   6.063   4.608
 4652SOL    HW114855   6.974   6.109   4.615
 4652SOL    HW214856   0.101   6.114   4.547
 4653SOL     OW14857   5.344   5.873   1.326
 4653SOL    HW114858   5.308   5.780   1.327
 4653SOL    HW214859   5.297   5.927   1.256
 4654SOL     OW14860   6.774   6.645   4.677
 4654SOL    HW114861   6.845   6.613   4.740
 4654SOL    HW214862   6.714   6.569   4.653
 4655SOL     OW14863   4.665   2.901   1.083
 4655SOL    HW114864   4.574   2.858   1.082
 4655SOL    HW214865   4.728   2.843   1.135
 4656SOL     OW14866   0.933   1.304   1.558
 4656SOL    HW114867   0.944   1.238   1.484
 4656SOL    HW214868   0.933   1.256   1.646
 4657SOL     OW14869   5.077   6.699   2.679
 4657SOL    HW114870   5.130   6.616   2.699
 4657SOL    HW214871   5.116   6.777   2.728
 4658SOL     OW14872   2.732   2.323   5.098
 4658SOL    HW114873   2.806   2.276   5.146
 4658SOL    HW214874   2.681   2.380   5.162
 4659SOL     OW14875   3.418   4.534   0.931
 4659SOL    HW114876   3.328   4.576   0.914
 4659SOL    HW214877   3.414   4.437   0.908
 4660SOL     OW14878   1.123   6.290   4.281
 4660SOL    HW114879   1.198   6.224   4.275
 4660SOL    HW214880   1.129   6.354   4.204
 4661SOL     OW14881   2.162   3.335   6.060
 4661SOL    HW114882   2.125   3.382   5.980
 4661SOL    HW214883   2.250   3.294   6.037
 4662SOL     OW14884   2.661   6.485   4.724
 4662SOL    HW114885   2.611   6.408   4.763
 4662SOL    HW214886   2.642   6.491   4.626
 4663SOL     OW14887   0.886   0.214   0.037
 4663SOL    HW114888   0.802   0.165   0.062
 4663SOL    HW214889   0.867   0.311   0.029
 4664SOL     OW14890   6.438   6.481   0.264
 4664SOL    HW114891   6.503   6.505   0.336
 4664SOL    HW214892   6.379   6.560   0.245
 4665SOL     OW14893   2.193   0.714   5.208
 4665SOL    HW114894   2.156   0.730   5.117
 4665SOL    HW214895   2.222   0.801   5.248
 4666SOL     OW14896   1.822   2.460   6.090
 4666SOL    HW114897   1.864   2.370   6.089
 4666SOL    HW214898   1.778   2.475   6.179
 4667SOL     OW14899   6.670   3.610   1.637
 4667SOL    HW114900   6.759   3.653   1.654
 4667SOL    HW214901   6.662   3.584   1.541
 4668SOL     OW14902   4.263   2.306   4.404
 4668SOL    HW114903   4.322   2.238   4.361
 4668SOL    HW214904   4.168   2.284   4.386
 4669SOL     OW14905   5.439   6.924   0.354
 4669SOL    HW114906   5.435   7.008   0.299
 4669SOL    HW214907   5.447   6.845   0.293
 4670SOL     OW14908   0.593   3.514   0.288
 4670SOL    HW114909   0.611   3.459   0.206
 4670SOL    HW214910   0.679   3.548   0.325
 4671SOL     OW14911   0.380   3.817   0.123
 4671SOL    HW114912   0.474   3.836   0.152
 4671SOL    HW214913   0.328   3.902   0.123
 4672SOL     OW14914   3.355   4.202   5.742
 4672SOL    HW114915   3.265   4.245   5.755
 4672SOL    HW214916   3.353   4.110   5.780
 4673SOL     OW14917   5.604   0.525   6.725
 4673SOL    HW114918   5.703   0.535   6.722
 4673SOL    HW214919   5.580   0.428   6.726
 4674SOL     OW14920   0.671   1.853   0.251
 4674SOL    HW114921   0.628   1.798   0.323
 4674SOL    HW214922   0.694   1.943   0.287
 4675SOL     OW14923   3.272   5.790   0.060
 4675SOL    HW114924   3.360   5.749   0.036
 4675SOL    HW214925   3.207   5.717   0.083
 4676SOL     OW14926   0.648   6.294   3.763
 4676SOL    HW114927   0.589   6.258   3.836
 4676SOL    HW214928   0.591   6.321   3.685
 4677SOL     OW14929   4.524   0.322   6.274
 4677SOL    HW114930   4.516   0.272   6.188
 4677SOL    HW214931   4.487   0.267   6.349
 4678SOL     OW14932   1.924   4.993   0.416
 4678SOL    HW114933   1.966   4.914   0.371
 4678SOL    HW214934   1.968   5.009   0.504
 4679SOL     OW14935   2.566   0.555   6.128
 4679SOL    HW114936   2.472   0.530   6.150
 4679SOL    HW214937   2.626   0.478   6.145
 4680SOL     OW14938   1.530   5.019   0.775
 4680SOL    HW114939   1.605   5.065   0.821
 4680SOL    HW214940   1.448   5.076   0.778
 4681SOL     OW14941   0.033   4.789   5.693
 4681SOL    HW114942   0.084   4.875   5.687
 4681SOL    HW214943   6.995   4.781   5.613
 4682SOL     OW14944   4.249   6.401   0.360
 4682SOL    HW114945   4.328   6.346   0.389
 4682SOL    HW214946   4.178   6.396   0.429
 4683SOL     OW14947   5.867   3.721   2.272
 4683SOL    HW114948   5.844   3.817   2.282
 4683SOL    HW214949   5.783   3.668   2.257
 4684SOL     OW14950   1.277   1.990   4.595
 4684SOL    HW114951   1.277   2.081   4.637
 4684SOL    HW214952   1.331   1.992   4.511
 4685SOL     OW14953   5.053   5.016   4.283
 4685SOL    HW114954   5.087   5.110   4.287
 4685SOL    HW214955   5.029   4.986   4.376
 4686SOL     OW14956   4.748   5.401   6.333
 4686SOL    HW114957   4.796   5.460   6.398
 4686SOL    HW214958   4.804   5.320   6.314
 4687SOL     OW14959   5.825   4.489   4.946
 4687SOL    HW114960   5.836   4.580   4.908
 4687SOL    HW214961   5.734   4.481   4.988
 4688SOL     OW14962   0.594   3.147   6.770
 4688SOL    HW114963   0.693   3.158   6.781
 4688SOL    HW214964   0.551   3.237   6.766
 4689SOL     OW14965   6.903   5.970   4.989
 4689SOL    HW114966   6.908   5.937   5.083
 4689SOL    HW214967   6.843   5.911   4.936
 4690SOL     OW14968   1.465   1.250   0.305
 4690SOL    HW114969   1.495   1.325   0.364
 4690SOL    HW214970   1.492   1.270   0.211
 4691SOL     OW14971   2.601   4.508   1.009
 4691SOL    HW114972   2.532   4.487   1.078
 4691SOL    HW214973   2.688   4.529   1.053
 4692SOL     OW14974   6.974   5.129   3.371
 4692SOL    HW114975   6.948   5.094   3.461
 4692SOL    HW214976   0.052   5.133   3.364
 4693SOL     OW14977   0.269   1.148   4.354
 4693SOL    HW114978   0.253   1.142   4.255
 4693SOL    HW214979   0.366   1.163   4.371
 4694SOL     OW14980   1.772   1.232   0.451
 4694SOL    HW114981   1.742   1.264   0.540
 4694SOL    HW214982   1.716   1.154   0.423
 4695SOL     OW14983   3.682   2.824   2.110
 4695SOL    HW114984   3.604   2.804   2.051
 4695SOL    HW214985   3.715   2.916   2.091
 4696SOL     OW14986   6.872   3.262   6.019
 4696SOL    HW114987   6.935   3.332   5.985
 4696SOL    HW214988   6.778   3.293   6.004
 4697SOL     OW14989   1.004   4.368   6.990
 4697SOL    HW114990   0.988   4.284   0.021
 4697SOL    HW214991   1.078   4.420   0.011
 4698SOL     OW14992   5.551   3.796   1.305
 4698SOL    HW114993   5.619   3.742   1.255
 4698SOL    HW214994   5.570   3.894   1.291
 4699SOL     OW14995   0.300   0.800   2.542
 4699SOL    HW114996   0.251   0.831   2.624
 4699SOL    HW214997   0.244   0.818   2.461
 4700SOL     OW14998   4.949   1.540   0.993
 4700SOL    HW114999   4.913   1.510   0.905
 4700SOL    HW215000   5.011   1.470   1.029
 4701SOL     OW15001   0.953   1.536   0.002
 4701SOL    HW115002   0.911   1.626   0.002
 4701SOL    HW215003   0.994   1.517   6.935
 4702SOL     OW15004   3.538   4.131   0.282
 4702SOL    HW115005   3.627   4.092   0.257
 4702SOL    HW215006   3.472   4.057   0.294
 4703SOL     OW15007   2.137   0.753   2.679
 4703SOL    HW115008   2.134   0.808   2.763
 4703SOL    HW215009   2.201   0.677   2.691
 4704SOL     OW15010   0.239   6.548   0.608
 4704SOL    HW115011   0.168   6.595   0.557
 4704SOL    HW215012   0.204   6.523   0.698
 4705SOL     OW15013   3.651   3.271   4.453
 4705SOL    HW115014   3.704   3.344   4.409
 4705SOL    HW215015   3.708   3.189   4.462
 4706SOL     OW15016   4.162   6.446   6.883
 4706SOL    HW115017   4.215   6.444   6.968
 4706SOL    HW215018   4.088   6.513   6.891
 4707SOL     OW15019   2.175   5.658   1.335
 4707SOL    HW115020   2.097   5.708   1.373
 4707SOL    HW215021   2.147   5.613   1.250
 4708SOL     OW15022   3.181   2.713   1.369
 4708SOL    HW115023   3.273   2.708   1.408
 4708SOL    HW215024   3.167   2.804   1.329
 4709SOL     OW15025   4.025   5.032   5.281
 4709SOL    HW115026   3.954   5.101   5.264
 4709SOL    HW215027   4.110   5.078   5.306
 4710SOL     OW15028   4.587   1.141   6.692
 4710SOL    HW115029   4.650   1.096   6.628
 4710SOL    HW215030   4.499   1.155   6.647
 4711SOL     OW15031   3.277   6.994   2.531
 4711SOL    HW115032   3.365   6.977   2.574
 4711SOL    HW215033   3.206   6.940   2.576
 4712SOL     OW15034   1.970   4.758   0.710
 4712SOL    HW115035   2.010   4.727   0.796
 4712SOL    HW215036   1.870   4.754   0.716
 4713SOL     OW15037   2.278   5.414   1.388
 4713SOL    HW115038   2.257   5.511   1.375
 4713SOL    HW215039   2.227   5.359   1.322
 4714SOL     OW15040   3.249   2.122   1.811
 4714SOL    HW115041   3.151   2.138   1.799
 4714SOL    HW215042   3.269   2.025   1.802
 4715SOL     OW15043   0.032   2.483   3.143
 4715SOL    HW115044   0.074   2.415   3.203
 4715SOL    HW215045   0.007   2.440   3.056
 4716SOL     OW15046   3.580   5.737   0.327
 4716SOL    HW115047   3.506   5.670   0.334
 4716SOL    HW215048   3.605   5.769   0.418
 4717SOL     OW15049   0.922   5.918   3.369
 4717SOL    HW115050   0.930   5.907   3.468
 4717SOL    HW215051   0.955   6.009   3.343
 4718SOL     OW15052   5.532   1.266   6.232
 4718SOL    HW115053   5.527   1.167   6.241
 4718SOL    HW215054   5.623   1.293   6.200
 4719SOL     OW15055   5.251   3.082   1.913
 4719SOL    HW115056   5.335   3.048   1.954
 4719SOL    HW215057   5.227   3.027   1.833
 4720SOL     OW15058   2.465   0.187   5.824
 4720SOL    HW115059   2.541   0.248   5.843
 4720SOL    HW215060   2.462   0.114   5.892
 4721SOL     OW15061   1.748   2.135   1.016
 4721SOL    HW115062   1.736   2.036   1.025
 4721SOL    HW215063   1.736   2.161   0.920
 4722SOL     OW15064   1.603   0.109   0.288
 4722SOL    HW115065   1.586   0.205   0.269
 4722SOL    HW215066   1.516   0.063   0.309
 4723SOL     OW15067   2.504   6.918   6.538
 4723SOL    HW115068   2.595   6.950   6.565
 4723SOL    HW215069   2.475   6.846   6.601
 4724SOL     OW15070   3.573   6.534   1.549
 4724SOL    HW115071   3.650   6.509   1.607
 4724SOL    HW215072   3.584   6.490   1.459
 4725SOL     OW15073   5.554   6.432   3.405
 4725SOL    HW115074   5.651   6.454   3.397
 4725SOL    HW215075   5.514   6.486   3.479
 4726SOL     OW15076   1.183   4.049   6.775
 4726SOL    HW115077   1.090   4.055   6.812
 4726SOL    HW215078   1.247   4.087   6.842
 4727SOL     OW15079   6.734   5.632   6.776
 4727SOL    HW115080   6.751   5.656   6.680
 4727SOL    HW215081   6.686   5.707   6.821
 4728SOL     OW15082   0.198   0.775   6.379
 4728SOL    HW115083   0.108   0.808   6.351
 4728SOL    HW215084   0.197   0.675   6.387
 4729SOL     OW15085   3.316   0.025   2.271
 4729SOL    HW115086   3.315   0.027   2.371
 4729SOL    HW215087   3.410   0.034   2.238
 4730SOL     OW15088   2.127   6.310   6.001
 4730SOL    HW115089   2.208   6.261   5.969
 4730SOL    HW215090   2.089   6.264   6.081
 4731SOL     OW15091   5.855   1.125   4.783
 4731SOL    HW115092   5.935   1.067   4.761
 4731SOL    HW215093   5.886   1.210   4.825
 4732SOL     OW15094   0.288   3.221   6.934
 4732SOL    HW115095   0.357   3.278   6.890
 4732SOL    HW215096   0.203   3.224   6.880
 4733SOL     OW15097   0.102   4.231   3.512
 4733SOL    HW115098   0.119   4.173   3.433
 4733SOL    HW215099   0.188   4.264   3.549
 4734SOL     OW15100   4.280   4.004   6.575
 4734SOL    HW115101   4.309   4.072   6.507
 4734SOL    HW215102   4.186   3.975   6.554
 4735SOL     OW15103   0.872   4.959   3.828
 4735SOL    HW115104   0.920   4.885   3.780
 4735SOL    HW215105   0.930   5.041   3.829
 4736SOL     OW15106   1.081   0.816   0.205
 4736SOL    HW115107   1.012   0.869   0.254
 4736SOL    HW215108   1.172   0.855   0.223
 4737SOL     OW15109   2.581   4.856   2.022
 4737SOL    HW115110   2.555   4.761   2.043
 4737SOL    HW215111   2.674   4.857   1.985
 4738SOL     OW15112   6.596   6.616   1.842
 4738SOL    HW115113   6.605   6.707   1.800
 4738SOL    HW215114   6.553   6.553   1.777
 4739SOL     OW15115   4.535   0.483   2.415
 4739SOL    HW115116   4.513   0.388   2.391
 4739SOL    HW215117   4.450   0.533   2.433
 4740SOL     OW15118   1.248   1.897   2.725
 4740SOL    HW115119   1.324   1.833   2.730
 4740SOL    HW215120   1.191   1.876   2.645
 4741SOL     OW15121   4.346   3.488   1.707
 4741SOL    HW115122   4.397   3.403   1.719
 4741SOL    HW215123   4.409   3.562   1.682
 4742SOL     OW15124   3.233   6.927   0.560
 4742SOL    HW115125   3.287   6.907   0.642
 4742SOL    HW215126   3.170   7.003   0.579
 4743SOL     OW15127   2.269   4.847   1.063
 4743SOL    HW115128   2.244   4.924   1.122
 4743SOL    HW215129   2.186   4.801   1.032
 4744SOL     OW15130   1.702   6.782   0.803
 4744SOL    HW115131   1.742   6.798   0.893
 4744SOL    HW215132   1.602   6.775   0.812
 4745SOL     OW15133   1.798   4.337   0.258
 4745SOL    HW115134   1.816   4.404   0.331
 4745SOL    HW215135   1.802   4.245   0.296
 4746SOL     OW15136   4.153   5.643   4.432
 4746SOL    HW115137   4.149   5.659   4.531
 4746SOL    HW215138   4.175   5.547   4.415
 4747SOL     OW15139   1.629   2.567   0.934
 4747SOL    HW115140   1.689   2.559   1.014
 4747SOL    HW215141   1.649   2.493   0.870
 4748SOL     OW15142   1.906   6.372   3.145
 4748SOL    HW115143   1.821   6.389   3.095
 4748SOL    HW215144   1.964   6.453   3.140
 4749SOL     OW15145   2.022   0.091   0.473
 4749SOL    HW115146   1.999   0.157   0.544
 4749SOL    HW215147   2.059   0.008   0.514
 4750SOL     OW15148   5.465   3.304   5.626
 4750SOL    HW115149   5.399   3.249   5.678
 4750SOL    HW215150   5.544   3.247   5.602
 4751SOL     OW15151   4.654   0.884   2.962
 4751SOL    HW115152   4.721   0.936   3.013
 4751SOL    HW215153   4.563   0.896   3.003
 4752SOL     OW15154   4.495   2.270   6.903
 4752SOL    HW115155   4.545   2.195   6.859
 4752SOL    HW215156   4.420   2.299   6.844
 4753SOL     OW15157   2.611   6.268   5.148
 4753SOL    HW115158   2.636   6.203   5.076
 4753SOL    HW215159   2.561   6.345   5.107
 4754SOL     OW15160   4.403   4.789   6.396
 4754SOL    HW115161   4.499   4.775   6.423
 4754SOL    HW215162   4.396   4.871   6.340
 4755SOL     OW15163   1.218   0.716   1.230
 4755SOL    HW115164   1.308   0.705   1.189
 4755SOL    HW215165   1.200   0.813   1.246
 4756SOL     OW15166   6.447   3.957   6.643
 4756SOL    HW115167   6.352   3.984   6.626
 4756SOL    HW215168   6.507   4.009   6.583
 4757SOL     OW15169   1.764   3.469   1.670
 4757SOL    HW115170   1.852   3.455   1.715
 4757SOL    HW215171   1.777   3.521   1.586
 4758SOL     OW15172   1.857   0.061   2.988
 4758SOL    HW115173   1.788   0.088   3.055
 4758SOL    HW215174   1.820   7.011   2.929
 4759SOL     OW15175   1.127   5.011   1.265
 4759SOL    HW115176   1.049   4.971   1.314
 4759SOL    HW215177   1.210   4.998   1.319
 4760SOL     OW15178   1.781   6.560   0.655
 4760SOL    HW115179   1.758   6.486   0.717
 4760SOL    HW215180   1.771   6.648   0.702
 4761SOL     OW15181   0.112   6.979   1.081
 4761SOL    HW115182   0.168   6.940   1.155
 4761SOL    HW215183   0.096   0.054   1.099
 4762SOL     OW15184   1.800   5.898   2.374
 4762SOL    HW115185   1.828   5.858   2.286
 4762SOL    HW215186   1.878   5.897   2.436
 4763SOL     OW15187   4.732   6.028   2.152
 4763SOL    HW115188   4.807   6.073   2.200
 4763SOL    HW215189   4.659   6.006   2.217
 4764SOL     OW15190   4.049   3.926   5.946
 4764SOL    HW115191   4.012   3.883   5.864
 4764SOL    HW215192   4.059   3.857   6.018
 4765SOL     OW15193   3.728   1.792   4.812
 4765SOL    HW115194   3.767   1.851   4.883
 4765SOL    HW215195   3.644   1.832   4.778
 4766SOL     OW15196   7.016   6.803   3.988
 4766SOL    HW115197   0.021   6.809   4.084
 4766SOL    HW215198   7.003   6.706   3.964
 4767SOL     OW15199   2.253   4.705   5.388
 4767SOL    HW115200   2.308   4.784   5.361
 4767SOL    HW215201   2.159   4.735   5.405
 4768SOL     OW15202   4.477   2.170   0.157
 4768SOL    HW115203   4.422   2.095   0.192
 4768SOL    HW215204   4.456   2.184   0.060
 4769SOL     OW15205   3.067   5.345   1.391
 4769SOL    HW115206   3.090   5.309   1.481
 4769SOL    HW215207   2.968   5.354   1.383
 4770SOL     OW15208   0.603   1.158   5.629
 4770SOL    HW115209   0.589   1.121   5.537
 4770SOL    HW215210   0.574   1.090   5.696
 4771SOL     OW15211   2.097   6.576   5.371
 4771SOL    HW115212   2.135   6.657   5.416
 4771SOL    HW215213   2.032   6.532   5.432
 4772SOL     OW15214   2.086   6.314   1.309
 4772SOL    HW115215   2.101   6.258   1.228
 4772SOL    HW215216   2.059   6.256   1.385
 4773SOL     OW15217   2.483   5.340   5.380
 4773SOL    HW115218   2.512   5.418   5.436
 4773SOL    HW215219   2.497   5.255   5.431
 4774SOL     OW15220   1.603   4.002   0.410
 4774SOL    HW115221   1.619   4.066   0.485
 4774SOL    HW215222   1.683   3.942   0.400
 4775SOL     OW15223   5.758   6.671   5.124
 4775SOL    HW115224   5.845   6.711   5.154
 4775SOL    HW215225   5.683   6.734   5.143
 4776SOL     OW15226   1.068   0.940   5.794
 4776SOL    HW115227   1.079   0.901   5.886
 4776SOL    HW215228   0.973   0.928   5.764
 4777SOL     OW15229   0.891   6.325   1.310
 4777SOL    HW115230   0.871   6.283   1.399
 4777SOL    HW215231   0.951   6.404   1.322
 4778SOL     OW15232   1.502   2.843   5.841
 4778SOL    HW115233   1.525   2.795   5.756
 4778SOL    HW215234   1.468   2.935   5.819
 4779SOL     OW15235   5.262   1.012   3.599
 4779SOL    HW115236   5.258   1.060   3.687
 4779SOL    HW215237   5.197   1.054   3.536
 4780SOL     OW15238   6.207   2.307   5.043
 4780SOL    HW115239   6.118   2.289   5.085
 4780SOL    HW215240   6.279   2.271   5.101
 4781SOL     OW15241   2.419   6.249   2.948
 4781SOL    HW115242   2.378   6.273   2.860
 4781SOL    HW215243   2.518   6.236   2.935
 4782SOL     OW15244   5.750   5.321   4.107
 4782SOL    HW115245   5.650   5.323   4.098
 4782SOL    HW215246   5.792   5.311   4.017
 4783SOL     OW15247   6.075   2.753   1.173
 4783SOL    HW115248   6.045   2.808   1.095
 4783SOL    HW215249   6.130   2.809   1.235
 4784SOL     OW15250   5.344   2.096   6.075
 4784SOL    HW115251   5.359   2.135   5.984
 4784SOL    HW215252   5.428   2.103   6.129
 4785SOL     OW15253   0.454   5.571   3.847
 4785SOL    HW115254   0.494   5.646   3.899
 4785SOL    HW215255   0.450   5.489   3.904
 4786SOL     OW15256   2.616   6.319   0.671
 4786SOL    HW115257   2.657   6.342   0.582
 4786SOL    HW215258   2.625   6.221   0.687
 4787SOL     OW15259   3.284   1.005   4.420
 4787SOL    HW115260   3.213   0.935   4.419
 4787SOL    HW215261   3.300   1.037   4.326
 4788SOL     OW15262   6.147   6.582   6.479
 4788SOL    HW115263   6.107   6.671   6.501
 4788SOL    HW215264   6.137   6.564   6.381
 4789SOL     OW15265   5.261   0.597   2.523
 4789SOL    HW115266   5.163   0.577   2.516
 4789SOL    HW215267   5.296   0.629   2.435
 4790SOL     OW15268   6.163   2.271   4.776
 4790SOL    HW115269   6.075   2.312   4.756
 4790SOL    HW215270   6.183   2.279   4.874
 4791SOL     OW15271   6.919   2.026   0.398
 4791SOL    HW115272   6.894   2.089   0.325
 4791SOL    HW215273   6.851   2.030   0.471
 4792SOL     OW15274   2.123   3.556   3.939
 4792SOL    HW115275   2.068   3.626   3.893
 4792SOL    HW215276   2.161   3.594   4.024
 4793SOL     OW15277   0.806   3.590   5.679
 4793SOL    HW115278   0.785   3.686   5.697
 4793SOL    HW215279   0.863   3.554   5.753
 4794SOL     OW15280   4.438   0.652   3.878
 4794SOL    HW115281   4.362   0.626   3.818
 4794SOL    HW215282   4.482   0.734   3.841
 4795SOL     OW15283   0.876   1.246   5.253
 4795SOL    HW115284   0.965   1.268   5.293
 4795SOL    HW215285   0.821   1.195   5.320
 4796SOL     OW15286   3.969   1.685   5.292
 4796SOL    HW115287   3.893   1.698   5.355
 4796SOL    HW215288   3.944   1.719   5.201
 4797SOL     OW15289   0.819   5.742   4.606
 4797SOL    HW115290   0.889   5.742   4.677
 4797SOL    HW215291   0.815   5.832   4.563
 4798SOL     OW15292   4.602   4.169   6.175
 4798SOL    HW115293   4.539   4.247   6.171
 4798SOL    HW215294   4.583   4.116   6.258
 4799SOL     OW15295   3.593   3.241   6.780
 4799SOL    HW115296   3.527   3.263   6.708
 4799SOL    HW215297   3.591   3.143   6.798
 4800SOL     OW15298   0.866   4.803   0.229
 4800SOL    HW115299   0.796   4.737   0.257
 4800SOL    HW215300   0.844   4.839   0.139
 4801SOL     OW15301   4.720   2.664   1.685
 4801SOL    HW115302   4.728   2.662   1.785
 4801SOL    HW215303   4.697   2.757   1.656
 4802SOL     OW15304   0.010   0.061   2.510
 4802SOL    HW115305   6.932   0.061   2.511
 4802SOL    HW215306   0.045   7.005   2.562
 4803SOL     OW15307   5.623   3.909   6.002
 4803SOL    HW115308   5.614   3.953   5.913
 4803SOL    HW215309   5.689   3.959   6.058
 4804SOL     OW15310   5.319   1.100   0.338
 4804SOL    HW115311   5.393   1.157   0.374
 4804SOL    HW215312   5.336   1.004   0.364
 4805SOL     OW15313   6.133   2.016   0.814
 4805SOL    HW115314   6.137   1.922   0.779
 4805SOL    HW215315   6.221   2.062   0.797
 4806SOL     OW15316   0.864   1.780   3.726
 4806SOL    HW115317   0.825   1.689   3.713
 4806SOL    HW215318   0.962   1.772   3.746
 4807SOL     OW15319   0.992   2.631   6.273
 4807SOL    HW115320   1.089   2.631   6.249
 4807SOL    HW215321   0.940   2.586   6.201
 4808SOL     OW15322   4.078   5.729   0.521
 4808SOL    HW115323   4.176   5.741   0.535
 4808SOL    HW215324   4.054   5.759   0.428
 4809SOL     OW15325   3.744   4.884   1.743
 4809SOL    HW115326   3.699   4.854   1.827
 4809SOL    HW215327   3.706   4.972   1.714
 4810SOL     OW15328   0.678   4.158   3.627
 4810SOL    HW115329   0.723   4.112   3.705
 4810SOL    HW215330   0.718   4.248   3.614
 4811SOL     OW15331   2.893   3.699   4.821
 4811SOL    HW115332   2.796   3.699   4.797
 4811SOL    HW215333   2.941   3.629   4.767
 4812SOL     OW15334   0.616   0.180   2.118
 4812SOL    HW115335   0.638   0.147   2.210
 4812SOL    HW215336   0.529   0.140   2.088
 4813SOL     OW15337   6.414   1.397   6.651
 4813SOL    HW115338   6.479   1.389   6.575
 4813SOL    HW215339   6.441   1.474   6.709
 4814SOL     OW15340   6.809   3.797   1.887
 4814SOL    HW115341   6.862   3.814   1.804
 4814SOL    HW215342   6.733   3.862   1.891
 4815SOL     OW15343   5.556   4.720   2.892
 4815SOL    HW115344   5.625   4.702   2.822
 4815SOL    HW215345   5.469   4.679   2.865
 4816SOL     OW15346   1.712   0.248   2.241
 4816SOL    HW115347   1.755   0.278   2.156
 4816SOL    HW215348   1.783   0.240   2.312
 4817SOL     OW15349   4.042   1.471   1.132
 4817SOL    HW115350   4.090   1.424   1.206
 4817SOL    HW215351   4.051   1.418   1.048
 4818SOL     OW15352   3.543   0.491   4.986
 4818SOL    HW115353   3.532   0.512   5.084
 4818SOL    HW215354   3.464   0.440   4.954
 4819SOL     OW15355   2.729   0.643   1.107
 4819SOL    HW115356   2.693   0.667   1.198
 4819SOL    HW215357   2.804   0.578   1.118
 4820SOL     OW15358   6.823   4.007   2.134
 4820SOL    HW115359   6.837   4.032   2.230
 4820SOL    HW215360   6.889   3.937   2.108
 4821SOL     OW15361   6.477   5.276   1.478
 4821SOL    HW115362   6.538   5.303   1.552
 4821SOL    HW215363   6.509   5.317   1.392
 4822SOL     OW15364   1.979   3.931   3.227
 4822SOL    HW115365   2.060   3.873   3.217
 4822SOL    HW215366   1.968   3.987   3.145
 4823SOL     OW15367   1.116   0.697   4.853
 4823SOL    HW115368   1.100   0.643   4.771
 4823SOL    HW215369   1.141   0.636   4.929
 4824SOL     OW15370   5.191   2.570   2.561
 4824SOL    HW115371   5.234   2.516   2.633
 4824SOL    HW215372   5.203   2.667   2.580
 4825SOL     OW15373   1.365   3.595   2.908
 4825SOL    HW115374   1.304   3.621   2.833
 4825SOL    HW215375   1.319   3.615   2.995
 4826SOL     OW15376   6.949   5.891   0.761
 4826SOL    HW115377   6.893   5.955   0.708
 4826SOL    HW215378   7.019   5.942   0.812
 4827SOL     OW15379   4.715   1.127   1.026
 4827SOL    HW115380   4.623   1.095   1.003
 4827SOL    HW215381   4.764   1.151   0.943
 4828SOL     OW15382   4.540   3.553   1.372
 4828SOL    HW115383   4.580   3.478   1.425
 4828SOL    HW215384   4.499   3.516   1.289
 4829SOL     OW15385   3.112   1.243   6.093
 4829SOL    HW115386   3.194   1.228   6.148
 4829SOL    HW215387   3.031   1.235   6.150
 4830SOL     OW15388   4.417   6.434   3.942
 4830SOL    HW115389   4.349   6.485   3.890
 4830SOL    HW215390   4.449   6.356   3.889
 4831SOL     OW15391   6.417   4.498   5.582
 4831SOL    HW115392   6.328   4.471   5.548
 4831SOL    HW215393   6.466   4.551   5.512
 4832SOL     OW15394   2.868   3.345   5.812
 4832SOL    HW115395   2.893   3.418   5.876
 4832SOL    HW215396   2.830   3.386   5.729
 4833SOL     OW15397   4.008   1.311   3.458
 4833SOL    HW115398   4.064   1.244   3.410
 4833SOL    HW215399   4.046   1.402   3.445
 4834SOL     OW15400   4.641   1.727   1.929
 4834SOL    HW115401   4.583   1.735   1.849
 4834SOL    HW215402   4.587   1.742   2.012
 4835SOL     OW15403   2.594   6.975   6.987
 4835SOL    HW115404   2.504   6.977   6.944
 4835SOL    HW215405   2.591   0.002   0.052
 4836SOL     OW15406   4.982   1.788   4.156
 4836SOL    HW115407   5.034   1.867   4.124
 4836SOL    HW215408   4.896   1.819   4.195
 4837SOL     OW15409   2.378   2.521   1.015
 4837SOL    HW115410   2.312   2.445   1.009
 4837SOL    HW215411   2.342   2.600   0.967
 4838SOL     OW15412   3.873   4.832   2.124
 4838SOL    HW115413   3.959   4.813   2.077
 4838SOL    HW215414   3.798   4.786   2.077
 4839SOL     OW15415   0.677   5.301   5.956
 4839SOL    HW115416   0.653   5.230   6.022
 4839SOL    HW215417   0.758   5.274   5.904
 4840SOL     OW15418   6.514   6.249   6.807
 4840SOL    HW115419   6.613   6.243   6.808
 4840SOL    HW215420   6.481   6.241   6.713
 4841SOL     OW15421   3.065   5.217   1.970
 4841SOL    HW115422   3.090   5.302   2.017
 4841SOL    HW215423   2.990   5.236   1.907
 4842SOL     OW15424   4.530   6.030   1.148
 4842SOL    HW115425   4.581   5.982   1.220
 4842SOL    HW215426   4.595   6.070   1.083
 4843SOL     OW15427   6.659   3.822   6.752
 4843SOL    HW115428   6.718   3.773   6.688
 4843SOL    HW215429   6.579   3.857   6.703
 4844SOL     OW15430   5.973   2.070   6.206
 4844SOL    HW115431   6.051   2.111   6.252
 4844SOL    HW215432   5.932   2.136   6.143
 4845SOL     OW15433   5.792   5.110   3.702
 4845SOL    HW115434   5.766   5.149   3.614
 4845SOL    HW215435   5.719   5.125   3.769
 4846SOL     OW15436   1.497   2.885   1.177
 4846SOL    HW115437   1.480   2.979   1.148
 4846SOL    HW215438   1.409   2.839   1.193
 4847SOL     OW15439   3.631   2.108   5.007
 4847SOL    HW115440   3.686   2.132   4.927
 4847SOL    HW215441   3.534   2.121   4.985
 4848SOL     OW15442   2.924   1.522   2.793
 4848SOL    HW115443   2.921   1.596   2.860
 4848SOL    HW215444   3.014   1.479   2.795
 4849SOL     OW15445   1.168   0.548   0.459
 4849SOL    HW115446   1.251   0.521   0.508
 4849SOL    HW215447   1.182   0.536   0.361
 4850SOL     OW15448   4.308   0.430   1.776
 4850SOL    HW115449   4.224   0.484   1.785
 4850SOL    HW215450   4.361   0.437   1.860
 4851SOL     OW15451   4.034   6.209   5.533
 4851SOL    HW115452   4.101   6.135   5.536
 4851SOL    HW215453   3.977   6.205   5.616
 4852SOL     OW15454   2.474   0.720   6.736
 4852SOL    HW115455   2.429   0.748   6.821
 4852SOL    HW215456   2.405   0.706   6.665
 4853SOL     OW15457   3.488   1.576   2.552
 4853SOL    HW115458   3.521   1.578   2.646
 4853SOL    HW215459   3.391   1.598   2.550
 4854SOL     OW15460   4.875   6.517   2.072
 4854SOL    HW115461   4.877   6.610   2.110
 4854SOL    HW215462   4.901   6.452   2.143
 4855SOL     OW15463   5.613   1.450   2.318
 4855SOL    HW115464   5.690   1.493   2.364
 4855SOL    HW215465   5.623   1.458   2.219
 4856SOL     OW15466   2.380   4.971   4.417
 4856SOL    HW115467   2.436   5.054   4.408
 4856SOL    HW215468   2.392   4.914   4.335
 4857SOL     OW15469   0.411   1.978   5.753
 4857SOL    HW115470   0.511   1.978   5.757
 4857SOL    HW215471   0.375   1.907   5.813
 4858SOL     OW15472   1.827   2.443   4.687
 4858SOL    HW115473   1.825   2.501   4.768
 4858SOL    HW215474   1.797   2.350   4.711
 4859SOL     OW15475   1.550   5.891   4.980
 4859SOL    HW115476   1.594   5.963   5.034
 4859SOL    HW215477   1.523   5.816   5.041
 4860SOL     OW15478   4.471   5.193   1.799
 4860SOL    HW115479   4.417   5.109   1.809
 4860SOL    HW215480   4.433   5.264   1.859
 4861SOL     OW15481   4.901   4.070   5.429
 4861SOL    HW115482   4.907   4.087   5.527
 4861SOL    HW215483   4.805   4.057   5.402
 4862SOL     OW15484   1.626   5.422   2.604
 4862SOL    HW115485   1.533   5.446   2.576
 4862SOL    HW215486   1.683   5.409   2.522
 4863SOL     OW15487   5.899   4.168   7.010
 4863SOL    HW115488   5.834   4.204   0.057
 4863SOL    HW215489   5.858   4.090   6.964
 4864SOL     OW15490   2.851   1.086   3.281
 4864SOL    HW115491   2.810   1.167   3.241
 4864SOL    HW215492   2.925   1.112   3.343
 4865SOL     OW15493   2.471   5.865   4.620
 4865SOL    HW115494   2.401   5.931   4.592
 4865SOL    HW215495   2.430   5.774   4.624
 4866SOL     OW15496   0.156   3.698   1.082
 4866SOL    HW115497   0.091   3.770   1.106
 4866SOL    HW215498   0.198   3.662   1.165
 4867SOL     OW15499   4.482   5.976   2.806
 4867SOL    HW115500   4.429   6.053   2.771
 4867SOL    HW215501   4.530   6.004   2.889
 4868SOL     OW15502   6.940   4.309   1.539
 4868SOL    HW115503   6.858   4.271   1.582
 4868SOL    HW215504   6.916   4.349   1.451
 4869SOL     OW15505   0.401   1.494   6.217
 4869SOL    HW115506   0.465   1.464   6.287
 4869SOL    HW215507   0.390   1.593   6.220
 4870SOL     OW15508   0.880   6.238   1.900
 4870SOL    HW115509   0.803   6.286   1.942
 4870SOL    HW215510   0.953   6.303   1.880
 4871SOL     OW15511   1.277   0.862   4.549
 4871SOL    HW115512   1.354   0.906   4.503
 4871SOL    HW215513   1.299   0.849   4.645
 4872SOL     OW15514   6.956   6.659   3.607
 4872SOL    HW115515   7.013   6.686   3.530
 4872SOL    HW215516   6.981   6.567   3.637
 4873SOL     OW15517   0.212   5.894   4.756
 4873SOL    HW115518   0.156   5.946   4.693
 4873SOL    HW215519   0.206   5.933   4.847
 4874SOL     OW15520   4.811   2.855   3.249
 4874SOL    HW115521   4.831   2.945   3.212
 4874SOL    HW215522   4.876   2.788   3.212
 4875SOL     OW15523   5.029   6.452   6.782
 4875SOL    HW115524   5.098   6.491   6.720
 4875SOL    HW215525   5.011   6.516   6.856
 4876SOL     OW15526   1.762   1.703   2.863
 4876SOL    HW115527   1.757   1.628   2.929
 4876SOL    HW215528   1.766   1.790   2.911
 4877SOL     OW15529   0.796   1.183   4.224
 4877SOL    HW115530   0.774   1.265   4.276
 4877SOL    HW215531   0.831   1.209   4.134
 4878SOL     OW15532   6.422   1.629   2.297
 4878SOL    HW115533   6.436   1.597   2.390
 4878SOL    HW215534   6.478   1.575   2.234
 4879SOL     OW15535   4.693   1.725   2.653
 4879SOL    HW115536   4.758   1.746   2.726
 4879SOL    HW215537   4.630   1.801   2.640
 4880SOL     OW15538   6.037   2.895   6.343
 4880SOL    HW115539   5.950   2.890   6.293
 4880SOL    HW215540   6.028   2.958   6.420
 4881SOL     OW15541   1.699   2.934   2.099
 4881SOL    HW115542   1.798   2.939   2.108
 4881SOL    HW215543   1.659   2.911   2.187
 4882SOL     OW15544   4.525   2.282   4.914
 4882SOL    HW115545   4.570   2.361   4.872
 4882SOL    HW215546   4.568   2.198   4.881
 4883SOL     OW15547   5.600   3.344   0.903
 4883SOL    HW115548   5.613   3.251   0.937
 4883SOL    HW215549   5.506   3.356   0.872
 4884SOL     OW15550   1.529   6.228   1.546
 4884SOL    HW115551   1.609   6.237   1.487
 4884SOL    HW215552   1.515   6.132   1.570
 4885SOL     OW15553   2.216   5.131   1.093
 4885SOL    HW115554   2.301   5.184   1.090
 4885SOL    HW215555   2.178   5.134   1.185
 4886SOL     OW15556   3.798   0.438   2.519
 4886SOL    HW115557   3.722   0.373   2.518
 4886SOL    HW215558   3.882   0.391   2.546
 4887SOL     OW15559   1.282   6.571   1.985
 4887SOL    HW115560   1.230   6.494   1.949
 4887SOL    HW215561   1.221   6.634   2.032
 4888SOL     OW15562   2.973   6.803   3.288
 4888SOL    HW115563   2.895   6.865   3.283
 4888SOL    HW215564   3.024   6.805   3.202
 4889SOL     OW15565   6.404   2.476   3.824
 4889SOL    HW115566   6.331   2.501   3.889
 4889SOL    HW215567   6.490   2.465   3.874
 4890SOL     OW15568   1.292   0.846   5.194
 4890SOL    HW115569   1.315   0.763   5.143
 4890SOL    HW215570   1.203   0.837   5.237
 4891SOL     OW15571   2.377   5.481   6.599
 4891SOL    HW115572   2.336   5.537   6.671
 4891SOL    HW215573   2.317   5.403   6.579
 4892SOL     OW15574   5.628   6.730   2.335
 4892SOL    HW115575   5.543   6.721   2.387
 4892SOL    HW215576   5.629   6.818   2.287
 4893SOL     OW15577   0.135   3.734   1.755
 4893SOL    HW115578   0.086   3.674   1.818
 4893SOL    HW215579   0.225   3.695   1.735
 4894SOL     OW15580   3.638   6.504   2.052
 4894SOL    HW115581   3.705   6.528   2.122
 4894SOL    HW215582   3.680   6.443   1.985
 4895SOL     OW15583   0.269   4.934   3.634
 4895SOL    HW115584   0.202   4.973   3.697
 4895SOL    HW215585   0.303   4.847   3.670
 4896SOL     OW15586   1.774   4.900   3.493
 4896SOL    HW115587   1.803   4.933   3.403
 4896SOL    HW215588   1.788   4.801   3.497
 4897SOL     OW15589   1.878   5.703   5.658
 4897SOL    HW115590   1.965   5.714   5.611
 4897SOL    HW215591   1.805   5.688   5.591
 4898SOL     OW15592   3.506   1.556   4.457
 4898SOL    HW115593   3.561   1.626   4.412
 4898SOL    HW215594   3.557   1.516   4.533
 4899SOL     OW15595   6.332   5.518   2.310
 4899SOL    HW115596   6.405   5.548   2.372
 4899SOL    HW215597   6.348   5.556   2.219
 4900SOL     OW15598   4.194   6.420   5.516
 4900SOL    HW115599   4.140   6.485   5.463
 4900SOL    HW215600   4.146   6.332   5.521
 4901SOL     OW15601   0.865   1.787   5.878
 4901SOL    HW115602   0.780   1.738   5.898
 4901SOL    HW215603   0.943   1.725   5.890
 4902SOL     OW15604   2.278   0.543   6.581
 4902SOL    HW115605   2.270   0.582   6.489
 4902SOL    HW215606   2.206   0.580   6.640
 4903SOL     OW15607   5.031   5.099   1.151
 4903SOL    HW115608   5.110   5.046   1.183
 4903SOL    HW215609   5.060   5.192   1.129
 4904SOL     OW15610   1.781   0.658   0.031
 4904SOL    HW115611   1.875   0.625   0.028
 4904SOL    HW215612   1.732   0.627   6.971
 4905SOL     OW15613   3.330   6.950   3.310
 4905SOL    HW115614   3.322   6.863   3.261
 4905SOL    HW215615   3.416   6.995   3.285
 4906SOL     OW15616   4.809   3.337   5.315
 4906SOL    HW115617   4.833   3.259   5.257
 4906SOL    HW215618   4.794   3.418   5.259
 4907SOL     OW15619   4.693   1.519   0.094
 4907SOL    HW115620   4.761   1.591   0.088
 4907SOL    HW215621   4.729   1.436   0.051
 4908SOL     OW15622   4.820   0.234   0.340
 4908SOL    HW115623   4.811   0.299   0.265
 4908SOL    HW215624   4.790   0.144   0.309
 4909SOL     OW15625   6.090   4.179   3.317
 4909SOL    HW115626   6.086   4.101   3.255
 4909SOL    HW215627   6.040   4.158   3.401
 4910SOL     OW15628   5.082   0.546   5.586
 4910SOL    HW115629   5.061   0.625   5.644
 4910SOL    HW215630   4.997   0.499   5.562
 4911SOL     OW15631   1.712   2.159   2.253
 4911SOL    HW115632   1.777   2.139   2.326
 4911SOL    HW215633   1.757   2.150   2.164
 4912SOL     OW15634   5.965   1.740   5.466
 4912SOL    HW115635   5.973   1.748   5.366
 4912SOL    HW215636   5.885   1.790   5.497
 4913SOL     OW15637   5.781   2.716   4.768
 4913SOL    HW115638   5.860   2.663   4.799
 4913SOL    HW215639   5.708   2.654   4.740
 4914SOL     OW15640   4.767   0.555   4.238
 4914SOL    HW115641   4.669   0.555   4.259
 4914SOL    HW215642   4.809   0.472   4.274
 4915SOL     OW15643   3.063   5.753   5.428
 4915SOL    HW115644   3.049   5.658   5.401
 4915SOL    HW215645   3.146   5.760   5.484
 4916SOL     OW15646   6.139   0.856   3.778
 4916SOL    HW115647   6.074   0.786   3.751
 4916SOL    HW215648   6.098   0.914   3.848
 4917SOL     OW15649   4.122   6.263   1.053
 4917SOL    HW115650   4.212   6.279   1.095
 4917SOL    HW215651   4.116   6.315   0.968
 4918SOL     OW15652   6.358   5.593   2.045
 4918SOL    HW115653   6.266   5.633   2.046
 4918SOL    HW215654   6.364   5.524   1.973
 4919SOL     OW15655   4.196   3.245   1.969
 4919SOL    HW115656   4.288   3.264   2.005
 4919SOL    HW215657   4.201   3.172   1.901
 4920SOL     OW15658   6.115   0.890   5.092
 4920SOL    HW115659   6.029   0.919   5.051
 4920SOL    HW215660   6.098   0.841   5.177
 4921SOL     OW15661   0.575   6.602   1.071
 4921SOL    HW115662   0.623   6.629   1.154
 4921SOL    HW215663   0.633   6.623   0.991
 4922SOL     OW15664   3.388   1.843   5.275
 4922SOL    HW115665   3.329   1.815   5.200
 4922SOL    HW215666   3.466   1.894   5.240
 4923SOL     OW15667   3.434   1.899   3.178
 4923SOL    HW115668   3.514   1.854   3.139
 4923SOL    HW215669   3.351   1.860   3.137
 4924SOL     OW15670   2.617   1.827   6.135
 4924SOL    HW115671   2.690   1.797   6.197
 4924SOL    HW215672   2.624   1.925   6.119
 4925SOL     OW15673   4.651   6.696   3.157
 4925SOL    HW115674   4.610   6.616   3.199
 4925SOL    HW215675   4.726   6.667   3.096
 4926SOL     OW15676   5.451   1.825   1.678
 4926SOL    HW115677   5.497   1.815   1.766
 4926SOL    HW215678   5.465   1.918   1.644
 4927SOL     OW15679   3.349   1.896   6.579
 4927SOL    HW115680   3.356   1.921   6.676
 4927SOL    HW215681   3.389   1.806   6.565
 4928SOL     OW15682   1.373   2.038   0.924
 4928SOL    HW115683   1.387   1.951   0.876
 4928SOL    HW215684   1.349   2.020   1.019
 4929SOL     OW15685   0.334   0.510   3.971
 4929SOL    HW115686   0.408   0.548   3.915
 4929SOL    HW215687   0.252   0.499   3.915
 4930SOL     OW15688   5.620   6.987   1.828
 4930SOL    HW115689   5.606   6.907   1.887
 4930SOL    HW215690   5.604   6.961   1.733
 4931SOL     OW15691   6.249   6.366   1.809
 4931SOL    HW115692   6.331   6.310   1.816
 4931SOL    HW215693   6.184   6.323   1.747
 4932SOL     OW15694   3.068   3.649   2.717
 4932SOL    HW115695   3.121   3.586   2.773
 4932SOL    HW215696   3.032   3.600   2.637
 4933SOL     OW15697   2.726   6.238   4.881
 4933SOL    HW115698   2.699   6.147   4.914
 4933SOL    HW215699   2.721   6.240   4.781
 4934SOL     OW15700   3.344   6.149   3.300
 4934SOL    HW115701   3.349   6.053   3.328
 4934SOL    HW215702   3.399   6.204   3.362
 4935SOL     OW15703   0.881   2.017   6.716
 4935SOL    HW115704   0.816   2.083   6.679
 4935SOL    HW215705   0.969   2.028   6.670
 4936SOL     OW15706   2.249   3.776   1.309
 4936SOL    HW115707   2.247   3.848   1.379
 4936SOL    HW215708   2.304   3.700   1.342
 4937SOL     OW15709   4.869   3.445   4.663
 4937SOL    HW115710   4.795   3.479   4.722
 4937SOL    HW215711   4.854   3.476   4.569
 4938SOL     OW15712   4.447   4.869   5.981
 4938SOL    HW115713   4.460   4.885   5.883
 4938SOL    HW215714   4.350   4.850   5.999
 4939SOL     OW15715   4.565   2.859   5.584
 4939SOL    HW115716   4.524   2.798   5.651
 4939SOL    HW215717   4.532   2.835   5.493
 4940SOL     OW15718   1.852   6.407   5.151
 4940SOL    HW115719   1.844   6.308   5.140
 4940SOL    HW215720   1.896   6.446   5.070
 4941SOL     OW15721   4.834   1.761   0.164
 4941SOL    HW115722   4.831   1.796   0.070
 4941SOL    HW215723   4.777   1.818   0.223
 4942SOL     OW15724   4.963   3.585   5.316
 4942SOL    HW115725   4.891   3.594   5.247
 4942SOL    HW215726   4.948   3.501   5.369
 4943SOL     OW15727   3.856   2.351   0.915
 4943SOL    HW115728   3.931   2.357   0.981
 4943SOL    HW215729   3.777   2.307   0.959
 4944SOL     OW15730   2.219   4.327   2.753
 4944SOL    HW115731   2.258   4.240   2.722
 4944SOL    HW215732   2.201   4.386   2.675
 4945SOL     OW15733   0.047   6.826   4.248
 4945SOL    HW115734   0.020   6.730   4.248
 4945SOL    HW215735   0.022   6.868   4.334
 4946SOL     OW15736   1.819   3.588   2.126
 4946SOL    HW115737   1.769   3.606   2.042
 4946SOL    HW215738   1.838   3.490   2.134
 4947SOL     OW15739   1.205   0.297   0.691
 4947SOL    HW115740   1.217   0.209   0.737
 4947SOL    HW215741   1.121   0.295   0.636
 4948SOL     OW15742   2.525   1.047   2.281
 4948SOL    HW115743   2.523   0.984   2.204
 4948SOL    HW215744   2.585   1.124   2.260
 4949SOL     OW15745   5.703   0.657   5.023
 4949SOL    HW115746   5.763   0.660   4.944
 4949SOL    HW215747   5.745   0.599   5.094
 4950SOL     OW15748   2.847   5.608   5.264
 4950SOL    HW115749   2.830   5.563   5.176
 4950SOL    HW215750   2.822   5.705   5.257
 4951SOL     OW15751   4.472   1.638   4.641
 4951SOL    HW115752   4.418   1.560   4.612
 4951SOL    HW215753   4.569   1.613   4.643
 4952SOL     OW15754   7.016   6.531   5.262
 4952SOL    HW115755   0.064   6.491   5.202
 4952SOL    HW215756   7.001   6.472   5.341
 4953SOL     OW15757   2.287   5.620   1.936
 4953SOL    HW115758   2.361   5.565   1.898
 4953SOL    HW215759   2.220   5.640   1.865
 4954SOL     OW15760   5.635   5.637   0.113
 4954SOL    HW115761   5.610   5.666   0.205
 4954SOL    HW215762   5.675   5.714   0.064
 4955SOL     OW15763   1.311   6.523   1.266
 4955SOL    HW115764   1.219   6.537   1.230
 4955SOL    HW215765   1.309   6.527   1.366
 4956SOL     OW15766   4.129   6.840   4.832
 4956SOL    HW115767   4.106   6.929   4.871
 4956SOL    HW215768   4.045   6.785   4.823
 4957SOL     OW15769   1.179   0.840   3.901
 4957SOL    HW115770   1.216   0.867   3.812
 4957SOL    HW215771   1.195   0.742   3.916
 4958SOL     OW15772   0.678   5.666   6.604
 4958SOL    HW115773   0.639   5.726   6.534
 4958SOL    HW215774   0.671   5.571   6.574
 4959SOL     OW15775   0.978   0.570   1.251
 4959SOL    HW115776   0.901   0.622   1.212
 4959SOL    HW215777   1.063   0.619   1.235
 4960SOL     OW15778   3.852   6.114   4.589
 4960SOL    HW115779   3.892   6.200   4.556
 4960SOL    HW215780   3.767   6.096   4.540
 4961SOL     OW15781   4.961   0.545   4.866
 4961SOL    HW115782   4.865   0.532   4.890
 4961SOL    HW215783   5.015   0.470   4.904
 4962SOL     OW15784   6.548   2.528   1.331
 4962SOL    HW115785   6.456   2.546   1.366
 4962SOL    HW215786   6.562   2.429   1.323
 4963SOL     OW15787   0.625   4.886   1.996
 4963SOL    HW115788   0.686   4.850   2.067
 4963SOL    HW215789   0.679   4.921   1.920
 4964SOL     OW15790   3.388   6.428   3.546
 4964SOL    HW115791   3.294   6.411   3.519
 4964SOL    HW215792   3.427   6.346   3.588
 4965SOL     OW15793   6.552   0.190   4.209
 4965SOL    HW115794   6.516   0.238   4.289
 4965SOL    HW215795   6.526   0.240   4.126
 4966SOL     OW15796   3.474   5.397   5.357
 4966SOL    HW115797   3.495   5.299   5.356
 4966SOL    HW215798   3.478   5.431   5.451
 4967SOL     OW15799   3.807   2.415   5.996
 4967SOL    HW115800   3.778   2.490   5.936
 4967SOL    HW215801   3.830   2.452   6.086
 4968SOL     OW15802   5.680   3.241   4.905
 4968SOL    HW115803   5.667   3.340   4.909
 4968SOL    HW215804   5.770   3.221   4.866
 4969SOL     OW15805   1.391   0.814   1.453
 4969SOL    HW115806   1.446   0.770   1.382
 4969SOL    HW215807   1.324   0.750   1.489
 4970SOL     OW15808   1.247   2.014   5.125
 4970SOL    HW115809   1.265   2.110   5.105
 4970SOL    HW215810   1.187   1.976   5.055
 4971SOL     OW15811   6.099   6.437   3.253
 4971SOL    HW115812   6.192   6.453   3.286
 4971SOL    HW215813   6.090   6.342   3.223
 4972SOL     OW15814   1.849   3.511   0.372
 4972SOL    HW115815   1.890   3.430   0.332
 4972SOL    HW215816   1.917   3.559   0.427
 4973SOL     OW15817   5.739   6.047   2.247
 4973SOL    HW115818   5.837   6.056   2.234
 4973SOL    HW215819   5.700   6.136   2.272
 4974SOL     OW15820   5.622   6.322   2.246
 4974SOL    HW115821   5.715   6.360   2.250
 4974SOL    HW215822   5.575   6.358   2.166
 4975SOL     OW15823   6.185   6.083   0.700
 4975SOL    HW115824   6.164   6.117   0.792
 4975SOL    HW215825   6.215   6.159   0.643
 4976SOL     OW15826   3.796   0.772   5.195
 4976SOL    HW115827   3.889   0.740   5.175
 4976SOL    HW215828   3.752   0.709   5.259
 4977SOL     OW15829   3.515   3.186   0.751
 4977SOL    HW115830   3.454   3.210   0.675
 4977SOL    HW215831   3.476   3.218   0.837
 4978SOL     OW15832   5.479   2.974   5.643
 4978SOL    HW115833   5.554   3.040   5.647
 4978SOL    HW215834   5.475   2.922   5.728
 4979SOL     OW15835   0.650   0.368   5.519
 4979SOL    HW115836   0.610   0.424   5.446
 4979SOL    HW215837   0.740   0.335   5.490
 4980SOL     OW15838   3.508   5.182   2.260
 4980SOL    HW115839   3.600   5.178   2.221
 4980SOL    HW215840   3.514   5.211   2.356
 4981SOL     OW15841   4.065   6.666   5.353
 4981SOL    HW115842   4.099   6.748   5.398
 4981SOL    HW215843   3.965   6.668   5.352
 4982SOL     OW15844   2.130   2.759   0.265
 4982SOL    HW115845   2.114   2.769   0.364
 4982SOL    HW215846   2.047   2.785   0.216
 4983SOL     OW15847   5.356   2.763   4.374
 4983SOL    HW115848   5.285   2.823   4.338
 4983SOL    HW215849   5.352   2.762   4.474
 4984SOL     OW15850   4.888   3.702   4.133
 4984SOL    HW115851   4.803   3.720   4.083
 4984SOL    HW215852   4.963   3.690   4.068
 4985SOL     OW15853   5.358   5.339   2.153
 4985SOL    HW115854   5.332   5.246   2.126
 4985SOL    HW215855   5.277   5.389   2.182
 4986SOL     OW15856   5.112   4.552   2.966
 4986SOL    HW115857   5.052   4.494   2.912
 4986SOL    HW215858   5.077   4.557   3.060
 4987SOL     OW15859   0.101   3.064   1.515
 4987SOL    HW115860   0.013   3.015   1.511
 4987SOL    HW215861   0.159   3.033   1.439
 4988SOL     OW15862   0.427   1.357   4.048
 4988SOL    HW115863   0.338   1.343   4.006
 4988SOL    HW215864   0.416   1.381   4.144
 4989SOL     OW15865   6.911   1.518   0.822
 4989SOL    HW115866   6.978   1.593   0.814
 4989SOL    HW215867   6.957   1.437   0.859
 4990SOL     OW15868   1.155   2.464   5.248
 4990SOL    HW115869   1.235   2.472   5.308
 4990SOL    HW215870   1.093   2.541   5.263
 4991SOL     OW15871   1.040   3.102   4.211
 4991SOL    HW115872   1.041   3.202   4.209
 4991SOL    HW215873   1.105   3.068   4.143
 4992SOL     OW15874   3.533   0.877   5.223
 4992SOL    HW115875   3.620   0.830   5.210
 4992SOL    HW215876   3.527   0.954   5.159
 4993SOL     OW15877   2.521   6.153   3.871
 4993SOL    HW115878   2.438   6.172   3.818
 4993SOL    HW215879   2.500   6.090   3.946
 4994SOL     OW15880   0.600   0.132   2.914
 4994SOL    HW115881   0.656   0.097   2.838
 4994SOL    HW215882   0.639   0.217   2.948
 4995SOL     OW15883   6.124   2.264   5.836
 4995SOL    HW115884   6.078   2.256   5.924
 4995SOL    HW215885   6.087   2.197   5.772
 4996SOL     OW15886   0.525   2.041   2.955
 4996SOL    HW115887   0.575   2.025   3.040
 4996SOL    HW215888   0.454   1.971   2.945
 4997SOL     OW15889   0.031   3.025   3.479
 4997SOL    HW115890   0.019   2.928   3.500
 4997SOL    HW215891   0.079   3.035   3.392
 4998SOL     OW15892   1.421   5.525   4.654
 4998SOL    HW115893   1.343   5.565   4.703
 4998SOL    HW215894   1.401   5.431   4.630
 4999SOL     OW15895   5.822   5.481   0.883
 4999SOL    HW115896   5.838   5.396   0.934
 4999SOL    HW215897   5.754   5.465   0.812
 5000SOL     OW15898   0.569   0.408   4.677
 5000SOL    HW115899   0.571   0.427   4.578
 5000SOL    HW215900   0.531   0.487   4.724
 5001SOL     OW15901   3.277   4.161   5.306
 5001SOL    HW115902   3.302   4.202   5.394
 5001SOL    HW215903   3.181   4.181   5.286
 5002SOL     OW15904   2.062   1.181   1.825
 5002SOL    HW115905   2.085   1.225   1.912
 5002SOL    HW215906   1.965   1.193   1.805
 5003SOL     OW15907   6.677   6.412   2.820
 5003SOL    HW115908   6.637   6.433   2.731
 5003SOL    HW215909   6.615   6.441   2.893
 5004SOL     OW15910   2.836   6.517   6.578
 5004SOL    HW115911   2.835   6.577   6.658
 5004SOL    HW215912   2.925   6.472   6.571
 5005SOL     OW15913   4.381   2.876   0.317
 5005SOL    HW115914   4.383   2.790   0.368
 5005SOL    HW215915   4.300   2.928   0.342
 5006SOL     OW15916   4.942   6.362   4.861
 5006SOL    HW115917   4.873   6.424   4.899
 5006SOL    HW215918   4.967   6.391   4.769
 5007SOL     OW15919   4.258   1.093   5.392
 5007SOL    HW115920   4.207   1.016   5.432
 5007SOL    HW215921   4.199   1.141   5.327
 5008SOL     OW15922   6.230   0.936   3.534
 5008SOL    HW115923   6.237   1.036   3.537
 5008SOL    HW215924   6.212   0.901   3.626
 5009SOL     OW15925   0.997   6.649   2.726
 5009SOL    HW115926   1.020   6.624   2.632
 5009SOL    HW215927   1.069   6.617   2.788
 5010SOL     OW15928   3.893   3.866   4.062
 5010SOL    HW115929   3.862   3.950   4.017
 5010SOL    HW215930   3.814   3.813   4.093
 5011SOL     OW15931   0.979   3.068   2.319
 5011SOL    HW115932   0.917   3.062   2.241
 5011SOL    HW215933   0.930   3.106   2.397
 5012SOL     OW15934   6.763   2.509   6.015
 5012SOL    HW115935   6.769   2.528   5.917
 5012SOL    HW215936   6.669   2.521   6.046
 5013SOL     OW15937   4.405   1.605   5.699
 5013SOL    HW115938   4.375   1.541   5.629
 5013SOL    HW215939   4.391   1.565   5.789
 5014SOL     OW15940   5.912   6.445   0.336
 5014SOL    HW115941   5.912   6.484   0.428
 5014SOL    HW215942   5.818   6.429   0.307
 5015SOL     OW15943   4.625   2.510   3.416
 5015SOL    HW115944   4.696   2.440   3.427
 5015SOL    HW215945   4.663   2.600   3.437
 5016SOL     OW15946   2.357   0.622   3.005
 5016SOL    HW115947   2.404   0.554   3.060
 5016SOL    HW215948   2.406   0.709   3.011
 5017SOL     OW15949   2.996   2.225   0.986
 5017SOL    HW115950   3.059   2.151   0.963
 5017SOL    HW215951   2.903   2.197   0.963
 5018SOL     OW15952   6.211   5.105   3.512
 5018SOL    HW115953   6.129   5.143   3.470
 5018SOL    HW215954   6.184   5.040   3.584
 5019SOL     OW15955   1.965   4.359   0.044
 5019SOL    HW115956   2.009   4.276   0.011
 5019SOL    HW215957   1.902   4.336   0.119
 5020SOL     OW15958   4.870   5.064   6.719
 5020SOL    HW115959   4.846   4.981   6.769
 5020SOL    HW215960   4.874   5.142   6.781
 5021SOL     OW15961   2.220   4.735   5.817
 5021SOL    HW115962   2.224   4.809   5.750
 5021SOL    HW215963   2.174   4.767   5.899
 5022SOL     OW15964   1.484   6.370   0.603
 5022SOL    HW115965   1.410   6.382   0.536
 5022SOL    HW215966   1.504   6.273   0.614
 5023SOL     OW15967   6.154   3.244   1.438
 5023SOL    HW115968   6.094   3.272   1.364
 5023SOL    HW215969   6.227   3.312   1.449
 5024SOL     OW15970   6.259   3.620   4.174
 5024SOL    HW115971   6.260   3.561   4.255
 5024SOL    HW215972   6.239   3.714   4.201
 5025SOL     OW15973   5.365   1.220   3.173
 5025SOL    HW115974   5.457   1.241   3.205
 5025SOL    HW215975   5.370   1.170   3.086
 5026SOL     OW15976   6.537   6.103   4.267
 5026SOL    HW115977   6.549   6.157   4.184
 5026SOL    HW215978   6.442   6.072   4.274
 5027SOL     OW15979   0.993   6.681   3.365
 5027SOL    HW115980   0.965   6.643   3.453
 5027SOL    HW215981   0.940   6.637   3.292
 5028SOL     OW15982   0.394   0.334   3.182
 5028SOL    HW115983   0.419   0.266   3.251
 5028SOL    HW215984   0.295   0.335   3.170
 5029SOL     OW15985   6.974   1.939   0.916
 5029SOL    HW115986   6.924   1.892   0.989
 5029SOL    HW215987   0.018   2.003   0.956
 5030SOL     OW15988   0.088   0.024   0.171
 5030SOL    HW115989   0.132   0.105   0.132
 5030SOL    HW215990   0.003   0.005   0.123
 5031SOL     OW15991   5.916   0.433   4.189
 5031SOL    HW115992   5.931   0.335   4.173
 5031SOL    HW215993   5.997   0.484   4.159
 5032SOL     OW15994   1.501   5.113   1.099
 5032SOL    HW115995   1.502   5.199   1.048
 5032SOL    HW215996   1.590   5.068   1.091
 5033SOL     OW15997   2.595   4.080   5.740
 5033SOL    HW115998   2.593   3.984   5.711
 5033SOL    HW215999   2.543   4.135   5.675
 5034SOL     OW16000   6.519   2.897   1.504
 5034SOL    HW116001   6.611   2.917   1.538
 5034SOL    HW216002   6.524   2.866   1.409
 5035SOL     OW16003   5.426   5.125   0.541
 5035SOL    HW116004   5.451   5.035   0.578
 5035SOL    HW216005   5.364   5.170   0.604
 5036SOL     OW16006   1.313   6.531   1.563
 5036SOL    HW116007   1.316   6.608   1.626
 5036SOL    HW216008   1.218   6.500   1.553
 5037SOL     OW16009   4.439   2.089   3.974
 5037SOL    HW116010   4.480   2.002   4.001
 5037SOL    HW216011   4.485   2.124   3.893
 5038SOL     OW16012   1.380   6.238   5.556
 5038SOL    HW116013   1.323   6.316   5.581
 5038SOL    HW216014   1.477   6.263   5.568
 5039SOL     OW16015   2.191   2.593   5.417
 5039SOL    HW116016   2.236   2.538   5.487
 5039SOL    HW216017   2.209   2.553   5.327
 5040SOL     OW16018   3.286   3.908   5.413
 5040SOL    HW116019   3.272   3.849   5.334
 5040SOL    HW216020   3.304   4.001   5.382
 5041SOL     OW16021   1.179   3.457   1.315
 5041SOL    HW116022   1.100   3.483   1.260
 5041SOL    HW216023   1.148   3.417   1.401
 5042SOL     OW16024   5.488   2.738   6.396
 5042SOL    HW116025   5.463   2.711   6.488
 5042SOL    HW216026   5.568   2.798   6.399
 5043SOL     OW16027   3.457   0.431   3.356
 5043SOL    HW116028   3.392   0.433   3.432
 5043SOL    HW216029   3.468   0.523   3.319
 5044SOL     OW16030   5.766   5.349   3.261
 5044SOL    HW116031   5.796   5.442   3.242
 5044SOL    HW216032   5.706   5.318   3.187
 5045SOL     OW16033   6.589   2.447   6.575
 5045SOL    HW116034   6.686   2.470   6.563
 5045SOL    HW216035   6.550   2.506   6.645
 5046SOL     OW16036   3.308   3.084   5.259
 5046SOL    HW116037   3.330   3.098   5.162
 5046SOL    HW216038   3.379   3.028   5.301
 5047SOL     OW16039   0.533   1.106   2.401
 5047SOL    HW116040   0.567   1.187   2.448
 5047SOL    HW216041   0.607   1.065   2.347
 5048SOL     OW16042   6.854   2.359   1.605
 5048SOL    HW116043   6.766   2.374   1.649
 5048SOL    HW216044   6.868   2.427   1.533
 5049SOL     OW16045   0.735   2.547   2.136
 5049SOL    HW116046   0.720   2.555   2.038
 5049SOL    HW216047   0.796   2.470   2.155
 5050SOL     OW16048   0.804   3.240   1.672
 5050SOL    HW116049   0.734   3.227   1.742
 5050SOL    HW216050   0.781   3.321   1.617
 5051SOL     OW16051   3.014   4.935   0.857
 5051SOL    HW116052   2.956   4.999   0.807
 5051SOL    HW216053   2.966   4.847   0.866
 5052SOL     OW16054   5.418   4.763   1.427
 5052SOL    HW116055   5.484   4.798   1.494
 5052SOL    HW216056   5.463   4.696   1.369
 5053SOL     OW16057   2.352   3.821   0.605
 5053SOL    HW116058   2.307   3.909   0.592
 5053SOL    HW216059   2.386   3.815   0.699
 5054SOL     OW16060   3.817   5.616   4.932
 5054SOL    HW116061   3.740   5.552   4.936
 5054SOL    HW216062   3.783   5.709   4.945
 5055SOL     OW16063   0.512   1.299   5.380
 5055SOL    HW116064   0.557   1.239   5.314
 5055SOL    HW216065   0.518   1.258   5.471
 5056SOL     OW16066   0.753   3.233   5.551
 5056SOL    HW116067   0.749   3.299   5.476
 5056SOL    HW216068   0.848   3.205   5.566
 5057SOL     OW16069   6.935   5.496   3.206
 5057SOL    HW116070   6.913   5.451   3.292
 5057SOL    HW216071   7.008   5.445   3.160
 5058SOL     OW16072   4.467   4.385   6.206
 5058SOL    HW116073   4.489   4.444   6.285
 5058SOL    HW216074   4.372   4.401   6.179
 5059SOL     OW16075   3.575   1.999   4.082
 5059SOL    HW116076   3.548   2.067   4.014
 5059SOL    HW216077   3.550   1.907   4.050
 5060SOL     OW16078   0.809   2.869   5.519
 5060SOL    HW116079   0.813   2.943   5.452
 5060SOL    HW216080   0.716   2.861   5.555
 5061SOL     OW16081   3.845   2.873   5.446
 5061SOL    HW116082   3.853   2.777   5.418
 5061SOL    HW216083   3.907   2.929   5.391
 5062SOL     OW16084   4.832   0.670   2.964
 5062SOL    HW116085   4.776   0.753   2.956
 5062SOL    HW216086   4.923   0.689   2.928
 5063SOL     OW16087   1.192   6.909   2.568
 5063SOL    HW116088   1.129   6.859   2.628
 5063SOL    HW216089   1.263   6.953   2.624
 5064SOL     OW16090   4.894   5.315   0.455
 5064SOL    HW116091   4.864   5.376   0.382
 5064SOL    HW216092   4.899   5.221   0.420
 5065SOL     OW16093   2.537   0.148   3.166
 5065SOL    HW116094   2.573   0.228   3.214
 5065SOL    HW216095   2.459   0.111   3.216
 5066SOL     OW16096   2.323   4.364   1.441
 5066SOL    HW116097   2.261   4.364   1.520
 5066SOL    HW216098   2.416   4.342   1.472
 5067SOL     OW16099   3.997   2.955   1.434
 5067SOL    HW116100   3.963   2.873   1.387
 5067SOL    HW216101   3.973   2.950   1.531
 5068SOL     OW16102   3.195   6.149   0.502
 5068SOL    HW116103   3.119   6.209   0.525
 5068SOL    HW216104   3.165   6.080   0.437
 5069SOL     OW16105   3.345   4.438   6.123
 5069SOL    HW116106   3.423   4.396   6.076
 5069SOL    HW216107   3.369   4.458   6.218
 5070SOL     OW16108   6.548   3.598   4.001
 5070SOL    HW116109   6.545   3.507   3.960
 5070SOL    HW216110   6.455   3.625   4.027
 5071SOL     OW16111   3.135   1.055   3.753
 5071SOL    HW116112   3.206   1.076   3.686
 5071SOL    HW216113   3.166   0.982   3.813
 5072SOL     OW16114   1.597   0.979   1.144
 5072SOL    HW116115   1.582   1.031   1.060
 5072SOL    HW216116   1.629   1.041   1.216
 5073SOL     OW16117   2.635   6.479   2.505
 5073SOL    HW116118   2.616   6.532   2.422
 5073SOL    HW216119   2.659   6.540   2.580
 5074SOL     OW16120   3.837   2.151   1.714
 5074SOL    HW116121   3.933   2.125   1.715
 5074SOL    HW216122   3.810   2.183   1.804
 5075SOL     OW16123   1.181   3.171   6.901
 5075SOL    HW116124   1.194   3.168   7.000
 5075SOL    HW216125   1.260   3.128   6.856
 5076SOL     OW16126   5.667   0.656   0.404
 5076SOL    HW116127   5.748   0.599   0.417
 5076SOL    HW216128   5.621   0.630   0.319
 5077SOL     OW16129   0.896   4.923   3.343
 5077SOL    HW116130   0.944   4.840   3.314
 5077SOL    HW216131   0.811   4.898   3.389
 5078SOL     OW16132   6.956   1.174   3.672
 5078SOL    HW116133   6.939   1.174   3.771
 5078SOL    HW216134   6.930   1.085   3.634
 5079SOL     OW16135   1.542   2.368   5.925
 5079SOL    HW116136   1.539   2.286   5.982
 5079SOL    HW216137   1.450   2.406   5.916
 5080SOL     OW16138   5.945   5.070   5.913
 5080SOL    HW116139   6.000   5.076   5.830
 5080SOL    HW216140   5.985   5.129   5.984
 5081SOL     OW16141   3.290   5.743   5.583
 5081SOL    HW116142   3.298   5.807   5.659
 5081SOL    HW216143   3.312   5.650   5.614
 5082SOL     OW16144   5.453   6.478   1.339
 5082SOL    HW116145   5.476   6.390   1.382
 5082SOL    HW216146   5.354   6.485   1.328
 5083SOL     OW16147   2.502   0.476   3.225
 5083SOL    HW116148   2.424   0.420   3.252
 5083SOL    HW216149   2.586   0.438   3.264
 5084SOL     OW16150   0.945   4.899   5.240
 5084SOL    HW116151   1.044   4.884   5.238
 5084SOL    HW216152   0.923   4.982   5.189
 5085SOL     OW16153   0.552   3.769   6.303
 5085SOL    HW116154   0.488   3.839   6.270
 5085SOL    HW216155   0.611   3.808   6.374
 5086SOL     OW16156   1.772   4.665   1.941
 5086SOL    HW116157   1.861   4.652   1.897
 5086SOL    HW216158   1.772   4.620   2.030
 5087SOL     OW16159   6.414   5.148   2.926
 5087SOL    HW116160   6.332   5.185   2.970
 5087SOL    HW216161   6.445   5.068   2.978
 5088SOL     OW16162   4.402   6.239   1.907
 5088SOL    HW116163   4.484   6.242   1.963
 5088SOL    HW216164   4.427   6.235   1.810
 5089SOL     OW16165   5.788   4.774   4.556
 5089SOL    HW116166   5.868   4.829   4.580
 5089SOL    HW216167   5.816   4.694   4.503
 5090SOL     OW16168   2.745   0.509   4.414
 5090SOL    HW116169   2.700   0.423   4.440
 5090SOL    HW216170   2.815   0.532   4.482
 5091SOL     OW16171   6.091   6.749   0.106
 5091SOL    HW116172   6.134   6.679   0.050
 5091SOL    HW216173   6.115   6.736   0.202
 5092SOL     OW16174   3.500   3.725   5.019
 5092SOL    HW116175   3.460   3.703   5.107
 5092SOL    HW216176   3.435   3.703   4.946
 5093SOL     OW16177   1.961   1.749   2.212
 5093SOL    HW116178   1.965   1.665   2.157
 5093SOL    HW216179   1.875   1.751   2.262
 5094SOL     OW16180   2.211   5.842   6.610
 5094SOL    HW116181   2.169   5.778   6.545
 5094SOL    HW216182   2.223   5.931   6.567
 5095SOL     OW16183   0.140   1.045   2.737
 5095SOL    HW116184   0.124   0.952   2.768
 5095SOL    HW216185   0.231   1.074   2.764
 5096SOL     OW16186   5.028   2.653   6.054
 5096SOL    HW116187   5.001   2.556   6.051
 5096SOL    HW216188   5.103   2.669   5.990
 5097SOL     OW16189   0.053   5.944   6.693
 5097SOL    HW116190   0.073   6.024   6.637
 5097SOL    HW216191   0.138   5.907   6.730
 5098SOL     OW16192   3.929   2.117   1.982
 5098SOL    HW116193   3.911   2.019   1.971
 5098SOL    HW216194   3.842   2.166   1.988
 5099SOL     OW16195   1.031   6.005   1.661
 5099SOL    HW116196   1.114   5.952   1.674
 5099SOL    HW216197   1.054   6.100   1.640
 5100SOL     OW16198   5.154   4.062   2.283
 5100SOL    HW116199   5.167   3.970   2.320
 5100SOL    HW216200   5.198   4.069   2.194
 5101SOL     OW16201   4.015   6.865   5.128
 5101SOL    HW116202   4.058   6.949   5.095
 5101SOL    HW216203   4.067   6.830   5.206
 5102SOL     OW16204   5.038   4.967   4.549
 5102SOL    HW116205   4.964   4.962   4.615
 5102SOL    HW216206   5.117   4.915   4.583
 5103SOL     OW16207   1.010   0.374   5.616
 5103SOL    HW116208   1.085   0.308   5.614
 5103SOL    HW216209   0.982   0.391   5.711
 5104SOL     OW16210   3.602   4.756   0.979
 5104SOL    HW116211   3.539   4.834   0.985
 5104SOL    HW216212   3.549   4.672   0.968
 5105SOL     OW16213   3.562   2.961   6.812
 5105SOL    HW116214   3.471   2.955   6.853
 5105SOL    HW216215   3.571   2.892   6.740
 5106SOL     OW16216   4.136   2.842   1.065
 5106SOL    HW116217   4.053   2.834   1.010
 5106SOL    HW216218   4.158   2.753   1.106
 5107SOL     OW16219   4.752   3.300   1.128
 5107SOL    HW116220   4.658   3.269   1.112
 5107SOL    HW216221   4.754   3.399   1.139
 5108SOL     OW16222   4.137   3.374   6.572
 5108SOL    HW116223   4.190   3.395   6.654
 5108SOL    HW216224   4.087   3.455   6.542
 5109SOL     OW16225   1.889   2.579   0.831
 5109SOL    HW116226   1.926   2.561   0.922
 5109SOL    HW216227   1.809   2.638   0.839
 5110SOL     OW16228   6.064   0.584   6.221
 5110SOL    HW116229   6.106   0.528   6.150
 5110SOL    HW216230   6.043   0.674   6.185
 5111SOL     OW16231   1.065   5.750   5.102
 5111SOL    HW116232   1.040   5.823   5.167
 5111SOL    HW216233   1.104   5.791   5.019
 5112SOL     OW16234   0.129   0.335   3.126
 5112SOL    HW116235   0.057   0.350   3.059
 5112SOL    HW216236   0.092   0.286   3.205
 5113SOL     OW16237   1.872   5.127   0.791
 5113SOL    HW116238   1.914   5.088   0.709
 5113SOL    HW216239   1.897   5.223   0.799
 5114SOL     OW16240   4.228   6.589   0.890
 5114SOL    HW116241   4.202   6.496   0.865
 5114SOL    HW216242   4.327   6.595   0.901
 5115SOL     OW16243   1.635   3.853   1.089
 5115SOL    HW116244   1.710   3.890   1.144
 5115SOL    HW216245   1.670   3.783   1.027
 5116SOL     OW16246   2.045   6.706   0.041
 5116SOL    HW116247   2.060   6.805   0.041
 5116SOL    HW216248   1.985   6.682   0.118
 5117SOL     OW16249   1.689   3.095   4.424
 5117SOL    HW116250   1.760   3.029   4.401
 5117SOL    HW216251   1.608   3.046   4.457
 5118SOL     OW16252   6.069   6.357   0.102
 5118SOL    HW116253   6.062   6.302   0.185
 5118SOL    HW216254   6.164   6.357   0.070
 5119SOL     OW16255   4.953   1.864   0.463
 5119SOL    HW116256   4.978   1.961   0.464
 5119SOL    HW216257   4.877   1.850   0.398
 5120SOL     OW16258   5.258   6.947   4.926
 5120SOL    HW116259   5.225   0.016   4.953
 5120SOL    HW216260   5.274   6.946   4.827
 5121SOL     OW16261   2.788   4.052   6.696
 5121SOL    HW116262   2.882   4.083   6.678
 5121SOL    HW216263   2.755   4.096   6.780
 5122SOL     OW16264   4.395   5.339   4.007
 5122SOL    HW116265   4.489   5.371   4.016
 5122SOL    HW216266   4.380   5.304   3.915
 5123SOL     OW16267   4.537   2.411   2.168
 5123SOL    HW116268   4.439   2.393   2.162
 5123SOL    HW216269   4.567   2.461   2.086
 5124SOL     OW16270   2.100   6.392   3.840
 5124SOL    HW116271   2.165   6.436   3.903
 5124SOL    HW216272   2.043   6.462   3.797
 5125SOL     OW16273   0.531   2.072   3.834
 5125SOL    HW116274   0.582   2.115   3.759
 5125SOL    HW216275   0.595   2.024   3.894
 5126SOL     OW16276   1.817   6.894   1.716
 5126SOL    HW116277   1.864   6.831   1.655
 5126SOL    HW216278   1.874   6.975   1.730
 5127SOL     OW16279   1.935   5.404   0.764
 5127SOL    HW116280   2.029   5.371   0.763
 5127SOL    HW216281   1.926   5.482   0.701
 5128SOL     OW16282   6.159   6.053   1.535
 5128SOL    HW116283   6.108   6.009   1.609
 5128SOL    HW216284   6.218   5.986   1.491
 5129SOL     OW16285   4.889   6.386   1.269
 5129SOL    HW116286   4.864   6.318   1.337
 5129SOL    HW216287   4.962   6.445   1.306
 5130SOL     OW16288   6.053   4.699   3.883
 5130SOL    HW116289   5.983   4.637   3.847
 5130SOL    HW216290   6.016   4.792   3.887
 5131SOL     OW16291   1.650   2.498   3.565
 5131SOL    HW116292   1.658   2.399   3.576
 5131SOL    HW216293   1.737   2.535   3.532
 5132SOL     OW16294   3.607   5.266   6.363
 5132SOL    HW116295   3.642   5.358   6.381
 5132SOL    HW216296   3.512   5.260   6.391
 5133SOL     OW16297   4.157   6.568   6.260
 5133SOL    HW116298   4.157   6.482   6.210
 5133SOL    HW216299   4.152   6.549   6.358
 5134SOL     OW16300   0.421   3.827   0.990
 5134SOL    HW116301   0.405   3.846   0.893
 5134SOL    HW216302   0.343   3.779   1.029
 5135SOL     OW16303   6.883   1.546   4.564
 5135SOL    HW116304   6.948   1.601   4.512
 5135SOL    HW216305   6.790   1.568   4.534
 5136SOL     OW16306   4.940   0.976   3.879
 5136SOL    HW116307   5.013   0.908   3.868
 5136SOL    HW216308   4.856   0.930   3.910
 5137SOL     OW16309   4.386   4.047   6.056
 5137SOL    HW116310   4.344   4.082   5.972
 5137SOL    HW216311   4.482   4.076   6.061
 5138SOL     OW16312   2.370   3.804   6.030
 5138SOL    HW116313   2.376   3.787   5.931
 5138SOL    HW216314   2.443   3.865   6.057
 5139SOL     OW16315   1.026   6.825   4.185
 5139SOL    HW116316   0.981   6.810   4.273
 5139SOL    HW216317   0.956   6.837   4.114
 5140SOL     OW16318   3.069   2.754   0.563
 5140SOL    HW116319   3.007   2.806   0.503
 5140SOL    HW216320   3.084   2.804   0.648
 5141SOL     OW16321   5.690   3.072   0.471
 5141SOL    HW116322   5.621   3.131   0.514
 5141SOL    HW216323   5.698   3.095   0.374
 5142SOL     OW16324   5.835   3.535   4.866
 5142SOL    HW116325   5.820   3.554   4.769
 5142SOL    HW216326   5.754   3.562   4.918
 5143SOL     OW16327   6.763   4.942   4.415
 5143SOL    HW116328   6.831   5.016   4.420
 5143SOL    HW216329   6.691   4.968   4.350
 5144SOL     OW16330   1.328   0.845   6.344
 5144SOL    HW116331   1.324   0.811   6.250
 5144SOL    HW216332   1.301   0.772   6.407
 5145SOL     OW16333   2.626   5.291   6.224
 5145SOL    HW116334   2.543   5.333   6.261
 5145SOL    HW216335   2.604   5.246   6.138
 5146SOL     OW16336   3.517   4.132   6.713
 5146SOL    HW116337   3.459   4.195   6.661
 5146SOL    HW216338   3.460   4.071   6.768
 5147SOL     OW16339   6.641   4.076   0.205
 5147SOL    HW116340   6.568   4.139   0.234
 5147SOL    HW216341   6.711   4.071   0.277
 5148SOL     OW16342   0.027   5.724   1.498
 5148SOL    HW116343   7.020   5.759   1.587
 5148SOL    HW216344   0.109   5.667   1.509
 5149SOL     OW16345   6.328   1.118   3.753
 5149SOL    HW116346   6.356   1.211   3.731
 5149SOL    HW216347   6.266   1.120   3.831
 5150SOL     OW16348   1.319   5.687   3.574
 5150SOL    HW116349   1.357   5.639   3.653
 5150SOL    HW216350   1.261   5.625   3.521
 5151SOL     OW16351   4.730   1.009   6.095
 5151SOL    HW116352   4.676   1.046   6.019
 5151SOL    HW216353   4.773   1.084   6.145
 5152SOL     OW16354   0.762   4.179   0.344
 5152SOL    HW116355   0.715   4.129   0.416
 5152SOL    HW216356   0.697   4.239   0.298
 5153SOL     OW16357   1.756   2.138   0.689
 5153SOL    HW116358   1.752   2.089   0.602
 5153SOL    HW216359   1.713   2.228   0.679
 5154SOL     OW16360   1.793   3.365   5.657
 5154SOL    HW116361   1.735   3.390   5.734
 5154SOL    HW216362   1.743   3.378   5.571
 5155SOL     OW16363   3.769   6.300   1.900
 5155SOL    HW116364   3.691   6.243   1.927
 5155SOL    HW216365   3.847   6.281   1.960
 5156SOL     OW16366   6.550   2.646   5.120
 5156SOL    HW116367   6.612   2.569   5.129
 5156SOL    HW216368   6.461   2.614   5.087
 5157SOL     OW16369   5.290   2.846   3.846
 5157SOL    HW116370   5.362   2.865   3.779
 5157SOL    HW216371   5.249   2.757   3.827
 5158SOL     OW16372   4.081   0.782   1.108
 5158SOL    HW116373   4.032   0.869   1.108
 5158SOL    HW216374   4.169   0.793   1.156
 5159SOL     OW16375   1.125   3.612   4.235
 5159SOL    HW116376   1.173   3.543   4.289
 5159SOL    HW216377   1.177   3.633   4.153
 5160SOL     OW16378   1.714   3.843   4.693
 5160SOL    HW116379   1.645   3.900   4.647
 5160SOL    HW216380   1.724   3.757   4.644
 5161SOL     OW16381   1.026   3.229   5.534
 5161SOL    HW116382   1.082   3.148   5.552
 5161SOL    HW216383   1.076   3.310   5.563
 5162SOL     OW16384   6.742   6.209   3.661
 5162SOL    HW116385   6.716   6.234   3.754
 5162SOL    HW216386   6.726   6.111   3.647
 5163SOL     OW16387   5.765   4.639   1.070
 5163SOL    HW116388   5.861   4.669   1.066
 5163SOL    HW216389   5.749   4.570   0.999
 5164SOL     OW16390   6.296   3.430   5.270
 5164SOL    HW116391   6.244   3.351   5.303
 5164SOL    HW216392   6.324   3.487   5.348
 5165SOL     OW16393   6.166   4.265   4.704
 5165SOL    HW116394   6.072   4.244   4.732
 5165SOL    HW216395   6.175   4.250   4.606
 5166SOL     OW16396   1.654   4.838   2.153
 5166SOL    HW116397   1.707   4.786   2.086
 5166SOL    HW216398   1.690   4.931   2.159
 5167SOL     OW16399   0.193   6.683   5.963
 5167SOL    HW116400   0.124   6.692   5.891
 5167SOL    HW216401   0.273   6.636   5.927
 5168SOL     OW16402   4.096   2.278   3.023
 5168SOL    HW116403   4.128   2.367   3.055
 5168SOL    HW216404   4.173   2.216   3.012
 5169SOL     OW16405   3.280   3.668   6.153
 5169SOL    HW116406   3.269   3.672   6.252
 5169SOL    HW216407   3.196   3.699   6.108
 5170SOL     OW16408   6.289   4.516   4.727
 5170SOL    HW116409   6.237   4.431   4.717
 5170SOL    HW216410   6.384   4.500   4.702
 5171SOL     OW16411   2.001   4.826   4.558
 5171SOL    HW116412   2.062   4.903   4.580
 5171SOL    HW216413   1.915   4.837   4.608
 5172SOL     OW16414   0.841   4.631   2.317
 5172SOL    HW116415   0.824   4.546   2.267
 5172SOL    HW216416   0.756   4.682   2.325
 5173SOL     OW16417   5.065   3.016   6.212
 5173SOL    HW116418   5.165   3.017   6.215
 5173SOL    HW216419   5.028   3.043   6.301
 5174SOL     OW16420   1.818   4.818   6.123
 5174SOL    HW116421   1.724   4.788   6.103
 5174SOL    HW216422   1.855   4.762   6.197
 5175SOL     OW16423   1.297   4.258   0.650
 5175SOL    HW116424   1.370   4.285   0.712
 5175SOL    HW216425   1.271   4.337   0.594
 5176SOL     OW16426   3.684   3.799   0.767
 5176SOL    HW116427   3.744   3.781   0.845
 5176SOL    HW216428   3.728   3.864   0.705
 5177SOL     OW16429   4.879   6.518   5.984
 5177SOL    HW116430   4.963   6.464   5.983
 5177SOL    HW216431   4.801   6.456   5.993
 5178SOL     OW16432   2.883   2.758   1.690
 5178SOL    HW116433   2.868   2.660   1.706
 5178SOL    HW216434   2.812   2.792   1.628
 5179SOL     OW16435   3.349   6.202   5.636
 5179SOL    HW116436   3.275   6.267   5.649
 5179SOL    HW216437   3.396   6.186   5.723
 5180SOL     OW16438   2.971   2.283   0.513
 5180SOL    HW116439   3.011   2.295   0.422
 5180SOL    HW216440   3.040   2.304   0.582
 5181SOL     OW16441   4.478   0.111   2.681
 5181SOL    HW116442   4.438   0.167   2.754
 5181SOL    HW216443   4.474   0.015   2.708
 5182SOL     OW16444   5.678   4.162   1.986
 5182SOL    HW116445   5.680   4.151   1.887
 5182SOL    HW216446   5.722   4.083   2.029
 5183SOL     OW16447   4.569   6.583   1.902
 5183SOL    HW116448   4.608   6.649   1.965
 5183SOL    HW216449   4.540   6.501   1.952
 5184SOL     OW16450   1.163   0.984   2.954
 5184SOL    HW116451   1.220   1.017   3.028
 5184SOL    HW216452   1.217   0.977   2.870
 5185SOL     OW16453   3.746   6.903   2.413
 5185SOL    HW116454   3.682   6.927   2.340
 5185SOL    HW216455   3.836   6.886   2.373
 5186SOL     OW16456   6.730   4.276   1.111
 5186SOL    HW116457   6.656   4.251   1.174
 5186SOL    HW216458   6.735   4.208   1.038
 5187SOL     OW16459   6.095   1.790   3.344
 5187SOL    HW116460   6.106   1.821   3.438
 5187SOL    HW216461   6.112   1.691   3.339
 5188SOL     OW16462   0.838   4.458   6.318
 5188SOL    HW116463   0.839   4.421   6.225
 5188SOL    HW216464   0.921   4.431   6.366
 5189SOL     OW16465   4.643   4.722   6.476
 5189SOL    HW116466   4.622   4.703   6.572
 5189SOL    HW216467   4.701   4.649   6.440
 5190SOL     OW16468   0.991   2.501   3.974
 5190SOL    HW116469   1.080   2.456   3.965
 5190SOL    HW216470   0.924   2.453   3.917
 5191SOL     OW16471   3.396   1.548   1.911
 5191SOL    HW116472   3.368   1.572   1.818
 5191SOL    HW216473   3.483   1.499   1.908
 5192SOL     OW16474   5.500   5.905   2.494
 5192SOL    HW116475   5.593   5.885   2.463
 5192SOL    HW216476   5.483   5.858   2.581
 5193SOL     OW16477   4.784   4.018   4.220
 5193SOL    HW116478   4.708   4.082   4.206
 5193SOL    HW216479   4.804   3.972   4.133
 5194SOL     OW16480   5.701   0.865   5.833
 5194SOL    HW116481   5.617   0.879   5.782
 5194SOL    HW216482   5.698   0.918   5.918
 5195SOL     OW16483   6.006   6.713   5.275
 5195SOL    HW116484   6.049   6.629   5.242
 5195SOL    HW216485   5.944   6.691   5.350
 5196SOL     OW16486   0.474   4.237   1.731
 5196SOL    HW116487   0.503   4.239   1.827
 5196SOL    HW216488   0.425   4.152   1.713
 5197SOL     OW16489   2.351   6.102   4.867
 5197SOL    HW116490   2.439   6.059   4.888
 5197SOL    HW216491   2.279   6.033   4.870
 5198SOL     OW16492   3.720   6.487   5.231
 5198SOL    HW116493   3.749   6.414   5.294
 5198SOL    HW216494   3.789   6.500   5.161
 5199SOL     OW16495   2.106   5.488   1.643
 5199SOL    HW116496   2.173   5.469   1.572
 5199SOL    HW216497   2.130   5.438   1.726
 5200SOL     OW16498   0.112   1.359   4.839
 5200SOL    HW116499   0.208   1.354   4.814
 5200SOL    HW216500   0.089   1.282   4.899
 5201SOL     OW16501   5.387   4.867   3.882
 5201SOL    HW116502   5.363   4.940   3.946
 5201SOL    HW216503   5.474   4.827   3.908
 5202SOL     OW16504   4.059   3.224   6.203
 5202SOL    HW116505   4.006   3.204   6.120
 5202SOL    HW216506   4.034   3.314   6.238
 5203SOL     OW16507   1.971   0.263   0.669
 5203SOL    HW116508   1.936   0.341   0.617
 5203SOL    HW216509   2.019   0.296   0.750
 5204SOL     OW16510   3.364   1.151   6.961
 5204SOL    HW116511   3.396   1.220   0.004
 5204SOL    HW216512   3.440   1.123   6.902
 5205SOL     OW16513   0.007   5.623   0.748
 5205SOL    HW116514   6.962   5.572   0.802
 5205SOL    HW216515   7.017   5.721   0.765
 5206SOL     OW16516   0.712   4.787   5.143
 5206SOL    HW116517   0.798   4.824   5.180
 5206SOL    HW216518   0.712   4.688   5.151
 5207SOL     OW16519   0.340   0.925   4.772
 5207SOL    HW116520   0.429   0.925   4.725
 5207SOL    HW216521   0.267   0.921   4.704
 5208SOL     OW16522   4.367   2.254   0.815
 5208SOL    HW116523   4.335   2.329   0.759
 5208SOL    HW216524   4.293   2.224   0.876
 5209SOL     OW16525   4.584   5.984   3.041
 5209SOL    HW116526   4.612   5.889   3.034
 5209SOL    HW216527   4.557   6.004   3.136
 5210SOL     OW16528   5.461   4.234   0.361
 5210SOL    HW116529   5.554   4.200   0.375
 5210SOL    HW216530   5.396   4.173   0.406
 5211SOL     OW16531   4.640   2.706   4.084
 5211SOL    HW116532   4.650   2.731   4.180
 5211SOL    HW216533   4.697   2.766   4.028
 5212SOL     OW16534   0.689   3.334   1.199
 5212SOL    HW116535   0.764   3.272   1.223
 5212SOL    HW216536   0.638   3.295   1.122
 5213SOL     OW16537   4.133   3.294   2.628
 5213SOL    HW116538   4.213   3.293   2.688
 5213SOL    HW216539   4.070   3.222   2.656
 5214SOL     OW16540   5.751   3.668   5.922
 5214SOL    HW116541   5.718   3.591   5.869
 5214SOL    HW216542   5.674   3.718   5.961
 5215SOL     OW16543   0.262   3.991   4.798
 5215SOL    HW116544   0.173   3.973   4.839
 5215SOL    HW216545   0.334   3.978   4.866
 5216SOL     OW16546   5.576   4.961   0.360
 5216SOL    HW116547   5.560   4.869   0.325
 5216SOL    HW216548   5.506   5.023   0.324
 5217SOL     OW16549   3.805   5.979   3.819
 5217SOL    HW116550   3.751   5.931   3.750
 5217SOL    HW216551   3.859   5.913   3.871
 5218SOL     OW16552   0.623   0.108   0.723
 5218SOL    HW116553   0.631   0.129   0.820
 5218SOL    HW216554   0.528   0.087   0.700
 5219SOL     OW16555   2.273   2.157   5.326
 5219SOL    HW116556   2.241   2.118   5.240
 5219SOL    HW216557   2.370   2.180   5.318
 5220SOL     OW16558   1.648   4.614   3.786
 5220SOL    HW116559   1.682   4.580   3.698
 5220SOL    HW216560   1.696   4.568   3.860
 5221SOL     OW16561   6.496   0.348   1.215
 5221SOL    HW116562   6.483   0.286   1.138
 5221SOL    HW216563   6.412   0.401   1.230
 5222SOL     OW16564   4.615   4.773   1.345
 5222SOL    HW116565   4.711   4.757   1.366
 5222SOL    HW216566   4.564   4.687   1.353
 5223SOL     OW16567   0.501   3.148   1.108
 5223SOL    HW116568   0.444   3.123   1.029
 5223SOL    HW216569   0.442   3.164   1.187
 5224SOL     OW16570   0.650   2.211   4.653
 5224SOL    HW116571   0.579   2.143   4.634
 5224SOL    HW216572   0.687   2.197   4.745
 5225SOL     OW16573   0.400   1.484   4.985
 5225SOL    HW116574   0.381   1.523   4.895
 5225SOL    HW216575   0.376   1.387   4.985
 5226SOL     OW16576   7.006   6.544   3.994
 5226SOL    HW116577   7.002   6.523   3.897
 5226SOL    HW216578   6.993   6.459   4.046
 5227SOL     OW16579   0.202   2.431   4.754
 5227SOL    HW116580   0.133   2.503   4.754
 5227SOL    HW216581   0.205   2.388   4.845
 5228SOL     OW16582   2.008   2.776   5.883
 5228SOL    HW116583   2.047   2.690   5.916
 5228SOL    HW216584   1.933   2.757   5.819
 5229SOL     OW16585   4.273   0.651   6.073
 5229SOL    HW116586   4.356   0.663   6.019
 5229SOL    HW216587   4.231   0.740   6.090
 5230SOL     OW16588   6.938   6.942   2.050
 5230SOL    HW116589   6.866   6.872   2.055
 5230SOL    HW216590   6.917   7.016   2.114
 5231SOL     OW16591   6.344   1.882   2.521
 5231SOL    HW116592   6.397   1.835   2.451
 5231SOL    HW216593   6.247   1.880   2.496
 5232SOL     OW16594   2.212   2.973   5.791
 5232SOL    HW116595   2.214   2.943   5.696
 5232SOL    HW216596   2.118   2.965   5.827
 5233SOL     OW16597   3.187   0.610   2.689
 5233SOL    HW116598   3.119   0.546   2.726
 5233SOL    HW216599   3.263   0.559   2.649
 5234SOL     OW16600   2.488   2.284   1.388
 5234SOL    HW116601   2.578   2.263   1.425
 5234SOL    HW216602   2.495   2.364   1.327
 5235SOL     OW16603   2.940   1.644   1.353
 5235SOL    HW116604   3.028   1.684   1.377
 5235SOL    HW216605   2.922   1.660   1.256
 5236SOL     OW16606   3.393   5.635   1.759
 5236SOL    HW116607   3.397   5.535   1.767
 5236SOL    HW216608   3.481   5.674   1.786
 5237SOL     OW16609   1.706   2.234   4.166
 5237SOL    HW116610   1.798   2.233   4.128
 5237SOL    HW216611   1.711   2.242   4.266
 5238SOL     OW16612   1.269   6.144   3.004
 5238SOL    HW116613   1.287   6.206   3.081
 5238SOL    HW216614   1.172   6.149   2.979
 5239SOL     OW16615   2.819   3.820   0.868
 5239SOL    HW116616   2.854   3.809   0.775
 5239SOL    HW216617   2.831   3.735   0.918
 5240SOL     OW16618   2.298   3.745   5.743
 5240SOL    HW116619   2.337   3.698   5.663
 5240SOL    HW216620   2.248   3.678   5.799
 5241SOL     OW16621   0.525   5.740   2.368
 5241SOL    HW116622   0.445   5.774   2.417
 5241SOL    HW216623   0.556   5.809   2.303
 5242SOL     OW16624   4.846   0.983   6.752
 5242SOL    HW116625   4.828   1.006   6.848
 5242SOL    HW216626   4.795   0.900   6.728
 5243SOL     OW16627   2.211   6.729   1.939
 5243SOL    HW116628   2.240   6.754   1.846
 5243SOL    HW216629   2.271   6.658   1.974
 5244SOL     OW16630   4.673   3.245   0.401
 5244SOL    HW116631   4.629   3.156   0.389
 5244SOL    HW216632   4.685   3.264   0.498
 5245SOL     OW16633   3.857   3.841   1.267
 5245SOL    HW116634   3.875   3.778   1.342
 5245SOL    HW216635   3.817   3.926   1.302
 5246SOL     OW16636   5.890   2.917   1.019
 5246SOL    HW116637   5.920   2.868   0.937
 5246SOL    HW216638   5.835   2.856   1.075
 5247SOL     OW16639   4.127   1.811   6.550
 5247SOL    HW116640   4.054   1.805   6.482
 5247SOL    HW216641   4.126   1.730   6.609
 5248SOL     OW16642   6.519   1.549   3.345
 5248SOL    HW116643   6.601   1.521   3.296
 5248SOL    HW216644   6.438   1.510   3.300
 5249SOL     OW16645   0.681   4.684   6.655
 5249SOL    HW116646   0.685   4.596   6.703
 5249SOL    HW216647   0.585   4.708   6.639
 5250SOL     OW16648   2.187   6.253   1.063
 5250SOL    HW116649   2.120   6.327   1.055
 5250SOL    HW216650   2.214   6.222   0.972
 5251SOL     OW16651   0.671   4.508   0.949
 5251SOL    HW116652   0.755   4.555   0.923
 5251SOL    HW216653   0.594   4.573   0.944
 5252SOL     OW16654   4.141   0.038   2.820
 5252SOL    HW116655   4.142   7.012   2.732
 5252SOL    HW216656   4.069   7.021   2.878
 5253SOL     OW16657   6.076   4.781   4.581
 5253SOL    HW116658   6.174   4.791   4.559
 5253SOL    HW216659   6.043   4.693   4.546
 5254SOL     OW16660   5.886   0.192   2.740
 5254SOL    HW116661   5.904   0.096   2.756
 5254SOL    HW216662   5.946   0.227   2.669
 5255SOL     OW16663   6.372   1.685   4.810
 5255SOL    HW116664   6.286   1.643   4.840
 5255SOL    HW216665   6.370   1.698   4.711
 5256SOL     OW16666   5.484   0.810   2.920
 5256SOL    HW116667   5.451   0.732   2.866
 5256SOL    HW216668   5.584   0.811   2.919
 5257SOL     OW16669   4.277   0.949   5.872
 5257SOL    HW116670   4.296   1.047   5.868
 5257SOL    HW216671   4.207   0.931   5.942
 5258SOL     OW16672   4.603   2.029   2.530
 5258SOL    HW116673   4.698   2.061   2.529
 5258SOL    HW216674   4.577   2.000   2.438
 5259SOL     OW16675   5.227   5.423   2.875
 5259SOL    HW116676   5.193   5.336   2.910
 5259SOL    HW216677   5.302   5.406   2.811
 5260SOL     OW16678   2.499   0.976   0.886
 5260SOL    HW116679   2.483   0.897   0.827
 5260SOL    HW216680   2.463   1.058   0.842
 5261SOL     OW16681   6.168   4.574   0.110
 5261SOL    HW116682   6.174   4.673   0.097
 5261SOL    HW216683   6.129   4.556   0.200
 5262SOL     OW16684   2.463   0.995   2.744
 5262SOL    HW116685   2.389   1.049   2.705
 5262SOL    HW216686   2.472   1.016   2.842
 5263SOL     OW16687   1.743   0.828   3.336
 5263SOL    HW116688   1.708   0.855   3.246
 5263SOL    HW216689   1.787   0.907   3.379
 5264SOL     OW16690   0.233   2.057   1.565
 5264SOL    HW116691   0.253   1.971   1.517
 5264SOL    HW216692   0.298   2.068   1.641
 5265SOL     OW16693   6.188   3.810   4.798
 5265SOL    HW116694   6.188   3.877   4.723
 5265SOL    HW216695   6.274   3.816   4.849
 5266SOL     OW16696   2.466   0.366   0.976
 5266SOL    HW116697   2.465   0.352   1.075
 5266SOL    HW216698   2.561   0.375   0.945
 5267SOL     OW16699   4.767   2.197   4.237
 5267SOL    HW116700   4.799   2.271   4.178
 5267SOL    HW216701   4.803   2.211   4.329
 5268SOL     OW16702   5.649   0.765   6.236
 5268SOL    HW116703   5.640   0.684   6.180
 5268SOL    HW216704   5.631   0.742   6.332
 5269SOL     OW16705   0.479   6.391   3.267
 5269SOL    HW116706   0.402   6.435   3.220
 5269SOL    HW216707   0.494   6.436   3.355
 5270SOL     OW16708   0.019   2.299   6.401
 5270SOL    HW116709   7.000   2.221   6.354
 5270SOL    HW216710   0.097   2.268   6.456
 5271SOL     OW16711   6.284   5.654   3.883
 5271SOL    HW116712   6.335   5.739   3.871
 5271SOL    HW216713   6.348   5.579   3.900
 5272SOL     OW16714   4.445   0.404   0.118
 5272SOL    HW116715   4.480   0.477   0.060
 5272SOL    HW216716   4.362   0.435   0.164
 5273SOL     OW16717   1.064   2.688   2.649
 5273SOL    HW116718   1.024   2.628   2.580
 5273SOL    HW216719   1.074   2.780   2.611
 5274SOL     OW16720   4.411   5.822   2.569
 5274SOL    HW116721   4.476   5.799   2.496
 5274SOL    HW216722   4.453   5.889   2.630
 5275SOL     OW16723   3.614   1.055   6.547
 5275SOL    HW116724   3.680   1.127   6.525
 5275SOL    HW216725   3.551   1.044   6.470
 5276SOL     OW16726   3.359   6.342   2.534
 5276SOL    HW116727   3.356   6.288   2.450
 5276SOL    HW216728   3.454   6.351   2.564
 5277SOL     OW16729   2.083   1.961   1.745
 5277SOL    HW116730   2.037   1.976   1.657
 5277SOL    HW216731   2.092   2.048   1.793
 5278SOL     OW16732   4.565   5.229   1.540
 5278SOL    HW116733   4.566   5.132   1.518
 5278SOL    HW216734   4.517   5.244   1.627
 5279SOL     OW16735   2.675   4.998   1.751
 5279SOL    HW116736   2.621   5.039   1.824
 5279SOL    HW216737   2.755   4.953   1.790
 5280SOL     OW16738   4.029   5.875   4.684
 5280SOL    HW116739   3.983   5.911   4.603
 5280SOL    HW216740   4.009   5.777   4.693
 5281SOL     OW16741   0.511   1.781   1.703
 5281SOL    HW116742   0.579   1.756   1.772
 5281SOL    HW216743   0.533   1.736   1.617
 5282SOL     OW16744   3.447   1.926   3.637
 5282SOL    HW116745   3.370   1.864   3.647
 5282SOL    HW216746   3.530   1.874   3.619
 5283SOL     OW16747   5.227   5.255   6.822
 5283SOL    HW116748   5.309   5.202   6.800
 5283SOL    HW216749   5.244   5.352   6.808
 5284SOL     OW16750   5.906   2.836   2.823
 5284SOL    HW116751   5.864   2.840   2.733
 5284SOL    HW216752   5.835   2.831   2.893
 5285SOL     OW16753   3.257   5.148   3.017
 5285SOL    HW116754   3.300   5.116   2.932
 5285SOL    HW216755   3.160   5.163   3.001
 5286SOL     OW16756   1.931   4.882   1.275
 5286SOL    HW116757   1.949   4.863   1.371
 5286SOL    HW216758   1.962   4.974   1.252
 5287SOL     OW16759   2.144   1.881   1.158
 5287SOL    HW116760   2.092   1.856   1.076
 5287SOL    HW216761   2.230   1.829   1.160
 5288SOL     OW16762   3.748   6.918   0.882
 5288SOL    HW116763   3.662   6.891   0.925
 5288SOL    HW216764   3.731   6.945   0.787
 5289SOL     OW16765   1.673   5.557   1.647
 5289SOL    HW116766   1.753   5.568   1.587
 5289SOL    HW216767   1.594   5.601   1.605
 5290SOL     OW16768   4.347   6.107   0.596
 5290SOL    HW116769   4.344   6.052   0.680
 5290SOL    HW216770   4.286   6.066   0.528
 5291SOL     OW16771   2.038   4.882   6.367
 5291SOL    HW116772   2.112   4.947   6.384
 5291SOL    HW216773   2.062   4.823   6.290
 5292SOL     OW16774   4.300   2.857   6.012
 5292SOL    HW116775   4.380   2.913   5.993
 5292SOL    HW216776   4.244   2.901   6.082
 5293SOL     OW16777   0.834   0.350   4.729
 5293SOL    HW116778   0.899   0.287   4.685
 5293SOL    HW216779   0.750   0.353   4.675
 5294SOL     OW16780   6.286   2.396   5.979
 5294SOL    HW116781   6.235   2.347   5.909
 5294SOL    HW216782   6.230   2.403   6.062
 5295SOL     OW16783   6.443   1.191   1.946
 5295SOL    HW116784   6.346   1.182   1.921
 5295SOL    HW216785   6.449   1.222   2.041
 5296SOL     OW16786   0.570   4.590   1.513
 5296SOL    HW116787   0.560   4.500   1.472
 5296SOL    HW216788   0.524   4.592   1.602
 5297SOL     OW16789   2.054   2.503   1.352
 5297SOL    HW116790   2.144   2.474   1.385
 5297SOL    HW216791   2.066   2.556   1.268
 5298SOL     OW16792   0.775   5.342   1.614
 5298SOL    HW116793   0.828   5.329   1.698
 5298SOL    HW216794   0.691   5.391   1.635
 5299SOL     OW16795   2.861   0.383   1.866
 5299SOL    HW116796   2.911   0.457   1.911
 5299SOL    HW216797   2.924   0.329   1.810
 5300SOL     OW16798   6.425   5.537   3.061
 5300SOL    HW116799   6.428   5.630   3.025
 5300SOL    HW216800   6.488   5.528   3.138
 5301SOL     OW16801   4.006   1.829   6.966
 5301SOL    HW116802   3.967   1.786   6.884
 5301SOL    HW216803   3.943   1.899   6.999
 5302SOL     OW16804   6.080   4.291   2.991
 5302SOL    HW116805   6.075   4.346   3.074
 5302SOL    HW216806   6.174   4.288   2.958
 5303SOL     OW16807   0.045   4.395   3.123
 5303SOL    HW116808   0.012   4.489   3.117
 5303SOL    HW216809   0.127   4.383   3.067
 5304SOL     OW16810   5.264   1.848   5.574
 5304SOL    HW116811   5.241   1.756   5.605
 5304SOL    HW216812   5.347   1.880   5.621
 5305SOL     OW16813   2.352   1.246   3.454
 5305SOL    HW116814   2.387   1.340   3.459
 5305SOL    HW216815   2.427   1.184   3.431
 5306SOL     OW16816   2.865   0.007   5.610
 5306SOL    HW116817   2.819   0.028   5.524
 5306SOL    HW216818   2.798   6.998   5.677
 5307SOL     OW16819   5.088   6.700   0.218
 5307SOL    HW116820   5.109   6.775   0.156
 5307SOL    HW216821   5.020   6.731   0.285
 5308SOL     OW16822   0.039   1.212   2.530
 5308SOL    HW116823   0.080   1.296   2.567
 5308SOL    HW216824   0.050   1.138   2.597
 5309SOL     OW16825   3.502   4.165   3.693
 5309SOL    HW116826   3.437   4.166   3.769
 5309SOL    HW216827   3.452   4.148   3.608
 5310SOL     OW16828   4.632   2.232   0.846
 5310SOL    HW116829   4.653   2.302   0.915
 5310SOL    HW216830   4.534   2.214   0.847
 5311SOL     OW16831   1.062   5.651   7.006
 5311SOL    HW116832   1.021   5.661   6.916
 5311SOL    HW216833   1.143   5.709   7.013
 5312SOL     OW16834   0.447   3.766   2.941
 5312SOL    HW116835   0.421   3.706   3.016
 5312SOL    HW216836   0.397   3.853   2.948
 5313SOL     OW16837   1.242   5.728   1.149
 5313SOL    HW116838   1.159   5.763   1.107
 5313SOL    HW216839   1.274   5.793   1.218
 5314SOL     OW16840   3.798   4.904   0.843
 5314SOL    HW116841   3.731   4.861   0.904
 5314SOL    HW216842   3.803   4.852   0.758
 5315SOL     OW16843   5.542   2.493   2.290
 5315SOL    HW116844   5.638   2.516   2.305
 5315SOL    HW216845   5.530   2.464   2.195
 5316SOL     OW16846   6.109   4.950   3.997
 5316SOL    HW116847   6.011   4.955   3.975
 5316SOL    HW216848   6.120   4.948   4.096
 5317SOL     OW16849   5.624   6.413   2.720
 5317SOL    HW116850   5.640   6.316   2.739
 5317SOL    HW216851   5.584   6.423   2.629
 5318SOL     OW16852   0.603   2.469   4.598
 5318SOL    HW116853   0.513   2.511   4.612
 5318SOL    HW216854   0.597   2.370   4.617
 5319SOL     OW16855   4.799   0.559   0.775
 5319SOL    HW116856   4.782   0.511   0.861
 5319SOL    HW216857   4.888   0.532   0.739
 5320SOL     OW16858   5.742   3.031   5.807
 5320SOL    HW116859   5.836   3.065   5.810
 5320SOL    HW216860   5.742   2.931   5.806
 5321SOL     OW16861   1.961   5.450   6.294
 5321SOL    HW116862   2.018   5.386   6.243
 5321SOL    HW216863   1.936   5.409   6.381
 5322SOL     OW16864   3.239   5.944   0.319
 5322SOL    HW116865   3.263   5.918   0.225
 5322SOL    HW216866   3.260   5.868   0.381
 5323SOL     OW16867   5.322   3.080   0.616
 5323SOL    HW116868   5.395   3.149   0.618
 5323SOL    HW216869   5.239   3.121   0.578
 5324SOL     OW16870   3.590   3.498   1.792
 5324SOL    HW116871   3.528   3.522   1.718
 5324SOL    HW216872   3.667   3.446   1.756
 5325SOL     OW16873   5.070   5.748   3.365
 5325SOL    HW116874   5.075   5.771   3.268
 5325SOL    HW216875   4.998   5.681   3.380
 5326SOL     OW16876   6.597   6.354   1.560
 5326SOL    HW116877   6.602   6.287   1.486
 5326SOL    HW216878   6.580   6.307   1.647
 5327SOL     OW16879   6.910   0.694   3.531
 5327SOL    HW116880   6.819   0.652   3.528
 5327SOL    HW216881   6.980   0.624   3.518
 5328SOL     OW16882   3.916   4.608   0.714
 5328SOL    HW116883   3.819   4.586   0.724
 5328SOL    HW216884   3.956   4.628   0.803
 5329SOL     OW16885   6.901   4.725   0.046
 5329SOL    HW116886   6.919   4.744   6.971
 5329SOL    HW216887   6.878   4.810   0.093
 5330SOL     OW16888   4.790   4.730   0.925
 5330SOL    HW116889   4.720   4.800   0.940
 5330SOL    HW216890   4.805   4.679   1.011
 5331SOL     OW16891   4.635   3.547   6.838
 5331SOL    HW116892   4.699   3.624   6.839
 5331SOL    HW216893   4.589   3.544   6.750
 5332SOL     OW16894   5.876   2.880   0.080
 5332SOL    HW116895   5.853   2.819   0.156
 5332SOL    HW216896   5.835   2.844   7.017
 5333SOL     OW16897   1.381   1.666   3.990
 5333SOL    HW116898   1.409   1.756   3.955
 5333SOL    HW216899   1.403   1.660   4.087
 5334SOL     OW16900   4.267   5.246   2.166
 5334SOL    HW116901   4.315   5.182   2.225
 5334SOL    HW216902   4.194   5.292   2.217
 5335SOL     OW16903   0.092   4.285   1.177
 5335SOL    HW116904   0.144   4.324   1.252
 5335SOL    HW216905   0.155   4.247   1.109
 5336SOL     OW16906   1.496   3.509   4.022
 5336SOL    HW116907   1.468   3.586   4.078
 5336SOL    HW216908   1.434   3.432   4.036
 5337SOL     OW16909   6.630   4.506   0.999
 5337SOL    HW116910   6.669   4.421   1.033
 5337SOL    HW216911   6.704   4.570   0.976
 5338SOL     OW16912   7.016   3.503   1.007
 5338SOL    HW116913   6.954   3.515   1.085
 5338SOL    HW216914   0.060   3.579   1.005
 5339SOL     OW16915   5.420   3.315   2.988
 5339SOL    HW116916   5.504   3.268   3.014
 5339SOL    HW216917   5.341   3.256   3.005
 5340SOL     OW16918   5.822   2.579   2.276
 5340SOL    HW116919   5.841   2.657   2.216
 5340SOL    HW216920   5.874   2.588   2.361
 5341SOL     OW16921   3.896   5.474   4.182
 5341SOL    HW116922   3.828   5.401   4.194
 5341SOL    HW216923   3.849   5.560   4.161
 5342SOL     OW16924   6.103   6.854   4.333
 5342SOL    HW116925   6.169   6.926   4.355
 5342SOL    HW216926   6.099   6.843   4.234
 5343SOL     OW16927   3.652   3.622   6.882
 5343SOL    HW116928   3.714   3.648   6.955
 5343SOL    HW216929   3.678   3.532   6.846
 5344SOL     OW16930   1.568   1.731   6.221
 5344SOL    HW116931   1.643   1.697   6.278
 5344SOL    HW216932   1.500   1.659   6.209
 5345SOL     OW16933   5.013   2.336   0.358
 5345SOL    HW116934   5.053   2.418   0.401
 5345SOL    HW216935   5.021   2.259   0.421
 5346SOL     OW16936   2.985   5.941   3.821
 5346SOL    HW116937   3.032   6.016   3.867
 5346SOL    HW216938   2.925   5.894   3.886
 5347SOL     OW16939   6.168   1.529   3.946
 5347SOL    HW116940   6.129   1.437   3.957
 5347SOL    HW216941   6.169   1.554   3.850
 5348SOL     OW16942   5.590   2.176   2.766
 5348SOL    HW116943   5.490   2.177   2.772
 5348SOL    HW216944   5.627   2.129   2.846
 5349SOL     OW16945   0.579   3.781   2.418
 5349SOL    HW116946   0.529   3.866   2.436
 5349SOL    HW216947   0.540   3.707   2.474
 5350SOL     OW16948   1.429   6.569   0.237
 5350SOL    HW116949   1.485   6.598   0.315
 5350SOL    HW216950   1.456   6.622   0.156
 5351SOL     OW16951   6.795   6.590   2.523
 5351SOL    HW116952   6.751   6.534   2.453
 5351SOL    HW216953   6.839   6.531   2.590
 5352SOL     OW16954   1.201   3.416   5.115
 5352SOL    HW116955   1.159   3.337   5.161
 5352SOL    HW216956   1.262   3.463   5.179
 5353SOL     OW16957   3.660   5.359   3.599
 5353SOL    HW116958   3.731   5.348   3.669
 5353SOL    HW216959   3.694   5.323   3.512
 5354SOL     OW16960   4.813   5.578   0.559
 5354SOL    HW116961   4.740   5.528   0.606
 5354SOL    HW216962   4.832   5.535   0.471
 5355SOL     OW16963   5.018   4.238   5.102
 5355SOL    HW116964   4.943   4.174   5.084
 5355SOL    HW216965   5.000   4.324   5.056
 5356SOL     OW16966   0.570   5.060   1.139
 5356SOL    HW116967   0.629   5.139   1.125
 5356SOL    HW216968   0.589   5.019   1.229
 5357SOL     OW16969   5.587   2.981   2.496
 5357SOL    HW116970   5.608   3.058   2.435
 5357SOL    HW216971   5.494   2.950   2.477
 5358SOL     OW16972   4.181   2.246   0.026
 5358SOL    HW116973   4.214   2.277   0.115
 5358SOL    HW216974   4.204   2.150   0.013
 5359SOL     OW16975   3.300   2.380   6.893
 5359SOL    HW116976   3.277   2.471   6.860
 5359SOL    HW216977   3.400   2.368   6.891
 5360SOL     OW16978   5.096   3.933   3.049
 5360SOL    HW116979   5.091   4.018   3.101
 5360SOL    HW216980   5.044   3.862   3.095
 5361SOL     OW16981   2.201   5.222   2.287
 5361SOL    HW116982   2.238   5.202   2.377
 5361SOL    HW216983   2.241   5.306   2.252
 5362SOL     OW16984   5.558   0.702   1.663
 5362SOL    HW116985   5.556   0.609   1.626
 5362SOL    HW216986   5.635   0.710   1.726
 5363SOL     OW16987   5.845   5.596   3.185
 5363SOL    HW116988   5.878   5.648   3.264
 5363SOL    HW216989   5.883   5.635   3.101
 5364SOL     OW16990   4.633   1.135   2.249
 5364SOL    HW116991   4.572   1.056   2.255
 5364SOL    HW216992   4.580   1.216   2.224
 5365SOL     OW16993   3.562   2.937   3.718
 5365SOL    HW116994   3.526   2.902   3.632
 5365SOL    HW216995   3.658   2.963   3.706
 5366SOL     OW16996   6.437   6.424   2.658
 5366SOL    HW116997   6.404   6.484   2.730
 5366SOL    HW216998   6.446   6.475   2.573
 5367SOL     OW16999   6.362   6.234   1.363
 5367SOL    HW117000   6.305   6.153   1.379
 5367SOL    HW217001   6.416   6.221   1.281
 5368SOL     OW17002   6.382   5.920   3.804
 5368SOL    HW117003   6.362   6.000   3.748
 5368SOL    HW217004   6.479   5.921   3.830
 5369SOL     OW17005   2.638   5.802   2.669
 5369SOL    HW117006   2.675   5.759   2.587
 5369SOL    HW217007   2.623   5.899   2.652
 5370SOL     OW17008   1.230   3.549   0.865
 5370SOL    HW117009   1.162   3.526   0.796
 5370SOL    HW217010   1.280   3.630   0.836
 5371SOL     OW17011   5.531   5.493   4.586
 5371SOL    HW117012   5.602   5.456   4.647
 5371SOL    HW217013   5.442   5.486   4.630
 5372SOL     OW17014   1.218   0.099   3.195
 5372SOL    HW117015   1.279   0.109   3.274
 5372SOL    HW217016   1.195   0.002   3.184
 5373SOL     OW17017   3.656   1.426   6.644
 5373SOL    HW117018   3.632   1.465   6.733
 5373SOL    HW217019   3.573   1.404   6.593
 5374SOL     OW17020   1.773   4.655   2.354
 5374SOL    HW117021   1.707   4.696   2.291
 5374SOL    HW217022   1.865   4.669   2.319
 5375SOL     OW17023   1.502   4.273   4.619
 5375SOL    HW117024   1.465   4.224   4.699
 5375SOL    HW217025   1.556   4.350   4.651
 5376SOL     OW17026   0.516   0.062   6.226
 5376SOL    HW117027   0.603   0.062   6.275
 5376SOL    HW217028   0.445   0.102   6.284
 5377SOL     OW17029   2.224   0.987   3.520
 5377SOL    HW117030   2.273   1.054   3.465
 5377SOL    HW217031   2.253   0.895   3.493
 5378SOL     OW17032   4.869   1.068   2.148
 5378SOL    HW117033   4.788   1.091   2.202
 5378SOL    HW217034   4.851   1.084   2.051
 5379SOL     OW17035   1.663   2.006   6.229
 5379SOL    HW117036   1.720   2.022   6.310
 5379SOL    HW217037   1.627   1.913   6.232
 5380SOL     OW17038   4.234   6.372   1.329
 5380SOL    HW117039   4.300   6.375   1.254
 5380SOL    HW217040   4.149   6.416   1.300
 5381SOL     OW17041   4.498   6.992   3.704
 5381SOL    HW117042   4.586   6.960   3.668
 5381SOL    HW217043   4.423   6.945   3.658
 5382SOL     OW17044   4.133   1.508   1.556
 5382SOL    HW117045   4.136   1.594   1.504
 5382SOL    HW217046   4.155   1.526   1.652
 5383SOL     OW17047   2.013   2.659   4.597
 5383SOL    HW117048   2.104   2.622   4.614
 5383SOL    HW217049   1.944   2.594   4.629
 5384SOL     OW17050   5.419   5.289   4.111
 5384SOL    HW117051   5.437   5.303   4.208
 5384SOL    HW217052   5.324   5.259   4.098
 5385SOL     OW17053   3.733   2.722   5.969
 5385SOL    HW117054   3.798   2.756   6.036
 5385SOL    HW217055   3.746   2.770   5.882
 5386SOL     OW17056   5.717   4.541   4.117
 5386SOL    HW117057   5.686   4.469   4.179
 5386SOL    HW217058   5.779   4.502   4.049
 5387SOL     OW17059   1.814   1.124   3.393
 5387SOL    HW117060   1.913   1.132   3.408
 5387SOL    HW217061   1.790   1.168   3.306
 5388SOL     OW17062   0.531   6.438   2.243
 5388SOL    HW117063   0.586   6.364   2.281
 5388SOL    HW217064   0.563   6.526   2.279
 5389SOL     OW17065   4.578   1.844   4.024
 5389SOL    HW117066   4.604   1.818   3.931
 5389SOL    HW217067   4.492   1.799   4.048
 5390SOL     OW17068   0.564   2.858   2.805
 5390SOL    HW117069   0.546   2.950   2.839
 5390SOL    HW217070   0.557   2.793   2.880
 5391SOL     OW17071   2.901   3.657   0.245
 5391SOL    HW117072   2.864   3.569   0.273
 5391SOL    HW217073   2.950   3.699   0.321
 5392SOL     OW17074   5.665   1.947   3.818
 5392SOL    HW117075   5.582   1.903   3.786
 5392SOL    HW217076   5.648   1.992   3.906
 5393SOL     OW17077   4.617   1.710   5.071
 5393SOL    HW117078   4.712   1.735   5.086
 5393SOL    HW217079   4.581   1.761   4.993
 5394SOL     OW17080   1.856   2.243   1.254
 5394SOL    HW117081   1.897   2.334   1.244
 5394SOL    HW217082   1.803   2.222   1.172
 5395SOL     OW17083   6.272   2.072   0.467
 5395SOL    HW117084   6.344   2.052   0.533
 5395SOL    HW217085   6.194   2.114   0.514
 5396SOL     OW17086   5.346   4.448   1.136
 5396SOL    HW117087   5.302   4.482   1.053
 5396SOL    HW217088   5.309   4.497   1.215
 5397SOL     OW17089   0.635   1.299   2.582
 5397SOL    HW117090   0.594   1.382   2.621
 5397SOL    HW217091   0.718   1.324   2.532
 5398SOL     OW17092   5.664   1.316   2.564
 5398SOL    HW117093   5.754   1.275   2.553
 5398SOL    HW217094   5.643   1.373   2.484
 5399SOL     OW17095   2.007   1.156   6.927
 5399SOL    HW117096   2.033   1.099   7.005
 5399SOL    HW217097   1.982   1.247   6.960
 5400SOL     OW17098   4.552   3.675   1.665
 5400SOL    HW117099   4.613   3.748   1.636
 5400SOL    HW217100   4.596   3.586   1.652
 5401SOL     OW17101   5.681   3.087   1.236
 5401SOL    HW117102   5.723   3.023   1.300
 5401SOL    HW217103   5.688   3.180   1.272
 5402SOL     OW17104   1.140   6.355   1.845
 5402SOL    HW117105   1.087   6.436   1.819
 5402SOL    HW217106   1.229   6.356   1.799
 5403SOL     OW17107   4.766   3.192   0.076
 5403SOL    HW117108   4.718   3.144   0.149
 5403SOL    HW217109   4.726   3.283   0.063
 5404SOL     OW17110   6.393   1.194   0.410
 5404SOL    HW117111   6.416   1.263   0.342
 5404SOL    HW217112   6.450   1.207   0.491
 5405SOL     OW17113   6.498   5.421   0.043
 5405SOL    HW117114   6.547   5.478   0.109
 5405SOL    HW217115   6.449   5.349   0.091
 5406SOL     OW17116   2.655   0.930   5.661
 5406SOL    HW117117   2.704   0.843   5.649
 5406SOL    HW217118   2.712   0.994   5.711
 5407SOL     OW17119   2.301   6.957   2.869
 5407SOL    HW117120   2.267   0.014   2.920
 5407SOL    HW217121   2.394   6.936   2.898
 5408SOL     OW17122   3.476   1.735   4.065
 5408SOL    HW117123   3.538   1.710   3.990
 5408SOL    HW217124   3.389   1.686   4.054
 5409SOL     OW17125   0.537   2.537   1.598
 5409SOL    HW117126   0.439   2.549   1.611
 5409SOL    HW217127   0.579   2.626   1.578
 5410SOL     OW17128   0.847   2.688   0.796
 5410SOL    HW117129   0.870   2.662   0.890
 5410SOL    HW217130   0.850   2.607   0.737
 5411SOL     OW17131   3.245   5.438   0.136
 5411SOL    HW117132   3.304   5.391   0.070
 5411SOL    HW217133   3.190   5.370   0.186
 5412SOL     OW17134   0.283   2.082   6.159
 5412SOL    HW117135   0.283   2.173   6.118
 5412SOL    HW217136   0.195   2.038   6.143
 5413SOL     OW17137   6.761   6.137   4.674
 5413SOL    HW117138   6.747   6.047   4.631
 5413SOL    HW217139   6.764   6.126   4.774
 5414SOL     OW17140   5.380   4.007   5.695
 5414SOL    HW117141   5.307   3.939   5.685
 5414SOL    HW217142   5.356   4.071   5.768
 5415SOL     OW17143   4.486   0.863   0.177
 5415SOL    HW117144   4.478   0.903   0.269
 5415SOL    HW217145   4.582   0.863   0.150
 5416SOL     OW17146   3.526   5.933   6.065
 5416SOL    HW117147   3.592   5.994   6.108
 5416SOL    HW217148   3.434   5.958   6.094
 5417SOL     OW17149   3.964   6.689   4.353
 5417SOL    HW117150   3.950   6.774   4.303
 5417SOL    HW217151   3.876   6.652   4.382
 5418SOL     OW17152   6.743   3.285   4.383
 5418SOL    HW117153   6.815   3.280   4.453
 5418SOL    HW217154   6.775   3.340   4.306
 5419SOL     OW17155   5.081   6.719   6.310
 5419SOL    HW117156   5.150   6.783   6.275
 5419SOL    HW217157   5.110   6.625   6.291
 5420SOL     OW17158   1.006   1.029   1.996
 5420SOL    HW117159   1.052   1.116   2.017
 5420SOL    HW217160   1.018   0.966   2.073
 5421SOL     OW17161   4.093   4.738   1.928
 5421SOL    HW117162   4.159   4.810   1.953
 5421SOL    HW217163   4.136   4.648   1.940
 5422SOL     OW17164   3.075   5.284   3.738
 5422SOL    HW117165   3.027   5.224   3.801
 5422SOL    HW217166   3.149   5.332   3.786
 5423SOL     OW17167   5.433   6.234   1.613
 5423SOL    HW117168   5.372   6.165   1.652
 5423SOL    HW217169   5.456   6.208   1.519
 5424SOL     OW17170   4.330   4.253   5.620
 5424SOL    HW117171   4.257   4.228   5.682
 5424SOL    HW217172   4.292   4.266   5.528
 5425SOL     OW17173   1.345   4.448   5.666
 5425SOL    HW117174   1.398   4.378   5.618
 5425SOL    HW217175   1.277   4.405   5.725
 5426SOL     OW17176   5.930   5.401   1.228
 5426SOL    HW117177   5.994   5.343   1.177
 5426SOL    HW217178   5.981   5.468   1.282
 5427SOL     OW17179   4.653   2.140   6.452
 5427SOL    HW117180   4.741   2.164   6.411
 5427SOL    HW217181   4.616   2.220   6.501
 5428SOL     OW17182   5.952   6.037   2.526
 5428SOL    HW117183   6.031   6.018   2.469
 5428SOL    HW217184   5.891   5.957   2.527
 5429SOL     OW17185   3.506   0.430   4.656
 5429SOL    HW117186   3.470   0.417   4.748
 5429SOL    HW217187   3.605   0.443   4.661
 5430SOL     OW17188   2.644   3.863   5.550
 5430SOL    HW117189   2.709   3.813   5.607
 5430SOL    HW217190   2.601   3.800   5.486
 5431SOL     OW17191   3.350   4.335   0.163
 5431SOL    HW117192   3.262   4.290   0.175
 5431SOL    HW217193   3.424   4.272   0.188
 5432SOL     OW17194   6.980   5.189   6.994
 5432SOL    HW117195   7.010   5.234   0.056
 5432SOL    HW217196   6.887   5.219   6.972
 5433SOL     OW17197   1.989   0.501   1.662
 5433SOL    HW117198   1.974   0.486   1.759
 5433SOL    HW217199   1.927   0.443   1.609
 5434SOL     OW17200   5.440   0.501   5.315
 5434SOL    HW117201   5.346   0.529   5.299
 5434SOL    HW217202   5.500   0.581   5.313
 5435SOL     OW17203   6.952   4.515   0.775
 5435SOL    HW117204   6.894   4.585   0.815
 5435SOL    HW217205   6.930   4.505   0.678
 5436SOL     OW17206   1.237   4.488   2.940
 5436SOL    HW117207   1.217   4.478   2.843
 5436SOL    HW217208   1.284   4.576   2.955
 5437SOL     OW17209   3.695   5.416   1.358
 5437SOL    HW117210   3.598   5.418   1.378
 5437SOL    HW217211   3.747   5.448   1.437
 5438SOL     OW17212   4.409   5.634   2.750
 5438SOL    HW117213   4.409   5.687   2.666
 5438SOL    HW217214   4.405   5.695   2.829
 5439SOL     OW17215   1.141   4.633   1.868
 5439SOL    HW117216   1.156   4.723   1.909
 5439SOL    HW217217   1.198   4.565   1.914
 5440SOL     OW17218   6.199   6.850   3.586
 5440SOL    HW117219   6.199   6.904   3.670
 5440SOL    HW217220   6.207   6.753   3.608
 5441SOL     OW17221   6.294   3.205   4.184
 5441SOL    HW117222   6.363   3.261   4.229
 5441SOL    HW217223   6.301   3.217   4.085
 5442SOL     OW17224   4.274   6.942   6.039
 5442SOL    HW117225   4.177   6.924   6.056
 5442SOL    HW217226   4.318   6.858   6.006
 5443SOL     OW17227   4.602   1.139   3.692
 5443SOL    HW117228   4.564   1.218   3.740
 5443SOL    HW217229   4.530   1.094   3.640
 5444SOL     OW17230   6.394   1.209   4.590
 5444SOL    HW117231   6.377   1.117   4.624
 5444SOL    HW217232   6.317   1.269   4.612
 5445SOL     OW17233   5.665   5.640   4.397
 5445SOL    HW117234   5.666   5.738   4.417
 5445SOL    HW217235   5.629   5.590   4.477
 5446SOL     OW17236   0.043   4.254   6.196
 5446SOL    HW117237   6.981   4.281   6.243
 5446SOL    HW217238   0.116   4.318   6.220
 5447SOL     OW17239   1.081   2.215   1.142
 5447SOL    HW117240   1.121   2.148   1.205
 5447SOL    HW217241   1.134   2.218   1.058
 5448SOL     OW17242   4.164   4.960   3.032
 5448SOL    HW117243   4.258   4.989   3.051
 5448SOL    HW217244   4.131   5.005   2.949
 5449SOL     OW17245   3.159   1.480   2.045
 5449SOL    HW117246   3.127   1.563   2.091
 5449SOL    HW217247   3.256   1.491   2.021
 5450SOL     OW17248   4.016   5.795   1.823
 5450SOL    HW117249   3.976   5.886   1.815
 5450SOL    HW217250   4.109   5.796   1.784
 5451SOL     OW17251   0.188   6.878   2.840
 5451SOL    HW117252   0.144   6.837   2.760
 5451SOL    HW217253   0.165   6.975   2.845
 5452SOL     OW17254   2.168   4.353   1.659
 5452SOL    HW117255   2.075   4.375   1.629
 5452SOL    HW217256   2.203   4.427   1.716
 5453SOL     OW17257   5.945   3.906   2.953
 5453SOL    HW117258   5.872   3.973   2.966
 5453SOL    HW217259   5.953   3.849   3.036
 5454SOL     OW17260   5.542   4.702   2.115
 5454SOL    HW117261   5.473   4.751   2.062
 5454SOL    HW217262   5.507   4.611   2.139
 5455SOL     OW17263   1.302   2.047   3.977
 5455SOL    HW117264   1.391   2.093   3.973
 5455SOL    HW217265   1.304   1.965   3.920
 5456SOL     OW17266   5.565   1.501   0.918
 5456SOL    HW117267   5.489   1.473   0.858
 5456SOL    HW217268   5.630   1.426   0.926
 5457SOL     OW17269   5.405   1.570   6.694
 5457SOL    HW117270   5.352   1.536   6.771
 5457SOL    HW217271   5.375   1.523   6.610
 5458SOL     OW17272   6.035   3.712   6.819
 5458SOL    HW117273   6.014   3.691   6.724
 5458SOL    HW217274   6.106   3.782   6.824
 5459SOL     OW17275   1.647   3.458   5.421
 5459SOL    HW117276   1.710   3.536   5.425
 5459SOL    HW217277   1.680   3.392   5.355
 5460SOL     OW17278   1.170   0.992   1.225
 5460SOL    HW117279   1.212   1.082   1.234
 5460SOL    HW217280   1.119   0.987   1.138
 5461SOL     OW17281   6.449   1.450   5.127
 5461SOL    HW117282   6.505   1.478   5.050
 5461SOL    HW217283   6.497   1.380   5.180
 5462SOL     OW17284   4.745   4.488   6.415
 5462SOL    HW117285   4.713   4.398   6.447
 5462SOL    HW217286   4.803   4.476   6.335
 5463SOL     OW17287   1.605   2.926   7.003
 5463SOL    HW117288   1.560   2.988   0.046
 5463SOL    HW217289   1.574   2.833   7.018
 5464SOL     OW17290   0.743   5.993   5.974
 5464SOL    HW117291   0.826   5.945   5.945
 5464SOL    HW217292   0.713   5.956   6.062
 5465SOL     OW17293   6.231   6.576   3.726
 5465SOL    HW117294   6.168   6.507   3.762
 5465SOL    HW217295   6.316   6.532   3.698
 5466SOL     OW17296   5.988   2.527   4.847
 5466SOL    HW117297   5.990   2.434   4.886
 5466SOL    HW217298   6.079   2.550   4.812
 5467SOL     OW17299   4.646   2.694   4.384
 5467SOL    HW117300   4.577   2.624   4.368
 5467SOL    HW217301   4.647   2.718   4.481
 5468SOL     OW17302   6.853   1.620   1.181
 5468SOL    HW117303   6.839   1.558   1.105
 5468SOL    HW217304   6.901   1.572   1.255
 5469SOL     OW17305   3.208   0.332   5.165
 5469SOL    HW117306   3.260   0.416   5.184
 5469SOL    HW217307   3.176   0.293   5.251
 5470SOL     OW17308   3.604   5.517   3.319
 5470SOL    HW117309   3.635   5.426   3.348
 5470SOL    HW217310   3.661   5.587   3.362
 5471SOL     OW17311   4.573   0.911   3.409
 5471SOL    HW117312   4.540   1.003   3.388
 5471SOL    HW217313   4.671   0.907   3.391
 5472SOL     OW17314   2.876   2.188   6.686
 5472SOL    HW117315   2.846   2.200   6.592
 5472SOL    HW217316   2.963   2.237   6.700
 5473SOL     OW17317   2.710   4.243   1.693
 5473SOL    HW117318   2.657   4.317   1.735
 5473SOL    HW217319   2.807   4.263   1.700
 5474SOL     OW17320   0.941   5.425   3.201
 5474SOL    HW117321   0.967   5.468   3.115
 5474SOL    HW217322   0.925   5.327   3.186
 5475SOL     OW17323   6.871   1.613   5.368
 5475SOL    HW117324   6.918   1.662   5.442
 5475SOL    HW217325   6.926   1.617   5.285
 5476SOL     OW17326   2.783   6.590   5.774
 5476SOL    HW117327   2.825   6.586   5.684
 5476SOL    HW217328   2.683   6.584   5.764
 5477SOL     OW17329   1.572   4.483   4.382
 5477SOL    HW117330   1.485   4.478   4.431
 5477SOL    HW217331   1.594   4.579   4.365
 5478SOL     OW17332   5.599   4.334   5.335
 5478SOL    HW117333   5.699   4.330   5.348
 5478SOL    HW217334   5.555   4.348   5.424
 5479SOL     OW17335   3.735   1.351   4.868
 5479SOL    HW117336   3.661   1.320   4.927
 5479SOL    HW217337   3.775   1.435   4.905
 5480SOL     OW17338   0.320   4.038   4.206
 5480SOL    HW117339   0.283   3.961   4.259
 5480SOL    HW217340   0.316   4.121   4.261
 5481SOL     OW17341   4.132   0.647   6.514
 5481SOL    HW117342   4.215   0.688   6.476
 5481SOL    HW217343   4.143   0.637   6.613
 5482SOL     OW17344   5.042   3.242   0.904
 5482SOL    HW117345   5.011   3.147   0.908
 5482SOL    HW217346   5.106   3.260   0.978
 5483SOL     OW17347   0.274   3.105   5.492
 5483SOL    HW117348   0.259   3.120   5.590
 5483SOL    HW217349   0.342   3.170   5.459
 5484SOL     OW17350   5.715   5.864   4.002
 5484SOL    HW117351   5.744   5.848   3.907
 5484SOL    HW217352   5.687   5.959   4.013
 5485SOL     OW17353   3.034   6.800   5.661
 5485SOL    HW117354   2.956   6.738   5.647
 5485SOL    HW217355   3.001   6.894   5.666
 5486SOL     OW17356   0.617   0.870   3.516
 5486SOL    HW117357   0.608   0.853   3.614
 5486SOL    HW217358   0.688   0.939   3.501
 5487SOL     OW17359   5.683   5.003   0.070
 5487SOL    HW117360   5.734   4.918   0.083
 5487SOL    HW217361   5.603   5.004   0.129
 5488SOL     OW17362   5.167   1.705   6.433
 5488SOL    HW117363   5.256   1.748   6.450
 5488SOL    HW217364   5.141   1.718   6.337
 5489SOL     OW17365   1.306   4.234   2.902
 5489SOL    HW117366   1.255   4.185   2.831
 5489SOL    HW217367   1.261   4.321   2.920
 5490SOL     OW17368   2.290   1.605   0.918
 5490SOL    HW117369   2.355   1.670   0.879
 5490SOL    HW217370   2.336   1.549   0.988
 5491SOL     OW17371   0.923   4.601   0.866
 5491SOL    HW117372   0.919   4.666   0.790
 5491SOL    HW217373   0.957   4.649   0.948
 5492SOL     OW17374   0.850   1.267   6.379
 5492SOL    HW117375   0.892   1.339   6.324
 5492SOL    HW217376   0.761   1.244   6.341
 5493SOL     OW17377   3.861   3.769   7.011
 5493SOL    HW117378   3.855   3.677   0.027
 5493SOL    HW217379   3.918   3.768   6.929
 5494SOL     OW17380   5.823   2.928   1.431
 5494SOL    HW117381   5.902   2.878   1.468
 5494SOL    HW217382   5.777   2.976   1.505
 5495SOL     OW17383   3.837   3.430   2.690
 5495SOL    HW117384   3.876   3.501   2.749
 5495SOL    HW217385   3.859   3.340   2.728
 5496SOL     OW17386   3.647   6.061   1.674
 5496SOL    HW117387   3.674   6.141   1.621
 5496SOL    HW217388   3.547   6.060   1.684
 5497SOL     OW17389   6.544   0.633   1.741
 5497SOL    HW117390   6.479   0.702   1.710
 5497SOL    HW217391   6.496   0.550   1.766
 5498SOL     OW17392   4.451   1.163   5.565
 5498SOL    HW117393   4.373   1.156   5.503
 5498SOL    HW217394   4.477   1.072   5.597
 5499SOL     OW17395   0.198   1.547   2.886
 5499SOL    HW117396   0.172   1.643   2.894
 5499SOL    HW217397   0.251   1.520   2.966
 5500SOL     OW17398   2.386   5.845   1.424
 5500SOL    HW117399   2.317   5.784   1.384
 5500SOL    HW217400   2.434   5.894   1.352
 5501SOL     OW17401   3.279   0.617   1.985
 5501SOL    HW117402   3.190   0.584   1.955
 5501SOL    HW217403   3.269   0.670   2.069
 5502SOL     OW17404   5.794   3.860   5.599
 5502SOL    HW117405   5.835   3.784   5.650
 5502SOL    HW217406   5.707   3.830   5.559
 5503SOL     OW17407   1.384   5.085   3.270
 5503SOL    HW117408   1.462   5.024   3.286
 5503SOL    HW217409   1.404   5.143   3.191
 5504SOL     OW17410   3.181   1.757   5.094
 5504SOL    HW117411   3.120   1.810   5.034
 5504SOL    HW217412   3.154   1.660   5.091
 5505SOL     OW17413   3.040   5.525   5.956
 5505SOL    HW117414   2.962   5.541   5.895
 5505SOL    HW217415   3.031   5.583   6.037
 5506SOL     OW17416   6.046   0.532   5.658
 5506SOL    HW117417   6.006   0.560   5.571
 5506SOL    HW217418   6.016   0.595   5.730
 5507SOL     OW17419   2.004   6.121   3.966
 5507SOL    HW117420   2.035   6.156   4.054
 5507SOL    HW217421   1.982   6.197   3.905
 5508SOL     OW17422   3.259   0.728   6.513
 5508SOL    HW117423   3.237   0.750   6.608
 5508SOL    HW217424   3.182   0.681   6.471
 5509SOL     OW17425   5.988   6.841   6.514
 5509SOL    HW117426   5.929   6.851   6.594
 5509SOL    HW217427   6.042   6.924   6.502
 5510SOL     OW17428   5.525   0.432   6.132
 5510SOL    HW117429   5.595   0.388   6.076
 5510SOL    HW217430   5.473   0.495   6.076
 5511SOL     OW17431   0.837   0.991   2.404
 5511SOL    HW117432   0.854   1.089   2.413
 5511SOL    HW217433   0.848   0.948   2.494
 5512SOL     OW17434   0.862   0.511   6.895
 5512SOL    HW117435   0.819   0.497   6.984
 5512SOL    HW217436   0.917   0.595   6.897
 5513SOL     OW17437   4.729   4.194   4.497
 5513SOL    HW117438   4.760   4.122   4.435
 5513SOL    HW217439   4.807   4.229   4.549
 5514SOL     OW17440   5.096   4.586   1.988
 5514SOL    HW117441   5.157   4.580   2.066
 5514SOL    HW217442   5.129   4.657   1.926
 5515SOL     OW17443   6.596   2.356   1.943
 5515SOL    HW117444   6.578   2.446   1.906
 5515SOL    HW217445   6.672   2.361   2.008
 5516SOL     OW17446   0.980   3.771   6.518
 5516SOL    HW117447   1.004   3.751   6.423
 5516SOL    HW217448   1.062   3.763   6.575
 5517SOL     OW17449   2.525   1.757   1.847
 5517SOL    HW117450   2.494   1.852   1.845
 5517SOL    HW217451   2.619   1.751   1.815
 5518SOL     OW17452   6.269   5.078   5.133
 5518SOL    HW117453   6.254   4.995   5.187
 5518SOL    HW217454   6.276   5.054   5.036
 5519SOL     OW17455   5.350   3.952   3.821
 5519SOL    HW117456   5.270   4.011   3.831
 5519SOL    HW217457   5.379   3.950   3.726
 5520SOL     OW17458   1.095   4.103   1.818
 5520SOL    HW117459   1.140   4.191   1.802
 5520SOL    HW217460   1.121   4.069   1.909
 5521SOL     OW17461   5.791   5.328   1.495
 5521SOL    HW117462   5.715   5.311   1.432
 5521SOL    HW217463   5.873   5.351   1.442
 5522SOL     OW17464   2.605   3.439   1.716
 5522SOL    HW117465   2.643   3.529   1.740
 5522SOL    HW217466   2.523   3.422   1.770
 5523SOL     OW17467   3.365   0.433   2.562
 5523SOL    HW117468   3.299   0.430   2.486
 5523SOL    HW217469   3.418   0.348   2.561
 5524SOL     OW17470   0.185   4.771   6.163
 5524SOL    HW117471   0.140   4.851   6.124
 5524SOL    HW217472   0.140   4.745   6.248
 5525SOL     OW17473   6.631   5.640   5.522
 5525SOL    HW117474   6.640   5.685   5.611
 5525SOL    HW217475   6.605   5.708   5.453
 5526SOL     OW17476   6.793   3.508   4.091
 5526SOL    HW117477   6.698   3.540   4.085
 5526SOL    HW217478   6.832   3.537   4.179
 5527SOL     OW17479   1.557   3.010   1.641
 5527SOL    HW117480   1.595   2.985   1.551
 5527SOL    HW217481   1.458   2.993   1.641
 5528SOL     OW17482   0.344   3.308   4.216
 5528SOL    HW117483   0.357   3.219   4.261
 5528SOL    HW217484   0.274   3.359   4.264
 5529SOL     OW17485   2.777   1.607   4.652
 5529SOL    HW117486   2.794   1.586   4.556
 5529SOL    HW217487   2.727   1.532   4.695
 5530SOL     OW17488   0.842   2.340   0.326
 5530SOL    HW117489   0.831   2.242   0.343
 5530SOL    HW217490   0.816   2.360   0.231
 5531SOL     OW17491   3.424   2.610   5.729
 5531SOL    HW117492   3.511   2.591   5.684
 5531SOL    HW217493   3.439   2.673   5.806
 5532SOL     OW17494   2.506   1.449   0.773
 5532SOL    HW117495   2.600   1.483   0.763
 5532SOL    HW217496   2.467   1.486   0.858
 5533SOL     OW17497   3.616   1.093   2.035
 5533SOL    HW117498   3.654   1.013   2.082
 5533SOL    HW217499   3.544   1.063   1.972
 5534SOL     OW17500   0.337   3.901   6.551
 5534SOL    HW117501   0.252   3.911   6.602
 5534SOL    HW217502   0.404   3.969   6.583
 5535SOL     OW17503   6.677   3.040   2.630
 5535SOL    HW117504   6.684   2.941   2.616
 5535SOL    HW217505   6.630   3.081   2.552
 5536SOL     OW17506   2.673   1.169   4.115
 5536SOL    HW117507   2.597   1.221   4.077
 5536SOL    HW217508   2.638   1.083   4.154
 5537SOL     OW17509   4.262   0.015   5.105
 5537SOL    HW117510   4.252   0.058   5.015
 5537SOL    HW217511   4.327   6.961   5.098
 5538SOL     OW17512   4.055   1.492   6.892
 5538SOL    HW117513   3.970   1.519   6.937
 5538SOL    HW217514   4.066   1.393   6.898
 5539SOL     OW17515   2.613   6.948   2.050
 5539SOL    HW117516   2.666   6.863   2.045
 5539SOL    HW217517   2.667   0.002   2.012
 5540SOL     OW17518   5.184   2.043   6.983
 5540SOL    HW117519   5.176   1.967   6.919
 5540SOL    HW217520   5.093   2.065   7.020
 5541SOL     OW17521   4.528   3.753   6.472
 5541SOL    HW117522   4.529   3.790   6.564
 5541SOL    HW217523   4.587   3.807   6.413
 5542SOL     OW17524   5.820   4.031   6.199
 5542SOL    HW117525   5.821   4.110   6.260
 5542SOL    HW217526   5.880   4.048   6.121
 5543SOL     OW17527   1.840   0.178   1.338
 5543SOL    HW117528   1.878   0.169   1.246
 5543SOL    HW217529   1.766   0.112   1.350
 5544SOL     OW17530   4.659   4.939   6.107
 5544SOL    HW117531   4.578   4.909   6.057
 5544SOL    HW217532   4.704   5.013   6.057
 5545SOL     OW17533   4.409   0.814   3.047
 5545SOL    HW117534   4.395   0.802   3.145
 5545SOL    HW217535   4.320   0.826   3.002
 5546SOL     OW17536   0.247   6.640   5.493
 5546SOL    HW117537   0.207   6.720   5.537
 5546SOL    HW217538   0.316   6.670   5.427
 5547SOL     OW17539   5.445   1.368   5.825
 5547SOL    HW117540   5.503   1.334   5.752
 5547SOL    HW217541   5.493   1.440   5.875
 5548SOL     OW17542   6.912   4.122   5.124
 5548SOL    HW117543   6.916   4.040   5.182
 5548SOL    HW217544   6.996   4.174   5.136
 5549SOL     OW17545   3.894   3.743   2.012
 5549SOL    HW117546   3.888   3.809   1.937
 5549SOL    HW217547   3.955   3.779   2.083
 5550SOL     OW17548   1.774   4.546   3.295
 5550SOL    HW117549   1.848   4.485   3.265
 5550SOL    HW217550   1.737   4.513   3.382
 5551SOL     OW17551   2.179   5.249   3.483
 5551SOL    HW117552   2.103   5.202   3.528
 5551SOL    HW217553   2.157   5.346   3.475
 5552SOL     OW17554   6.908   6.860   6.138
 5552SOL    HW117555   6.887   6.881   6.233
 5552SOL    HW217556   6.911   6.761   6.125
 5553SOL     OW17557   4.678   0.848   6.582
 5553SOL    HW117558   4.673   0.750   6.562
 5553SOL    HW217559   4.678   0.900   6.496
 5554SOL     OW17560   5.726   2.950   0.723
 5554SOL    HW117561   5.715   3.012   0.645
 5554SOL    HW217562   5.820   2.954   0.756
 5555SOL     OW17563   1.175   4.072   2.493
 5555SOL    HW117564   1.139   4.078   2.586
 5555SOL    HW217565   1.104   4.098   2.428
 5556SOL     OW17566   6.653   1.040   3.938
 5556SOL    HW117567   6.620   1.009   3.849
 5556SOL    HW217568   6.600   1.119   3.968
 5557SOL     OW17569   3.088   5.636   1.702
 5557SOL    HW117570   3.077   5.660   1.606
 5557SOL    HW217571   3.151   5.699   1.746
 5558SOL     OW17572   3.510   4.301   0.550
 5558SOL    HW117573   3.608   4.284   0.545
 5558SOL    HW217574   3.485   4.375   0.487
 5559SOL     OW17575   1.432   0.335   3.250
 5559SOL    HW117576   1.503   0.383   3.200
 5559SOL    HW217577   1.344   0.348   3.205
 5560SOL     OW17578   0.207   5.574   2.980
 5560SOL    HW117579   0.126   5.625   2.950
 5560SOL    HW217580   0.290   5.624   2.953
 5561SOL     OW17581   2.608   1.323   4.358
 5561SOL    HW117582   2.650   1.281   4.277
 5561SOL    HW217583   2.509   1.312   4.354
 5562SOL     OW17584   4.522   4.430   0.223
 5562SOL    HW117585   4.567   4.441   0.312
 5562SOL    HW217586   4.549   4.505   0.163
 5563SOL     OW17587   3.318   4.895   3.160
 5563SOL    HW117588   3.350   4.897   3.255
 5563SOL    HW217589   3.298   4.988   3.129
 5564SOL     OW17590   5.323   6.984   5.856
 5564SOL    HW117591   5.239   6.941   5.890
 5564SOL    HW217592   5.396   6.974   5.924
 5565SOL     OW17593   3.599   3.391   0.456
 5565SOL    HW117594   3.515   3.414   0.505
 5565SOL    HW217595   3.678   3.423   0.509
 5566SOL     OW17596   0.629   3.924   0.188
 5566SOL    HW117597   0.722   3.920   0.224
 5566SOL    HW217598   0.576   3.991   0.242
 5567SOL     OW17599   6.693   3.464   1.865
 5567SOL    HW117600   6.676   3.494   1.772
 5567SOL    HW217601   6.783   3.495   1.894
 5568SOL     OW17602   4.391   6.214   2.794
 5568SOL    HW117603   4.464   6.282   2.789
 5568SOL    HW217604   4.302   6.259   2.782
 5569SOL     OW17605   2.648   1.893   3.557
 5569SOL    HW117606   2.658   1.948   3.473
 5569SOL    HW217607   2.635   1.954   3.635
 5570SOL     OW17608   6.625   3.441   3.666
 5570SOL    HW117609   6.533   3.451   3.704
 5570SOL    HW217610   6.648   3.522   3.613
 5571SOL     OW17611   6.696   5.439   2.156
 5571SOL    HW117612   6.635   5.475   2.085
 5571SOL    HW217613   6.710   5.508   2.226
 5572SOL     OW17614   1.349   3.902   5.149
 5572SOL    HW117615   1.280   3.907   5.077
 5572SOL    HW217616   1.304   3.894   5.238
 5573SOL     OW17617   1.413   5.238   5.630
 5573SOL    HW117618   1.505   5.206   5.651
 5573SOL    HW217619   1.352   5.219   5.707
 5574SOL     OW17620   0.572   2.600   6.470
 5574SOL    HW117621   0.664   2.603   6.508
 5574SOL    HW217622   0.566   2.662   6.392
 5575SOL     OW17623   0.666   0.089   1.758
 5575SOL    HW117624   0.577   0.103   1.802
 5575SOL    HW217625   0.733   0.062   1.827
 5576SOL     OW17626   2.049   4.363   3.482
 5576SOL    HW117627   1.981   4.350   3.409
 5576SOL    HW217628   2.141   4.358   3.444
 5577SOL     OW17629   1.446   3.351   6.834
 5577SOL    HW117630   1.436   3.263   6.788
 5577SOL    HW217631   1.434   3.339   6.932
 5578SOL     OW17632   3.721   3.381   2.978
 5578SOL    HW117633   3.782   3.455   2.950
 5578SOL    HW217634   3.640   3.381   2.920
 5579SOL     OW17635   6.914   3.081   1.094
 5579SOL    HW117636   6.994   3.142   1.095
 5579SOL    HW217637   6.944   2.987   1.110
 5580SOL     OW17638   5.158   1.902   5.871
 5580SOL    HW117639   5.162   1.893   5.971
 5580SOL    HW217640   5.110   1.825   5.832
 5581SOL     OW17641   1.084   2.062   1.379
 5581SOL    HW117642   1.001   2.017   1.414
 5581SOL    HW217643   1.127   2.113   1.453
 5582SOL     OW17644   2.416   3.971   6.724
 5582SOL    HW117645   2.432   3.929   6.635
 5582SOL    HW217646   2.472   3.926   6.793
 5583SOL     OW17647   4.805   0.476   2.375
 5583SOL    HW117648   4.717   0.491   2.419
 5583SOL    HW217649   4.810   0.530   2.291
 5584SOL     OW17650   6.181   4.197   4.448
 5584SOL    HW117651   6.271   4.182   4.408
 5584SOL    HW217652   6.110   4.186   4.378
 5585SOL     OW17653   4.813   4.658   2.772
 5585SOL    HW117654   4.800   4.604   2.855
 5585SOL    HW217655   4.850   4.600   2.700
 5586SOL     OW17656   6.548   3.734   5.887
 5586SOL    HW117657   6.550   3.634   5.892
 5586SOL    HW217658   6.616   3.766   5.821
 5587SOL     OW17659   4.312   1.119   6.592
 5587SOL    HW117660   4.217   1.136   6.567
 5587SOL    HW217661   4.330   1.020   6.587
 5588SOL     OW17662   2.756   6.703   2.675
 5588SOL    HW117663   2.754   6.737   2.769
 5588SOL    HW217664   2.850   6.680   2.651
 5589SOL     OW17665   6.089   4.426   6.385
 5589SOL    HW117666   6.032   4.509   6.381
 5589SOL    HW217667   6.122   4.413   6.479
 5590SOL     OW17668   5.656   6.128   4.074
 5590SOL    HW117669   5.617   6.101   4.162
 5590SOL    HW217670   5.603   6.204   4.036
 5591SOL     OW17671   0.252   1.743   2.026
 5591SOL    HW117672   0.212   1.665   1.977
 5591SOL    HW217673   0.209   1.828   1.993
 5592SOL     OW17674   1.823   4.958   2.965
 5592SOL    HW117675   1.752   4.909   2.916
 5592SOL    HW217676   1.913   4.922   2.941
 5593SOL     OW17677   0.361   2.929   6.484
 5593SOL    HW117678   0.320   3.013   6.519
 5593SOL    HW217679   0.293   2.879   6.431
 5594SOL     OW17680   4.930   1.048   4.788
 5594SOL    HW117681   4.897   0.964   4.832
 5594SOL    HW217682   4.920   1.041   4.689
 5595SOL     OW17683   1.371   2.326   5.123
 5595SOL    HW117684   1.288   2.379   5.141
 5595SOL    HW217685   1.413   2.298   5.210
 5596SOL     OW17686   4.035   6.734   2.804
 5596SOL    HW117687   3.956   6.705   2.749
 5596SOL    HW217688   4.004   6.793   2.878
 5597SOL     OW17689   4.986   2.465   4.360
 5597SOL    HW117690   5.014   2.413   4.279
 5597SOL    HW217691   4.963   2.558   4.332
 5598SOL     OW17692   4.863   3.036   3.828
 5598SOL    HW117693   4.838   3.129   3.800
 5598SOL    HW217694   4.881   2.981   3.747
 5599SOL     OW17695   1.399   0.403   4.682
 5599SOL    HW117696   1.362   0.457   4.607
 5599SOL    HW217697   1.447   0.323   4.644
 5600SOL     OW17698   0.988   2.494   3.045
 5600SOL    HW117699   1.011   2.414   2.989
 5600SOL    HW217700   0.936   2.465   3.125
 5601SOL     OW17701   2.633   0.455   5.709
 5601SOL    HW117702   2.659   0.385   5.775
 5601SOL    HW217703   2.688   0.538   5.724
 5602SOL     OW17704   0.311   1.466   0.732
 5602SOL    HW117705   0.305   1.566   0.735
 5602SOL    HW217706   0.253   1.432   0.658
 5603SOL     OW17707   5.353   2.260   0.001
 5603SOL    HW117708   5.378   2.261   0.097
 5603SOL    HW217709   5.271   2.205   7.010
 5604SOL     OW17710   6.877   1.904   5.803
 5604SOL    HW117711   6.935   1.883   5.724
 5604SOL    HW217712   6.789   1.938   5.772
 5605SOL     OW17713   0.562   1.156   4.646
 5605SOL    HW117714   0.638   1.220   4.658
 5605SOL    HW217715   0.594   1.063   4.663
 5606SOL     OW17716   5.704   6.571   1.290
 5606SOL    HW117717   5.687   6.654   1.238
 5606SOL    HW217718   5.619   6.539   1.331
 5607SOL     OW17719   5.339   0.991   2.408
 5607SOL    HW117720   5.418   1.040   2.372
 5607SOL    HW217721   5.266   1.056   2.429
 5608SOL     OW17722   4.374   0.474   4.560
 5608SOL    HW117723   4.392   0.377   4.544
 5608SOL    HW217724   4.276   0.489   4.568
 5609SOL     OW17725   2.347   5.667   0.618
 5609SOL    HW117726   2.371   5.583   0.569
 5609SOL    HW217727   2.424   5.731   0.614
 5610SOL     OW17728   4.866   6.985   0.572
 5610SOL    HW117729   4.825   6.943   0.654
 5610SOL    HW217730   4.867   0.062   0.583
 5611SOL     OW17731   2.044   4.484   2.451
 5611SOL    HW117732   2.144   4.485   2.449
 5611SOL    HW217733   2.011   4.541   2.527
 5612SOL     OW17734   4.138   2.294   6.321
 5612SOL    HW117735   4.108   2.299   6.226
 5612SOL    HW217736   4.210   2.225   6.330
 5613SOL     OW17737   4.768   4.045   2.602
 5613SOL    HW117738   4.759   3.962   2.546
 5613SOL    HW217739   4.792   4.019   2.696
 5614SOL     OW17740   4.467   2.452   3.624
 5614SOL    HW117741   4.399   2.525   3.631
 5614SOL    HW217742   4.525   2.468   3.544
 5615SOL     OW17743   0.566   0.405   6.215
 5615SOL    HW117744   0.492   0.339   6.196
 5615SOL    HW217745   0.566   0.428   6.312
 5616SOL     OW17746   2.476   0.673   5.422
 5616SOL    HW117747   2.494   0.631   5.511
 5616SOL    HW217748   2.404   0.741   5.431
 5617SOL     OW17749   2.851   6.960   6.281
 5617SOL    HW117750   2.817   6.873   6.244
 5617SOL    HW217751   2.919   6.998   6.219
 5618SOL     OW17752   6.860   3.555   4.348
 5618SOL    HW117753   6.845   3.540   4.445
 5618SOL    HW217754   6.892   3.649   4.333
 5619SOL     OW17755   2.725   3.779   6.633
 5619SOL    HW117756   2.636   3.769   6.588
 5619SOL    HW217757   2.745   3.876   6.647
 5620SOL     OW17758   3.743   3.168   0.326
 5620SOL    HW117759   3.704   3.242   0.382
 5620SOL    HW217760   3.738   3.195   0.230
 5621SOL     OW17761   1.586   1.546   5.758
 5621SOL    HW117762   1.511   1.526   5.822
 5621SOL    HW217763   1.604   1.644   5.757
 5622SOL     OW17764   4.603   6.773   5.686
 5622SOL    HW117765   4.584   6.871   5.681
 5622SOL    HW217766   4.579   6.730   5.599
 5623SOL     OW17767   1.855   6.466   6.276
 5623SOL    HW117768   1.907   6.380   6.280
 5623SOL    HW217769   1.767   6.450   6.232
 5624SOL     OW17770   1.186   4.890   3.189
 5624SOL    HW117771   1.211   4.916   3.095
 5624SOL    HW217772   1.226   4.955   3.253
 5625SOL     OW17773   6.067   2.265   4.419
 5625SOL    HW117774   6.003   2.308   4.483
 5625SOL    HW217775   6.018   2.238   4.336
 5626SOL     OW17776   2.921   6.374   5.001
 5626SOL    HW117777   2.855   6.339   4.934
 5626SOL    HW217778   2.882   6.454   5.047
 5627SOL     OW17779   1.344   5.938   1.345
 5627SOL    HW117780   1.335   6.023   1.293
 5627SOL    HW217781   1.437   5.902   1.333
 5628SOL     OW17782   1.513   2.146   6.056
 5628SOL    HW117783   1.582   2.095   6.107
 5628SOL    HW217784   1.455   2.082   6.005
 5629SOL     OW17785   3.201   3.735   1.804
 5629SOL    HW117786   3.228   3.747   1.708
 5629SOL    HW217787   3.102   3.726   1.809
 5630SOL     OW17788   1.183   5.279   0.892
 5630SOL    HW117789   1.256   5.305   0.955
 5630SOL    HW217790   1.189   5.335   0.809
 5631SOL     OW17791   4.267   1.989   6.947
 5631SOL    HW117792   4.344   1.934   6.979
 5631SOL    HW217793   4.183   1.934   6.949
 5632SOL     OW17794   4.339   3.652   6.292
 5632SOL    HW117795   4.407   3.697   6.350
 5632SOL    HW217796   4.265   3.616   6.349
 5633SOL     OW17797   6.449   2.312   3.587
 5633SOL    HW117798   6.430   2.352   3.497
 5633SOL    HW217799   6.437   2.381   3.658
 5634SOL     OW17800   3.056   5.463   5.619
 5634SOL    HW117801   3.146   5.430   5.588
 5634SOL    HW217802   2.984   5.412   5.573
 5635SOL     OW17803   2.183   3.165   4.947
 5635SOL    HW117804   2.228   3.076   4.946
 5635SOL    HW217805   2.094   3.159   4.902
 5636SOL     OW17806   3.294   6.001   2.126
 5636SOL    HW117807   3.247   6.027   2.042
 5636SOL    HW217808   3.227   5.966   2.192
 5637SOL     OW17809   5.596   6.739   3.989
 5637SOL    HW117810   5.597   6.837   3.972
 5637SOL    HW217811   5.594   6.690   3.902
 5638SOL     OW17812   5.585   3.073   0.949
 5638SOL    HW117813   5.633   3.039   0.868
 5638SOL    HW217814   5.619   3.024   1.030
 5639SOL     OW17815   0.527   1.333   0.025
 5639SOL    HW117816   0.432   1.302   0.031
 5639SOL    HW217817   0.529   1.422   7.001
 5640SOL     OW17818   2.666   0.562   4.147
 5640SOL    HW117819   2.628   0.490   4.090
 5640SOL    HW217820   2.680   0.527   4.240
 5641SOL     OW17821   0.201   4.473   6.288
 5641SOL    HW117822   0.146   4.557   6.291
 5641SOL    HW217823   0.257   4.468   6.371
 5642SOL     OW17824   1.995   0.278   6.974
 5642SOL    HW117825   1.989   0.357   0.012
 5642SOL    HW217826   2.090   0.264   6.945
 5643SOL     OW17827   5.446   1.840   4.491
 5643SOL    HW117828   5.434   1.812   4.586
 5643SOL    HW217829   5.526   1.794   4.452
 5644SOL     OW17830   2.880   6.644   5.080
 5644SOL    HW117831   2.953   6.713   5.085
 5644SOL    HW217832   2.829   6.645   5.166
 5645SOL     OW17833   6.499   3.736   3.591
 5645SOL    HW117834   6.492   3.731   3.691
 5645SOL    HW217835   6.587   3.700   3.562
 5646SOL     OW17836   2.226   4.658   3.236
 5646SOL    HW117837   2.129   4.651   3.261
 5646SOL    HW217838   2.236   4.728   3.166
 5647SOL     OW17839   5.267   6.486   1.682
 5647SOL    HW117840   5.314   6.399   1.694
 5647SOL    HW217841   5.323   6.560   1.718
 5648SOL     OW17842   2.793   5.991   3.212
 5648SOL    HW117843   2.812   5.903   3.256
 5648SOL    HW217844   2.797   5.980   3.113
 5649SOL     OW17845   0.879   6.382   4.048
 5649SOL    HW117846   0.976   6.390   4.022
 5649SOL    HW217847   0.856   6.457   4.110
 5650SOL     OW17848   0.281   4.870   0.547
 5650SOL    HW117849   0.230   4.947   0.507
 5650SOL    HW217850   0.367   4.903   0.585
 5651SOL     OW17851   1.675   0.112   1.025
 5651SOL    HW117852   1.698   0.208   1.041
 5651SOL    HW217853   1.583   0.093   1.060
 5652SOL     OW17854   0.193   5.548   1.997
 5652SOL    HW117855   0.226   5.606   2.071
 5652SOL    HW217856   0.169   5.458   2.033
 5653SOL     OW17857   0.418   6.361   1.283
 5653SOL    HW117858   0.478   6.306   1.224
 5653SOL    HW217859   0.324   6.355   1.249
 5654SOL     OW17860   1.246   6.356   4.999
 5654SOL    HW117861   1.248   6.444   4.950
 5654SOL    HW217862   1.169   6.355   5.062
 5655SOL     OW17863   6.526   3.323   3.959
 5655SOL    HW117864   6.583   3.249   3.993
 5655SOL    HW217865   6.444   3.285   3.916
 5656SOL     OW17866   0.224   3.100   6.276
 5656SOL    HW117867   0.323   3.095   6.259
 5656SOL    HW217868   0.208   3.151   6.360
 5657SOL     OW17869   4.362   4.654   4.341
 5657SOL    HW117870   4.368   4.628   4.438
 5657SOL    HW217871   4.286   4.717   4.328
 5658SOL     OW17872   1.732   2.604   5.863
 5658SOL    HW117873   1.689   2.687   5.899
 5658SOL    HW217874   1.763   2.547   5.939
 5659SOL     OW17875   3.361   3.893   6.519
 5659SOL    HW117876   3.441   3.910   6.462
 5659SOL    HW217877   3.364   3.952   6.599
 5660SOL     OW17878   4.977   6.902   6.535
 5660SOL    HW117879   4.980   6.837   6.459
 5660SOL    HW217880   5.039   6.872   6.607
 5661SOL     OW17881   0.545   5.722   5.986
 5661SOL    HW117882   0.622   5.729   5.922
 5661SOL    HW217883   0.487   5.803   5.977
 5662SOL     OW17884   2.422   6.370   3.405
 5662SOL    HW117885   2.331   6.331   3.418
 5662SOL    HW217886   2.490   6.297   3.407
 5663SOL     OW17887   1.230   2.799   1.075
 5663SOL    HW117888   1.156   2.747   1.119
 5663SOL    HW217889   1.275   2.742   1.006
 5664SOL     OW17890   5.095   4.123   4.293
 5664SOL    HW117891   5.082   4.113   4.194
 5664SOL    HW217892   5.060   4.042   4.339
 5665SOL     OW17893   1.706   7.019   0.538
 5665SOL    HW117894   1.681   0.068   0.604
 5665SOL    HW217895   1.675   0.025   0.446
 5666SOL     OW17896   6.155   1.243   4.019
 5666SOL    HW117897   6.220   1.319   4.029
 5666SOL    HW217898   6.157   1.186   4.101
 5667SOL     OW17899   1.663   5.053   4.638
 5667SOL    HW117900   1.666   5.074   4.540
 5667SOL    HW217901   1.610   4.969   4.653
 5668SOL     OW17902   6.297   2.545   2.801
 5668SOL    HW117903   6.324   2.630   2.846
 5668SOL    HW217904   6.230   2.498   2.858
 5669SOL     OW17905   6.079   4.171   6.786
 5669SOL    HW117906   6.126   4.090   6.820
 5669SOL    HW217907   6.001   4.192   6.846
 5670SOL     OW17908   1.158   3.313   2.635
 5670SOL    HW117909   1.084   3.247   2.625
 5670SOL    HW217910   1.220   3.307   2.557
 5671SOL     OW17911   6.365   6.157   3.661
 5671SOL    HW117912   6.427   6.235   3.655
 5671SOL    HW217913   6.311   6.151   3.577
 5672SOL     OW17914   4.927   3.812   5.098
 5672SOL    HW117915   4.887   3.903   5.097
 5672SOL    HW217916   4.856   3.744   5.116
 5673SOL     OW17917   0.680   6.956   1.551
 5673SOL    HW117918   0.705   6.997   1.463
 5673SOL    HW217919   0.693   0.001   1.624
 5674SOL     OW17920   1.461   4.813   4.650
 5674SOL    HW117921   1.390   4.816   4.580
 5674SOL    HW217922   1.421   4.778   4.736
 5675SOL     OW17923   3.119   1.024   0.553
 5675SOL    HW117924   3.159   1.078   0.479
 5675SOL    HW217925   3.108   1.081   0.634
 5676SOL     OW17926   2.756   2.488   1.731
 5676SOL    HW117927   2.680   2.502   1.795
 5676SOL    HW217928   2.840   2.473   1.783
 5677SOL     OW17929   6.911   0.745   0.876
 5677SOL    HW117930   6.832   0.780   0.926
 5677SOL    HW217931   6.880   0.688   0.800
 5678SOL     OW17932   3.787   1.568   2.072
 5678SOL    HW117933   3.846   1.490   2.094
 5678SOL    HW217934   3.733   1.593   2.152
 5679SOL     OW17935   6.174   2.917   4.661
 5679SOL    HW117936   6.213   3.005   4.633
 5679SOL    HW217937   6.101   2.891   4.598
 5680SOL     OW17938   1.419   5.176   5.948
 5680SOL    HW117939   1.498   5.204   6.003
 5680SOL    HW217940   1.354   5.251   5.943
 5681SOL     OW17941   0.703   3.859   2.995
 5681SOL    HW117942   0.750   3.772   3.010
 5681SOL    HW217943   0.606   3.841   2.975
 5682SOL     OW17944   2.534   4.829   2.488
 5682SOL    HW117945   2.537   4.758   2.418
 5682SOL    HW217946   2.612   4.819   2.550
 5683SOL     OW17947   4.019   2.587   6.658
 5683SOL    HW117948   4.007   2.500   6.610
 5683SOL    HW217949   4.109   2.624   6.636
 5684SOL     OW17950   2.294   3.081   6.014
 5684SOL    HW117951   2.251   3.023   6.083
 5684SOL    HW217952   2.263   3.054   5.923
 5685SOL     OW17953   1.972   2.281   3.972
 5685SOL    HW117954   2.015   2.299   3.884
 5685SOL    HW217955   1.960   2.367   4.022
 5686SOL     OW17956   3.556   0.540   5.900
 5686SOL    HW117957   3.503   0.559   5.817
 5686SOL    HW217958   3.621   0.613   5.916
 5687SOL     OW17959   0.972   5.967   5.328
 5687SOL    HW117960   1.021   6.035   5.382
 5687SOL    HW217961   0.928   5.902   5.390
 5688SOL     OW17962   2.120   3.781   3.503
 5688SOL    HW117963   2.056   3.712   3.537
 5688SOL    HW217964   2.156   3.752   3.415
 5689SOL     OW17965   1.492   0.720   1.193
 5689SOL    HW117966   1.512   0.818   1.185
 5689SOL    HW217967   1.525   0.673   1.111
 5690SOL     OW17968   0.809   5.586   0.058
 5690SOL    HW117969   0.907   5.606   0.051
 5690SOL    HW217970   0.757   5.650   0.002
 5691SOL     OW17971   3.730   1.103   2.584
 5691SOL    HW117972   3.644   1.147   2.557
 5691SOL    HW217973   3.790   1.171   2.626
 5692SOL     OW17974   5.057   5.369   1.088
 5692SOL    HW117975   4.969   5.406   1.056
 5692SOL    HW217976   5.124   5.443   1.093
 5693SOL     OW17977   3.955   0.565   0.414
 5693SOL    HW117978   3.941   0.467   0.403
 5693SOL    HW217979   3.975   0.586   0.510
 5694SOL     OW17980   0.660   0.592   2.840
 5694SOL    HW117981   0.622   0.576   2.749
 5694SOL    HW217982   0.721   0.671   2.838
 5695SOL     OW17983   1.456   0.645   1.727
 5695SOL    HW117984   1.400   0.723   1.701
 5695SOL    HW217985   1.433   0.566   1.670
 5696SOL     OW17986   1.557   0.314   4.272
 5696SOL    HW117987   1.557   0.254   4.192
 5696SOL    HW217988   1.626   0.386   4.259
 5697SOL     OW17989   6.268   2.617   1.419
 5697SOL    HW117990   6.177   2.655   1.403
 5697SOL    HW217991   6.302   2.648   1.507
 5698SOL     OW17992   1.485   3.439   3.266
 5698SOL    HW117993   1.469   3.538   3.273
 5698SOL    HW217994   1.514   3.404   3.355
 5699SOL     OW17995   1.866   2.726   3.659
 5699SOL    HW117996   1.859   2.679   3.747
 5699SOL    HW217997   1.822   2.816   3.665
 5700SOL     OW17998   6.737   0.303   1.810
 5700SOL    HW117999   6.652   0.335   1.851
 5700SOL    HW218000   6.812   0.364   1.836
 5701SOL     OW18001   6.325   1.306   0.764
 5701SOL    HW118002   6.383   1.378   0.801
 5701SOL    HW218003   6.231   1.339   0.758
 5702SOL     OW18004   2.085   6.626   4.291
 5702SOL    HW118005   2.080   6.584   4.201
 5702SOL    HW218006   2.018   6.583   4.352
 5703SOL     OW18007   7.016   3.688   6.136
 5703SOL    HW118008   0.063   3.638   6.188
 5703SOL    HW218009   0.022   3.784   6.128
 5704SOL     OW18010   5.298   3.990   3.331
 5704SOL    HW118011   5.353   4.036   3.400
 5704SOL    HW218012   5.207   3.972   3.367
 5705SOL     OW18013   6.000   6.343   5.956
 5705SOL    HW118014   6.008   6.289   6.040
 5705SOL    HW218015   6.016   6.284   5.877
 5706SOL     OW18016   5.855   2.451   0.362
 5706SOL    HW118017   5.920   2.422   0.292
 5706SOL    HW218018   5.769   2.477   0.319
 5707SOL     OW18019   5.064   6.757   1.649
 5707SOL    HW118020   5.021   6.703   1.576
 5707SOL    HW218021   5.105   6.839   1.610
 5708SOL     OW18022   4.569   5.415   3.619
 5708SOL    HW118023   4.617   5.373   3.695
 5708SOL    HW218024   4.573   5.355   3.539
 5709SOL     OW18025   1.468   1.023   1.886
 5709SOL    HW118026   1.432   0.975   1.966
 5709SOL    HW218027   1.557   1.063   1.908
 5710SOL     OW18028   2.700   2.423   0.799
 5710SOL    HW118029   2.720   2.350   0.864
 5710SOL    HW218030   2.759   2.502   0.818
 5711SOL     OW18031   5.133   0.835   1.590
 5711SOL    HW118032   5.037   0.831   1.618
 5711SOL    HW218033   5.144   0.790   1.501
 5712SOL     OW18034   0.045   6.218   0.994
 5712SOL    HW118035   0.052   6.156   0.916
 5712SOL    HW218036   7.016   6.175   1.068
 5713SOL     OW18037   2.522   5.856   0.655
 5713SOL    HW118038   2.498   5.948   0.685
 5713SOL    HW218039   2.535   5.798   0.736
 5714SOL     OW18040   6.008   6.044   1.309
 5714SOL    HW118041   5.915   6.042   1.275
 5714SOL    HW218042   6.007   6.044   1.409
 5715SOL     OW18043   1.302   6.792   1.085
 5715SOL    HW118044   1.279   6.706   1.130
 5715SOL    HW218045   1.305   6.866   1.153
 5716SOL     OW18046   1.000   4.814   6.123
 5716SOL    HW118047   1.019   4.766   6.208
 5716SOL    HW218048   0.982   4.911   6.142
 5717SOL     OW18049   2.160   4.750   2.961
 5717SOL    HW118050   2.202   4.747   2.870
 5717SOL    HW218051   2.106   4.667   2.976
 5718SOL     OW18052   0.896   2.899   0.633
 5718SOL    HW118053   0.871   2.822   0.690
 5718SOL    HW218054   0.986   2.934   0.660
 5719SOL     OW18055   2.892   3.434   1.415
 5719SOL    HW118056   2.931   3.358   1.362
 5719SOL    HW218057   2.805   3.406   1.455
 5720SOL     OW18058   2.364   5.511   5.934
 5720SOL    HW118059   2.366   5.452   5.853
 5720SOL    HW218060   2.282   5.567   5.932
 5721SOL     OW18061   5.385   4.049   6.583
 5721SOL    HW118062   5.437   3.978   6.535
 5721SOL    HW218063   5.287   4.033   6.573
 5722SOL     OW18064   0.679   1.066   5.382
 5722SOL    HW118065   0.746   0.994   5.395
 5722SOL    HW218066   0.590   1.026   5.363
 5723SOL     OW18067   4.336   3.600   0.174
 5723SOL    HW118068   4.242   3.604   0.209
 5723SOL    HW218069   4.392   3.546   0.237
 5724SOL     OW18070   5.793   2.238   3.176
 5724SOL    HW118071   5.830   2.275   3.091
 5724SOL    HW218072   5.715   2.292   3.206
 5725SOL     OW18073   5.667   5.177   3.056
 5725SOL    HW118074   5.642   5.202   2.963
 5725SOL    HW218075   5.662   5.078   3.067
 5726SOL     OW18076   4.829   3.846   3.156
 5726SOL    HW118077   4.805   3.939   3.125
 5726SOL    HW218078   4.765   3.818   3.227
 5727SOL     OW18079   1.366   2.579   4.717
 5727SOL    HW118080   1.353   2.652   4.784
 5727SOL    HW218081   1.305   2.594   4.639
 5728SOL     OW18082   4.704   5.583   5.307
 5728SOL    HW118083   4.753   5.498   5.325
 5728SOL    HW218084   4.677   5.625   5.394
 5729SOL     OW18085   2.322   1.849   6.071
 5729SOL    HW118086   2.421   1.857   6.086
 5729SOL    HW218087   2.274   1.884   6.151
 5730SOL     OW18088   6.994   4.318   5.921
 5730SOL    HW118089   7.016   4.290   6.014
 5730SOL    HW218090   0.055   4.353   5.876
 5731SOL     OW18091   0.256   6.387   1.523
 5731SOL    HW118092   0.310   6.348   1.449
 5731SOL    HW218093   0.293   6.356   1.611
 5732SOL     OW18094   0.827   6.481   4.288
 5732SOL    HW118095   0.850   6.571   4.323
 5732SOL    HW218096   0.891   6.413   4.325
 5733SOL     OW18097   3.596   0.009   5.072
 5733SOL    HW118098   3.498   0.007   5.088
 5733SOL    HW218099   3.618   6.975   4.992
 5734SOL     OW18100   1.354   6.154   3.444
 5734SOL    HW118101   1.276   6.114   3.396
 5734SOL    HW218102   1.380   6.240   3.400
 5735SOL     OW18103   3.295   1.198   1.723
 5735SOL    HW118104   3.228   1.222   1.793
 5735SOL    HW218105   3.289   1.262   1.647
 5736SOL     OW18106   0.914   5.633   6.757
 5736SOL    HW118107   0.819   5.644   6.728
 5736SOL    HW218108   0.933   5.537   6.775
 5737SOL     OW18109   4.861   4.980   6.469
 5737SOL    HW118110   4.848   4.881   6.457
 5737SOL    HW218111   4.874   5.000   6.566
 5738SOL     OW18112   1.106   3.337   6.677
 5738SOL    HW118113   1.095   3.435   6.697
 5738SOL    HW218114   1.139   3.290   6.759
 5739SOL     OW18115   1.513   1.116   0.887
 5739SOL    HW118116   1.455   1.174   0.944
 5739SOL    HW218117   1.456   1.052   0.835
 5740SOL     OW18118   3.820   5.872   6.248
 5740SOL    HW118119   3.741   5.811   6.246
 5740SOL    HW218120   3.902   5.822   6.222
 5741SOL     OW18121   0.101   5.632   4.796
 5741SOL    HW118122   0.121   5.534   4.802
 5741SOL    HW218123   0.175   5.678   4.747
 5742SOL     OW18124   6.565   6.714   2.940
 5742SOL    HW118125   6.622   6.737   3.019
 5742SOL    HW218126   6.516   6.628   2.957
 5743SOL     OW18127   2.033   6.447   4.876
 5743SOL    HW118128   2.090   6.470   4.954
 5743SOL    HW218129   1.956   6.511   4.871
 5744SOL     OW18130   5.320   0.555   0.095
 5744SOL    HW118131   5.289   0.650   0.100
 5744SOL    HW218132   5.412   0.551   0.057
 5745SOL     OW18133   1.990   2.332   4.985
 5745SOL    HW118134   1.940   2.410   4.947
 5745SOL    HW218135   1.942   2.299   5.067
 5746SOL     OW18136   4.356   2.040   6.683
 5746SOL    HW118137   4.315   2.020   6.771
 5746SOL    HW218138   4.423   1.969   6.660
 5747SOL     OW18139   0.751   5.530   3.327
 5747SOL    HW118140   0.829   5.511   3.266
 5747SOL    HW218141   0.695   5.603   3.286
 5748SOL     OW18142   2.280   6.165   2.417
 5748SOL    HW118143   2.346   6.119   2.476
 5748SOL    HW218144   2.187   6.145   2.448
 5749SOL     OW18145   2.161   2.468   3.276
 5749SOL    HW118146   2.178   2.564   3.300
 5749SOL    HW218147   2.104   2.464   3.194
 5750SOL     OW18148   6.193   5.406   3.039
 5750SOL    HW118149   6.216   5.361   3.126
 5750SOL    HW218150   6.266   5.468   3.013
 5751SOL     OW18151   2.361   3.535   5.512
 5751SOL    HW118152   2.282   3.485   5.548
 5751SOL    HW218153   2.428   3.471   5.475
 5752SOL     OW18154   6.920   6.849   6.439
 5752SOL    HW118155   7.020   6.846   6.438
 5752SOL    HW218156   6.890   6.935   6.480
 5753SOL     OW18157   3.550   2.594   0.318
 5753SOL    HW118158   3.627   2.655   0.301
 5753SOL    HW218159   3.502   2.622   0.400
 5754SOL     OW18160   6.440   5.004   1.438
 5754SOL    HW118161   6.451   5.102   1.450
 5754SOL    HW218162   6.507   4.956   1.494
 5755SOL     OW18163   3.055   4.376   0.094
 5755SOL    HW118164   3.014   4.423   0.172
 5755SOL    HW218165   3.033   4.425   0.009
 5756SOL     OW18166   6.775   5.172   3.863
 5756SOL    HW118167   6.800   5.241   3.931
 5756SOL    HW218168   6.739   5.091   3.910
 5757SOL     OW18169   6.782   5.390   0.563
 5757SOL    HW118170   6.737   5.336   0.492
 5757SOL    HW218171   6.713   5.432   0.621
 5758SOL     OW18172   1.816   2.821   5.576
 5758SOL    HW118173   1.897   2.809   5.518
 5758SOL    HW218174   1.755   2.743   5.566
 5759SOL     OW18175   5.469   1.522   6.124
 5759SOL    HW118176   5.496   1.602   6.178
 5759SOL    HW218177   5.467   1.441   6.183
 5760SOL     OW18178   1.290   5.533   2.287
 5760SOL    HW118179   1.326   5.614   2.242
 5760SOL    HW218180   1.325   5.528   2.380
 5761SOL     OW18181   4.439   0.186   4.594
 5761SOL    HW118182   4.419   0.152   4.686
 5761SOL    HW218183   4.537   0.177   4.577
 5762SOL     OW18184   5.631   6.418   1.624
 5762SOL    HW118185   5.597   6.510   1.601
 5762SOL    HW218186   5.554   6.358   1.644
 5763SOL     OW18187   1.287   0.468   1.329
 5763SOL    HW118188   1.271   0.563   1.300
 5763SOL    HW218189   1.363   0.430   1.278
 5764SOL     OW18190   5.007   3.814   5.598
 5764SOL    HW118191   5.084   3.800   5.660
 5764SOL    HW218192   4.931   3.755   5.626
 5765SOL     OW18193   5.749   4.006   6.842
 5765SOL    HW118194   5.689   4.086   6.837
 5765SOL    HW218195   5.757   3.965   6.751
 5766SOL     OW18196   2.949   2.211   2.644
 5766SOL    HW118197   2.891   2.151   2.589
 5766SOL    HW218198   3.043   2.206   2.610
 5767SOL     OW18199   0.037   6.873   1.431
 5767SOL    HW118200   0.101   6.883   1.355
 5767SOL    HW218201   0.052   6.785   1.476
 5768SOL     OW18202   6.681   1.780   2.405
 5768SOL    HW118203   6.709   1.701   2.460
 5768SOL    HW218204   6.667   1.859   2.464
 5769SOL     OW18205   2.068   5.864   4.290
 5769SOL    HW118206   2.071   5.857   4.390
 5769SOL    HW218207   2.001   5.934   4.264
 5770SOL     OW18208   6.295   0.595   1.483
 5770SOL    HW118209   6.366   0.659   1.453
 5770SOL    HW218210   6.276   0.530   1.409
 5771SOL     OW18211   1.590   1.443   1.016
 5771SOL    HW118212   1.598   1.460   0.918
 5771SOL    HW218213   1.675   1.403   1.051
 5772SOL     OW18214   5.327   3.584   0.288
 5772SOL    HW118215   5.334   3.538   0.200
 5772SOL    HW218216   5.318   3.515   0.361
 5773SOL     OW18217   5.265   5.460   4.672
 5773SOL    HW118218   5.226   5.370   4.691
 5773SOL    HW218219   5.225   5.496   4.587
 5774SOL     OW18220   1.803   5.345   3.947
 5774SOL    HW118221   1.739   5.399   3.892
 5774SOL    HW218222   1.896   5.374   3.927
 5775SOL     OW18223   0.557   6.428   6.084
 5775SOL    HW118224   0.640   6.373   6.076
 5775SOL    HW218225   0.580   6.519   6.118
 5776SOL     OW18226   4.734   0.265   5.778
 5776SOL    HW118227   4.782   0.336   5.830
 5776SOL    HW218228   4.723   0.183   5.836
 5777SOL     OW18229   0.197   0.782   4.228
 5777SOL    HW118230   0.267   0.841   4.188
 5777SOL    HW218231   0.111   0.795   4.179
 5778SOL     OW18232   1.671   6.921   3.619
 5778SOL    HW118233   1.653   6.830   3.656
 5778SOL    HW218234   1.757   6.956   3.657
 5779SOL     OW18235   4.049   0.917   2.202
 5779SOL    HW118236   4.110   0.993   2.180
 5779SOL    HW218237   3.963   0.953   2.239
 5780SOL     OW18238   6.311   3.884   2.059
 5780SOL    HW118239   6.388   3.822   2.076
 5780SOL    HW218240   6.266   3.857   1.973
 5781SOL     OW18241   1.708   5.266   4.865
 5781SOL    HW118242   1.711   5.167   4.876
 5781SOL    HW218243   1.642   5.305   4.930
 5782SOL     OW18244   2.954   1.743   2.536
 5782SOL    HW118245   2.885   1.816   2.534
 5782SOL    HW218246   2.923   1.667   2.479
 5783SOL     OW18247   1.524   0.067   1.457
 5783SOL    HW118248   1.475   0.112   1.531
 5783SOL    HW218249   1.569   7.007   1.491
 5784SOL     OW18250   1.679   6.073   0.377
 5784SOL    HW118251   1.744   5.999   0.359
 5784SOL    HW218252   1.697   6.113   0.466
 5785SOL     OW18253   1.936   1.762   0.098
 5785SOL    HW118254   2.011   1.752   0.033
 5785SOL    HW218255   1.888   1.675   0.107
 5786SOL     OW18256   1.192   3.524   1.644
 5786SOL    HW118257   1.142   3.558   1.724
 5786SOL    HW218258   1.137   3.455   1.597
 5787SOL     OW18259   6.608   3.133   5.018
 5787SOL    HW118260   6.626   3.035   5.030
 5787SOL    HW218261   6.645   3.163   4.930
 5788SOL     OW18262   2.665   1.235   2.163
 5788SOL    HW118263   2.705   1.325   2.147
 5788SOL    HW218264   2.729   1.164   2.137
 5789SOL     OW18265   3.830   4.025   6.452
 5789SOL    HW118266   3.747   3.970   6.457
 5789SOL    HW218267   3.902   3.972   6.405
 5790SOL     OW18268   5.436   5.315   4.388
 5790SOL    HW118269   5.471   5.367   4.466
 5790SOL    HW218270   5.426   5.219   4.414
 5791SOL     OW18271   4.000   1.439   2.885
 5791SOL    HW118272   4.073   1.477   2.829
 5791SOL    HW218273   4.038   1.408   2.972
 5792SOL     OW18274   4.874   3.062   2.775
 5792SOL    HW118275   4.819   3.053   2.692
 5792SOL    HW218276   4.864   3.155   2.811
 5793SOL     OW18277   4.761   2.082   5.693
 5793SOL    HW118278   4.673   2.128   5.698
 5793SOL    HW218279   4.803   2.100   5.605
 5794SOL     OW18280   4.272   0.740   6.929
 5794SOL    HW118281   4.304   0.648   6.910
 5794SOL    HW218282   4.189   0.758   6.875
 5795SOL     OW18283   2.044   5.753   1.762
 5795SOL    HW118284   1.948   5.771   1.784
 5795SOL    HW218285   2.052   5.664   1.718
 5796SOL     OW18286   4.828   2.429   6.508
 5796SOL    HW118287   4.889   2.449   6.431
 5796SOL    HW218288   4.870   2.360   6.566
 5797SOL     OW18289   4.948   2.836   0.812
 5797SOL    HW118290   5.047   2.843   0.800
 5797SOL    HW218291   4.909   2.928   0.820
 5798SOL     OW18292   1.685   4.023   5.804
 5798SOL    HW118293   1.702   4.011   5.707
 5798SOL    HW218294   1.771   4.018   5.855
 5799SOL     OW18295   2.181   6.783   3.530
 5799SOL    HW118296   2.101   6.731   3.558
 5799SOL    HW218297   2.184   6.790   3.431
 5800SOL     OW18298   1.133   0.134   1.237
 5800SOL    HW118299   1.104   0.201   1.306
 5800SOL    HW218300   1.176   0.056   1.282
 5801SOL     OW18301   2.331   1.939   2.885
 5801SOL    HW118302   2.321   2.035   2.912
 5801SOL    HW218303   2.398   1.932   2.811
 5802SOL     OW18304   0.518   1.383   1.712
 5802SOL    HW118305   0.538   1.298   1.663
 5802SOL    HW218306   0.486   1.362   1.804
 5803SOL     OW18307   0.455   5.211   4.187
 5803SOL    HW118308   0.542   5.162   4.188
 5803SOL    HW218309   0.379   5.146   4.184
 5804SOL     OW18310   5.844   1.756   3.767
 5804SOL    HW118311   5.792   1.839   3.782
 5804SOL    HW218312   5.885   1.758   3.676
 5805SOL     OW18313   2.005   2.627   1.880
 5805SOL    HW118314   1.912   2.617   1.916
 5805SOL    HW218315   2.053   2.698   1.931
 5806SOL     OW18316   0.409   4.068   2.011
 5806SOL    HW118317   0.394   4.076   2.109
 5806SOL    HW218318   0.379   3.977   1.981
 5807SOL     OW18319   0.926   7.011   1.016
 5807SOL    HW118320   0.963   0.043   1.092
 5807SOL    HW218321   0.857   6.947   1.051
 5808SOL     OW18322   6.473   6.871   5.464
 5808SOL    HW118323   6.529   6.912   5.535
 5808SOL    HW218324   6.516   6.886   5.375
 5809SOL     OW18325   0.432   2.456   5.653
 5809SOL    HW118326   0.453   2.367   5.612
 5809SOL    HW218327   0.386   2.442   5.741
 5810SOL     OW18328   3.674   6.764   5.764
 5810SOL    HW118329   3.758   6.761   5.710
 5810SOL    HW218330   3.662   6.856   5.801
 5811SOL     OW18331   3.046   3.753   6.042
 5811SOL    HW118332   3.043   3.772   5.944
 5811SOL    HW218333   2.953   3.736   6.075
 5812SOL     OW18334   5.470   2.797   0.251
 5812SOL    HW118335   5.523   2.715   0.231
 5812SOL    HW218336   5.416   2.783   0.334
 5813SOL     OW18337   5.212   6.552   0.715
 5813SOL    HW118338   5.179   6.630   0.662
 5813SOL    HW218339   5.220   6.472   0.656
 5814SOL     OW18340   4.933   1.908   1.321
 5814SOL    HW118341   4.988   1.855   1.256
 5814SOL    HW218342   4.837   1.903   1.295
 5815SOL     OW18343   6.092   1.385   4.336
 5815SOL    HW118344   6.029   1.440   4.281
 5815SOL    HW218345   6.080   1.288   4.314
 5816SOL     OW18346   0.895   3.662   2.385
 5816SOL    HW118347   0.836   3.663   2.466
 5816SOL    HW218348   0.917   3.756   2.359
 5817SOL     OW18349   6.424   3.611   2.911
 5817SOL    HW118350   6.354   3.609   2.839
 5817SOL    HW218351   6.512   3.582   2.873
 5818SOL     OW18352   2.182   6.787   5.550
 5818SOL    HW118353   2.128   6.763   5.631
 5818SOL    HW218354   2.192   6.886   5.544
 5819SOL     OW18355   4.598   5.185   0.324
 5819SOL    HW118356   4.689   5.160   0.293
 5819SOL    HW218357   4.537   5.197   0.245
 5820SOL     OW18358   5.760   5.637   2.189
 5820SOL    HW118359   5.736   5.682   2.103
 5820SOL    HW218360   5.676   5.605   2.234
 5821SOL     OW18361   6.818   0.077   0.755
 5821SOL    HW118362   6.756   0.154   0.768
 5821SOL    HW218363   6.803   0.009   0.826
 5822SOL     OW18364   1.909   3.341   2.664
 5822SOL    HW118365   1.976   3.399   2.710
 5822SOL    HW218366   1.849   3.298   2.733
 5823SOL     OW18367   2.068   5.434   3.891
 5823SOL    HW118368   2.056   5.489   3.808
 5823SOL    HW218369   2.164   5.406   3.900
 5824SOL     OW18370   1.003   0.379   1.986
 5824SOL    HW118371   1.002   0.368   2.085
 5824SOL    HW218372   1.000   0.477   1.963
 5825SOL     OW18373   6.195   0.484   4.119
 5825SOL    HW118374   6.289   0.516   4.133
 5825SOL    HW218375   6.195   0.386   4.102
 5826SOL     OW18376   0.224   0.232   4.920
 5826SOL    HW118377   0.220   0.329   4.944
 5826SOL    HW218378   0.311   0.211   4.877
 5827SOL     OW18379   2.409   4.559   4.708
 5827SOL    HW118380   2.423   4.530   4.613
 5827SOL    HW218381   2.362   4.487   4.759
 5828SOL     OW18382   3.923   6.719   4.609
 5828SOL    HW118383   3.873   6.638   4.640
 5828SOL    HW218384   3.950   6.707   4.513
 5829SOL     OW18385   2.209   1.101   4.159
 5829SOL    HW118386   2.159   1.101   4.073
 5829SOL    HW218387   2.220   1.007   4.191
 5830SOL     OW18388   3.319   5.464   4.732
 5830SOL    HW118389   3.345   5.526   4.806
 5830SOL    HW218390   3.288   5.377   4.771
 5831SOL     OW18391   1.728   2.550   5.364
 5831SOL    HW118392   1.777   2.616   5.306
 5831SOL    HW218393   1.634   2.581   5.376
 5832SOL     OW18394   2.844   4.903   1.461
 5832SOL    HW118395   2.751   4.939   1.450
 5832SOL    HW218396   2.845   4.837   1.536
 5833SOL     OW18397   3.366   4.111   6.267
 5833SOL    HW118398   3.303   4.086   6.194
 5833SOL    HW218399   3.459   4.116   6.231
 5834SOL     OW18400   5.346   2.959   6.297
 5834SOL    HW118401   5.357   3.038   6.357
 5834SOL    HW218402   5.375   2.876   6.345
 5835SOL     OW18403   5.226   1.517   2.215
 5835SOL    HW118404   5.206   1.527   2.313
 5835SOL    HW218405   5.151   1.466   2.171
 5836SOL     OW18406   4.820   6.689   3.445
 5836SOL    HW118407   4.840   6.684   3.543
 5836SOL    HW218408   4.735   6.740   3.432
 5837SOL     OW18409   3.232   4.709   0.243
 5837SOL    HW118410   3.321   4.723   0.198
 5837SOL    HW218411   3.229   4.762   0.328
 5838SOL     OW18412   3.059   1.938   1.079
 5838SOL    HW118413   2.977   1.894   1.118
 5838SOL    HW218414   3.083   1.893   0.993
 5839SOL     OW18415   2.414   1.792   1.204
 5839SOL    HW118416   2.430   1.807   1.301
 5839SOL    HW218417   2.440   1.699   1.179
 5840SOL     OW18418   1.223   3.447   3.283
 5840SOL    HW118419   1.166   3.430   3.364
 5840SOL    HW218420   1.317   3.419   3.302
 5841SOL     OW18421   5.150   2.821   0.405
 5841SOL    HW118422   5.212   2.800   0.480
 5841SOL    HW218423   5.118   2.915   0.415
 5842SOL     OW18424   2.435   1.805   0.839
 5842SOL    HW118425   2.418   1.865   0.917
 5842SOL    HW218426   2.479   1.858   0.765
 5843SOL     OW18427   1.879   3.569   1.419
 5843SOL    HW118428   1.951   3.501   1.403
 5843SOL    HW218429   1.796   3.542   1.371
 5844SOL     OW18430   0.403   0.177   5.319
 5844SOL    HW118431   0.349   0.195   5.401
 5844SOL    HW218432   0.496   0.152   5.345
 5845SOL     OW18433   1.252   6.946   1.898
 5845SOL    HW118434   1.341   6.942   1.944
 5845SOL    HW218435   1.185   6.892   1.949
 5846SOL     OW18436   6.727   3.856   5.717
 5846SOL    HW118437   6.765   3.902   5.797
 5846SOL    HW218438   6.732   3.916   5.637
 5847SOL     OW18439   2.660   3.920   0.516
 5847SOL    HW118440   2.568   3.882   0.509
 5847SOL    HW218441   2.653   4.017   0.539
 5848SOL     OW18442   1.741   5.134   2.107
 5848SOL    HW118443   1.827   5.154   2.154
 5848SOL    HW218444   1.680   5.212   2.115
 5849SOL     OW18445   3.457   5.818   5.373
 5849SOL    HW118446   3.463   5.762   5.290
 5849SOL    HW218447   3.389   5.778   5.435
 5850SOL     OW18448   1.323   1.608   2.088
 5850SOL    HW118449   1.325   1.511   2.111
 5850SOL    HW218450   1.352   1.662   2.168
 5851SOL     OW18451   6.160   3.936   4.534
 5851SOL    HW118452   6.172   3.892   4.445
 5851SOL    HW218453   6.185   4.033   4.528
 5852SOL     OW18454   4.730   4.271   2.407
 5852SOL    HW118455   4.747   4.194   2.469
 5852SOL    HW218456   4.688   4.346   2.459
 5853SOL     OW18457   3.548   4.880   5.491
 5853SOL    HW118458   3.525   4.794   5.537
 5853SOL    HW218459   3.611   4.862   5.416
 5854SOL     OW18460   2.874   4.404   5.622
 5854SOL    HW118461   2.868   4.305   5.627
 5854SOL    HW218462   2.964   4.434   5.653
 5855SOL     OW18463   1.970   3.583   3.675
 5855SOL    HW118464   1.899   3.527   3.632
 5855SOL    HW218465   2.048   3.525   3.700
 5856SOL     OW18466   1.653   6.666   3.358
 5856SOL    HW118467   1.619   6.755   3.329
 5856SOL    HW218468   1.741   6.676   3.403
 5857SOL     OW18469   6.621   4.102   6.475
 5857SOL    HW118470   6.578   4.176   6.422
 5857SOL    HW218471   6.668   4.040   6.412
 5858SOL     OW18472   1.787   0.555   3.353
 5858SOL    HW118473   1.767   0.652   3.344
 5858SOL    HW218474   1.706   0.506   3.385
 5859SOL     OW18475   5.956   0.522   1.658
 5859SOL    HW118476   5.939   0.430   1.621
 5859SOL    HW218477   5.948   0.589   1.585
 5860SOL     OW18478   0.453   4.243   3.403
 5860SOL    HW118479   0.453   4.247   3.503
 5860SOL    HW218480   0.422   4.152   3.373
 5861SOL     OW18481   5.363   1.093   5.922
 5861SOL    HW118482   5.389   1.005   5.883
 5861SOL    HW218483   5.396   1.166   5.862
 5862SOL     OW18484   0.205   5.692   2.223
 5862SOL    HW118485   0.107   5.694   2.242
 5862SOL    HW218486   0.254   5.742   2.295
 5863SOL     OW18487   3.972   0.480   5.458
 5863SOL    HW118488   3.890   0.499   5.405
 5863SOL    HW218489   3.995   0.383   5.450
 5864SOL     OW18490   3.330   4.104   2.480
 5864SOL    HW118491   3.400   4.065   2.539
 5864SOL    HW218492   3.359   4.098   2.384
 5865SOL     OW18493   6.076   0.976   5.822
 5865SOL    HW118494   6.048   1.013   5.910
 5865SOL    HW218495   6.175   0.982   5.813
 5866SOL     OW18496   3.443   2.883   3.483
 5866SOL    HW118497   3.384   2.951   3.440
 5866SOL    HW218498   3.414   2.791   3.457
 5867SOL     OW18499   3.986   1.711   2.292
 5867SOL    HW118500   3.891   1.691   2.269
 5867SOL    HW218501   4.001   1.810   2.291
 5868SOL     OW18502   1.563   1.317   5.581
 5868SOL    HW118503   1.612   1.390   5.627
 5868SOL    HW218504   1.498   1.275   5.645
 5869SOL     OW18505   0.281   5.995   3.967
 5869SOL    HW118506   0.363   6.015   3.913
 5869SOL    HW218507   0.213   5.951   3.908
 5870SOL     OW18508   4.152   4.848   4.318
 5870SOL    HW118509   4.075   4.830   4.256
 5870SOL    HW218510   4.145   4.941   4.354
 5871SOL     OW18511   3.200   3.633   4.191
 5871SOL    HW118512   3.162   3.627   4.284
 5871SOL    HW218513   3.214   3.728   4.167
 5872SOL     OW18514   4.371   5.923   2.124
 5872SOL    HW118515   4.430   5.866   2.182
 5872SOL    HW218516   4.395   5.910   2.028
 5873SOL     OW18517   3.769   5.308   2.026
 5873SOL    HW118518   3.718   5.275   1.947
 5873SOL    HW218519   3.783   5.232   2.090
 5874SOL     OW18520   3.135   4.528   5.653
 5874SOL    HW118521   3.138   4.593   5.578
 5874SOL    HW218522   3.103   4.574   5.736
 5875SOL     OW18523   2.818   1.096   0.569
 5875SOL    HW118524   2.905   1.078   0.523
 5875SOL    HW218525   2.795   1.018   0.628
 5876SOL     OW18526   3.584   3.214   1.738
 5876SOL    HW118527   3.534   3.165   1.667
 5876SOL    HW218528   3.656   3.269   1.696
 5877SOL     OW18529   5.798   4.493   0.072
 5877SOL    HW118530   5.842   4.496   7.004
 5877SOL    HW218531   5.702   4.519   0.062
 5878SOL     OW18532   2.382   4.328   2.449
 5878SOL    HW118533   2.366   4.303   2.353
 5878SOL    HW218534   2.392   4.245   2.504
 5879SOL     OW18535   6.945   3.687   5.720
 5879SOL    HW118536   6.859   3.738   5.733
 5879SOL    HW218537   6.972   3.693   5.624
 5880SOL     OW18538   1.839   6.088   0.910
 5880SOL    HW118539   1.887   6.001   0.920
 5880SOL    HW218540   1.889   6.145   0.843
 5881SOL     OW18541   0.179   5.453   4.289
 5881SOL    HW118542   0.152   5.482   4.197
 5881SOL    HW218543   0.212   5.359   4.285
 5882SOL     OW18544   4.819   1.098   1.458
 5882SOL    HW118545   4.764   1.024   1.420
 5882SOL    HW218546   4.844   1.162   1.386
 5883SOL     OW18547   0.340   3.686   5.873
 5883SOL    HW118548   0.418   3.732   5.914
 5883SOL    HW218549   0.261   3.747   5.875
 5884SOL     OW18550   1.018   1.804   2.990
 5884SOL    HW118551   1.029   1.893   2.947
 5884SOL    HW218552   1.048   1.808   3.085
 5885SOL     OW18553   6.404   6.457   1.179
 5885SOL    HW118554   6.489   6.510   1.171
 5885SOL    HW218555   6.402   6.411   1.268
 5886SOL     OW18556   1.386   1.505   5.967
 5886SOL    HW118557   1.388   1.525   6.065
 5886SOL    HW218558   1.296   1.530   5.930
 5887SOL     OW18559   3.631   6.912   4.421
 5887SOL    HW118560   3.700   6.913   4.349
 5887SOL    HW218561   3.677   6.925   4.510
 5888SOL     OW18562   2.431   0.258   3.762
 5888SOL    HW118563   2.368   0.191   3.803
 5888SOL    HW218564   2.505   0.210   3.716
 5889SOL     OW18565   2.688   1.019   1.083
 5889SOL    HW118566   2.651   1.022   0.990
 5889SOL    HW218567   2.612   1.020   1.149
 5890SOL     OW18568   3.003   5.025   6.048
 5890SOL    HW118569   2.934   5.047   5.979
 5890SOL    HW218570   2.962   5.035   6.139
 5891SOL     OW18571   3.327   3.810   0.040
 5891SOL    HW118572   3.277   3.885   0.083
 5891SOL    HW218573   3.270   3.769   6.990
 5892SOL     OW18574   0.767   0.056   1.298
 5892SOL    HW118575   0.729   7.017   1.228
 5892SOL    HW218576   0.723   0.146   1.292
 5893SOL     OW18577   1.400   1.321   4.045
 5893SOL    HW118578   1.308   1.286   4.027
 5893SOL    HW218579   1.459   1.300   3.968
 5894SOL     OW18580   0.899   3.566   3.318
 5894SOL    HW118581   0.905   3.479   3.368
 5894SOL    HW218582   0.955   3.634   3.365
 5895SOL     OW18583   5.504   3.790   3.980
 5895SOL    HW118584   5.557   3.864   4.021
 5895SOL    HW218585   5.434   3.828   3.919
 5896SOL     OW18586   3.495   2.754   6.647
 5896SOL    HW118587   3.467   2.810   6.569
 5896SOL    HW218588   3.562   2.686   6.617
 5897SOL     OW18589   3.982   6.927   1.028
 5897SOL    HW118590   3.911   6.909   0.960
 5897SOL    HW218591   4.021   7.018   1.013
 5898SOL     OW18592   2.351   0.189   2.488
 5898SOL    HW118593   2.280   0.221   2.551
 5898SOL    HW218594   2.360   0.254   2.413
 5899SOL     OW18595   5.880   7.010   4.457
 5899SOL    HW118596   5.927   6.921   4.451
 5899SOL    HW218597   5.784   6.995   4.481
 5900SOL     OW18598   4.783   4.963   2.469
 5900SOL    HW118599   4.868   4.941   2.422
 5900SOL    HW218600   4.748   5.051   2.436
 5901SOL     OW18601   2.495   6.610   5.837
 5901SOL    HW118602   2.525   6.666   5.915
 5901SOL    HW218603   2.482   6.516   5.867
 5902SOL     OW18604   6.745   1.957   6.615
 5902SOL    HW118605   6.685   1.932   6.540
 5902SOL    HW218606   6.759   2.056   6.615
 5903SOL     OW18607   6.167   3.047   6.601
 5903SOL    HW118608   6.205   2.955   6.609
 5903SOL    HW218609   6.221   3.109   6.659
 5904SOL     OW18610   6.993   3.355   2.354
 5904SOL    HW118611   6.916   3.412   2.324
 5904SOL    HW218612   6.977   3.324   2.448
 5905SOL     OW18613   6.927   5.782   1.749
 5905SOL    HW118614   6.984   5.843   1.804
 5905SOL    HW218615   6.912   5.697   1.799
 5906SOL     OW18616   5.712   1.050   3.499
 5906SOL    HW118617   5.712   0.999   3.413
 5906SOL    HW218618   5.646   1.008   3.562
 5907SOL     OW18619   1.100   5.845   2.135
 5907SOL    HW118620   1.149   5.887   2.212
 5907SOL    HW218621   1.027   5.787   2.170
 5908SOL     OW18622   6.895   3.193   5.104
 5908SOL    HW118623   6.840   3.115   5.074
 5908SOL    HW218624   6.992   3.168   5.103
 5909SOL     OW18625   6.773   5.709   0.622
 5909SOL    HW118626   6.744   5.616   0.643
 5909SOL    HW218627   6.863   5.726   0.662
 5910SOL     OW18628   2.201   2.727   3.322
 5910SOL    HW118629   2.265   2.750   3.395
 5910SOL    HW218630   2.224   2.779   3.240
 5911SOL     OW18631   6.438   5.956   6.145
 5911SOL    HW118632   6.347   5.996   6.146
 5911SOL    HW218633   6.470   5.949   6.050
 5912SOL     OW18634   0.466   1.379   3.719
 5912SOL    HW118635   0.387   1.340   3.673
 5912SOL    HW218636   0.447   1.390   3.816
 5913SOL     OW18637   5.577   2.583   6.737
 5913SOL    HW118638   5.556   2.616   6.828
 5913SOL    HW218639   5.495   2.587   6.680
 5914SOL     OW18640   0.743   6.464   0.072
 5914SOL    HW118641   0.659   6.512   0.048
 5914SOL    HW218642   0.726   6.401   0.148
 5915SOL     OW18643   4.388   1.401   6.659
 5915SOL    HW118644   4.427   1.396   6.750
 5915SOL    HW218645   4.373   1.308   6.624
 5916SOL     OW18646   1.138   6.256   2.627
 5916SOL    HW118647   1.103   6.183   2.568
 5916SOL    HW218648   1.158   6.337   2.571
 5917SOL     OW18649   3.305   4.472   6.931
 5917SOL    HW118650   3.218   4.518   6.915
 5917SOL    HW218651   3.305   4.432   0.001
 5918SOL     OW18652   3.006   6.190   6.003
 5918SOL    HW118653   3.011   6.092   6.024
 5918SOL    HW218654   2.916   6.225   6.027
 5919SOL     OW18655   3.685   2.900   3.327
 5919SOL    HW118656   3.631   2.862   3.252
 5919SOL    HW218657   3.634   2.891   3.412
 5920SOL     OW18658   0.034   0.254   5.901
 5920SOL    HW118659   7.007   0.338   5.924
 5920SOL    HW218660   7.003   0.175   5.931
 5921SOL     OW18661   3.392   5.038   6.687
 5921SOL    HW118662   3.476   5.090   6.702
 5921SOL    HW218663   3.405   4.973   6.612
 5922SOL     OW18664   5.361   3.597   3.106
 5922SOL    HW118665   5.274   3.627   3.066
 5922SOL    HW218666   5.387   3.510   3.065
 5923SOL     OW18667   6.976   0.612   1.397
 5923SOL    HW118668   6.898   0.671   1.419
 5923SOL    HW218669   0.025   0.625   1.466
 5924SOL     OW18670   6.343   0.609   2.890
 5924SOL    HW118671   6.357   0.683   2.824
 5924SOL    HW218672   6.297   0.532   2.846
 5925SOL     OW18673   4.592   5.924   1.411
 5925SOL    HW118674   4.550   5.858   1.473
 5925SOL    HW218675   4.691   5.915   1.413
 5926SOL     OW18676   4.101   5.088   3.471
 5926SOL    HW118677   4.008   5.056   3.453
 5926SOL    HW218678   4.156   5.011   3.505
 5927SOL     OW18679   0.990   4.563   1.637
 5927SOL    HW118680   1.030   4.576   1.728
 5927SOL    HW218681   0.892   4.584   1.640
 5928SOL     OW18682   3.758   0.307   0.918
 5928SOL    HW118683   3.758   0.405   0.898
 5928SOL    HW218684   3.725   0.257   0.838
 5929SOL     OW18685   0.641   0.903   6.288
 5929SOL    HW118686   0.624   1.002   6.282
 5929SOL    HW218687   0.669   0.869   6.199
 5930SOL     OW18688   1.334   3.455   2.408
 5930SOL    HW118689   1.287   3.385   2.354
 5930SOL    HW218690   1.423   3.420   2.437
 5931SOL     OW18691   5.468   6.280   3.039
 5931SOL    HW118692   5.441   6.311   2.947
 5931SOL    HW218693   5.423   6.337   3.108
 5932SOL     OW18694   2.570   1.370   6.865
 5932SOL    HW118695   2.573   1.296   6.931
 5932SOL    HW218696   2.485   1.366   6.813
 5933SOL     OW18697   6.130   5.949   3.669
 5933SOL    HW118698   6.207   5.921   3.726
 5933SOL    HW218699   6.153   6.034   3.622
 5934SOL     OW18700   2.799   3.616   5.615
 5934SOL    HW118701   2.881   3.601   5.671
 5934SOL    HW218702   2.826   3.648   5.525
 5935SOL     OW18703   6.775   6.559   5.158
 5935SOL    HW118704   6.849   6.539   5.222
 5935SOL    HW218705   6.796   6.518   5.069
 5936SOL     OW18706   2.908   3.266   1.942
 5936SOL    HW118707   2.884   3.224   2.030
 5936SOL    HW218708   2.942   3.359   1.957
 5937SOL     OW18709   6.600   3.000   1.824
 5937SOL    HW118710   6.621   2.934   1.896
 5937SOL    HW218711   6.533   3.066   1.859
 5938SOL     OW18712   0.010   4.974   5.095
 5938SOL    HW118713   0.075   5.049   5.081
 5938SOL    HW218714   6.954   4.985   5.033
 5939SOL     OW18715   3.535   0.128   4.593
 5939SOL    HW118716   3.518   0.226   4.590
 5939SOL    HW218717   3.634   0.112   4.595
 5940SOL     OW18718   4.744   6.143   2.703
 5940SOL    HW118719   4.841   6.162   2.720
 5940SOL    HW218720   4.736   6.062   2.645
 5941SOL     OW18721   0.076   1.815   1.739
 5941SOL    HW118722   7.007   1.775   1.725
 5941SOL    HW218723   0.125   1.818   1.652
 5942SOL     OW18724   5.866   3.601   5.651
 5942SOL    HW118725   5.824   3.563   5.733
 5942SOL    HW218726   5.873   3.530   5.580
 5943SOL     OW18727   3.443   3.646   0.961
 5943SOL    HW118728   3.478   3.587   0.889
 5943SOL    HW218729   3.459   3.742   0.936
 5944SOL     OW18730   0.723   3.568   6.140
 5944SOL    HW118731   0.688   3.636   6.205
 5944SOL    HW218732   0.777   3.614   6.070
 5945SOL     OW18733   0.302   5.698   5.590
 5945SOL    HW118734   0.257   5.635   5.527
 5945SOL    HW218735   0.284   5.670   5.684
 5946SOL     OW18736   3.782   4.297   0.590
 5946SOL    HW118737   3.795   4.366   0.662
 5946SOL    HW218738   3.861   4.297   0.530
 5947SOL     OW18739   3.201   2.980   4.929
 5947SOL    HW118740   3.187   2.911   5.000
 5947SOL    HW218741   3.146   3.060   4.949
 5948SOL     OW18742   4.792   4.013   1.985
 5948SOL    HW118743   4.775   4.108   2.012
 5948SOL    HW218744   4.803   3.957   2.067
 5949SOL     OW18745   6.862   4.878   2.286
 5949SOL    HW118746   6.939   4.899   2.346
 5949SOL    HW218747   6.896   4.848   2.197
 5950SOL     OW18748   5.100   1.626   5.748
 5950SOL    HW118749   5.164   1.622   5.825
 5950SOL    HW218750   5.010   1.594   5.778
 5951SOL     OW18751   1.089   4.437   5.979
 5951SOL    HW118752   1.053   4.529   5.962
 5951SOL    HW218753   1.128   4.433   6.071
 5952SOL     OW18754   3.902   5.082   1.023
 5952SOL    HW118755   3.865   5.011   0.963
 5952SOL    HW218756   3.987   5.050   1.064
 5953SOL     OW18757   5.768   2.486   5.065
 5953SOL    HW118758   5.837   2.495   4.994
 5953SOL    HW218759   5.677   2.476   5.023
 5954SOL     OW18760   0.661   6.251   4.687
 5954SOL    HW118761   0.614   6.257   4.599
 5954SOL    HW218762   0.693   6.342   4.714
 5955SOL     OW18763   6.059   4.052   0.871
 5955SOL    HW118764   6.104   3.998   0.799
 5955SOL    HW218765   6.111   4.044   0.956
 5956SOL     OW18766   4.785   2.428   4.076
 5956SOL    HW118767   4.802   2.434   3.977
 5956SOL    HW218768   4.764   2.519   4.111
 5957SOL     OW18769   1.203   1.094   2.280
 5957SOL    HW118770   1.110   1.058   2.281
 5957SOL    HW218771   1.200   1.194   2.271
 5958SOL     OW18772   3.631   6.777   2.793
 5958SOL    HW118773   3.691   6.822   2.859
 5958SOL    HW218774   3.552   6.738   2.841
 5959SOL     OW18775   4.746   2.223   4.558
 5959SOL    HW118776   4.791   2.262   4.639
 5959SOL    HW218777   4.790   2.137   4.533
 5960SOL     OW18778   4.480   7.012   5.636
 5960SOL    HW118779   4.398   0.042   5.659
 5960SOL    HW218780   4.534   0.041   5.568
 5961SOL     OW18781   2.931   1.754   2.948
 5961SOL    HW118782   2.973   1.710   3.027
 5961SOL    HW218783   3.000   1.808   2.899
 5962SOL     OW18784   5.650   6.296   0.426
 5962SOL    HW118785   5.569   6.250   0.461
 5962SOL    HW218786   5.731   6.243   0.450
 5963SOL     OW18787   3.783   4.604   0.164
 5963SOL    HW118788   3.859   4.629   0.224
 5963SOL    HW218789   3.723   4.539   0.212
 5964SOL     OW18790   2.275   6.644   2.527
 5964SOL    HW118791   2.369   6.677   2.537
 5964SOL    HW218792   2.233   6.685   2.447
 5965SOL     OW18793   1.674   6.447   0.140
 5965SOL    HW118794   1.582   6.470   0.172
 5965SOL    HW218795   1.723   6.399   0.213
 5966SOL     OW18796   2.367   0.949   5.644
 5966SOL    HW118797   2.451   1.002   5.634
 5966SOL    HW218798   2.347   0.936   5.741
 5967SOL     OW18799   2.173   1.759   4.727
 5967SOL    HW118800   2.181   1.678   4.786
 5967SOL    HW218801   2.240   1.753   4.653
 5968SOL     OW18802   5.467   2.197   0.811
 5968SOL    HW118803   5.500   2.181   0.718
 5968SOL    HW218804   5.526   2.149   0.876
 5969SOL     OW18805   5.485   0.953   6.921
 5969SOL    HW118806   5.482   1.024   6.851
 5969SOL    HW218807   5.566   0.896   6.907
 5970SOL     OW18808   0.169   2.816   0.727
 5970SOL    HW118809   0.260   2.781   0.704
 5970SOL    HW218810   0.118   2.746   0.778
 5971SOL     OW18811   6.894   0.071   3.501
 5971SOL    HW118812   6.891   0.166   3.529
 5971SOL    HW218813   6.841   0.015   3.565
 5972SOL     OW18814   5.241   5.203   0.728
 5972SOL    HW118815   5.238   5.109   0.761
 5972SOL    HW218816   5.149   5.243   0.734
 5973SOL     OW18817   1.868   2.986   2.911
 5973SOL    HW118818   1.843   2.929   2.990
 5973SOL    HW218819   1.965   3.009   2.916
 5974SOL     OW18820   4.617   1.583   6.066
 5974SOL    HW118821   4.533   1.535   6.041
 5974SOL    HW218822   4.685   1.570   5.994
 5975SOL     OW18823   5.820   4.783   0.142
 5975SOL    HW118824   5.845   4.692   0.109
 5975SOL    HW218825   5.765   4.774   0.225
 5976SOL     OW18826   3.249   3.778   5.656
 5976SOL    HW118827   3.256   3.850   5.725
 5976SOL    HW218828   3.271   3.816   5.566
 5977SOL     OW18829   6.521   4.943   0.510
 5977SOL    HW118830   6.615   4.948   0.544
 5977SOL    HW218831   6.480   4.856   0.539
 5978SOL     OW18832   3.161   5.182   0.236
 5978SOL    HW118833   3.089   5.196   0.304
 5978SOL    HW218834   3.124   5.134   0.157
 5979SOL     OW18835   6.243   0.602   0.970
 5979SOL    HW118836   6.277   0.523   0.919
 5979SOL    HW218837   6.188   0.571   1.047
 5980SOL     OW18838   3.713   3.008   1.848
 5980SOL    HW118839   3.685   3.103   1.837
 5980SOL    HW218840   3.631   2.949   1.849
 5981SOL     OW18841   3.356   2.024   0.230
 5981SOL    HW118842   3.331   2.106   0.179
 5981SOL    HW218843   3.390   2.049   0.320
 5982SOL     OW18844   6.311   2.181   1.642
 5982SOL    HW118845   6.264   2.093   1.634
 5982SOL    HW218846   6.284   2.241   1.566
 5983SOL     OW18847   0.340   0.978   4.080
 5983SOL    HW118848   0.272   0.978   4.006
 5983SOL    HW218849   0.430   0.999   4.042
 5984SOL     OW18850   6.417   6.467   2.953
 5984SOL    HW118851   6.439   6.369   2.950
 5984SOL    HW218852   6.322   6.479   2.981
 5985SOL     OW18853   6.185   2.152   2.747
 5985SOL    HW118854   6.146   2.100   2.823
 5985SOL    HW218855   6.112   2.181   2.686
 5986SOL     OW18856   4.097   3.626   5.345
 5986SOL    HW118857   4.169   3.693   5.328
 5986SOL    HW218858   4.091   3.563   5.268
 5987SOL     OW18859   6.490   0.945   5.265
 5987SOL    HW118860   6.531   0.935   5.355
 5987SOL    HW218861   6.480   0.855   5.222
 5988SOL     OW18862   2.301   2.004   0.335
 5988SOL    HW118863   2.373   2.054   0.287
 5988SOL    HW218864   2.327   1.908   0.342
 5989SOL     OW18865   0.574   5.859   6.742
 5989SOL    HW118866   0.600   5.788   6.677
 5989SOL    HW218867   0.635   5.857   6.820
 5990SOL     OW18868   3.735   4.813   1.277
 5990SOL    HW118869   3.705   4.807   1.182
 5990SOL    HW218870   3.656   4.805   1.338
 5991SOL     OW18871   5.368   6.038   0.784
 5991SOL    HW118872   5.367   6.138   0.782
 5991SOL    HW218873   5.322   6.005   0.866
 5992SOL     OW18874   3.573   6.961   2.205
 5992SOL    HW118875   3.567   6.892   2.132
 5992SOL    HW218876   3.644   0.006   2.182
 5993SOL     OW18877   5.985   2.343   0.126
 5993SOL    HW118878   6.078   2.377   0.138
 5993SOL    HW218879   5.983   2.275   0.053
 5994SOL     OW18880   0.307   2.666   0.449
 5994SOL    HW118881   0.320   2.642   0.545
 5994SOL    HW218882   0.323   2.764   0.436
 5995SOL     OW18883   5.067   3.613   1.622
 5995SOL    HW118884   5.102   3.628   1.715
 5995SOL    HW218885   4.969   3.594   1.627
 5996SOL     OW18886   2.789   5.378   1.390
 5996SOL    HW118887   2.736   5.462   1.392
 5996SOL    HW218888   2.749   5.313   1.455
 5997SOL     OW18889   0.201   6.913   3.771
 5997SOL    HW118890   0.130   6.944   3.707
 5997SOL    HW218891   0.158   6.881   3.855
 5998SOL     OW18892   6.557   0.693   1.397
 5998SOL    HW118893   6.592   0.617   1.344
 5998SOL    HW218894   6.628   0.725   1.461
 5999SOL     OW18895   4.136   3.113   1.211
 5999SOL    HW118896   4.169   3.045   1.145
 5999SOL    HW218897   4.088   3.067   1.285
 6000SOL     OW18898   6.483   4.893   6.997
 6000SOL    HW118899   6.534   4.954   6.937
 6000SOL    HW218900   6.518   4.800   6.988
 6001SOL     OW18901   5.209   6.289   5.359
 6001SOL    HW118902   5.197   6.377   5.405
 6001SOL    HW218903   5.174   6.295   5.265
 6002SOL     OW18904   6.329   6.260   4.966
 6002SOL    HW118905   6.275   6.260   4.882
 6002SOL    HW218906   6.286   6.199   5.033
 6003SOL     OW18907   7.013   2.926   4.261
 6003SOL    HW118908   0.024   2.868   4.187
 6003SOL    HW218909   0.053   3.004   4.273
 6004SOL     OW18910   5.523   2.579   3.719
 6004SOL    HW118911   5.522   2.675   3.693
 6004SOL    HW218912   5.601   2.561   3.779
 6005SOL     OW18913   4.140   4.843   5.946
 6005SOL    HW118914   4.113   4.922   5.891
 6005SOL    HW218915   4.110   4.857   6.040
 6006SOL     OW18916   3.610   5.765   5.610
 6006SOL    HW118917   3.574   5.741   5.520
 6006SOL    HW218918   3.699   5.810   5.599
 6007SOL     OW18919   1.252   4.928   5.234
 6007SOL    HW118920   1.277   4.851   5.292
 6007SOL    HW218921   1.323   4.998   5.239
 6008SOL     OW18922   2.805   5.070   5.848
 6008SOL    HW118923   2.783   4.975   5.867
 6008SOL    HW218924   2.823   5.081   5.750
 6009SOL     OW18925   4.032   5.413   3.515
 6009SOL    HW118926   4.109   5.475   3.515
 6009SOL    HW218927   4.037   5.352   3.436
 6010SOL     OW18928   0.147   4.790   4.946
 6010SOL    HW118929   0.107   4.855   5.010
 6010SOL    HW218930   0.163   4.703   4.993
 6011SOL     OW18931   6.124   1.335   2.314
 6011SOL    HW118932   6.082   1.350   2.225
 6011SOL    HW218933   6.110   1.416   2.371
 6012SOL     OW18934   6.943   0.482   6.106
 6012SOL    HW118935   6.957   0.567   6.054
 6012SOL    HW218936   6.849   0.479   6.140
 6013SOL     OW18937   5.794   0.829   2.659
 6013SOL    HW118938   5.730   0.797   2.589
 6013SOL    HW218939   5.869   0.879   2.615
 6014SOL     OW18940   3.745   3.053   4.078
 6014SOL    HW118941   3.831   3.064   4.128
 6014SOL    HW218942   3.747   3.110   3.995
 6015SOL     OW18943   6.256   1.681   4.550
 6015SOL    HW118944   6.295   1.772   4.541
 6015SOL    HW218945   6.298   1.620   4.483
 6016SOL     OW18946   5.142   1.501   4.818
 6016SOL    HW118947   5.127   1.444   4.899
 6016SOL    HW218948   5.105   1.593   4.835
 6017SOL     OW18949   0.196   3.071   4.831
 6017SOL    HW118950   0.295   3.075   4.813
 6017SOL    HW218951   0.174   3.127   4.910
 6018SOL     OW18952   3.787   1.605   6.275
 6018SOL    HW118953   3.725   1.603   6.197
 6018SOL    HW218954   3.805   1.511   6.306
 6019SOL     OW18955   0.046   3.868   6.723
 6019SOL    HW118956   0.021   3.776   6.693
 6019SOL    HW218957   7.015   3.935   6.671
 6020SOL     OW18958   0.680   4.405   0.621
 6020SOL    HW118959   0.624   4.354   0.685
 6020SOL    HW218960   0.754   4.451   0.670
 6021SOL     OW18961   4.090   0.820   3.113
 6021SOL    HW118962   4.094   0.764   3.196
 6021SOL    HW218963   4.011   0.795   3.059
 6022SOL     OW18964   6.765   1.378   2.009
 6022SOL    HW118965   6.669   1.406   2.016
 6022SOL    HW218966   6.824   1.459   2.015
 6023SOL     OW18967   4.669   0.877   1.313
 6023SOL    HW118968   4.661   0.778   1.326
 6023SOL    HW218969   4.705   0.896   1.222
 6024SOL     OW18970   0.268   5.319   0.169
 6024SOL    HW118971   0.296   5.383   0.099
 6024SOL    HW218972   0.347   5.265   0.199
 6025SOL     OW18973   2.428   1.271   4.066
 6025SOL    HW118974   2.374   1.208   4.122
 6025SOL    HW218975   2.374   1.354   4.048
 6026SOL     OW18976   6.012   4.141   4.222
 6026SOL    HW118977   6.050   4.049   4.227
 6026SOL    HW218978   6.030   4.179   4.131
 6027SOL     OW18979   5.977   3.205   5.787
 6027SOL    HW118980   5.969   3.280   5.721
 6027SOL    HW218981   6.071   3.170   5.785
 6028SOL     OW18982   5.218   4.685   6.430
 6028SOL    HW118983   5.247   4.750   6.500
 6028SOL    HW218984   5.206   4.594   6.471
 6029SOL     OW18985   2.345   0.748   3.453
 6029SOL    HW118986   2.414   0.761   3.382
 6029SOL    HW218987   2.344   0.652   3.482
 6030SOL     OW18988   5.142   3.423   4.599
 6030SOL    HW118989   5.183   3.426   4.507
 6030SOL    HW218990   5.043   3.433   4.592
 6031SOL     OW18991   0.638   5.888   5.341
 6031SOL    HW118992   0.723   5.837   5.349
 6031SOL    HW218993   0.629   5.926   5.250
 6032SOL     OW18994   2.898   6.293   3.677
 6032SOL    HW118995   2.812   6.334   3.707
 6032SOL    HW218996   2.879   6.210   3.625
 6033SOL     OW18997   2.520   1.712   2.580
 6033SOL    HW118998   2.539   1.658   2.662
 6033SOL    HW218999   2.588   1.689   2.509
 6034SOL     OW19000   1.391   0.392   6.799
 6034SOL    HW119001   1.351   0.473   6.842
 6034SOL    HW219002   1.402   0.320   6.868
 6035SOL     OW19003   1.617   1.253   2.604
 6035SOL    HW119004   1.665   1.222   2.522
 6035SOL    HW219005   1.656   1.339   2.635
 6036SOL     OW19006   6.120   2.931   0.385
 6036SOL    HW119007   6.100   3.026   0.360
 6036SOL    HW219008   6.037   2.876   0.377
 6037SOL     OW19009   4.211   2.030   0.499
 6037SOL    HW119010   4.270   2.087   0.556
 6037SOL    HW219011   4.118   2.032   0.536
 6038SOL     OW19012   0.618   1.742   6.246
 6038SOL    HW119013   0.582   1.811   6.182
 6038SOL    HW219014   0.569   1.748   6.333
 6039SOL     OW19015   3.211   4.048   3.841
 6039SOL    HW119016   3.172   4.037   3.750
 6039SOL    HW219017   3.262   3.966   3.866
 6040SOL     OW19018   1.350   1.721   6.597
 6040SOL    HW119019   1.310   1.735   6.506
 6040SOL    HW219020   1.434   1.775   6.605
 6041SOL     OW19021   2.947   2.440   6.179
 6041SOL    HW119022   2.901   2.361   6.137
 6041SOL    HW219023   2.950   2.516   6.114
 6042SOL     OW19024   2.891   6.038   3.563
 6042SOL    HW119025   2.960   5.990   3.617
 6042SOL    HW219026   2.869   5.985   3.481
 6043SOL     OW19027   1.675   0.669   3.993
 6043SOL    HW119028   1.649   0.583   3.948
 6043SOL    HW219029   1.625   0.745   3.951
 6044SOL     OW19030   1.729   2.285   1.485
 6044SOL    HW119031   1.638   2.244   1.488
 6044SOL    HW219032   1.759   2.294   1.390
 6045SOL     OW19033   5.236   2.709   3.316
 6045SOL    HW119034   5.146   2.729   3.278
 6045SOL    HW219035   5.226   2.678   3.410
 6046SOL     OW19036   3.521   3.111   2.148
 6046SOL    HW119037   3.621   3.108   2.149
 6046SOL    HW219038   3.489   3.138   2.057
 6047SOL     OW19039   5.634   1.910   0.689
 6047SOL    HW119040   5.726   1.882   0.661
 6047SOL    HW219041   5.585   1.948   0.610
 6048SOL     OW19042   5.390   6.062   4.540
 6048SOL    HW119043   5.421   6.110   4.622
 6048SOL    HW219044   5.373   5.966   4.562
 6049SOL     OW19045   4.777   4.611   5.378
 6049SOL    HW119046   4.773   4.709   5.398
 6049SOL    HW219047   4.819   4.597   5.288
 6050SOL     OW19048   3.274   5.226   1.246
 6050SOL    HW119049   3.254   5.162   1.173
 6050SOL    HW219050   3.189   5.248   1.295
 6051SOL     OW19051   0.952   1.477   3.093
 6051SOL    HW119052   0.861   1.471   3.135
 6051SOL    HW219053   0.961   1.564   3.045
 6052SOL     OW19054   5.566   6.572   0.470
 6052SOL    HW119055   5.612   6.485   0.454
 6052SOL    HW219056   5.556   6.621   0.383
 6053SOL     OW19057   4.520   2.197   6.143
 6053SOL    HW119058   4.571   2.271   6.187
 6053SOL    HW219059   4.487   2.133   6.213
 6054SOL     OW19060   4.333   4.533   0.819
 6054SOL    HW119061   4.345   4.603   0.890
 6054SOL    HW219062   4.419   4.519   0.771
 6055SOL     OW19063   3.425   4.683   0.604
 6055SOL    HW119064   3.424   4.610   0.536
 6055SOL    HW219065   3.514   4.729   0.602
 6056SOL     OW19066   6.065   4.182   5.178
 6056SOL    HW119067   6.119   4.105   5.212
 6056SOL    HW219068   5.972   4.152   5.159
 6057SOL     OW19069   5.041   0.220   3.177
 6057SOL    HW119070   5.139   0.214   3.159
 6057SOL    HW219071   5.026   0.263   3.266
 6058SOL     OW19072   5.714   2.308   6.701
 6058SOL    HW119073   5.655   2.386   6.678
 6058SOL    HW219074   5.743   2.262   6.616
 6059SOL     OW19075   5.060   4.501   5.835
 6059SOL    HW119076   5.065   4.513   5.736
 6059SOL    HW219077   5.066   4.404   5.857
 6060SOL     OW19078   2.992   3.339   6.788
 6060SOL    HW119079   2.904   3.387   6.788
 6060SOL    HW219080   3.049   3.375   6.862
 6061SOL     OW19081   4.589   5.192   0.584
 6061SOL    HW119082   4.662   5.134   0.621
 6061SOL    HW219083   4.589   5.186   0.484
 6062SOL     OW19084   2.442   2.474   0.704
 6062SOL    HW119085   2.378   2.398   0.716
 6062SOL    HW219086   2.518   2.463   0.768
 6063SOL     OW19087   3.692   4.698   5.801
 6063SOL    HW119088   3.605   4.661   5.767
 6063SOL    HW219089   3.751   4.622   5.829
 6064SOL     OW19090   6.836   6.893   0.964
 6064SOL    HW119091   6.930   6.871   0.938
 6064SOL    HW219092   6.819   6.861   1.057
 6065SOL     OW19093   0.947   5.698   2.459
 6065SOL    HW119094   1.034   5.742   2.480
 6065SOL    HW219095   0.931   5.699   2.360
 6066SOL     OW19096   5.031   7.008   3.553
 6066SOL    HW119097   5.102   0.021   3.613
 6066SOL    HW219098   4.943   0.028   3.578
 6067SOL     OW19099   6.089   0.098   5.715
 6067SOL    HW119100   6.145   0.016   5.726
 6067SOL    HW219101   6.070   0.114   5.618
 6068SOL     OW19102   4.833   1.302   5.516
 6068SOL    HW119103   4.812   1.293   5.613
 6068SOL    HW219104   4.751   1.329   5.466
 6069SOL     OW19105   0.219   3.184   5.782
 6069SOL    HW119106   0.243   3.280   5.768
 6069SOL    HW219107   0.237   3.159   5.877
 6070SOL     OW19108   3.576   1.590   1.482
 6070SOL    HW119109   3.604   1.671   1.533
 6070SOL    HW219110   3.504   1.542   1.532
 6071SOL     OW19111   5.740   6.447   4.969
 6071SOL    HW119112   5.777   6.533   5.005
 6071SOL    HW219113   5.690   6.399   5.041
 6072SOL     OW19114   0.400   2.398   1.037
 6072SOL    HW119115   0.365   2.314   1.078
 6072SOL    HW219116   0.498   2.388   1.020
 6073SOL     OW19117   4.735   2.485   0.621
 6073SOL    HW119118   4.663   2.518   0.681
 6073SOL    HW219119   4.711   2.392   0.590
 6074SOL     OW19120   1.249   5.971   2.322
 6074SOL    HW119121   1.319   6.033   2.358
 6074SOL    HW219122   1.198   5.930   2.397
 6075SOL     OW19123   4.781   6.710   6.625
 6075SOL    HW119124   4.687   6.712   6.591
 6075SOL    HW219125   4.782   6.671   6.717
 6076SOL     OW19126   2.625   4.947   4.240
 6076SOL    HW119127   2.548   4.998   4.201
 6076SOL    HW219128   2.646   4.869   4.181
 6077SOL     OW19129   6.253   6.819   1.472
 6077SOL    HW119130   6.291   6.898   1.522
 6077SOL    HW219131   6.283   6.735   1.517
 6078SOL     OW19132   4.946   4.123   0.079
 6078SOL    HW119133   5.004   4.139   0.158
 6078SOL    HW219134   4.864   4.073   0.107
 6079SOL     OW19135   4.191   4.115   6.286
 6079SOL    HW119136   4.227   4.183   6.351
 6079SOL    HW219137   4.257   4.102   6.212
 6080SOL     OW19138   0.998   4.337   0.795
 6080SOL    HW119139   0.976   4.429   0.827
 6080SOL    HW219140   1.076   4.341   0.732
 6081SOL     OW19141   0.536   3.849   4.588
 6081SOL    HW119142   0.575   3.890   4.506
 6081SOL    HW219143   0.610   3.827   4.652
 6082SOL     OW19144   4.356   0.780   1.160
 6082SOL    HW119145   4.397   0.690   1.148
 6082SOL    HW219146   4.416   0.850   1.120
 6083SOL     OW19147   5.131   6.145   6.455
 6083SOL    HW119148   5.181   6.179   6.535
 6083SOL    HW219149   5.177   6.064   6.419
 6084SOL     OW19150   0.338   6.720   2.464
 6084SOL    HW119151   0.390   6.763   2.538
 6084SOL    HW219152   0.240   6.732   2.481
 6085SOL     OW19153   6.924   6.244   0.368
 6085SOL    HW119154   7.020   6.255   0.393
 6085SOL    HW219155   6.903   6.146   0.360
 6086SOL     OW19156   3.887   3.481   6.848
 6086SOL    HW119157   3.870   3.414   6.775
 6086SOL    HW219158   3.945   3.554   6.813
 6087SOL     OW19159   4.931   6.761   0.434
 6087SOL    HW119160   4.905   6.689   0.497
 6087SOL    HW219161   4.919   6.850   0.478
 6088SOL     OW19162   5.171   6.875   4.223
 6088SOL    HW119163   5.245   6.815   4.195
 6088SOL    HW219164   5.149   6.858   4.320
 6089SOL     OW19165   6.404   2.305   2.891
 6089SOL    HW119166   6.403   2.396   2.851
 6089SOL    HW219167   6.348   2.243   2.836
 6090SOL     OW19168   3.577   6.070   3.981
 6090SOL    HW119169   3.622   6.111   4.062
 6090SOL    HW219170   3.647   6.040   3.917
 6091SOL     OW19171   2.310   1.396   1.448
 6091SOL    HW119172   2.280   1.407   1.542
 6091SOL    HW219173   2.409   1.409   1.443
 6092SOL     OW19174   3.994   6.258   2.019
 6092SOL    HW119175   3.979   6.277   2.116
 6092SOL    HW219176   4.067   6.190   2.009
 6093SOL     OW19177   2.405   1.457   2.242
 6093SOL    HW119178   2.491   1.458   2.191
 6093SOL    HW219179   2.369   1.364   2.245
 6094SOL     OW19180   0.449   6.704   4.753
 6094SOL    HW119181   0.438   6.663   4.662
 6094SOL    HW219182   0.387   6.659   4.817
 6095SOL     OW19183   4.207   5.810   6.983
 6095SOL    HW119184   4.232   5.777   6.893
 6095SOL    HW219185   4.123   5.764   7.014
 6096SOL     OW19186   5.767   6.593   2.158
 6096SOL    HW119187   5.697   6.639   2.213
 6096SOL    HW219188   5.732   6.576   2.066
 6097SOL     OW19189   1.633   6.066   2.604
 6097SOL    HW119190   1.644   5.996   2.534
 6097SOL    HW219191   1.542   6.106   2.598
 6098SOL     OW19192   6.829   1.118   4.479
 6098SOL    HW119193   6.821   1.156   4.571
 6098SOL    HW219194   6.873   1.028   4.483
 6099SOL     OW19195   5.203   5.881   6.169
 6099SOL    HW119196   5.206   5.798   6.114
 6099SOL    HW219197   5.239   5.958   6.117
 6100SOL     OW19198   6.850   5.728   4.004
 6100SOL    HW119199   6.792   5.742   4.084
 6100SOL    HW219200   6.906   5.810   3.989
 6101SOL     OW19201   6.414   2.224   1.267
 6101SOL    HW119202   6.351   2.294   1.303
 6101SOL    HW219203   6.362   2.157   1.214
 6102SOL     OW19204   4.300   6.257   2.343
 6102SOL    HW119205   4.304   6.175   2.399
 6102SOL    HW219206   4.283   6.232   2.248
 6103SOL     OW19207   6.292   1.234   1.224
 6103SOL    HW119208   6.273   1.144   1.187
 6103SOL    HW219209   6.357   1.282   1.165
 6104SOL     OW19210   5.951   1.034   4.454
 6104SOL    HW119211   5.927   0.940   4.431
 6104SOL    HW219212   5.969   1.041   4.552
 6105SOL     OW19213   2.601   6.154   5.734
 6105SOL    HW119214   2.677   6.187   5.678
 6105SOL    HW219215   2.559   6.074   5.690
 6106SOL     OW19216   0.478   3.692   6.710
 6106SOL    HW119217   0.421   3.718   6.632
 6106SOL    HW219218   0.419   3.674   6.789
 6107SOL     OW19219   4.621   4.437   4.552
 6107SOL    HW119220   4.624   4.337   4.553
 6107SOL    HW219221   4.599   4.471   4.643
 6108SOL     OW19222   1.646   1.042   1.659
 6108SOL    HW119223   1.573   1.040   1.728
 6108SOL    HW219224   1.687   0.951   1.652
 6109SOL     OW19225   5.348   6.447   3.219
 6109SOL    HW119226   5.410   6.407   3.288
 6109SOL    HW219227   5.357   6.547   3.220
 6110SOL     OW19228   0.904   2.030   5.503
 6110SOL    HW119229   0.971   1.988   5.443
 6110SOL    HW219230   0.842   2.088   5.449
 6111SOL     OW19231   1.551   3.613   1.486
 6111SOL    HW119232   1.583   3.679   1.554
 6111SOL    HW219233   1.466   3.646   1.445
 6112SOL     OW19234   4.131   0.226   2.334
 6112SOL    HW119235   4.082   0.264   2.413
 6112SOL    HW219236   4.229   0.225   2.354
 6113SOL     OW19237   2.473   5.204   0.173
 6113SOL    HW119238   2.410   5.175   0.246
 6113SOL    HW219239   2.492   5.302   0.182
 6114SOL     OW19240   4.422   1.602   1.019
 6114SOL    HW119241   4.392   1.657   0.942
 6114SOL    HW219242   4.516   1.628   1.044
 6115SOL     OW19243   1.104   1.298   5.409
 6115SOL    HW119244   1.204   1.292   5.402
 6115SOL    HW219245   1.077   1.296   5.506
 6116SOL     OW19246   4.067   2.162   4.682
 6116SOL    HW119247   4.005   2.191   4.755
 6116SOL    HW219248   4.018   2.164   4.595
 6117SOL     OW19249   1.729   2.294   2.924
 6117SOL    HW119250   1.687   2.228   2.861
 6117SOL    HW219251   1.740   2.382   2.877
 6118SOL     OW19252   5.823   1.015   0.163
 6118SOL    HW119253   5.857   1.105   0.135
 6118SOL    HW219254   5.896   0.947   0.154
 6119SOL     OW19255   0.421   2.072   0.627
 6119SOL    HW119256   0.364   2.154   0.634
 6119SOL    HW219257   0.406   2.028   0.538
 6120SOL     OW19258   2.274   6.776   5.958
 6120SOL    HW119259   2.360   6.735   5.927
 6120SOL    HW219260   2.294   6.856   6.014
 6121SOL     OW19261   1.177   3.190   5.268
 6121SOL    HW119262   1.123   3.188   5.352
 6121SOL    HW219263   1.262   3.139   5.280
 6122SOL     OW19264   5.176   6.019   5.479
 6122SOL    HW119265   5.264   5.979   5.453
 6122SOL    HW219266   5.170   6.112   5.441
 6123SOL     OW19267   6.182   1.163   5.331
 6123SOL    HW119268   6.148   1.072   5.308
 6123SOL    HW219269   6.216   1.208   5.249
 6124SOL     OW19270   2.302   0.158   4.864
 6124SOL    HW119271   2.230   0.109   4.911
 6124SOL    HW219272   2.371   0.094   4.832
 6125SOL     OW19273   2.027   3.333   6.981
 6125SOL    HW119274   2.071   3.412   6.937
 6125SOL    HW219275   1.928   3.350   6.988
 6126SOL     OW19276   0.142   2.287   4.526
 6126SOL    HW119277   0.173   2.347   4.600
 6126SOL    HW219278   0.044   2.299   4.512
 6127SOL     OW19279   4.237   1.396   2.119
 6127SOL    HW119280   4.251   1.493   2.142
 6127SOL    HW219281   4.138   1.377   2.118
 6128SOL     OW19282   5.930   5.740   0.881
 6128SOL    HW119283   5.928   5.781   0.972
 6128SOL    HW219284   5.883   5.652   0.883
 6129SOL     OW19285   1.990   4.728   3.337
 6129SOL    HW119286   1.924   4.789   3.294
 6129SOL    HW219287   1.945   4.643   3.362
 6130SOL     OW19288   4.988   3.044   1.458
 6130SOL    HW119289   5.053   3.068   1.387
 6130SOL    HW219290   5.011   3.093   1.543
 6131SOL     OW19291   0.421   1.982   2.514
 6131SOL    HW119292   0.327   1.963   2.486
 6131SOL    HW219293   0.477   1.999   2.433
 6132SOL     OW19294   3.134   1.380   0.142
 6132SOL    HW119295   3.134   1.281   0.159
 6132SOL    HW219296   3.055   1.404   0.086
 6133SOL     OW19297   1.608   2.441   3.992
 6133SOL    HW119298   1.628   2.415   4.087
 6133SOL    HW219299   1.644   2.371   3.930
 6134SOL     OW19300   5.304   5.923   6.439
 6134SOL    HW119301   5.390   5.898   6.483
 6134SOL    HW219302   5.312   5.908   6.341
 6135SOL     OW19303   5.390   0.178   0.245
 6135SOL    HW119304   5.406   0.232   0.327
 6135SOL    HW219305   5.326   0.226   0.185
 6136SOL     OW19306   1.009   2.665   1.825
 6136SOL    HW119307   0.912   2.642   1.816
 6136SOL    HW219308   1.064   2.590   1.790
 6137SOL     OW19309   0.221   5.024   3.370
 6137SOL    HW119310   0.243   5.011   3.466
 6137SOL    HW219311   0.192   4.937   3.330
 6138SOL     OW19312   3.585   0.568   2.142
 6138SOL    HW119313   3.572   0.525   2.053
 6138SOL    HW219314   3.682   0.561   2.168
 6139SOL     OW19315   1.029   6.773   5.500
 6139SOL    HW119316   1.081   6.709   5.557
 6139SOL    HW219317   0.991   6.845   5.557
 6140SOL     OW19318   2.304   0.214   2.974
 6140SOL    HW119319   2.209   0.245   2.963
 6140SOL    HW219320   2.318   0.186   3.069
 6141SOL     OW19321   0.026   0.742   5.491
 6141SOL    HW119322   0.042   0.772   5.397
 6141SOL    HW219323   0.041   0.818   5.554
 6142SOL     OW19324   0.502   1.234   0.687
 6142SOL    HW119325   0.530   1.298   0.615
 6142SOL    HW219326   0.431   1.278   0.743
 6143SOL     OW19327   6.383   3.688   6.315
 6143SOL    HW119328   6.360   3.786   6.317
 6143SOL    HW219329   6.335   3.644   6.239
 6144SOL     OW19330   4.541   4.497   2.842
 6144SOL    HW119331   4.603   4.533   2.912
 6144SOL    HW219332   4.450   4.536   2.854
 6145SOL     OW19333   5.111   3.377   4.120
 6145SOL    HW119334   5.029   3.320   4.108
 6145SOL    HW219335   5.192   3.319   4.127
 6146SOL     OW19336   3.941   0.400   4.367
 6146SOL    HW119337   3.886   0.483   4.364
 6146SOL    HW219338   4.027   0.415   4.319
 6147SOL     OW19339   2.130   3.118   4.520
 6147SOL    HW119340   2.060   3.047   4.517
 6147SOL    HW219341   2.177   3.124   4.432
 6148SOL     OW19342   4.155   5.199   0.353
 6148SOL    HW119343   4.189   5.108   0.330
 6148SOL    HW219344   4.100   5.234   0.277
 6149SOL     OW19345   2.908   0.479   2.279
 6149SOL    HW119346   2.899   0.382   2.298
 6149SOL    HW219347   2.853   0.531   2.345
 6150SOL     OW19348   5.967   3.795   6.236
 6150SOL    HW119349   6.021   3.768   6.156
 6150SOL    HW219350   5.921   3.882   6.218
 6151SOL     OW19351   4.961   4.351   4.209
 6151SOL    HW119352   4.986   4.277   4.272
 6151SOL    HW219353   4.889   4.407   4.250
 6152SOL     OW19354   0.977   5.127   4.152
 6152SOL    HW119355   0.969   5.226   4.137
 6152SOL    HW219356   1.039   5.089   4.083
 6153SOL     OW19357   4.980   5.307   0.703
 6153SOL    HW119358   4.930   5.364   0.768
 6153SOL    HW219359   4.957   5.334   0.610
 6154SOL     OW19360   5.290   2.789   2.178
 6154SOL    HW119361   5.277   2.720   2.106
 6154SOL    HW219362   5.386   2.818   2.179
 6155SOL     OW19363   2.459   1.497   3.493
 6155SOL    HW119364   2.542   1.461   3.450
 6155SOL    HW219365   2.484   1.572   3.554
 6156SOL     OW19366   5.457   4.357   1.449
 6156SOL    HW119367   5.488   4.272   1.405
 6156SOL    HW219368   5.438   4.425   1.378
 6157SOL     OW19369   0.792   2.441   3.222
 6157SOL    HW119370   0.799   2.354   3.270
 6157SOL    HW219371   0.725   2.432   3.148
 6158SOL     OW19372   2.797   2.469   5.689
 6158SOL    HW119373   2.766   2.559   5.721
 6158SOL    HW219374   2.874   2.438   5.746
 6159SOL     OW19375   5.713   2.361   0.011
 6159SOL    HW119376   5.799   2.326   0.048
 6159SOL    HW219377   5.682   2.302   6.958
 6160SOL     OW19378   0.270   0.022   6.886
 6160SOL    HW119379   0.277   6.985   6.805
 6160SOL    HW219380   0.176   0.055   6.895
 6161SOL     OW19381   4.940   2.571   6.790
 6161SOL    HW119382   4.970   2.613   6.705
 6161SOL    HW219383   5.012   2.580   6.859
 6162SOL     OW19384   6.323   6.417   2.086
 6162SOL    HW119385   6.267   6.410   2.003
 6162SOL    HW219386   6.290   6.352   2.154
 6163SOL     OW19387   6.035   6.263   2.858
 6163SOL    HW119388   6.018   6.316   2.775
 6163SOL    HW219389   6.082   6.178   2.835
 6164SOL     OW19390   3.894   3.891   4.339
 6164SOL    HW119391   3.904   3.913   4.242
 6164SOL    HW219392   3.979   3.849   4.371
 6165SOL     OW19393   4.032   2.616   0.185
 6165SOL    HW119394   3.949   2.565   0.209
 6165SOL    HW219395   4.007   2.707   0.153
 6166SOL     OW19396   0.598   2.242   0.105
 6166SOL    HW119397   0.688   2.280   0.084
 6166SOL    HW219398   0.527   2.307   0.076
 6167SOL     OW19399   1.599   4.461   3.502
 6167SOL    HW119400   1.569   4.432   3.411
 6167SOL    HW219401   1.602   4.382   3.563
 6168SOL     OW19402   0.096   2.823   4.023
 6168SOL    HW119403   0.121   2.905   3.971
 6168SOL    HW219404   0.092   2.744   3.961
 6169SOL     OW19405   1.041   0.070   6.783
 6169SOL    HW119406   1.088   0.153   6.813
 6169SOL    HW219407   1.104   7.014   6.788
 6170SOL     OW19408   3.967   4.343   0.403
 6170SOL    HW119409   4.024   4.266   0.376
 6170SOL    HW219410   3.994   4.425   0.352
 6171SOL     OW19411   1.021   4.812   2.248
 6171SOL    HW119412   0.953   4.773   2.309
 6171SOL    HW219413   1.039   4.907   2.274
 6172SOL     OW19414   1.190   0.439   3.097
 6172SOL    HW119415   1.153   0.403   3.011
 6172SOL    HW219416   1.116   0.482   3.150
 6173SOL     OW19417   1.201   4.840   3.493
 6173SOL    HW119418   1.270   4.768   3.487
 6173SOL    HW219419   1.191   4.885   3.404
 6174SOL     OW19420   5.648   4.822   2.431
 6174SOL    HW119421   5.632   4.795   2.336
 6174SOL    HW219422   5.737   4.866   2.439
 6175SOL     OW19423   5.494   6.388   2.482
 6175SOL    HW119424   5.556   6.380   2.404
 6175SOL    HW219425   5.414   6.331   2.467
 6176SOL     OW19426   5.678   3.204   6.610
 6176SOL    HW119427   5.663   3.117   6.565
 6176SOL    HW219428   5.602   3.266   6.590
 6177SOL     OW19429   5.344   1.632   1.978
 6177SOL    HW119430   5.330   1.588   2.066
 6177SOL    HW219431   5.359   1.562   1.908
 6178SOL     OW19432   4.939   4.999   0.911
 6178SOL    HW119433   5.001   5.029   0.984
 6178SOL    HW219434   4.882   4.925   0.944
 6179SOL     OW19435   0.410   3.328   4.769
 6179SOL    HW119436   0.469   3.370   4.700
 6179SOL    HW219437   0.449   3.343   4.860
 6180SOL     OW19438   3.717   6.323   1.073
 6180SOL    HW119439   3.776   6.249   1.104
 6180SOL    HW219440   3.769   6.384   1.013
 6181SOL     OW19441   5.043   6.194   0.035
 6181SOL    HW119442   5.012   6.159   0.124
 6181SOL    HW219443   5.142   6.183   0.028
 6182SOL     OW19444   5.669   5.397   4.827
 6182SOL    HW119445   5.765   5.371   4.816
 6182SOL    HW219446   5.615   5.315   4.848
 6183SOL     OW19447   2.318   0.560   2.729
 6183SOL    HW119448   2.320   0.572   2.828
 6183SOL    HW219449   2.407   0.584   2.690
 6184SOL     OW19450   1.460   0.050   6.740
 6184SOL    HW119451   1.373   0.008   6.767
 6184SOL    HW219452   1.498   0.099   6.819
 6185SOL     OW19453   0.318   3.626   6.926
 6185SOL    HW119454   0.220   3.621   6.910
 6185SOL    HW219455   0.337   3.695   6.996
 6186SOL     OW19456   5.704   6.966   3.761
 6186SOL    HW119457   5.735   0.035   3.730
 6186SOL    HW219458   5.646   6.925   3.691
 6187SOL     OW19459   5.110   4.876   3.627
 6187SOL    HW119460   5.036   4.918   3.576
 6187SOL    HW219461   5.104   4.776   3.619
 6188SOL     OW19462   2.686   6.060   1.443
 6188SOL    HW119463   2.690   6.156   1.470
 6188SOL    HW219464   2.731   6.003   1.512
 6189SOL     OW19465   5.318   4.530   2.460
 6189SOL    HW119466   5.233   4.550   2.412
 6189SOL    HW219467   5.363   4.615   2.486
 6190SOL     OW19468   4.828   3.209   6.154
 6190SOL    HW119469   4.844   3.271   6.077
 6190SOL    HW219470   4.907   3.148   6.164
 6191SOL     OW19471   5.421   2.459   0.716
 6191SOL    HW119472   5.351   2.457   0.644
 6191SOL    HW219473   5.452   2.366   0.734
 6192SOL     OW19474   3.096   3.817   0.416
 6192SOL    HW119475   3.150   3.749   0.465
 6192SOL    HW219476   3.054   3.880   0.482
 6193SOL     OW19477   5.044   0.185   2.073
 6193SOL    HW119478   4.985   0.200   1.993
 6193SOL    HW219479   5.140   0.188   2.046
 6194SOL     OW19480   2.408   0.599   1.217
 6194SOL    HW119481   2.366   0.674   1.166
 6194SOL    HW219482   2.487   0.634   1.268
 6195SOL     OW19483   3.956   5.684   6.098
 6195SOL    HW119484   3.893   5.703   6.024
 6195SOL    HW219485   3.980   5.587   6.098
 6196SOL     OW19486   0.870   2.600   6.019
 6196SOL    HW119487   0.830   2.689   5.995
 6196SOL    HW219488   0.901   2.554   5.936
 6197SOL     OW19489   2.628   4.044   0.957
 6197SOL    HW119490   2.585   4.024   1.045
 6197SOL    HW219491   2.716   3.998   0.952
 6198SOL     OW19492   3.440   5.590   3.132
 6198SOL    HW119493   3.498   5.635   3.064
 6198SOL    HW219494   3.496   5.555   3.206
 6199SOL     OW19495   1.092   0.386   1.079
 6199SOL    HW119496   1.079   0.455   1.150
 6199SOL    HW219497   1.134   0.304   1.118
 6200SOL     OW19498   2.598   1.209   6.386
 6200SOL    HW119499   2.542   1.151   6.445
 6200SOL    HW219500   2.547   1.292   6.362
 6201SOL     OW19501   2.100   4.174   6.127
 6201SOL    HW119502   2.035   4.113   6.082
 6201SOL    HW219503   2.177   4.191   6.066
 6202SOL     OW19504   3.847   1.830   1.310
 6202SOL    HW119505   3.945   1.850   1.309
 6202SOL    HW219506   3.819   1.803   1.402
 6203SOL     OW19507   5.020   0.723   3.794
 6203SOL    HW119508   4.956   0.721   3.717
 6203SOL    HW219509   4.996   0.650   3.858
 6204SOL     OW19510   0.919   5.242   5.329
 6204SOL    HW119511   0.862   5.210   5.404
 6204SOL    HW219512   1.016   5.234   5.354
 6205SOL     OW19513   5.577   5.417   6.934
 6205SOL    HW119514   5.609   5.464   7.016
 6205SOL    HW219515   5.568   5.483   6.859
 6206SOL     OW19516   0.149   0.628   1.967
 6206SOL    HW119517   0.231   0.580   1.936
 6206SOL    HW219518   0.123   0.697   1.900
 6207SOL     OW19519   0.798   4.257   5.072
 6207SOL    HW119520   0.886   4.219   5.099
 6207SOL    HW219521   0.755   4.197   5.004
 6208SOL     OW19522   6.568   0.470   5.868
 6208SOL    HW119523   6.520   0.557   5.854
 6208SOL    HW219524   6.605   0.438   5.780
 6209SOL     OW19525   4.689   6.020   0.256
 6209SOL    HW119526   4.684   5.934   0.205
 6209SOL    HW219527   4.654   6.006   0.348
 6210SOL     OW19528   5.296   3.587   2.688
 6210SOL    HW119529   5.211   3.598   2.636
 6210SOL    HW219530   5.327   3.676   2.721
 6211SOL     OW19531   2.719   0.171   6.381
 6211SOL    HW119532   2.783   0.095   6.368
 6211SOL    HW219533   2.710   0.190   6.479
 6212SOL     OW19534   6.673   5.958   3.582
 6212SOL    HW119535   6.659   5.996   3.491
 6212SOL    HW219536   6.634   5.866   3.586
 6213SOL     OW19537   5.726   0.828   6.896
 6213SOL    HW119538   5.791   0.886   6.847
 6213SOL    HW219539   5.774   0.746   6.929
 6214SOL     OW19540   6.185   4.973   2.775
 6214SOL    HW119541   6.087   4.970   2.794
 6214SOL    HW219542   6.221   4.880   2.767
 6215SOL     OW19543   3.012   1.780   0.073
 6215SOL    HW119544   3.002   1.867   0.121
 6215SOL    HW219545   3.106   1.748   0.080
 6216SOL     OW19546   6.465   1.821   1.521
 6216SOL    HW119547   6.473   1.738   1.466
 6216SOL    HW219548   6.460   1.797   1.618
 6217SOL     OW19549   4.772   2.895   1.433
 6217SOL    HW119550   4.853   2.953   1.442
 6217SOL    HW219551   4.704   2.922   1.501
 6218SOL     OW19552   2.778   5.051   4.718
 6218SOL    HW119553   2.732   5.061   4.806
 6218SOL    HW219554   2.791   4.953   4.699
 6219SOL     OW19555   1.612   2.298   4.987
 6219SOL    HW119556   1.528   2.323   5.036
 6219SOL    HW219557   1.599   2.314   4.889
 6220SOL     OW19558   1.558   4.753   6.056
 6220SOL    HW119559   1.498   4.828   6.029
 6220SOL    HW219560   1.510   4.666   6.044
 6221SOL     OW19561   4.612   5.262   4.758
 6221SOL    HW119562   4.513   5.277   4.753
 6221SOL    HW219563   4.639   5.196   4.688
 6222SOL     OW19564   0.150   0.214   1.302
 6222SOL    HW119565   0.219   0.204   1.373
 6222SOL    HW219566   0.192   0.251   1.219
 6223SOL     OW19567   5.750   3.917   4.284
 6223SOL    HW119568   5.651   3.902   4.284
 6223SOL    HW219569   5.781   3.931   4.378
 6224SOL     OW19570   1.839   1.335   5.945
 6224SOL    HW119571   1.933   1.343   5.911
 6224SOL    HW219572   1.775   1.340   5.868
 6225SOL     OW19573   3.472   3.536   1.204
 6225SOL    HW119574   3.473   3.569   1.109
 6225SOL    HW219575   3.564   3.542   1.242
 6226SOL     OW19576   5.766   1.296   3.613
 6226SOL    HW119577   5.739   1.207   3.576
 6226SOL    HW219578   5.740   1.300   3.710
 6227SOL     OW19579   3.102   4.348   6.043
 6227SOL    HW119580   3.039   4.334   6.119
 6227SOL    HW219581   3.190   4.381   6.078
 6228SOL     OW19582   6.589   1.690   2.699
 6228SOL    HW119583   6.638   1.754   2.758
 6228SOL    HW219584   6.579   1.602   2.746
 6229SOL     OW19585   2.648   1.538   2.754
 6229SOL    HW119586   2.748   1.532   2.750
 6229SOL    HW219587   2.609   1.447   2.742
 6230SOL     OW19588   2.631   1.380   4.661
 6230SOL    HW119589   2.539   1.405   4.691
 6230SOL    HW219590   2.628   1.347   4.567
 6231SOL     OW19591   6.823   4.710   0.885
 6231SOL    HW119592   6.873   4.770   0.947
 6231SOL    HW219593   6.742   4.758   0.850
 6232SOL     OW19594   0.232   1.287   0.075
 6232SOL    HW119595   0.190   1.298   7.006
 6232SOL    HW219596   0.161   1.265   0.142
 6233SOL     OW19597   5.292   2.067   6.526
 6233SOL    HW119598   5.244   2.130   6.586
 6233SOL    HW219599   5.381   2.106   6.501
 6234SOL     OW19600   1.475   1.453   4.510
 6234SOL    HW119601   1.419   1.459   4.427
 6234SOL    HW219602   1.509   1.544   4.534
 6235SOL     OW19603   1.911   6.706   3.445
 6235SOL    HW119604   1.910   6.806   3.442
 6235SOL    HW219605   1.934   6.670   3.354
 6236SOL     OW19606   0.297   4.805   1.366
 6236SOL    HW119607   0.327   4.736   1.300
 6236SOL    HW219608   0.197   4.807   1.369
 6237SOL     OW19609   4.756   5.827   0.692
 6237SOL    HW119610   4.689   5.814   0.766
 6237SOL    HW219611   4.758   5.745   0.634
 6238SOL     OW19612   4.587   5.797   2.331
 6238SOL    HW119613   4.594   5.698   2.347
 6238SOL    HW219614   4.661   5.843   2.380
 6239SOL     OW19615   2.855   6.321   2.464
 6239SOL    HW119616   2.939   6.370   2.440
 6239SOL    HW219617   2.783   6.387   2.485
 6240SOL     OW19618   2.614   2.443   1.138
 6240SOL    HW119619   2.648   2.359   1.097
 6240SOL    HW219620   2.525   2.466   1.098
 6241SOL     OW19621   3.065   0.965   2.274
 6241SOL    HW119622   3.108   0.875   2.270
 6241SOL    HW219623   2.972   0.955   2.310
 6242SOL     OW19624   5.102   1.138   3.414
 6242SOL    HW119625   5.085   1.213   3.350
 6242SOL    HW219626   5.017   1.085   3.425
 6243SOL     OW19627   5.887   6.198   3.475
 6243SOL    HW119628   5.824   6.172   3.549
 6243SOL    HW219629   5.838   6.200   3.388
 6244SOL     OW19630   2.708   2.388   2.333
 6244SOL    HW119631   2.756   2.453   2.392
 6244SOL    HW219632   2.610   2.393   2.350
 6245SOL     OW19633   2.693   4.248   1.228
 6245SOL    HW119634   2.665   4.311   1.300
 6245SOL    HW219635   2.658   4.156   1.248
 6246SOL     OW19636   2.788   2.826   6.644
 6246SOL    HW119637   2.767   2.736   6.605
 6246SOL    HW219638   2.832   2.815   6.733
 6247SOL     OW19639   0.355   6.801   4.088
 6247SOL    HW119640   0.390   6.892   4.112
 6247SOL    HW219641   0.304   6.764   4.166
 6248SOL     OW19642   0.926   3.939   1.048
 6248SOL    HW119643   0.838   3.929   1.002
 6248SOL    HW219644   0.998   3.948   0.980
 6249SOL     OW19645   7.012   4.803   0.569
 6249SOL    HW119646   0.082   4.768   0.550
 6249SOL    HW219647   6.995   4.884   0.513
 6250SOL     OW19648   7.008   6.401   0.661
 6250SOL    HW119649   6.967   6.486   0.625
 6250SOL    HW219650   6.958   6.372   0.743
 6251SOL     OW19651   4.253   0.765   1.717
 6251SOL    HW119652   4.340   0.748   1.671
 6251SOL    HW219653   4.195   0.684   1.711
 6252SOL     OW19654   2.384   5.565   4.933
 6252SOL    HW119655   2.408   5.553   5.030
 6252SOL    HW219656   2.446   5.510   4.877
 6253SOL     OW19657   2.271   4.099   1.801
 6253SOL    HW119658   2.201   4.044   1.846
 6253SOL    HW219659   2.228   4.159   1.734
 6254SOL     OW19660   6.054   0.155   6.983
 6254SOL    HW119661   5.994   0.142   6.904
 6254SOL    HW219662   6.091   0.248   6.981
 6255SOL     OW19663   1.421   1.446   1.651
 6255SOL    HW119664   1.407   1.520   1.716
 6255SOL    HW219665   1.344   1.443   1.586
 6256SOL     OW19666   4.039   5.132   2.372
 6256SOL    HW119667   4.135   5.130   2.399
 6256SOL    HW219668   4.008   5.039   2.352
 6257SOL     OW19669   5.345   2.278   1.485
 6257SOL    HW119670   5.370   2.295   1.390
 6257SOL    HW219671   5.271   2.339   1.512
 6258SOL     OW19672   4.358   1.418   3.160
 6258SOL    HW119673   4.435   1.357   3.146
 6258SOL    HW219674   4.274   1.365   3.170
 6259SOL     OW19675   3.142   1.914   1.377
 6259SOL    HW119676   3.217   1.854   1.350
 6259SOL    HW219677   3.083   1.932   1.298
 6260SOL     OW19678   4.166   4.066   0.451
 6260SOL    HW119679   4.258   4.031   0.473
 6260SOL    HW219680   4.120   4.003   0.389
 6261SOL     OW19681   3.993   6.906   6.511
 6261SOL    HW119682   4.045   6.991   6.506
 6261SOL    HW219683   3.910   6.921   6.565
 6262SOL     OW19684   1.777   4.416   0.521
 6262SOL    HW119685   1.735   4.325   0.531
 6262SOL    HW219686   1.850   4.426   0.588
 6263SOL     OW19687   0.390   6.004   6.429
 6263SOL    HW119688   0.428   6.000   6.521
 6263SOL    HW219689   0.422   6.088   6.383
 6264SOL     OW19690   2.678   1.399   1.141
 6264SOL    HW119691   2.733   1.435   1.217
 6264SOL    HW219692   2.724   1.319   1.102
 6265SOL     OW19693   3.503   4.562   1.172
 6265SOL    HW119694   3.579   4.505   1.201
 6265SOL    HW219695   3.472   4.534   1.081
 6266SOL     OW19696   3.749   1.008   3.733
 6266SOL    HW119697   3.754   1.082   3.666
 6266SOL    HW219698   3.666   0.954   3.717
 6267SOL     OW19699   2.932   0.418   0.239
 6267SOL    HW119700   2.955   0.393   0.145
 6267SOL    HW219701   2.858   0.360   0.272
 6268SOL     OW19702   2.935   5.156   3.221
 6268SOL    HW119703   3.027   5.126   3.246
 6268SOL    HW219704   2.870   5.081   3.235
 6269SOL     OW19705   6.049   6.078   2.195
 6269SOL    HW119706   6.139   6.048   2.164
 6269SOL    HW219707   6.059   6.142   2.271
 6270SOL     OW19708   1.796   0.763   5.903
 6270SOL    HW119709   1.878   0.756   5.845
 6270SOL    HW219710   1.733   0.831   5.864
 6271SOL     OW19711   0.152   2.571   5.725
 6271SOL    HW119712   0.212   2.651   5.720
 6271SOL    HW219713   0.102   2.572   5.812
 6272SOL     OW19714   0.944   3.736   4.400
 6272SOL    HW119715   0.985   3.747   4.490
 6272SOL    HW219716   1.012   3.701   4.335
 6273SOL     OW19717   1.741   0.735   1.908
 6273SOL    HW119718   1.641   0.730   1.914
 6273SOL    HW219719   1.775   0.796   1.979
 6274SOL     OW19720   3.054   5.947   6.772
 6274SOL    HW119721   3.014   5.937   6.863
 6274SOL    HW219722   3.150   5.922   6.774
 6275SOL     OW19723   3.043   6.938   5.375
 6275SOL    HW119724   3.065   6.887   5.292
 6275SOL    HW219725   3.033   6.875   5.451
 6276SOL     OW19726   0.910   5.187   3.590
 6276SOL    HW119727   0.824   5.221   3.627
 6276SOL    HW219728   0.900   5.090   3.566
 6277SOL     OW19729   4.892   2.479   2.638
 6277SOL    HW119730   4.960   2.529   2.585
 6277SOL    HW219731   4.825   2.543   2.674
 6278SOL     OW19732   4.732   0.165   3.889
 6278SOL    HW119733   4.749   0.068   3.870
 6278SOL    HW219734   4.695   0.175   3.981
 6279SOL     OW19735   4.107   1.859   0.769
 6279SOL    HW119736   4.069   1.781   0.819
 6279SOL    HW219737   4.038   1.897   0.708
 6280SOL     OW19738   0.481   3.270   5.458
 6280SOL    HW119739   0.493   3.368   5.469
 6280SOL    HW219740   0.556   3.222   5.504
 6281SOL     OW19741   2.513   0.320   5.315
 6281SOL    HW119742   2.470   0.285   5.399
 6281SOL    HW219743   2.527   0.244   5.251
 6282SOL     OW19744   1.217   6.615   5.237
 6282SOL    HW119745   1.237   6.712   5.253
 6282SOL    HW219746   1.132   6.608   5.184
 6283SOL     OW19747   6.996   2.455   5.033
 6283SOL    HW119748   0.061   2.478   5.076
 6283SOL    HW219749   6.993   2.494   4.941
 6284SOL     OW19750   1.698   5.205   5.659
 6284SOL    HW119751   1.710   5.110   5.685
 6284SOL    HW219752   1.667   5.258   5.738
 6285SOL     OW19753   1.327   3.294   4.033
 6285SOL    HW119754   1.227   3.288   4.040
 6285SOL    HW219755   1.368   3.211   4.070
 6286SOL     OW19756   5.889   1.178   3.299
 6286SOL    HW119757   5.918   1.086   3.272
 6286SOL    HW219758   5.821   1.172   3.372
 6287SOL     OW19759   4.675   4.304   1.723
 6287SOL    HW119760   4.724   4.377   1.770
 6287SOL    HW219761   4.594   4.279   1.777
 6288SOL     OW19762   5.322   4.139   1.169
 6288SOL    HW119763   5.267   4.222   1.155
 6288SOL    HW219764   5.262   4.063   1.193
 6289SOL     OW19765   2.146   2.605   3.817
 6289SOL    HW119766   2.069   2.648   3.864
 6289SOL    HW219767   2.120   2.513   3.787
 6290SOL     OW19768   5.071   4.060   4.029
 6290SOL    HW119769   5.000   3.991   4.017
 6290SOL    HW219770   5.067   4.125   3.953
 6291SOL     OW19771   3.630   3.290   3.447
 6291SOL    HW119772   3.535   3.285   3.477
 6291SOL    HW219773   3.657   3.385   3.438
 6292SOL     OW19774   1.108   2.424   3.446
 6292SOL    HW119775   1.198   2.467   3.443
 6292SOL    HW219776   1.037   2.495   3.443
 6293SOL     OW19777   5.254   6.957   0.050
 6293SOL    HW119778   5.215   7.004   0.129
 6293SOL    HW219779   5.349   6.987   0.037
 6294SOL     OW19780   2.984   5.565   2.660
 6294SOL    HW119781   2.955   5.656   2.689
 6294SOL    HW219782   2.965   5.553   2.562
 6295SOL     OW19783   5.685   5.818   5.280
 6295SOL    HW119784   5.675   5.720   5.261
 6295SOL    HW219785   5.709   5.831   5.377
 6296SOL     OW19786   6.454   0.729   3.479
 6296SOL    HW119787   6.488   0.810   3.431
 6296SOL    HW219788   6.376   0.755   3.536
 6297SOL     OW19789   5.282   6.437   5.955
 6297SOL    HW119790   5.374   6.397   5.952
 6297SOL    HW219791   5.214   6.363   5.960
 6298SOL     OW19792   1.208   3.458   5.621
 6298SOL    HW119793   1.216   3.540   5.564
 6298SOL    HW219794   1.299   3.431   5.653
 6299SOL     OW19795   6.179   2.500   6.589
 6299SOL    HW119796   6.248   2.473   6.522
 6299SOL    HW219797   6.197   2.454   6.676
 6300SOL     OW19798   5.082   0.765   4.288
 6300SOL    HW119799   5.029   0.810   4.361
 6300SOL    HW219800   5.162   0.720   4.328
 6301SOL     OW19801   2.837   6.581   0.929
 6301SOL    HW119802   2.869   6.633   1.008
 6301SOL    HW219803   2.803   6.492   0.958
 6302SOL     OW19804   1.601   1.250   3.865
 6302SOL    HW119805   1.687   1.254   3.915
 6302SOL    HW219806   1.620   1.240   3.767
 6303SOL     OW19807   2.210   0.190   5.239
 6303SOL    HW119808   2.256   0.105   5.212
 6303SOL    HW219809   2.271   0.268   5.223
 6304SOL     OW19810   3.484   0.311   0.964
 6304SOL    HW119811   3.434   0.282   0.882
 6304SOL    HW219812   3.577   0.275   0.960
 6305SOL     OW19813   6.453   6.933   1.189
 6305SOL    HW119814   6.356   6.958   1.194
 6305SOL    HW219815   6.495   6.947   1.279
 6306SOL     OW19816   6.912   3.122   3.986
 6306SOL    HW119817   6.996   3.086   3.943
 6306SOL    HW219818   6.882   3.202   3.935
 6307SOL     OW19819   2.782   5.204   5.558
 6307SOL    HW119820   2.847   5.128   5.566
 6307SOL    HW219821   2.816   5.271   5.491
 6308SOL     OW19822   2.205   1.789   5.314
 6308SOL    HW119823   2.170   1.847   5.240
 6308SOL    HW219824   2.211   1.843   5.398
 6309SOL     OW19825   4.724   2.405   3.801
 6309SOL    HW119826   4.744   2.311   3.773
 6309SOL    HW219827   4.627   2.423   3.790
 6310SOL     OW19828   1.605   4.511   4.657
 6310SOL    HW119829   1.576   4.607   4.664
 6310SOL    HW219830   1.703   4.504   4.679
 6311SOL     OW19831   6.852   0.350   4.669
 6311SOL    HW119832   6.951   0.333   4.668
 6311SOL    HW219833   6.822   0.372   4.576
 6312SOL     OW19834   4.631   5.172   6.481
 6312SOL    HW119835   4.718   5.124   6.494
 6312SOL    HW219836   4.648   5.260   6.436
 6313SOL     OW19837   1.664   5.573   3.499
 6313SOL    HW119838   1.734   5.610   3.437
 6313SOL    HW219839   1.629   5.645   3.558
 6314SOL     OW19840   2.816   5.882   2.288
 6314SOL    HW119841   2.894   5.933   2.326
 6314SOL    HW219842   2.736   5.942   2.286
 6315SOL     OW19843   4.441   3.278   0.106
 6315SOL    HW119844   4.479   3.187   0.095
 6315SOL    HW219845   4.450   3.306   0.202
 6316SOL     OW19846   4.889   2.165   5.917
 6316SOL    HW119847   4.857   2.145   5.824
 6316SOL    HW219848   4.825   2.125   5.983
 6317SOL     OW19849   5.005   6.927   2.990
 6317SOL    HW119850   4.948   7.009   2.998
 6317SOL    HW219851   5.059   6.931   2.906
 6318SOL     OW19852   2.547   2.408   6.001
 6318SOL    HW119853   2.633   2.360   5.981
 6318SOL    HW219854   2.566   2.506   6.015
 6319SOL     OW19855   0.515   3.272   3.411
 6319SOL    HW119856   0.456   3.228   3.343
 6319SOL    HW219857   0.584   3.207   3.442
 6320SOL     OW19858   6.163   3.887   3.271
 6320SOL    HW119859   6.237   3.868   3.206
 6320SOL    HW219860   6.083   3.833   3.245
 6321SOL     OW19861   2.792   5.559   0.632
 6321SOL    HW119862   2.809   5.593   0.724
 6321SOL    HW219863   2.815   5.631   0.565
 6322SOL     OW19864   1.333   1.445   6.689
 6322SOL    HW119865   1.309   1.535   6.651
 6322SOL    HW219866   1.253   1.404   6.733
 6323SOL     OW19867   3.410   2.339   1.764
 6323SOL    HW119868   3.507   2.333   1.787
 6323SOL    HW219869   3.362   2.259   1.802
 6324SOL     OW19870   4.453   0.745   5.381
 6324SOL    HW119871   4.445   0.827   5.325
 6324SOL    HW219872   4.422   0.765   5.474
 6325SOL     OW19873   0.502   3.093   2.071
 6325SOL    HW119874   0.589   3.143   2.067
 6325SOL    HW219875   0.446   3.131   2.145
 6326SOL     OW19876   5.464   5.754   1.061
 6326SOL    HW119877   5.549   5.794   1.028
 6326SOL    HW219878   5.394   5.826   1.070
 6327SOL     OW19879   6.005   6.369   5.011
 6327SOL    HW119880   6.036   6.429   4.938
 6327SOL    HW219881   5.905   6.366   5.012
 6328SOL     OW19882   1.466   4.290   0.140
 6328SOL    HW119883   1.550   4.277   0.192
 6328SOL    HW219884   1.460   4.385   0.110
 6329SOL     OW19885   1.594   1.179   3.593
 6329SOL    HW119886   1.512   1.143   3.548
 6329SOL    HW219887   1.675   1.154   3.541
 6330SOL     OW19888   4.693   0.873   0.437
 6330SOL    HW119889   4.602   0.914   0.435
 6330SOL    HW219890   4.762   0.944   0.433
 6331SOL     OW19891   6.352   2.163   0.764
 6331SOL    HW119892   6.452   2.165   0.766
 6331SOL    HW219893   6.315   2.253   0.787
 6332SOL     OW19894   6.180   5.371   1.664
 6332SOL    HW119895   6.112   5.444   1.661
 6332SOL    HW219896   6.186   5.327   1.575
 6333SOL     OW19897   3.389   5.413   3.599
 6333SOL    HW119898   3.487   5.393   3.600
 6333SOL    HW219899   3.355   5.421   3.693
 6334SOL     OW19900   2.675   0.102   2.747
 6334SOL    HW119901   2.600   0.037   2.736
 6334SOL    HW219902   2.651   0.169   2.817
 6335SOL     OW19903   6.054   1.581   6.914
 6335SOL    HW119904   6.006   1.575   6.826
 6335SOL    HW219905   6.124   1.653   6.909
 6336SOL     OW19906   6.950   2.386   4.272
 6336SOL    HW119907   6.871   2.397   4.333
 6336SOL    HW219908   7.008   2.467   4.278
 6337SOL     OW19909   5.234   3.165   5.737
 6337SOL    HW119910   5.202   3.207   5.822
 6337SOL    HW219911   5.213   3.225   5.660
 6338SOL     OW19912   2.339   1.923   2.167
 6338SOL    HW119913   2.302   2.015   2.180
 6338SOL    HW219914   2.283   1.873   2.101
 6339SOL     OW19915   0.526   2.582   3.527
 6339SOL    HW119916   0.510   2.669   3.574
 6339SOL    HW219917   0.623   2.559   3.532
 6340SOL     OW19918   2.657   5.314   4.014
 6340SOL    HW119919   2.700   5.232   3.976
 6340SOL    HW219920   2.590   5.287   4.083
 6341SOL     OW19921   6.938   5.101   3.653
 6341SOL    HW119922   0.012   5.113   3.681
 6341SOL    HW219923   6.879   5.116   3.732
 6342SOL     OW19924   2.392   2.544   2.606
 6342SOL    HW119925   2.323   2.610   2.575
 6342SOL    HW219926   2.467   2.541   2.541
 6343SOL     OW19927   4.229   2.706   6.532
 6343SOL    HW119928   4.223   2.804   6.553
 6343SOL    HW219929   4.325   2.677   6.533
 6344SOL     OW19930   6.891   3.631   5.167
 6344SOL    HW119931   6.835   3.560   5.124
 6344SOL    HW219932   6.938   3.683   5.095
 6345SOL     OW19933   3.876   1.640   2.712
 6345SOL    HW119934   3.821   1.658   2.794
 6345SOL    HW219935   3.941   1.567   2.730
 6346SOL     OW19936   0.198   3.471   3.124
 6346SOL    HW119937   0.147   3.544   3.170
 6346SOL    HW219938   0.293   3.500   3.111
 6347SOL     OW19939   3.206   0.225   1.398
 6347SOL    HW119940   3.156   0.138   1.403
 6347SOL    HW219941   3.304   0.206   1.390
 6348SOL     OW19942   0.702   3.649   5.046
 6348SOL    HW119943   0.700   3.550   5.060
 6348SOL    HW219944   0.685   3.669   4.950
 6349SOL     OW19945   3.165   0.499   1.606
 6349SOL    HW119946   3.230   0.423   1.609
 6349SOL    HW219947   3.203   0.577   1.656
 6350SOL     OW19948   1.648   5.707   2.676
 6350SOL    HW119949   1.738   5.726   2.716
 6350SOL    HW219950   1.642   5.609   2.654
 6351SOL     OW19951   6.700   2.602   2.783
 6351SOL    HW119952   6.652   2.534   2.727
 6351SOL    HW219953   6.751   2.555   2.855
 6352SOL     OW19954   1.308   5.324   3.460
 6352SOL    HW119955   1.234   5.382   3.428
 6352SOL    HW219956   1.320   5.247   3.398
 6353SOL     OW19957   0.475   0.460   6.474
 6353SOL    HW119958   0.562   0.502   6.499
 6353SOL    HW219959   0.464   0.374   6.525
 6354SOL     OW19960   0.974   6.929   2.433
 6354SOL    HW119961   1.067   6.936   2.469
 6354SOL    HW219962   0.934   6.842   2.461
 6355SOL     OW19963   1.801   3.759   4.130
 6355SOL    HW119964   1.801   3.781   4.033
 6355SOL    HW219965   1.812   3.661   4.142
 6356SOL     OW19966   5.128   4.733   1.124
 6356SOL    HW119967   5.153   4.826   1.148
 6356SOL    HW219968   5.157   4.670   1.196
 6357SOL     OW19969   4.238   3.213   0.475
 6357SOL    HW119970   4.240   3.204   0.376
 6357SOL    HW219971   4.219   3.308   0.500
 6358SOL     OW19972   6.773   2.440   4.042
 6358SOL    HW119973   6.714   2.363   4.017
 6358SOL    HW219974   6.834   2.412   4.116
 6359SOL     OW19975   6.788   0.656   5.672
 6359SOL    HW119976   6.837   0.570   5.657
 6359SOL    HW219977   6.838   0.731   5.627
 6360SOL     OW19978   2.596   4.645   4.345
 6360SOL    HW119979   2.527   4.573   4.354
 6360SOL    HW219980   2.638   4.663   4.434
 6361SOL     OW19981   4.438   5.439   6.489
 6361SOL    HW119982   4.397   5.479   6.407
 6361SOL    HW219983   4.367   5.392   6.542
 6362SOL     OW19984   6.167   4.393   6.653
 6362SOL    HW119985   6.141   4.322   6.719
 6362SOL    HW219986   6.209   4.470   6.702
 6363SOL     OW19987   2.008   6.132   4.489
 6363SOL    HW119988   1.953   6.062   4.536
 6363SOL    HW219989   1.993   6.220   4.533
 6364SOL     OW19990   3.092   2.062   5.509
 6364SOL    HW119991   3.002   2.075   5.551
 6364SOL    HW219992   3.149   2.007   5.570
 6365SOL     OW19993   4.849   7.014   3.276
 6365SOL    HW119994   4.900   0.062   3.226
 6365SOL    HW219995   4.885   7.006   3.369
 6366SOL     OW19996   0.944   5.135   5.064
 6366SOL    HW119997   1.007   5.183   5.003
 6366SOL    HW219998   0.917   5.196   5.138
 6367SOL     OW19999   5.026   0.355   3.405
 6367SOL    HW120000   5.093   0.327   3.474
 6367SOL    HW220001   4.933   0.340   3.441
 6368SOL     OW20002   3.059   0.233   4.141
 6368SOL    HW120003   3.141   0.275   4.181
 6368SOL    HW220004   3.016   0.174   4.210
 6369SOL     OW20005   2.741   5.548   4.549
 6369SOL    HW120006   2.836   5.522   4.566
 6369SOL    HW220007   2.687   5.466   4.529
 6370SOL     OW20008   0.129   1.991   1.934
 6370SOL    HW120009   0.100   1.931   1.860
 6370SOL    HW220010   0.183   2.066   1.896
 6371SOL     OW20011   4.685   2.612   2.824
 6371SOL    HW120012   4.605   2.593   2.766
 6371SOL    HW220013   4.657   2.615   2.920
 6372SOL     OW20014   3.036   6.210   2.107
 6372SOL    HW120015   2.961   6.173   2.052
 6372SOL    HW220016   3.020   6.308   2.123
 6373SOL     OW20017   5.306   4.321   5.436
 6373SOL    HW120018   5.208   4.341   5.431
 6373SOL    HW220019   5.328   4.284   5.526
 6374SOL     OW20020   2.982   3.390   3.714
 6374SOL    HW120021   3.037   3.318   3.755
 6374SOL    HW220022   3.034   3.476   3.713
 6375SOL     OW20023   0.938   0.878   3.154
 6375SOL    HW120024   0.843   0.907   3.143
 6375SOL    HW220025   0.979   0.862   3.064
 6376SOL     OW20026   0.370   1.552   4.270
 6376SOL    HW120027   0.287   1.594   4.235
 6376SOL    HW220028   0.351   1.507   4.357
 6377SOL     OW20029   0.036   0.791   5.224
 6377SOL    HW120030   7.020   0.880   5.250
 6377SOL    HW220031   0.001   0.764   5.135
 6378SOL     OW20032   4.835   4.110   3.773
 6378SOL    HW120033   4.858   4.200   3.809
 6378SOL    HW220034   4.757   4.118   3.710
 6379SOL     OW20035   2.391   4.952   3.810
 6379SOL    HW120036   2.298   4.970   3.840
 6379SOL    HW220037   2.392   4.933   3.712
 6380SOL     OW20038   0.588   0.937   5.813
 6380SOL    HW120039   0.494   0.904   5.822
 6380SOL    HW220040   0.647   0.886   5.876
 6381SOL     OW20041   3.220   3.409   2.646
 6381SOL    HW120042   3.218   3.409   2.746
 6381SOL    HW220043   3.132   3.377   2.611
 6382SOL     OW20044   1.252   2.606   6.174
 6382SOL    HW120045   1.351   2.608   6.183
 6382SOL    HW220046   1.224   2.669   6.102
 6383SOL     OW20047   2.180   2.112   4.131
 6383SOL    HW120048   2.111   2.180   4.109
 6383SOL    HW220049   2.190   2.104   4.230
 6384SOL     OW20050   5.928   4.887   2.418
 6384SOL    HW120051   5.988   4.930   2.351
 6384SOL    HW220052   5.955   4.792   2.431
 6385SOL     OW20053   6.171   5.203   3.911
 6385SOL    HW120054   6.254   5.192   3.856
 6385SOL    HW220055   6.130   5.114   3.928
 6386SOL     OW20056   2.648   5.079   1.082
 6386SOL    HW120057   2.606   4.990   1.062
 6386SOL    HW220058   2.596   5.151   1.036
 6387SOL     OW20059   0.345   2.309   5.908
 6387SOL    HW120060   0.261   2.332   5.956
 6387SOL    HW220061   0.423   2.320   5.969
 6388SOL     OW20062   3.486   4.737   1.414
 6388SOL    HW120063   3.456   4.712   1.505
 6388SOL    HW220064   3.463   4.664   1.349
 6389SOL     OW20065   0.889   5.872   2.725
 6389SOL    HW120066   0.865   5.785   2.768
 6389SOL    HW220067   0.916   5.855   2.630
 6390SOL     OW20068   0.206   2.325   3.286
 6390SOL    HW120069   0.230   2.248   3.346
 6390SOL    HW220070   0.236   2.304   3.192
 6391SOL     OW20071   3.674   1.558   0.263
 6391SOL    HW120072   3.575   1.570   0.259
 6391SOL    HW220073   3.718   1.647   0.271
 6392SOL     OW20074   1.936   6.762   3.921
 6392SOL    HW120075   1.889   6.706   3.989
 6392SOL    HW220076   1.880   6.843   3.900
 6393SOL     OW20077   5.462   6.461   0.997
 6393SOL    HW120078   5.426   6.372   1.028
 6393SOL    HW220079   5.555   6.473   1.033
 6394SOL     OW20080   2.595   4.953   0.749
 6394SOL    HW120081   2.585   4.895   0.830
 6394SOL    HW220082   2.682   5.002   0.755
 6395SOL     OW20083   5.848   1.301   1.163
 6395SOL    HW120084   5.886   1.234   1.227
 6395SOL    HW220085   5.749   1.308   1.177
 6396SOL     OW20086   4.898   2.405   6.085
 6396SOL    HW120087   4.835   2.395   6.162
 6396SOL    HW220088   4.856   2.367   6.003
 6397SOL     OW20089   0.196   2.357   6.771
 6397SOL    HW120090   0.267   2.301   6.813
 6397SOL    HW220091   0.197   2.448   6.811
 6398SOL     OW20092   3.167   0.844   1.553
 6398SOL    HW120093   3.257   0.884   1.540
 6398SOL    HW220094   3.131   0.813   1.465
 6399SOL     OW20095   1.872   5.841   0.361
 6399SOL    HW120096   1.965   5.806   0.375
 6399SOL    HW220097   1.844   5.825   0.266
 6400SOL     OW20098   2.312   5.317   3.852
 6400SOL    HW120099   2.354   5.268   3.775
 6400SOL    HW220100   2.355   5.407   3.862
 6401SOL     OW20101   0.102   4.732   3.429
 6401SOL    HW120102   0.185   4.750   3.480
 6401SOL    HW220103   0.080   4.634   3.433
 6402SOL     OW20104   2.816   0.874   3.112
 6402SOL    HW120105   2.850   0.953   3.163
 6402SOL    HW220106   2.881   0.849   3.041
 6403SOL     OW20107   0.924   4.457   0.302
 6403SOL    HW120108   0.846   4.475   0.361
 6403SOL    HW220109   0.934   4.358   0.289
 6404SOL     OW20110   4.182   2.042   3.477
 6404SOL    HW120111   4.197   1.988   3.560
 6404SOL    HW220112   4.084   2.057   3.464
 6405SOL     OW20113   1.954   1.979   2.685
 6405SOL    HW120114   2.043   1.983   2.641
 6405SOL    HW220115   1.930   1.883   2.703
 6406SOL     OW20116   2.085   1.118   3.907
 6406SOL    HW120117   2.073   1.190   3.839
 6406SOL    HW220118   2.164   1.062   3.883
 6407SOL     OW20119   3.082   6.988   4.287
 6407SOL    HW120120   2.990   6.967   4.253
 6407SOL    HW220121   3.147   6.920   4.252
 6408SOL     OW20122   5.751   1.895   6.849
 6408SOL    HW120123   5.721   1.986   6.877
 6408SOL    HW220124   5.802   1.852   6.923
 6409SOL     OW20125   6.243   3.521   2.716
 6409SOL    HW120126   6.165   3.557   2.666
 6409SOL    HW220127   6.236   3.422   2.724
 6410SOL     OW20128   1.611   1.514   0.391
 6410SOL    HW120129   1.616   1.601   0.342
 6410SOL    HW220130   1.645   1.440   0.333
 6411SOL     OW20131   1.047   1.560   3.498
 6411SOL    HW120132   1.123   1.496   3.495
 6411SOL    HW220133   0.963   1.512   3.523
 6412SOL     OW20134   0.080   2.878   5.404
 6412SOL    HW120135   7.007   2.898   5.431
 6412SOL    HW220136   0.133   2.963   5.403
 6413SOL     OW20137   5.999   5.003   1.840
 6413SOL    HW120138   6.079   5.045   1.881
 6413SOL    HW220139   5.935   5.074   1.810
 6414SOL     OW20140   5.883   0.459   0.860
 6414SOL    HW120141   5.795   0.436   0.902
 6414SOL    HW220142   5.871   0.536   0.797
 6415SOL     OW20143   2.434   2.318   2.350
 6415SOL    HW120144   2.382   2.245   2.305
 6415SOL    HW220145   2.431   2.306   2.449
 6416SOL     OW20146   0.661   6.854   6.953
 6416SOL    HW120147   0.633   6.758   6.945
 6416SOL    HW220148   0.760   6.858   6.970
 6417SOL     OW20149   0.697   0.069   3.225
 6417SOL    HW120150   0.682   0.007   3.148
 6417SOL    HW220151   0.609   0.092   3.267
 6418SOL     OW20152   6.025   5.308   2.377
 6418SOL    HW120153   6.045   5.347   2.287
 6418SOL    HW220154   5.986   5.378   2.436
 6419SOL     OW20155   3.422   5.372   1.842
 6419SOL    HW120156   3.406   5.372   1.940
 6419SOL    HW220157   3.495   5.307   1.820
 6420SOL     OW20158   2.937   3.419   6.402
 6420SOL    HW120159   2.874   3.364   6.457
 6420SOL    HW220160   2.939   3.513   6.437
 6421SOL     OW20161   5.582   0.627   1.177
 6421SOL    HW120162   5.647   0.702   1.181
 6421SOL    HW220163   5.596   0.575   1.093
 6422SOL     OW20164   6.396   0.906   2.775
 6422SOL    HW120165   6.447   0.914   2.860
 6422SOL    HW220166   6.312   0.960   2.780
 6423SOL     OW20167   4.697   3.656   0.748
 6423SOL    HW120168   4.755   3.578   0.770
 6423SOL    HW220169   4.602   3.635   0.771
 6424SOL     OW20170   6.366   3.972   6.192
 6424SOL    HW120171   6.372   4.060   6.145
 6424SOL    HW220172   6.315   3.984   6.277
 6425SOL     OW20173   6.860   4.945   2.847
 6425SOL    HW120174   6.815   4.861   2.817
 6425SOL    HW220175   6.825   4.973   2.936
 6426SOL     OW20176   1.214   3.151   3.641
 6426SOL    HW120177   1.302   3.121   3.676
 6426SOL    HW220178   1.142   3.092   3.678
 6427SOL     OW20179   1.281   3.667   6.378
 6427SOL    HW120180   1.332   3.739   6.425
 6427SOL    HW220181   1.319   3.578   6.403
 6428SOL     OW20182   6.654   3.470   2.275
 6428SOL    HW120183   6.635   3.409   2.198
 6428SOL    HW220184   6.711   3.546   2.244
 6429SOL     OW20185   1.848   0.892   4.881
 6429SOL    HW120186   1.822   0.837   4.961
 6429SOL    HW220187   1.770   0.947   4.851
 6430SOL     OW20188   4.636   1.269   1.880
 6430SOL    HW120189   4.686   1.184   1.890
 6430SOL    HW220190   4.548   1.251   1.835
 6431SOL     OW20191   4.993   6.705   3.211
 6431SOL    HW120192   4.934   6.708   3.291
 6431SOL    HW220193   4.941   6.734   3.130
 6432SOL     OW20194   4.101   3.715   0.566
 6432SOL    HW120195   4.066   3.647   0.631
 6432SOL    HW220196   4.181   3.760   0.604
 6433SOL     OW20197   3.243   4.336   1.139
 6433SOL    HW120198   3.201   4.329   1.048
 6433SOL    HW220199   3.245   4.432   1.167
 6434SOL     OW20200   1.016   3.726   0.815
 6434SOL    HW120201   1.009   3.652   0.749
 6434SOL    HW220202   0.960   3.705   0.895
 6435SOL     OW20203   3.875   5.059   0.224
 6435SOL    HW120204   3.786   5.018   0.245
 6435SOL    HW220205   3.862   5.155   0.198
 6436SOL     OW20206   1.857   3.371   3.543
 6436SOL    HW120207   1.934   3.308   3.529
 6436SOL    HW220208   1.799   3.337   3.617
 6437SOL     OW20209   1.134   0.311   6.872
 6437SOL    HW120210   1.059   0.346   6.928
 6437SOL    HW220211   1.185   0.388   6.833
 6438SOL     OW20212   0.712   4.136   4.666
 6438SOL    HW120213   0.790   4.074   4.657
 6438SOL    HW220214   0.665   4.119   4.753
 6439SOL     OW20215   1.208   0.029   0.684
 6439SOL    HW120216   1.167   6.984   0.746
 6439SOL    HW220217   1.206   7.016   0.590
 6440SOL     OW20218   1.549   2.024   1.718
 6440SOL    HW120219   1.617   1.950   1.711
 6440SOL    HW220220   1.593   2.105   1.756
 6441SOL     OW20221   1.866   1.320   2.475
 6441SOL    HW120222   1.832   1.383   2.545
 6441SOL    HW220223   1.944   1.361   2.428
 6442SOL     OW20224   2.440   1.818   4.555
 6442SOL    HW120225   2.406   1.866   4.474
 6442SOL    HW220226   2.480   1.883   4.618
 6443SOL     OW20227   2.869   2.869   0.411
 6443SOL    HW120228   2.832   2.934   0.344
 6443SOL    HW220229   2.802   2.797   0.428
 6444SOL     OW20230   0.342   1.855   2.955
 6444SOL    HW120231   0.372   1.788   3.024
 6444SOL    HW220232   0.249   1.832   2.925
 6445SOL     OW20233   4.276   2.682   5.428
 6445SOL    HW120234   4.241   2.622   5.356
 6445SOL    HW220235   4.256   2.643   5.518
 6446SOL     OW20236   6.975   1.566   6.318
 6446SOL    HW120237   0.039   1.516   6.329
 6446SOL    HW220238   6.986   1.659   6.354
 6447SOL     OW20239   1.887   6.490   2.603
 6447SOL    HW120240   1.942   6.481   2.520
 6447SOL    HW220241   1.806   6.430   2.596
 6448SOL     OW20242   6.297   3.157   2.369
 6448SOL    HW120243   6.393   3.181   2.374
 6448SOL    HW220244   6.279   3.080   2.431
 6449SOL     OW20245   3.624   3.888   1.683
 6449SOL    HW120246   3.574   3.966   1.721
 6449SOL    HW220247   3.720   3.894   1.711
 6450SOL     OW20248   6.253   2.957   1.366
 6450SOL    HW120249   6.340   2.924   1.402
 6450SOL    HW220250   6.224   3.037   1.419
 6451SOL     OW20251   3.182   6.161   5.325
 6451SOL    HW120252   3.272   6.121   5.347
 6451SOL    HW220253   3.175   6.175   5.227
 6452SOL     OW20254   3.514   6.717   4.716
 6452SOL    HW120255   3.471   6.787   4.659
 6452SOL    HW220256   3.576   6.760   4.781
 6453SOL     OW20257   1.290   6.400   0.397
 6453SOL    HW120258   1.324   6.472   0.336
 6453SOL    HW220259   1.207   6.361   0.359
 6454SOL     OW20260   2.743   1.757   4.331
 6454SOL    HW120261   2.758   1.787   4.236
 6454SOL    HW220262   2.709   1.833   4.385
 6455SOL     OW20263   0.404   2.618   4.683
 6455SOL    HW120264   0.406   2.696   4.746
 6455SOL    HW220265   0.338   2.551   4.715
 6456SOL     OW20266   1.108   0.319   3.578
 6456SOL    HW120267   1.062   0.269   3.504
 6456SOL    HW220268   1.062   0.406   3.594
 6457SOL     OW20269   6.005   1.961   1.617
 6457SOL    HW120270   5.961   2.050   1.633
 6457SOL    HW220271   5.953   1.890   1.664
 6458SOL     OW20272   1.757   5.591   3.078
 6458SOL    HW120273   1.658   5.599   3.067
 6458SOL    HW220274   1.799   5.682   3.073
 6459SOL     OW20275   6.148   5.188   0.328
 6459SOL    HW120276   6.168   5.115   0.394
 6459SOL    HW220277   6.087   5.255   0.370
 6460SOL     OW20278   4.560   4.356   6.870
 6460SOL    HW120279   4.485   4.289   6.866
 6460SOL    HW220280   4.571   4.388   6.964
 6461SOL     OW20281   2.708   5.595   5.797
 6461SOL    HW120282   2.688   5.634   5.887
 6461SOL    HW220283   2.798   5.627   5.766
 6462SOL     OW20284   2.304   3.067   5.369
 6462SOL    HW120285   2.391   3.058   5.322
 6462SOL    HW220286   2.271   3.162   5.361
 6463SOL     OW20287   2.198   5.049   6.625
 6463SOL    HW120288   2.132   4.991   6.674
 6463SOL    HW220289   2.290   5.010   6.634
 6464SOL     OW20290   0.293   5.256   3.572
 6464SOL    HW120291   0.359   5.180   3.569
 6464SOL    HW220292   0.337   5.339   3.538
 6465SOL     OW20293   5.935   2.107   4.197
 6465SOL    HW120294   5.992   2.028   4.174
 6465SOL    HW220295   5.889   2.090   4.284
 6466SOL     OW20296   6.972   2.548   4.768
 6466SOL    HW120297   6.957   2.621   4.702
 6466SOL    HW220298   6.903   2.477   4.755
 6467SOL     OW20299   2.358   1.086   6.753
 6467SOL    HW120300   2.424   1.043   6.691
 6467SOL    HW220301   2.343   1.027   6.832
 6468SOL     OW20302   4.504   6.289   1.666
 6468SOL    HW120303   4.549   6.245   1.588
 6468SOL    HW220304   4.410   6.312   1.642
 6469SOL     OW20305   6.241   1.268   5.085
 6469SOL    HW120306   6.296   1.352   5.077
 6469SOL    HW220307   6.301   1.189   5.073
 6470SOL     OW20308   6.635   6.703   5.716
 6470SOL    HW120309   6.664   6.798   5.724
 6470SOL    HW220310   6.661   6.668   5.626
 6471SOL     OW20311   6.607   5.307   6.311
 6471SOL    HW120312   6.680   5.239   6.307
 6471SOL    HW220313   6.537   5.285   6.243
 6472SOL     OW20314   0.698   6.067   1.745
 6472SOL    HW120315   0.780   6.085   1.799
 6472SOL    HW220316   0.658   5.979   1.774
 6473SOL     OW20317   2.322   1.079   6.250
 6473SOL    HW120318   2.231   1.039   6.246
 6473SOL    HW220319   2.386   1.013   6.290
 6474SOL     OW20320   1.194   3.323   6.000
 6474SOL    HW120321   1.153   3.364   5.918
 6474SOL    HW220322   1.137   3.345   6.079
 6475SOL     OW20323   5.437   6.161   3.634
 6475SOL    HW120324   5.373   6.136   3.706
 6475SOL    HW220325   5.402   6.129   3.546
 6476SOL     OW20326   4.387   4.662   3.166
 6476SOL    HW120327   4.337   4.644   3.082
 6476SOL    HW220328   4.467   4.719   3.146
 6477SOL     OW20329   6.102   5.460   6.270
 6477SOL    HW120330   6.071   5.551   6.300
 6477SOL    HW220331   6.098   5.397   6.347
 6478SOL     OW20332   3.981   5.694   2.081
 6478SOL    HW120333   3.913   5.625   2.107
 6478SOL    HW220334   3.997   5.691   1.983
 6479SOL     OW20335   4.249   4.926   2.058
 6479SOL    HW120336   4.311   4.926   2.137
 6479SOL    HW220337   4.203   5.015   2.053
 6480SOL     OW20338   3.870   3.199   5.996
 6480SOL    HW120339   3.829   3.259   5.927
 6480SOL    HW220340   3.798   3.162   6.055
 6481SOL     OW20341   3.509   1.356   1.659
 6481SOL    HW120342   3.577   1.392   1.723
 6481SOL    HW220343   3.465   1.275   1.699
 6482SOL     OW20344   6.690   0.410   6.853
 6482SOL    HW120345   6.597   0.394   6.819
 6482SOL    HW220346   6.756   0.379   6.785
 6483SOL     OW20347   2.190   6.573   3.000
 6483SOL    HW120348   2.163   6.553   2.906
 6483SOL    HW220349   2.287   6.553   3.012
 6484SOL     OW20350   4.406   0.191   2.421
 6484SOL    HW120351   4.460   0.112   2.390
 6484SOL    HW220352   4.410   0.196   2.521
 6485SOL     OW20353   1.703   3.342   3.783
 6485SOL    HW120354   1.775   3.299   3.837
 6485SOL    HW220355   1.614   3.311   3.815
 6486SOL     OW20356   0.646   4.378   4.264
 6486SOL    HW120357   0.705   4.395   4.186
 6486SOL    HW220358   0.689   4.310   4.324
 6487SOL     OW20359   6.541   6.560   4.063
 6487SOL    HW120360   6.621   6.521   4.109
 6487SOL    HW220361   6.473   6.587   4.131
 6488SOL     OW20362   2.981   5.962   5.770
 6488SOL    HW120363   2.935   6.036   5.722
 6488SOL    HW220364   2.926   5.932   5.847
 6489SOL     OW20365   2.203   2.232   6.803
 6489SOL    HW120366   2.155   2.303   6.752
 6489SOL    HW220367   2.275   2.192   6.746
 6490SOL     OW20368   4.098   2.884   0.427
 6490SOL    HW120369   4.057   2.975   0.429
 6490SOL    HW220370   4.032   2.818   0.391
 6491SOL     OW20371   4.585   0.945   6.342
 6491SOL    HW120372   4.608   0.925   6.247
 6491SOL    HW220373   4.624   1.034   6.367
 6492SOL     OW20374   6.392   6.756   6.711
 6492SOL    HW120375   6.446   6.685   6.665
 6492SOL    HW220376   6.453   6.826   6.747
 6493SOL     OW20377   2.002   6.697   6.234
 6493SOL    HW120378   2.084   6.641   6.224
 6493SOL    HW220379   1.929   6.643   6.275
 6494SOL     OW20380   0.639   6.948   3.875
 6494SOL    HW120381   0.644   7.004   3.792
 6494SOL    HW220382   0.730   6.941   3.916
 6495SOL     OW20383   4.747   5.313   2.887
 6495SOL    HW120384   4.690   5.378   2.838
 6495SOL    HW220385   4.721   5.219   2.863
 6496SOL     OW20386   0.011   6.219   1.481
 6496SOL    HW120387   6.980   6.222   1.566
 6496SOL    HW220388   0.092   6.276   1.490
 6497SOL     OW20389   1.999   3.738   1.198
 6497SOL    HW120390   2.096   3.746   1.222
 6497SOL    HW220391   1.954   3.678   1.265
 6498SOL     OW20392   2.139   4.634   4.428
 6498SOL    HW120393   2.101   4.603   4.341
 6498SOL    HW220394   2.076   4.698   4.471
 6499SOL     OW20395   4.880   0.837   4.951
 6499SOL    HW120396   4.815   0.828   5.027
 6499SOL    HW220397   4.899   0.747   4.913
 6500SOL     OW20398   6.434   4.149   3.690
 6500SOL    HW120399   6.344   4.125   3.725
 6500SOL    HW220400   6.455   4.244   3.712
 6501SOL     OW20401   6.416   3.831   1.238
 6501SOL    HW120402   6.490   3.783   1.286
 6501SOL    HW220403   6.368   3.767   1.179
 6502SOL     OW20404   0.617   4.643   3.678
 6502SOL    HW120405   0.631   4.692   3.764
 6502SOL    HW220406   0.594   4.547   3.699
 6503SOL     OW20407   5.516   6.153   3.281
 6503SOL    HW120408   5.501   6.170   3.183
 6503SOL    HW220409   5.513   6.240   3.330
 6504SOL     OW20410   4.572   0.448   6.726
 6504SOL    HW120411   4.562   0.510   6.648
 6504SOL    HW220412   4.617   0.363   6.696
 6505SOL     OW20413   6.000   4.343   0.724
 6505SOL    HW120414   6.083   4.360   0.672
 6505SOL    HW220415   6.008   4.257   0.773
 6506SOL     OW20416   0.737   3.000   1.127
 6506SOL    HW120417   0.813   3.050   1.168
 6506SOL    HW220418   0.650   3.043   1.155
 6507SOL     OW20419   1.629   6.043   1.744
 6507SOL    HW120420   1.605   5.951   1.716
 6507SOL    HW220421   1.547   6.099   1.751
 6508SOL     OW20422   2.083   2.361   3.742
 6508SOL    HW120423   2.030   2.313   3.673
 6508SOL    HW220424   2.180   2.340   3.730
 6509SOL     OW20425   1.512   2.344   4.729
 6509SOL    HW120426   1.443   2.273   4.711
 6509SOL    HW220427   1.466   2.432   4.744
 6510SOL     OW20428   6.886   5.040   6.752
 6510SOL    HW120429   6.949   5.116   6.732
 6510SOL    HW220430   6.927   4.981   6.822
 6511SOL     OW20431   6.528   0.168   5.704
 6511SOL    HW120432   6.485   0.180   5.615
 6511SOL    HW220433   6.467   0.202   5.776
 6512SOL     OW20434   4.502   6.866   2.777
 6512SOL    HW120435   4.539   6.903   2.862
 6512SOL    HW220436   4.414   6.821   2.796
 6513SOL     OW20437   3.396   6.818   4.297
 6513SOL    HW120438   3.437   6.848   4.211
 6513SOL    HW220439   3.464   6.819   4.369
 6514SOL     OW20440   4.808   0.295   4.340
 6514SOL    HW120441   4.850   0.223   4.285
 6514SOL    HW220442   4.764   0.254   4.420
 6515SOL     OW20443   6.740   5.348   4.223
 6515SOL    HW120444   6.810   5.326   4.156
 6515SOL    HW220445   6.783   5.375   4.309
 6516SOL     OW20446   0.491   1.775   6.545
 6516SOL    HW120447   0.504   1.705   6.615
 6516SOL    HW220448   0.528   1.862   6.576
 6517SOL     OW20449   0.554   1.701   0.480
 6517SOL    HW120450   0.474   1.657   0.439
 6517SOL    HW220451   0.560   1.675   0.576
 6518SOL     OW20452   0.709   6.134   1.198
 6518SOL    HW120453   0.770   6.189   1.254
 6518SOL    HW220454   0.762   6.068   1.145
 6519SOL     OW20455   2.150   1.563   4.257
 6519SOL    HW120456   2.189   1.574   4.348
 6519SOL    HW220457   2.071   1.502   4.262
 6520SOL     OW20458   6.071   5.584   2.234
 6520SOL    HW120459   6.150   5.552   2.285
 6520SOL    HW220460   5.989   5.577   2.291
 6521SOL     OW20461   1.077   1.505   4.658
 6521SOL    HW120462   1.117   1.416   4.636
 6521SOL    HW220463   1.136   1.578   4.623
 6522SOL     OW20464   2.406   5.853   0.099
 6522SOL    HW120465   2.463   5.871   0.179
 6522SOL    HW220466   2.326   5.800   0.125
 6523SOL     OW20467   2.365   1.353   6.705
 6523SOL    HW120468   2.352   1.254   6.707
 6523SOL    HW220469   2.387   1.382   6.612
 6524SOL     OW20470   3.652   3.778   3.762
 6524SOL    HW120471   3.625   3.763   3.667
 6524SOL    HW220472   3.734   3.837   3.764
 6525SOL     OW20473   0.779   2.709   3.344
 6525SOL    HW120474   0.769   2.616   3.308
 6525SOL    HW220475   0.873   2.740   3.331
 6526SOL     OW20476   1.019   6.116   4.772
 6526SOL    HW120477   1.035   6.176   4.694
 6526SOL    HW220478   0.921   6.104   4.786
 6527SOL     OW20479   1.275   0.250   5.039
 6527SOL    HW120480   1.231   0.183   4.979
 6527SOL    HW220481   1.371   0.261   5.012
 6528SOL     OW20482   0.597   1.050   4.013
 6528SOL    HW120483   0.596   1.118   3.939
 6528SOL    HW220484   0.651   1.084   4.089
 6529SOL     OW20485   5.837   1.572   2.424
 6529SOL    HW120486   5.835   1.619   2.512
 6529SOL    HW220487   5.927   1.585   2.382
 6530SOL     OW20488   6.833   2.726   0.198
 6530SOL    HW120489   6.836   2.808   0.141
 6530SOL    HW220490   6.829   2.645   0.140
 6531SOL     OW20491   5.724   2.360   4.186
 6531SOL    HW120492   5.761   2.450   4.211
 6531SOL    HW220493   5.659   2.371   4.111
 6532SOL     OW20494   6.472   1.818   6.708
 6532SOL    HW120495   6.450   1.815   6.610
 6532SOL    HW220496   6.464   1.912   6.741
 6533SOL     OW20497   5.045   6.256   0.976
 6533SOL    HW120498   5.081   6.346   1.000
 6533SOL    HW220499   5.004   6.214   1.057
 6534SOL     OW20500   2.451   3.656   1.462
 6534SOL    HW120501   2.473   3.559   1.466
 6534SOL    HW220502   2.386   3.679   1.534
 6535SOL     OW20503   0.413   3.615   5.016
 6535SOL    HW120504   0.410   3.607   4.917
 6535SOL    HW220505   0.508   3.621   5.047
 6536SOL     OW20506   5.671   2.076   0.164
 6536SOL    HW120507   5.622   1.990   0.151
 6536SOL    HW220508   5.662   2.132   0.082
 6537SOL     OW20509   6.941   0.036   6.622
 6537SOL    HW120510   6.848   0.060   6.649
 6537SOL    HW220511   6.975   6.984   6.681
 6538SOL     OW20512   3.305   3.993   0.337
 6538SOL    HW120513   3.361   4.001   0.419
 6538SOL    HW220514   3.249   3.910   0.343
 6539SOL     OW20515   2.344   1.721   6.493
 6539SOL    HW120516   2.324   1.676   6.580
 6539SOL    HW220517   2.370   1.816   6.510
 6540SOL     OW20518   3.802   1.472   4.037
 6540SOL    HW120519   3.872   1.402   4.052
 6540SOL    HW220520   3.720   1.448   4.089
 6541SOL     OW20521   3.236   2.348   5.495
 6541SOL    HW120522   3.300   2.417   5.527
 6541SOL    HW220523   3.215   2.365   5.398
 6542SOL     OW20524   5.686   4.792   3.613
 6542SOL    HW120525   5.586   4.796   3.607
 6542SOL    HW220526   5.725   4.826   3.527
 6543SOL     OW20527   6.220   6.000   6.794
 6543SOL    HW120528   6.183   6.080   6.840
 6543SOL    HW220529   6.154   5.925   6.799
 6544SOL     OW20530   6.953   6.379   4.352
 6544SOL    HW120531   7.002   6.422   4.428
 6544SOL    HW220532   6.945   6.281   4.368
 6545SOL     OW20533   5.662   1.540   5.906
 6545SOL    HW120534   5.750   1.583   5.889
 6545SOL    HW220535   5.662   1.500   5.998
 6546SOL     OW20536   3.771   5.082   6.224
 6546SOL    HW120537   3.743   4.986   6.230
 6546SOL    HW220538   3.693   5.140   6.248
 6547SOL     OW20539   5.047   2.658   6.537
 6547SOL    HW120540   4.990   2.703   6.467
 6547SOL    HW220541   5.099   2.584   6.494
 6548SOL     OW20542   6.511   4.406   5.957
 6548SOL    HW120543   6.606   4.402   5.929
 6548SOL    HW220544   6.492   4.493   6.003
 6549SOL     OW20545   3.609   2.256   1.032
 6549SOL    HW120546   3.674   2.224   1.101
 6549SOL    HW220547   3.516   2.238   1.063
 6550SOL     OW20548   0.604   5.733   3.238
 6550SOL    HW120549   0.591   5.794   3.317
 6550SOL    HW220550   0.686   5.762   3.188
 6551SOL     OW20551   2.017   4.645   1.821
 6551SOL    HW120552   2.106   4.601   1.812
 6551SOL    HW220553   2.029   4.744   1.831
 6552SOL     OW20554   2.578   5.198   5.983
 6552SOL    HW120555   2.544   5.270   5.922
 6552SOL    HW220556   2.663   5.161   5.946
 6553SOL     OW20557   0.280   3.342   1.636
 6553SOL    HW120558   0.322   3.273   1.694
 6553SOL    HW220559   0.183   3.350   1.658
 6554SOL     OW20560   6.734   1.827   6.024
 6554SOL    HW120561   6.638   1.844   5.998
 6554SOL    HW220562   6.792   1.836   5.943
 6555SOL     OW20563   1.716   1.161   2.005
 6555SOL    HW120564   1.777   1.084   2.025
 6555SOL    HW220565   1.721   1.227   2.079
 6556SOL     OW20566   4.616   4.721   5.117
 6556SOL    HW120567   4.706   4.700   5.156
 6556SOL    HW220568   4.626   4.791   5.046
 6557SOL     OW20569   5.896   5.628   0.594
 6557SOL    HW120570   5.876   5.673   0.507
 6557SOL    HW220571   5.913   5.697   0.665
 6558SOL     OW20572   6.530   6.356   0.785
 6558SOL    HW120573   6.599   6.294   0.822
 6558SOL    HW220574   6.516   6.338   0.688
 6559SOL     OW20575   5.103   3.570   1.235
 6559SOL    HW120576   5.086   3.577   1.137
 6559SOL    HW220577   5.083   3.476   1.265
 6560SOL     OW20578   3.665   3.259   1.218
 6560SOL    HW120579   3.721   3.339   1.241
 6560SOL    HW220580   3.719   3.196   1.162
 6561SOL     OW20581   3.941   3.751   2.609
 6561SOL    HW120582   3.964   3.813   2.534
 6561SOL    HW220583   3.999   3.670   2.604
 6562SOL     OW20584   6.601   4.910   5.950
 6562SOL    HW120585   6.553   4.857   5.880
 6562SOL    HW220586   6.672   4.966   5.906
 6563SOL     OW20587   0.568   6.004   0.052
 6563SOL    HW120588   0.500   5.931   0.063
 6563SOL    HW220589   0.523   6.085   0.014
 6564SOL     OW20590   1.025   3.591   1.846
 6564SOL    HW120591   0.926   3.581   1.845
 6564SOL    HW220592   1.054   3.631   1.933
 6565SOL     OW20593   6.230   2.648   4.756
 6565SOL    HW120594   6.246   2.728   4.700
 6565SOL    HW220595   6.289   2.573   4.725
 6566SOL     OW20596   3.457   0.128   1.364
 6566SOL    HW120597   3.543   0.154   1.319
 6566SOL    HW220598   3.478   0.087   1.453
 6567SOL     OW20599   4.917   3.061   0.644
 6567SOL    HW120600   4.868   2.983   0.604
 6567SOL    HW220601   4.850   3.125   0.682
 6568SOL     OW20602   4.448   4.683   1.797
 6568SOL    HW120603   4.502   4.643   1.871
 6568SOL    HW220604   4.376   4.619   1.771
 6569SOL     OW20605   2.313   5.049   0.791
 6569SOL    HW120606   2.400   5.000   0.783
 6569SOL    HW220607   2.270   5.025   0.878
 6570SOL     OW20608   5.013   0.849   2.095
 6570SOL    HW120609   4.935   0.912   2.101
 6570SOL    HW220610   5.079   0.871   2.167
 6571SOL     OW20611   2.155   5.604   3.708
 6571SOL    HW120612   2.252   5.579   3.712
 6571SOL    HW220613   2.122   5.595   3.614
 6572SOL     OW20614   6.833   3.701   5.432
 6572SOL    HW120615   6.849   3.673   5.337
 6572SOL    HW220616   6.834   3.620   5.491
 6573SOL     OW20617   3.569   0.985   2.806
 6573SOL    HW120618   3.644   0.969   2.741
 6573SOL    HW220619   3.561   1.084   2.823
 6574SOL     OW20620   2.534   5.442   2.312
 6574SOL    HW120621   2.614   5.435   2.252
 6574SOL    HW220622   2.545   5.520   2.373
 6575SOL     OW20623   1.082   1.148   1.759
 6575SOL    HW120624   1.179   1.143   1.737
 6575SOL    HW220625   1.054   1.065   1.807
 6576SOL     OW20626   1.608   5.709   0.138
 6576SOL    HW120627   1.688   5.649   0.138
 6576SOL    HW220628   1.527   5.657   0.166
 6577SOL     OW20629   1.141   1.696   3.705
 6577SOL    HW120630   1.137   1.638   3.787
 6577SOL    HW220631   1.116   1.641   3.625
 6578SOL     OW20632   6.003   5.269   3.420
 6578SOL    HW120633   5.937   5.279   3.345
 6578SOL    HW220634   5.977   5.329   3.495
 6579SOL     OW20635   7.002   4.157   3.260
 6579SOL    HW120636   6.924   4.174   3.321
 6579SOL    HW220637   0.008   4.243   3.217
 6580SOL     OW20638   5.562   0.508   0.927
 6580SOL    HW120639   5.482   0.464   0.969
 6580SOL    HW220640   5.532   0.577   0.861
 6581SOL     OW20641   4.638   1.892   6.594
 6581SOL    HW120642   4.616   1.971   6.536
 6581SOL    HW220643   4.580   1.815   6.569
 6582SOL     OW20644   0.736   6.910   3.023
 6582SOL    HW120645   0.753   6.825   2.972
 6582SOL    HW220646   0.668   6.965   2.975
 6583SOL     OW20647   5.263   1.297   6.268
 6583SOL    HW120648   5.362   1.284   6.260
 6583SOL    HW220649   5.217   1.208   6.265
 6584SOL     OW20650   5.513   1.830   6.204
 6584SOL    HW120651   5.461   1.829   6.289
 6584SOL    HW220652   5.605   1.866   6.222
 6585SOL     OW20653   0.547   1.610   6.988
 6585SOL    HW120654   0.602   1.693   6.998
 6585SOL    HW220655   0.481   1.604   0.041
 6586SOL     OW20656   6.431   1.981   6.179
 6586SOL    HW120657   6.509   1.983   6.241
 6586SOL    HW220658   6.372   2.060   6.197
 6587SOL     OW20659   1.865   5.916   4.073
 6587SOL    HW120660   1.879   5.828   4.028
 6587SOL    HW220661   1.924   5.984   4.031
 6588SOL     OW20662   1.541   3.132   0.418
 6588SOL    HW120663   1.534   3.231   0.436
 6588SOL    HW220664   1.638   3.107   0.413
 6589SOL     OW20665   4.810   0.771   5.976
 6589SOL    HW120666   4.761   0.853   6.003
 6589SOL    HW220667   4.822   0.711   6.055
 6590SOL     OW20668   0.194   1.395   4.469
 6590SOL    HW120669   0.095   1.399   4.474
 6590SOL    HW220670   0.223   1.306   4.432
 6591SOL     OW20671   5.377   6.746   2.506
 6591SOL    HW120672   5.353   6.673   2.571
 6591SOL    HW220673   5.407   6.827   2.557
 6592SOL     OW20674   4.277   0.280   4.940
 6592SOL    HW120675   4.206   0.342   4.908
 6592SOL    HW220676   4.329   0.325   5.013
 6593SOL     OW20677   3.184   2.131   4.133
 6593SOL    HW120678   3.243   2.089   4.202
 6593SOL    HW220679   3.145   2.215   4.170
 6594SOL     OW20680   5.109   0.605   6.669
 6594SOL    HW120681   5.201   0.629   6.699
 6594SOL    HW220682   5.046   0.615   6.746
 6595SOL     OW20683   1.576   3.412   0.473
 6595SOL    HW120684   1.532   3.497   0.445
 6595SOL    HW220685   1.670   3.410   0.438
 6596SOL     OW20686   4.509   0.329   5.616
 6596SOL    HW120687   4.495   0.284   5.528
 6596SOL    HW220688   4.588   0.287   5.662
 6597SOL     OW20689   6.715   6.446   4.265
 6597SOL    HW120690   6.813   6.444   4.285
 6597SOL    HW220691   6.664   6.425   4.349
 6598SOL     OW20692   1.559   5.673   5.148
 6598SOL    HW120693   1.620   5.652   5.225
 6598SOL    HW220694   1.464   5.655   5.176
 6599SOL     OW20695   4.044   4.979   6.174
 6599SOL    HW120696   3.945   4.975   6.187
 6599SOL    HW220697   4.089   4.987   6.263
 6600SOL     OW20698   4.768   5.082   4.611
 6600SOL    HW120699   4.765   4.992   4.566
 6600SOL    HW220700   4.823   5.145   4.555
 6601SOL     OW20701   0.245   1.084   0.359
 6601SOL    HW120702   0.197   1.047   0.438
 6601SOL    HW220703   0.202   1.051   0.275
 6602SOL     OW20704   0.568   2.076   1.279
 6602SOL    HW120705   0.608   2.055   1.368
 6602SOL    HW220706   0.634   2.128   1.224
 6603SOL     OW20707   1.856   3.807   2.989
 6603SOL    HW120708   1.837   3.715   2.955
 6603SOL    HW220709   1.923   3.802   3.064
 6604SOL     OW20710   2.873   5.787   2.014
 6604SOL    HW120711   2.885   5.789   2.114
 6604SOL    HW220712   2.900   5.697   1.979
 6605SOL     OW20713   5.219   5.653   0.186
 6605SOL    HW120714   5.282   5.647   0.263
 6605SOL    HW220715   5.252   5.720   0.121
 6606SOL     OW20716   4.829   0.801   2.624
 6606SOL    HW120717   4.898   0.870   2.648
 6606SOL    HW220718   4.777   0.832   2.545
 6607SOL     OW20719   2.106   1.670   2.430
 6607SOL    HW120720   2.046   1.703   2.357
 6607SOL    HW220721   2.190   1.723   2.431
 6608SOL     OW20722   5.362   3.101   3.464
 6608SOL    HW120723   5.424   3.039   3.416
 6608SOL    HW220724   5.415   3.173   3.509
 6609SOL     OW20725   5.877   1.270   0.076
 6609SOL    HW120726   5.912   1.244   7.008
 6609SOL    HW220727   5.953   1.282   0.139
 6610SOL     OW20728   2.128   0.381   0.863
 6610SOL    HW120729   2.183   0.459   0.834
 6610SOL    HW220730   2.147   0.360   0.959
 6611SOL     OW20731   6.384   2.199   3.154
 6611SOL    HW120732   6.343   2.247   3.077
 6611SOL    HW220733   6.413   2.108   3.126
 6612SOL     OW20734   1.639   5.904   6.948
 6612SOL    HW120735   1.653   5.834   7.017
 6612SOL    HW220736   1.631   5.994   6.991
 6613SOL     OW20737   5.371   5.170   2.991
 6613SOL    HW120738   5.406   5.261   3.012
 6613SOL    HW220739   5.362   5.117   3.076
 6614SOL     OW20740   5.113   5.287   6.227
 6614SOL    HW120741   5.151   5.252   6.141
 6614SOL    HW220742   5.019   5.256   6.237
 6615SOL     OW20743   0.476   3.202   5.186
 6615SOL    HW120744   0.497   3.227   5.280
 6615SOL    HW220745   0.476   3.102   5.177
 6616SOL     OW20746   5.284   1.265   5.526
 6616SOL    HW120747   5.203   1.209   5.544
 6616SOL    HW220748   5.265   1.360   5.552
 6617SOL     OW20749   2.618   6.537   4.450
 6617SOL    HW120750   2.520   6.541   4.428
 6617SOL    HW220751   2.669   6.587   4.380
 6618SOL     OW20752   1.005   4.318   2.095
 6618SOL    HW120753   0.942   4.254   2.051
 6618SOL    HW220754   0.978   4.412   2.073
 6619SOL     OW20755   4.322   6.883   3.344
 6619SOL    HW120756   4.266   6.963   3.322
 6619SOL    HW220757   4.418   6.903   3.327
 6620SOL     OW20758   1.446   2.940   6.157
 6620SOL    HW120759   1.383   2.885   6.104
 6620SOL    HW220760   1.500   2.998   6.096
 6621SOL     OW20761   2.687   4.172   0.586
 6621SOL    HW120762   2.731   4.226   0.514
 6621SOL    HW220763   2.712   4.209   0.675
 6622SOL     OW20764   6.655   6.027   0.431
 6622SOL    HW120765   6.676   6.051   0.336
 6622SOL    HW220766   6.584   5.957   0.433
 6623SOL     OW20767   3.291   3.152   3.173
 6623SOL    HW120768   3.283   3.104   3.261
 6623SOL    HW220769   3.363   3.221   3.180
 6624SOL     OW20770   3.714   5.855   4.985
 6624SOL    HW120771   3.743   5.946   4.953
 6624SOL    HW220772   3.615   5.854   4.997
 6625SOL     OW20773   6.343   1.062   6.240
 6625SOL    HW120774   6.421   1.120   6.261
 6625SOL    HW220775   6.334   0.991   6.310
 6626SOL     OW20776   3.260   5.403   3.214
 6626SOL    HW120777   3.320   5.476   3.181
 6626SOL    HW220778   3.260   5.328   3.148
 6627SOL     OW20779   1.880   0.792   6.164
 6627SOL    HW120780   1.845   0.768   6.074
 6627SOL    HW220781   1.811   0.844   6.215
 6628SOL     OW20782   4.341   4.788   2.658
 6628SOL    HW120783   4.439   4.807   2.654
 6628SOL    HW220784   4.305   4.771   2.566
 6629SOL     OW20785   3.041   5.744   1.416
 6629SOL    HW120786   3.051   5.669   1.351
 6629SOL    HW220787   3.109   5.815   1.396
 6630SOL     OW20788   3.737   1.339   0.406
 6630SOL    HW120789   3.831   1.313   0.386
 6630SOL    HW220790   3.714   1.423   0.356
 6631SOL     OW20791   5.241   0.483   2.179
 6631SOL    HW120792   5.270   0.567   2.224
 6631SOL    HW220793   5.171   0.505   2.110
 6632SOL     OW20794   6.889   1.381   0.556
 6632SOL    HW120795   6.880   1.449   0.629
 6632SOL    HW220796   6.835   1.409   0.477
 6633SOL     OW20797   1.613   6.155   0.044
 6633SOL    HW120798   1.568   6.202   6.991
 6633SOL    HW220799   1.545   6.127   0.112
 6634SOL     OW20800   6.410   3.086   6.035
 6634SOL    HW120801   6.366   3.137   6.108
 6634SOL    HW220802   6.471   3.017   6.075
 6635SOL     OW20803   4.344   5.233   3.480
 6635SOL    HW120804   4.260   5.184   3.457
 6635SOL    HW220805   4.328   5.331   3.477
 6636SOL     OW20806   1.260   3.019   4.988
 6636SOL    HW120807   1.270   3.059   4.897
 6636SOL    HW220808   1.296   3.084   5.056
 6637SOL     OW20809   1.659   0.383   0.528
 6637SOL    HW120810   1.668   0.311   0.598
 6637SOL    HW220811   1.750   0.404   0.491
 6638SOL     OW20812   1.629   5.566   5.382
 6638SOL    HW120813   1.540   5.525   5.402
 6638SOL    HW220814   1.701   5.503   5.410
 6639SOL     OW20815   5.740   4.520   6.500
 6639SOL    HW120816   5.814   4.571   6.458
 6639SOL    HW220817   5.778   4.451   6.563
 6640SOL     OW20818   0.261   2.193   3.553
 6640SOL    HW120819   0.273   2.246   3.637
 6640SOL    HW220820   0.244   2.097   3.576
 6641SOL     OW20821   3.083   4.116   6.498
 6641SOL    HW120822   3.064   4.059   6.418
 6641SOL    HW220823   3.080   4.212   6.472
 6642SOL     OW20824   1.567   4.603   6.887
 6642SOL    HW120825   1.591   4.698   6.870
 6642SOL    HW220826   1.651   4.548   6.893
 6643SOL     OW20827   6.116   4.199   6.226
 6643SOL    HW120828   6.066   4.160   6.149
 6643SOL    HW220829   6.077   4.289   6.248
 6644SOL     OW20830   2.826   4.852   1.924
 6644SOL    HW120831   2.833   4.754   1.904
 6644SOL    HW220832   2.900   4.879   1.986
 6645SOL     OW20833   0.016   4.995   6.411
 6645SOL    HW120834   0.002   5.091   6.437
 6645SOL    HW220835   0.081   4.953   6.475
 6646SOL     OW20836   3.680   5.187   4.607
 6646SOL    HW120837   3.750   5.250   4.642
 6646SOL    HW220838   3.608   5.240   4.561
 6647SOL     OW20839   3.607   0.300   2.334
 6647SOL    HW120840   3.692   0.280   2.285
 6647SOL    HW220841   3.559   0.375   2.288
 6648SOL     OW20842   4.150   5.517   2.678
 6648SOL    HW120843   4.139   5.504   2.580
 6648SOL    HW220844   4.246   5.536   2.699
 6649SOL     OW20845   4.928   1.915   6.264
 6649SOL    HW120846   4.894   1.865   6.344
 6649SOL    HW220847   4.857   1.918   6.194
 6650SOL     OW20848   4.156   1.119   3.329
 6650SOL    HW120849   4.145   1.021   3.310
 6650SOL    HW220850   4.247   1.148   3.299
 6651SOL     OW20851   1.248   2.385   0.079
 6651SOL    HW120852   1.229   2.479   0.048
 6651SOL    HW220853   1.345   2.366   0.068
 6652SOL     OW20854   6.828   5.268   1.365
 6652SOL    HW120855   6.923   5.283   1.338
 6652SOL    HW220856   6.822   5.191   1.428
 6653SOL     OW20857   2.999   3.868   2.876
 6653SOL    HW120858   2.975   3.954   2.831
 6653SOL    HW220859   3.007   3.796   2.807
 6654SOL     OW20860   1.906   2.782   1.164
 6654SOL    HW120861   1.870   2.838   1.089
 6654SOL    HW220862   1.985   2.730   1.131
 6655SOL     OW20863   2.992   6.479   2.070
 6655SOL    HW120864   2.938   6.544   2.123
 6655SOL    HW220865   3.067   6.526   2.025
 6656SOL     OW20866   6.953   1.192   1.368
 6656SOL    HW120867   0.015   1.141   1.349
 6656SOL    HW220868   6.943   1.203   1.467
 6657SOL     OW20869   3.770   0.009   6.330
 6657SOL    HW120870   3.742   6.991   6.243
 6657SOL    HW220871   3.833   0.085   6.314
 6658SOL     OW20872   5.846   0.977   5.034
 6658SOL    HW120873   5.841   1.004   4.938
 6658SOL    HW220874   5.753   0.975   5.072
 6659SOL     OW20875   2.953   3.327   0.159
 6659SOL    HW120876   3.003   3.354   0.076
 6659SOL    HW220877   2.975   3.231   0.181
 6660SOL     OW20878   6.745   6.711   2.228
 6660SOL    HW120879   6.685   6.634   2.205
 6660SOL    HW220880   6.801   6.687   2.307
 6661SOL     OW20881   6.283   5.277   3.255
 6661SOL    HW120882   6.360   5.216   3.235
 6661SOL    HW220883   6.208   5.225   3.295
 6662SOL     OW20884   2.308   0.812   0.234
 6662SOL    HW120885   2.355   0.826   0.321
 6662SOL    HW220886   2.326   0.891   0.174
 6663SOL     OW20887   7.005   5.504   2.447
 6663SOL    HW120888   6.944   5.428   2.471
 6663SOL    HW220889   0.077   5.470   2.437
 6664SOL     OW20890   1.264   0.109   2.242
 6664SOL    HW120891   1.359   0.132   2.220
 6664SOL    HW220892   1.229   0.173   2.310
 6665SOL     OW20893   1.481   6.405   2.932
 6665SOL    HW120894   1.385   6.408   2.905
 6665SOL    HW220895   1.530   6.340   2.874
 6666SOL     OW20896   6.060   1.672   5.172
 6666SOL    HW120897   6.020   1.584   5.148
 6666SOL    HW220898   6.131   1.659   5.241
 6667SOL     OW20899   6.194   5.454   4.287
 6667SOL    HW120900   6.233   5.422   4.374
 6667SOL    HW220901   6.110   5.403   4.268
 6668SOL     OW20902   0.588   4.843   2.333
 6668SOL    HW120903   0.539   4.836   2.420
 6668SOL    HW220904   0.619   4.937   2.319
 6669SOL     OW20905   2.657   5.063   3.893
 6669SOL    HW120906   2.601   5.076   3.811
 6669SOL    HW220907   2.723   4.990   3.877
 6670SOL     OW20908   3.730   4.890   6.906
 6670SOL    HW120909   3.700   4.798   6.931
 6670SOL    HW220910   3.695   4.956   6.972
 6671SOL     OW20911   6.535   4.286   6.276
 6671SOL    HW120912   6.470   4.361   6.285
 6671SOL    HW220913   6.512   4.231   6.196
 6672SOL     OW20914   1.378   0.798   5.685
 6672SOL    HW120915   1.324   0.719   5.655
 6672SOL    HW220916   1.336   0.881   5.648
 6673SOL     OW20917   4.945   4.943   2.068
 6673SOL    HW120918   5.020   4.949   2.003
 6673SOL    HW220919   4.866   4.993   2.033
 6674SOL     OW20920   1.007   5.825   5.643
 6674SOL    HW120921   1.093   5.786   5.609
 6674SOL    HW220922   1.011   5.835   5.742
 6675SOL     OW20923   5.677   4.230   0.134
 6675SOL    HW120924   5.646   4.322   0.110
 6675SOL    HW220925   5.600   4.178   0.170
 6676SOL     OW20926   0.929   3.585   5.408
 6676SOL    HW120927   0.877   3.584   5.493
 6676SOL    HW220928   1.027   3.575   5.428
 6677SOL     OW20929   0.361   3.474   0.498
 6677SOL    HW120930   0.388   3.478   0.402
 6677SOL    HW220931   0.263   3.452   0.504
 6678SOL     OW20932   1.367   2.589   6.548
 6678SOL    HW120933   1.288   2.650   6.544
 6678SOL    HW220934   1.354   2.513   6.485
 6679SOL     OW20935   1.436   2.522   5.387
 6679SOL    HW120936   1.427   2.422   5.383
 6679SOL    HW220937   1.434   2.551   5.483
 6680SOL     OW20938   4.163   6.324   6.122
 6680SOL    HW120939   4.246   6.276   6.093
 6680SOL    HW220940   4.092   6.257   6.143
 6681SOL     OW20941   5.523   5.249   0.306
 6681SOL    HW120942   5.452   5.299   0.257
 6681SOL    HW220943   5.486   5.212   0.391
 6682SOL     OW20944   0.251   5.403   2.706
 6682SOL    HW120945   0.311   5.360   2.774
 6682SOL    HW220946   0.158   5.406   2.741
 6683SOL     OW20947   4.915   1.756   5.126
 6683SOL    HW120948   4.862   1.814   5.188
 6683SOL    HW220949   4.975   1.697   5.179
 6684SOL     OW20950   1.929   6.814   2.350
 6684SOL    HW120951   1.927   6.803   2.449
 6684SOL    HW220952   1.878   6.896   2.324
 6685SOL     OW20953   5.465   2.414   6.462
 6685SOL    HW120954   5.409   2.451   6.537
 6685SOL    HW220955   5.555   2.459   6.463
 6686SOL     OW20956   6.140   3.861   4.252
 6686SOL    HW120957   6.174   3.918   4.176
 6686SOL    HW220958   6.051   3.823   4.227
 6687SOL     OW20959   1.301   1.540   0.902
 6687SOL    HW120960   1.303   1.476   0.825
 6687SOL    HW220961   1.236   1.509   0.971
 6688SOL     OW20962   0.467   4.660   2.907
 6688SOL    HW120963   0.477   4.756   2.932
 6688SOL    HW220964   0.372   4.632   2.919
 6689SOL     OW20965   5.399   3.765   0.493
 6689SOL    HW120966   5.388   3.703   0.416
 6689SOL    HW220967   5.406   3.712   0.578
 6690SOL     OW20968   2.191   2.636   1.670
 6690SOL    HW120969   2.207   2.556   1.612
 6690SOL    HW220970   2.114   2.617   1.732
 6691SOL     OW20971   2.419   6.283   1.188
 6691SOL    HW120972   2.432   6.202   1.131
 6691SOL    HW220973   2.333   6.327   1.164
 6692SOL     OW20974   3.028   4.230   5.238
 6692SOL    HW120975   2.950   4.184   5.279
 6692SOL    HW220976   3.005   4.326   5.220
 6693SOL     OW20977   4.316   3.756   5.258
 6693SOL    HW120978   4.313   3.818   5.180
 6693SOL    HW220979   4.399   3.701   5.253
 6694SOL     OW20980   4.870   6.626   0.844
 6694SOL    HW120981   4.866   6.529   0.820
 6694SOL    HW220982   4.960   6.663   0.821
 6695SOL     OW20983   0.787   1.463   6.690
 6695SOL    HW120984   0.858   1.533   6.686
 6695SOL    HW220985   0.814   1.390   6.753
 6696SOL     OW20986   2.084   2.902   1.649
 6696SOL    HW120987   2.143   2.821   1.656
 6696SOL    HW220988   1.995   2.875   1.613
 6697SOL     OW20989   4.374   1.589   2.926
 6697SOL    HW120990   4.344   1.525   2.997
 6697SOL    HW220991   4.332   1.678   2.941
 6698SOL     OW20992   4.192   3.047   6.877
 6698SOL    HW120993   4.287   3.039   6.909
 6698SOL    HW220994   4.158   2.957   6.851
 6699SOL     OW20995   3.645   4.606   6.952
 6699SOL    HW120996   3.619   4.517   6.914
 6699SOL    HW220997   3.706   4.592   0.008
 6700SOL     OW20998   0.547   5.491   1.492
 6700SOL    HW120999   0.448   5.477   1.488
 6700SOL    HW221000   0.591   5.436   1.421
 6701SOL     OW21001   0.296   1.626   0.415
 6701SOL    HW121002   0.263   1.538   0.450
 6701SOL    HW221003   0.218   1.688   0.403
 6702SOL     OW21004   2.708   1.590   0.669
 6702SOL    HW121005   2.762   1.665   0.705
 6702SOL    HW221006   2.659   1.621   0.587
 6703SOL     OW21007   6.938   1.232   6.012
 6703SOL    HW121008   6.868   1.289   6.057
 6703SOL    HW221009   7.020   1.231   6.068
 6704SOL     OW21010   4.739   2.301   2.298
 6704SOL    HW121011   4.736   2.204   2.275
 6704SOL    HW221012   4.668   2.349   2.247
 6705SOL     OW21013   6.544   2.136   1.796
 6705SOL    HW121014   6.461   2.151   1.742
 6705SOL    HW221015   6.581   2.224   1.826
 6706SOL     OW21016   1.054   3.822   7.017
 6706SOL    HW121017   1.013   3.886   6.952
 6706SOL    HW221018   0.985   3.758   0.029
 6707SOL     OW21019   6.310   5.398   4.029
 6707SOL    HW121020   6.287   5.428   4.122
 6707SOL    HW221021   6.245   5.327   4.001
 6708SOL     OW21022   1.792   5.571   2.105
 6708SOL    HW121023   1.838   5.659   2.110
 6708SOL    HW221024   1.747   5.561   2.016
 6709SOL     OW21025   3.563   6.796   2.000
 6709SOL    HW121026   3.587   6.830   1.909
 6709SOL    HW221027   3.566   6.696   2.000
 6710SOL     OW21028   2.846   2.540   6.548
 6710SOL    HW121029   2.928   2.487   6.528
 6710SOL    HW221030   2.817   2.522   6.642
 6711SOL     OW21031   5.031   3.778   6.431
 6711SOL    HW121032   5.111   3.737   6.386
 6711SOL    HW221033   4.956   3.785   6.366
 6712SOL     OW21034   3.686   5.242   0.535
 6712SOL    HW121035   3.747   5.247   0.614
 6712SOL    HW221036   3.741   5.244   0.451
 6713SOL     OW21037   1.914   2.490   1.588
 6713SOL    HW121038   1.832   2.435   1.574
 6713SOL    HW221039   1.972   2.486   1.507
 6714SOL     OW21040   5.093   0.365   4.495
 6714SOL    HW121041   5.082   0.294   4.425
 6714SOL    HW221042   5.191   0.379   4.512
 6715SOL     OW21043   0.543   2.026   0.875
 6715SOL    HW121044   0.637   2.056   0.858
 6715SOL    HW221045   0.484   2.057   0.800
 6716SOL     OW21046   1.660   6.078   1.158
 6716SOL    HW121047   1.726   6.075   1.083
 6716SOL    HW221048   1.693   6.138   1.230
 6717SOL     OW21049   3.761   2.826   0.709
 6717SOL    HW121050   3.744   2.735   0.671
 6717SOL    HW221051   3.819   2.878   0.646
 6718SOL     OW21052   4.003   0.070   0.172
 6718SOL    HW121053   4.087   0.094   0.123
 6718SOL    HW221054   3.944   0.015   0.113
 6719SOL     OW21055   0.223   6.093   5.562
 6719SOL    HW121056   0.156   6.056   5.626
 6719SOL    HW221057   0.303   6.125   5.612
 6720SOL     OW21058   2.116   5.297   1.840
 6720SOL    HW121059   2.215   5.307   1.849
 6720SOL    HW221060   2.073   5.316   1.928
 6721SOL     OW21061   4.958   6.615   4.230
 6721SOL    HW121062   4.915   6.546   4.172
 6721SOL    HW221063   4.964   6.581   4.324
 6722SOL     OW21064   4.296   3.536   6.782
 6722SOL    HW121065   4.341   3.605   6.839
 6722SOL    HW221066   4.273   3.456   6.838
 6723SOL     OW21067   2.479   6.823   3.543
 6723SOL    HW121068   2.382   6.801   3.556
 6723SOL    HW221069   2.505   6.802   3.449
 6724SOL     OW21070   3.131   4.611   5.364
 6724SOL    HW121071   3.106   4.532   5.309
 6724SOL    HW221072   3.062   4.682   5.355
 6725SOL     OW21073   0.869   5.003   2.556
 6725SOL    HW121074   0.801   5.014   2.483
 6725SOL    HW221075   0.839   5.054   2.637
 6726SOL     OW21076   2.112   2.776   4.295
 6726SOL    HW121077   2.158   2.711   4.356
 6726SOL    HW221078   2.044   2.828   4.347
 6727SOL     OW21079   4.401   3.188   5.901
 6727SOL    HW121080   4.343   3.254   5.852
 6727SOL    HW221081   4.386   3.198   6.000
 6728SOL     OW21082   3.884   1.657   4.270
 6728SOL    HW121083   3.915   1.636   4.178
 6728SOL    HW221084   3.886   1.574   4.326
 6729SOL     OW21085   6.467   0.832   2.501
 6729SOL    HW121086   6.489   0.909   2.440
 6729SOL    HW221087   6.458   0.866   2.595
 6730SOL     OW21088   2.715   0.929   0.179
 6730SOL    HW121089   2.769   0.846   0.166
 6730SOL    HW221090   2.775   1.003   0.209
 6731SOL     OW21091   2.618   4.657   1.390
 6731SOL    HW121092   2.603   4.558   1.394
 6731SOL    HW221093   2.586   4.699   1.474
 6732SOL     OW21094   2.477   6.496   0.807
 6732SOL    HW121095   2.506   6.427   0.741
 6732SOL    HW221096   2.464   6.453   0.896
 6733SOL     OW21097   4.657   6.002   5.015
 6733SOL    HW121098   4.712   6.081   5.040
 6733SOL    HW221099   4.645   5.999   4.915
 6734SOL     OW21100   1.500   3.102   5.679
 6734SOL    HW121101   1.465   3.035   5.613
 6734SOL    HW221102   1.600   3.104   5.673
 6735SOL     OW21103   0.024   5.079   5.413
 6735SOL    HW121104   0.116   5.047   5.435
 6735SOL    HW221105   0.013   5.080   5.313
 6736SOL     OW21106   2.352   2.761   1.843
 6736SOL    HW121107   2.293   2.716   1.777
 6736SOL    HW221108   2.377   2.852   1.810
 6737SOL     OW21109   2.652   1.593   2.370
 6737SOL    HW121110   2.701   1.511   2.400
 6737SOL    HW221111   2.684   1.621   2.280
 6738SOL     OW21112   2.602   1.256   2.721
 6738SOL    HW121113   2.542   1.269   2.642
 6738SOL    HW221114   2.695   1.241   2.689
 6739SOL     OW21115   3.450   6.427   5.063
 6739SOL    HW121116   3.454   6.327   5.072
 6739SOL    HW221117   3.510   6.469   5.131
 6740SOL     OW21118   1.739   1.684   3.783
 6740SOL    HW121119   1.788   1.637   3.857
 6740SOL    HW221120   1.656   1.633   3.761
 6741SOL     OW21121   6.669   0.499   6.154
 6741SOL    HW121122   6.626   0.565   6.215
 6741SOL    HW221123   6.640   0.517   6.060
 6742SOL     OW21124   6.314   6.041   5.366
 6742SOL    HW121125   6.393   5.982   5.384
 6742SOL    HW221126   6.345   6.127   5.325
 6743SOL     OW21127   3.850   3.191   1.497
 6743SOL    HW121128   3.902   3.106   1.492
 6743SOL    HW221129   3.753   3.169   1.507
 6744SOL     OW21130   4.812   4.694   5.768
 6744SOL    HW121131   4.751   4.627   5.810
 6744SOL    HW221132   4.902   4.688   5.809
 6745SOL     OW21133   1.592   4.860   3.697
 6745SOL    HW121134   1.642   4.875   3.612
 6745SOL    HW221135   1.603   4.765   3.726
 6746SOL     OW21136   0.379   2.121   1.089
 6746SOL    HW121137   0.418   2.079   1.007
 6746SOL    HW221138   0.428   2.087   1.169
 6747SOL     OW21139   5.224   5.937   4.885
 6747SOL    HW121140   5.126   5.947   4.869
 6747SOL    HW221141   5.249   5.841   4.883
 6748SOL     OW21142   1.185   0.800   2.482
 6748SOL    HW121143   1.249   0.856   2.431
 6748SOL    HW221144   1.116   0.762   2.420
 6749SOL     OW21145   4.602   0.184   7.010
 6749SOL    HW121146   4.606   0.281   0.014
 6749SOL    HW221147   4.694   0.146   7.005
 6750SOL     OW21148   2.527   2.580   4.881
 6750SOL    HW121149   2.508   2.637   4.961
 6750SOL    HW221150   2.625   2.579   4.864
 6751SOL     OW21151   2.609   2.462   4.530
 6751SOL    HW121152   2.679   2.532   4.549
 6751SOL    HW221153   2.649   2.371   4.543
 6752SOL     OW21154   5.905   3.228   0.649
 6752SOL    HW121155   5.852   3.200   0.570
 6752SOL    HW221156   5.974   3.159   0.670
 6753SOL     OW21157   4.362   2.423   6.490
 6753SOL    HW121158   4.353   2.380   6.580
 6753SOL    HW221159   4.285   2.396   6.432
 6754SOL     OW21160   5.983   1.148   6.485
 6754SOL    HW121161   6.057   1.215   6.487
 6754SOL    HW221162   6.003   1.079   6.414
 6755SOL     OW21163   4.902   1.940   3.785
 6755SOL    HW121164   4.976   1.881   3.750
 6755SOL    HW221165   4.832   1.883   3.827
 6756SOL     OW21166   4.884   4.944   4.062
 6756SOL    HW121167   4.894   4.996   4.146
 6756SOL    HW221168   4.962   4.884   4.049
 6757SOL     OW21169   5.848   6.039   1.816
 6757SOL    HW121170   5.783   5.979   1.862
 6757SOL    HW221171   5.840   6.131   1.855
 6758SOL     OW21172   5.483   2.471   2.018
 6758SOL    HW121173   5.534   2.417   1.952
 6758SOL    HW221174   5.471   2.564   1.983
 6759SOL     OW21175   0.605   5.137   3.032
 6759SOL    HW121176   0.591   5.225   3.077
 6759SOL    HW221177   0.525   5.117   2.975
 6760SOL     OW21178   6.671   4.076   3.815
 6760SOL    HW121179   6.585   4.086   3.765
 6760SOL    HW221180   6.731   4.153   3.793
 6761SOL     OW21181   4.680   2.406   5.534
 6761SOL    HW121182   4.708   2.434   5.442
 6761SOL    HW221183   4.653   2.486   5.587
 6762SOL     OW21184   6.012   4.825   3.302
 6762SOL    HW121185   6.102   4.865   3.286
 6762SOL    HW221186   6.019   4.754   3.372
 6763SOL     OW21187   6.367   6.715   5.887
 6763SOL    HW121188   6.284   6.680   5.842
 6763SOL    HW221189   6.447   6.691   5.832
 6764SOL     OW21190   2.844   4.365   6.769
 6764SOL    HW121191   2.791   4.351   6.852
 6764SOL    HW221192   2.785   4.400   6.697
 6765SOL     OW21193   5.862   4.023   2.153
 6765SOL    HW121194   5.942   3.975   2.189
 6765SOL    HW221195   5.889   4.080   2.076
 6766SOL     OW21196   1.994   0.482   5.904
 6766SOL    HW121197   2.091   0.470   5.881
 6766SOL    HW221198   1.939   0.482   5.821
 6767SOL     OW21199   0.007   2.940   6.651
 6767SOL    HW121200   0.001   2.994   6.567
 6767SOL    HW221201   6.986   2.851   6.636
 6768SOL     OW21202   6.570   0.338   3.711
 6768SOL    HW121203   6.543   0.324   3.807
 6768SOL    HW221204   6.522   0.271   3.653
 6769SOL     OW21205   2.242   2.862   5.561
 6769SOL    HW121206   2.287   2.929   5.501
 6769SOL    HW221207   2.203   2.788   5.506
 6770SOL     OW21208   0.336   1.414   3.200
 6770SOL    HW121209   0.276   1.339   3.172
 6770SOL    HW221210   0.285   1.477   3.259
 6771SOL     OW21211   3.932   2.213   3.467
 6771SOL    HW121212   4.002   2.279   3.495
 6771SOL    HW221213   3.947   2.189   3.371
 6772SOL     OW21214   0.159   1.509   1.936
 6772SOL    HW121215   0.118   1.497   1.846
 6772SOL    HW221216   0.148   1.424   1.989
 6773SOL     OW21217   0.942   6.661   1.455
 6773SOL    HW121218   0.985   6.586   1.506
 6773SOL    HW221219   0.942   6.743   1.512
 6774SOL     OW21220   1.981   2.145   5.412
 6774SOL    HW121221   2.056   2.180   5.356
 6774SOL    HW221222   2.016   2.115   5.501
 6775SOL     OW21223   0.825   2.125   4.878
 6775SOL    HW121224   0.884   2.094   4.952
 6775SOL    HW221225   0.845   2.073   4.795
 6776SOL     OW21226   3.274   4.126   2.835
 6776SOL    HW121227   3.191   4.095   2.787
 6776SOL    HW221228   3.335   4.169   2.769
 6777SOL     OW21229   6.145   5.656   6.640
 6777SOL    HW121230   6.069   5.597   6.612
 6777SOL    HW221231   6.148   5.737   6.580
 6778SOL     OW21232   6.118   4.724   3.010
 6778SOL    HW121233   6.078   4.815   3.024
 6778SOL    HW221234   6.145   4.714   2.914
 6779SOL     OW21235   5.239   3.482   5.695
 6779SOL    HW121236   5.264   3.431   5.777
 6779SOL    HW221237   5.146   3.459   5.668
 6780SOL     OW21238   2.793   2.282   3.090
 6780SOL    HW121239   2.823   2.300   3.184
 6780SOL    HW221240   2.868   2.241   3.038
 6781SOL     OW21241   0.185   1.547   3.396
 6781SOL    HW121242   0.128   1.516   3.472
 6781SOL    HW221243   0.131   1.606   3.336
 6782SOL     OW21244   6.822   1.159   2.433
 6782SOL    HW121245   6.919   1.148   2.456
 6782SOL    HW221246   6.810   1.152   2.334
 6783SOL     OW21247   1.698   4.900   5.384
 6783SOL    HW121248   1.731   4.937   5.471
 6783SOL    HW221249   1.730   4.957   5.309
 6784SOL     OW21250   2.311   3.663   1.695
 6784SOL    HW121251   2.217   3.696   1.691
 6784SOL    HW221252   2.313   3.572   1.737
 6785SOL     OW21253   5.385   6.135   5.001
 6785SOL    HW121254   5.432   6.103   5.083
 6785SOL    HW221255   5.336   6.058   4.959
 6786SOL     OW21256   5.758   1.893   6.305
 6786SOL    HW121257   5.783   1.813   6.359
 6786SOL    HW221258   5.828   1.964   6.316
 6787SOL     OW21259   3.781   2.215   6.284
 6787SOL    HW121260   3.689   2.231   6.320
 6787SOL    HW221261   3.849   2.245   6.350
 6788SOL     OW21262   6.726   4.067   2.828
 6788SOL    HW121263   6.675   4.032   2.750
 6788SOL    HW221264   6.810   4.111   2.796
 6789SOL     OW21265   5.846   4.127   3.497
 6789SOL    HW121266   5.802   4.057   3.440
 6789SOL    HW221267   5.809   4.123   3.589
 6790SOL     OW21268   0.597   5.102   6.143
 6790SOL    HW121269   0.634   5.115   6.235
 6790SOL    HW221270   0.611   5.007   6.114
 6791SOL     OW21271   3.500   0.721   3.292
 6791SOL    HW121272   3.505   0.731   3.193
 6791SOL    HW221273   3.424   0.775   3.328
 6792SOL     OW21274   3.822   0.176   5.005
 6792SOL    HW121275   3.827   0.271   4.973
 6792SOL    HW221276   3.727   0.154   5.028
 6793SOL     OW21277   1.758   3.774   6.909
 6793SOL    HW121278   1.841   3.798   6.960
 6793SOL    HW221279   1.695   3.852   6.909
 6794SOL     OW21280   4.803   1.911   5.307
 6794SOL    HW121281   4.882   1.885   5.361
 6794SOL    HW221282   4.724   1.926   5.368
 6795SOL     OW21283   0.893   0.496   0.946
 6795SOL    HW121284   0.846   0.441   0.878
 6795SOL    HW221285   0.942   0.436   1.010
 6796SOL     OW21286   5.910   1.173   2.440
 6796SOL    HW121287   5.882   1.086   2.399
 6796SOL    HW221288   5.983   1.214   2.385
 6797SOL     OW21289   1.138   2.409   1.327
 6797SOL    HW121290   1.082   2.336   1.287
 6797SOL    HW221291   1.196   2.370   1.399
 6798SOL     OW21292   5.692   6.936   1.428
 6798SOL    HW121293   5.710   6.856   1.485
 6798SOL    HW221294   5.671   6.907   1.335
 6799SOL     OW21295   6.522   0.937   3.252
 6799SOL    HW121296   6.567   0.848   3.248
 6799SOL    HW221297   6.559   0.990   3.328
 6800SOL     OW21298   6.806   2.064   1.317
 6800SOL    HW121299   6.904   2.078   1.328
 6800SOL    HW221300   6.767   2.034   1.404
 6801SOL     OW21301   1.156   5.979   6.075
 6801SOL    HW121302   1.105   6.033   6.142
 6801SOL    HW221303   1.171   6.033   5.993
 6802SOL     OW21304   3.449   5.000   1.754
 6802SOL    HW121305   3.395   5.020   1.836
 6802SOL    HW221306   3.472   4.903   1.752
 6803SOL     OW21307   5.440   4.879   5.731
 6803SOL    HW121308   5.535   4.904   5.707
 6803SOL    HW221309   5.437   4.850   5.827
 6804SOL     OW21310   3.566   4.904   3.032
 6804SOL    HW121311   3.615   4.932   3.115
 6804SOL    HW221312   3.470   4.889   3.053
 6805SOL     OW21313   0.069   4.421   4.883
 6805SOL    HW121314   0.039   4.409   4.789
 6805SOL    HW221315   0.161   4.383   4.895
 6806SOL     OW21316   6.853   1.828   2.177
 6806SOL    HW121317   6.947   1.800   2.197
 6806SOL    HW221318   6.795   1.808   2.256
 6807SOL     OW21319   3.060   3.963   1.934
 6807SOL    HW121320   2.998   3.891   1.905
 6807SOL    HW221321   3.093   3.944   2.026
 6808SOL     OW21322   3.297   1.411   4.345
 6808SOL    HW121323   3.214   1.419   4.401
 6808SOL    HW221324   3.376   1.400   4.404
 6809SOL     OW21325   5.525   3.264   0.569
 6809SOL    HW121326   5.531   3.306   0.659
 6809SOL    HW221327   5.465   3.318   0.511
 6810SOL     OW21328   2.491   0.711   4.395
 6810SOL    HW121329   2.536   0.719   4.306
 6810SOL    HW221330   2.415   0.646   4.388
 6811SOL     OW21331   6.501   1.527   0.497
 6811SOL    HW121332   6.538   1.522   0.404
 6811SOL    HW221333   6.565   1.482   0.560
 6812SOL     OW21334   3.776   4.368   5.272
 6812SOL    HW121335   3.681   4.389   5.297
 6812SOL    HW221336   3.777   4.292   5.206
 6813SOL     OW21337   6.304   3.323   1.761
 6813SOL    HW121338   6.249   3.367   1.691
 6813SOL    HW221339   6.358   3.392   1.809
 6814SOL     OW21340   5.138   1.266   6.670
 6814SOL    HW121341   5.171   1.339   6.610
 6814SOL    HW221342   5.211   1.242   6.735
 6815SOL     OW21343   1.586   4.964   5.824
 6815SOL    HW121344   1.547   4.874   5.805
 6815SOL    HW221345   1.527   5.013   5.888
 6816SOL     OW21346   0.326   0.934   3.245
 6816SOL    HW121347   0.270   0.855   3.221
 6816SOL    HW221348   0.378   0.963   3.165
 6817SOL     OW21349   4.145   2.276   1.901
 6817SOL    HW121350   4.055   2.237   1.920
 6817SOL    HW221351   4.133   2.368   1.863
 6818SOL     OW21352   1.786   6.873   5.464
 6818SOL    HW121353   1.849   6.899   5.537
 6818SOL    HW221354   1.788   6.943   5.392
 6819SOL     OW21355   4.912   4.725   1.687
 6819SOL    HW121356   4.898   4.644   1.745
 6819SOL    HW221357   4.830   4.782   1.688
 6820SOL     OW21358   2.908   5.522   1.952
 6820SOL    HW121359   2.879   5.434   1.914
 6820SOL    HW221360   2.958   5.573   1.882
 6821SOL     OW21361   3.916   2.599   5.401
 6821SOL    HW121362   3.978   2.569   5.329
 6821SOL    HW221363   3.825   2.561   5.385
 6822SOL     OW21364   6.416   2.686   6.301
 6822SOL    HW121365   6.451   2.679   6.207
 6822SOL    HW221366   6.486   2.729   6.358
 6823SOL     OW21367   5.723   2.317   5.258
 6823SOL    HW121368   5.640   2.264   5.237
 6823SOL    HW221369   5.726   2.398   5.199
 6824SOL     OW21370   1.196   0.265   5.961
 6824SOL    HW121371   1.287   0.258   5.920
 6824SOL    HW221372   1.204   0.306   6.052
 6825SOL     OW21373   5.499   4.758   1.008
 6825SOL    HW121374   5.486   4.771   1.106
 6825SOL    HW221375   5.576   4.697   0.992
 6826SOL     OW21376   6.455   4.795   4.064
 6826SOL    HW121377   6.372   4.750   4.096
 6826SOL    HW221378   6.461   4.788   3.965
 6827SOL     OW21379   4.284   6.001   4.651
 6827SOL    HW121380   4.192   5.962   4.640
 6827SOL    HW221381   4.340   5.939   4.705
 6828SOL     OW21382   2.705   2.392   2.630
 6828SOL    HW121383   2.782   2.329   2.636
 6828SOL    HW221384   2.683   2.427   2.722
 6829SOL     OW21385   3.785   6.655   3.776
 6829SOL    HW121386   3.701   6.602   3.772
 6829SOL    HW221387   3.864   6.594   3.785
 6830SOL     OW21388   4.827   6.259   3.249
 6830SOL    HW121389   4.780   6.247   3.162
 6830SOL    HW221390   4.915   6.304   3.234
 6831SOL     OW21391   1.783   1.836   5.979
 6831SOL    HW121392   1.823   1.756   6.022
 6831SOL    HW221393   1.726   1.885   6.046
 6832SOL     OW21394   3.210   2.460   0.284
 6832SOL    HW121395   3.148   2.406   0.228
 6832SOL    HW221396   3.272   2.512   0.226
 6833SOL     OW21397   3.429   5.122   5.897
 6833SOL    HW121398   3.421   5.023   5.909
 6833SOL    HW221399   3.505   5.143   5.836
 6834SOL     OW21400   5.743   6.553   0.934
 6834SOL    HW121401   5.806   6.503   0.875
 6834SOL    HW221402   5.684   6.611   0.878
 6835SOL     OW21403   2.826   1.672   5.181
 6835SOL    HW121404   2.923   1.693   5.166
 6835SOL    HW221405   2.807   1.673   5.279
 6836SOL     OW21406   2.434   4.632   6.183
 6836SOL    HW121407   2.456   4.536   6.202
 6836SOL    HW221408   2.506   4.691   6.220
 6837SOL     OW21409   0.452   0.567   1.486
 6837SOL    HW121410   0.491   0.592   1.398
 6837SOL    HW221411   0.478   0.473   1.509
 6838SOL     OW21412   2.992   3.758   5.089
 6838SOL    HW121413   2.907   3.782   5.135
 6838SOL    HW221414   2.974   3.739   4.993
 6839SOL     OW21415   5.955   3.196   4.805
 6839SOL    HW121416   5.963   3.275   4.745
 6839SOL    HW221417   5.914   3.120   4.755
 6840SOL     OW21418   2.446   6.761   4.933
 6840SOL    HW121419   2.459   6.757   4.834
 6840SOL    HW221420   2.350   6.781   4.954
 6841SOL     OW21421   4.390   6.277   1.109
 6841SOL    HW121422   4.429   6.370   1.108
 6841SOL    HW221423   4.464   6.210   1.115
 6842SOL     OW21424   0.614   3.527   5.479
 6842SOL    HW121425   0.535   3.587   5.491
 6842SOL    HW221426   0.676   3.537   5.557
 6843SOL     OW21427   3.816   2.120   2.284
 6843SOL    HW121428   3.769   2.163   2.207
 6843SOL    HW221429   3.796   2.170   2.368
 6844SOL     OW21430   4.199   5.052   3.988
 6844SOL    HW121431   4.158   5.101   3.911
 6844SOL    HW221432   4.133   4.987   4.026
 6845SOL     OW21433   4.526   4.943   1.535
 6845SOL    HW121434   4.433   4.919   1.561
 6845SOL    HW221435   4.565   4.872   1.477
 6846SOL     OW21436   3.038   3.198   3.062
 6846SOL    HW121437   2.980   3.252   3.123
 6846SOL    HW221438   3.131   3.196   3.097
 6847SOL     OW21439   5.704   3.440   1.986
 6847SOL    HW121440   5.765   3.486   1.922
 6847SOL    HW221441   5.609   3.459   1.961
 6848SOL     OW21442   0.801   6.523   3.111
 6848SOL    HW121443   0.761   6.434   3.135
 6848SOL    HW221444   0.769   6.550   3.020
 6849SOL     OW21445   3.404   6.689   3.909
 6849SOL    HW121446   3.367   6.600   3.935
 6849SOL    HW221447   3.443   6.683   3.817
 6850SOL     OW21448   5.496   2.658   2.506
 6850SOL    HW121449   5.440   2.736   2.477
 6850SOL    HW221450   5.504   2.594   2.430
 6851SOL     OW21451   1.155   5.267   5.470
 6851SOL    HW121452   1.169   5.171   5.496
 6851SOL    HW221453   1.239   5.318   5.487
 6852SOL     OW21454   6.695   4.671   2.448
 6852SOL    HW121455   6.754   4.600   2.410
 6852SOL    HW221456   6.599   4.641   2.441
 6853SOL     OW21457   1.022   3.454   5.811
 6853SOL    HW121458   0.967   3.371   5.803
 6853SOL    HW221459   1.092   3.455   5.739
 6854SOL     OW21460   6.165   1.756   6.298
 6854SOL    HW121461   6.256   1.725   6.326
 6854SOL    HW221462   6.174   1.828   6.229
 6855SOL     OW21463   3.048   6.191   1.064
 6855SOL    HW121464   3.098   6.160   0.984
 6855SOL    HW221465   2.995   6.273   1.041
 6856SOL     OW21466   6.481   3.368   5.078
 6856SOL    HW121467   6.393   3.362   5.124
 6856SOL    HW221468   6.505   3.278   5.041
 6857SOL     OW21469   4.103   1.597   5.519
 6857SOL    HW121470   4.127   1.679   5.570
 6857SOL    HW221471   4.080   1.622   5.424
 6858SOL     OW21472   3.938   3.335   4.655
 6858SOL    HW121473   3.900   3.426   4.643
 6858SOL    HW221474   4.009   3.337   4.725
 6859SOL     OW21475   3.925   0.113   0.657
 6859SOL    HW121476   3.828   0.123   0.634
 6859SOL    HW221477   3.935   0.092   0.754
 6860SOL     OW21478   5.015   3.102   6.463
 6860SOL    HW121479   5.091   3.073   6.521
 6860SOL    HW221480   4.929   3.082   6.509
 6861SOL     OW21481   6.385   5.208   0.183
 6861SOL    HW121482   6.427   5.120   0.205
 6861SOL    HW221483   6.294   5.214   0.224
 6862SOL     OW21484   3.155   5.634   4.022
 6862SOL    HW121485   3.060   5.617   4.051
 6862SOL    HW221486   3.194   5.707   4.078
 6863SOL     OW21487   5.722   2.578   3.908
 6863SOL    HW121488   5.757   2.588   4.001
 6863SOL    HW221489   5.797   2.589   3.843
 6864SOL     OW21490   3.864   6.142   5.078
 6864SOL    HW121491   3.955   6.115   5.046
 6864SOL    HW221492   3.872   6.196   5.161
 6865SOL     OW21493   6.508   4.751   3.410
 6865SOL    HW121494   6.529   4.679   3.477
 6865SOL    HW221495   6.590   4.769   3.355
 6866SOL     OW21496   6.994   2.755   2.511
 6866SOL    HW121497   0.014   2.760   2.602
 6866SOL    HW221498   0.043   2.761   2.441
 6867SOL     OW21499   1.729   4.104   2.803
 6867SOL    HW121500   1.700   4.053   2.884
 6867SOL    HW221501   1.689   4.195   2.805
 6868SOL     OW21502   1.879   5.478   5.158
 6868SOL    HW121503   1.866   5.577   5.165
 6868SOL    HW221504   1.843   5.435   5.241
 6869SOL     OW21505   5.870   3.378   5.485
 6869SOL    HW121506   5.835   3.404   5.394
 6869SOL    HW221507   5.804   3.319   5.531
 6870SOL     OW21508   5.769   3.577   2.774
 6870SOL    HW121509   5.748   3.532   2.861
 6870SOL    HW221510   5.716   3.533   2.701
 6871SOL     OW21511   5.194   5.649   1.328
 6871SOL    HW121512   5.163   5.609   1.414
 6871SOL    HW221513   5.115   5.681   1.275
 6872SOL     OW21514   2.278   3.293   6.310
 6872SOL    HW121515   2.293   3.371   6.370
 6872SOL    HW221516   2.221   3.321   6.233
 6873SOL     OW21517   5.622   3.469   5.817
 6873SOL    HW121518   5.641   3.382   5.861
 6873SOL    HW221519   5.561   3.455   5.739
 6874SOL     OW21520   0.495   2.654   5.297
 6874SOL    HW121521   0.563   2.609   5.354
 6874SOL    HW221522   0.403   2.628   5.328
 6875SOL     OW21523   2.354   1.810   4.014
 6875SOL    HW121524   2.318   1.777   3.926
 6875SOL    HW221525   2.325   1.904   4.028
 6876SOL     OW21526   4.244   6.175   6.749
 6876SOL    HW121527   4.306   6.113   6.797
 6876SOL    HW221528   4.287   6.265   6.742
 6877SOL     OW21529   2.275   4.351   6.965
 6877SOL    HW121530   2.308   4.324   6.874
 6877SOL    HW221531   2.226   4.438   6.957
 6878SOL     OW21532   1.818   1.673   5.266
 6878SOL    HW121533   1.723   1.693   5.286
 6878SOL    HW221534   1.866   1.757   5.242
 6879SOL     OW21535   1.634   2.471   6.518
 6879SOL    HW121536   1.675   2.513   6.437
 6879SOL    HW221537   1.594   2.542   6.576
 6880SOL     OW21538   2.131   4.173   5.183
 6880SOL    HW121539   2.203   4.151   5.118
 6880SOL    HW221540   2.046   4.194   5.135
 6881SOL     OW21541   0.039   4.238   1.895
 6881SOL    HW121542   0.078   4.294   1.822
 6881SOL    HW221543   0.043   4.141   1.869
 6882SOL     OW21544   2.008   0.255   5.664
 6882SOL    HW121545   2.092   0.302   5.692
 6882SOL    HW221546   1.933   0.321   5.662
 6883SOL     OW21547   3.960   6.980   1.305
 6883SOL    HW121548   3.947   6.973   1.206
 6883SOL    HW221549   3.990   6.892   1.341
 6884SOL     OW21550   1.829   4.821   4.188
 6884SOL    HW121551   1.799   4.905   4.143
 6884SOL    HW221552   1.926   4.829   4.212
 6885SOL     OW21553   3.023   5.566   4.604
 6885SOL    HW121554   3.025   5.666   4.615
 6885SOL    HW221555   3.058   5.523   4.687
 6886SOL     OW21556   6.061   1.221   2.725
 6886SOL    HW121557   5.986   1.171   2.683
 6886SOL    HW221558   6.129   1.156   2.759
 6887SOL     OW21559   5.915   0.725   4.410
 6887SOL    HW121560   5.984   0.745   4.341
 6887SOL    HW221561   5.829   0.699   4.366
 6888SOL     OW21562   5.500   6.654   4.875
 6888SOL    HW121563   5.506   6.605   4.962
 6888SOL    HW221564   5.404   6.667   4.852
 6889SOL     OW21565   1.561   4.323   5.871
 6889SOL    HW121566   1.573   4.234   5.829
 6889SOL    HW221567   1.650   4.368   5.881
 6890SOL     OW21568   2.188   0.021   1.254
 6890SOL    HW121569   2.225   0.083   1.185
 6890SOL    HW221570   2.149   0.075   1.329
 6891SOL     OW21571   1.282   4.263   3.884
 6891SOL    HW121572   1.369   4.230   3.920
 6891SOL    HW221573   1.260   4.351   3.925
 6892SOL     OW21574   3.288   0.907   3.983
 6892SOL    HW121575   3.243   0.832   4.032
 6892SOL    HW221576   3.314   0.978   4.048
 6893SOL     OW21577   4.463   5.380   2.840
 6893SOL    HW121578   4.466   5.476   2.812
 6893SOL    HW221579   4.368   5.348   2.837
 6894SOL     OW21580   6.748   4.809   6.683
 6894SOL    HW121581   6.699   4.895   6.666
 6894SOL    HW221582   6.758   4.759   6.596
 6895SOL     OW21583   3.356   5.281   6.936
 6895SOL    HW121584   3.268   5.282   6.887
 6895SOL    HW221585   3.429   5.308   6.873
 6896SOL     OW21586   3.708   0.257   3.351
 6896SOL    HW121587   3.621   0.305   3.341
 6896SOL    HW221588   3.696   0.179   3.412
 6897SOL     OW21589   3.134   3.482   0.400
 6897SOL    HW121590   3.080   3.436   0.329
 6897SOL    HW221591   3.229   3.455   0.392
 6898SOL     OW21592   4.265   2.303   2.214
 6898SOL    HW121593   4.173   2.338   2.196
 6898SOL    HW221594   4.277   2.216   2.167
 6899SOL     OW21595   4.709   5.664   6.679
 6899SOL    HW121596   4.784   5.624   6.627
 6899SOL    HW221597   4.667   5.738   6.627
 6900SOL     OW21598   4.995   0.372   6.215
 6900SOL    HW121599   5.036   0.439   6.276
 6900SOL    HW221600   4.969   0.417   6.129
 6901SOL     OW21601   1.487   0.394   6.385
 6901SOL    HW121602   1.568   0.444   6.355
 6901SOL    HW221603   1.422   0.458   6.427
 6902SOL     OW21604   6.628   5.916   0.753
 6902SOL    HW121605   6.530   5.897   0.765
 6902SOL    HW221606   6.665   5.854   0.683
 6903SOL     OW21607   4.482   4.284   0.881
 6903SOL    HW121608   4.439   4.297   0.792
 6903SOL    HW221609   4.422   4.321   0.953
 6904SOL     OW21610   6.830   1.220   3.020
 6904SOL    HW121611   6.741   1.244   3.058
 6904SOL    HW221612   6.897   1.290   3.047
 6905SOL     OW21613   6.041   6.270   1.182
 6905SOL    HW121614   5.950   6.308   1.195
 6905SOL    HW221615   6.049   6.183   1.231
 6906SOL     OW21616   4.127   0.900   3.603
 6906SOL    HW121617   4.094   0.858   3.687
 6906SOL    HW221618   4.053   0.906   3.536
 6907SOL     OW21619   3.684   1.323   1.926
 6907SOL    HW121620   3.643   1.244   1.972
 6907SOL    HW221621   3.772   1.296   1.887
 6908SOL     OW21622   1.686   6.954   5.843
 6908SOL    HW121623   1.770   7.008   5.836
 6908SOL    HW221624   1.678   6.918   5.936
 6909SOL     OW21625   4.488   3.869   6.715
 6909SOL    HW121626   4.416   3.919   6.666
 6909SOL    HW221627   4.449   3.825   6.796
 6910SOL     OW21628   6.287   1.375   1.649
 6910SOL    HW121629   6.224   1.376   1.727
 6910SOL    HW221630   6.365   1.434   1.669
 6911SOL     OW21631   3.996   1.223   4.847
 6911SOL    HW121632   3.910   1.275   4.853
 6911SOL    HW221633   4.041   1.224   4.936
 6912SOL     OW21634   5.271   5.016   0.271
 6912SOL    HW121635   5.299   4.969   0.187
 6912SOL    HW221636   5.228   4.951   0.333
 6913SOL     OW21637   5.405   4.932   4.762
 6913SOL    HW121638   5.414   4.897   4.856
 6913SOL    HW221639   5.453   5.019   4.754
 6914SOL     OW21640   6.198   5.005   0.552
 6914SOL    HW121641   6.140   4.991   0.632
 6914SOL    HW221642   6.284   4.956   0.564
 6915SOL     OW21643   0.386   5.271   2.940
 6915SOL    HW121644   0.420   5.365   2.943
 6915SOL    HW221645   0.346   5.247   3.028
 6916SOL     OW21646   6.161   2.389   6.857
 6916SOL    HW121647   6.084   2.335   6.890
 6916SOL    HW221648   6.175   2.469   6.917
 6917SOL     OW21649   4.813   5.714   6.246
 6917SOL    HW121650   4.872   5.793   6.260
 6917SOL    HW221651   4.830   5.676   6.155
 6918SOL     OW21652   0.245   3.481   3.467
 6918SOL    HW121653   0.181   3.541   3.420
 6918SOL    HW221654   0.308   3.439   3.401
 6919SOL     OW21655   2.100   6.191   3.188
 6919SOL    HW121656   2.033   6.265   3.181
 6919SOL    HW221657   2.109   6.146   3.099
 6920SOL     OW21658   4.788   6.403   4.464
 6920SOL    HW121659   4.758   6.438   4.375
 6920SOL    HW221660   4.758   6.308   4.473
 6921SOL     OW21661   0.741   1.242   3.642
 6921SOL    HW121662   0.748   1.317   3.576
 6921SOL    HW221663   0.694   1.275   3.724
 6922SOL     OW21664   2.427   6.640   0.479
 6922SOL    HW121665   2.524   6.663   0.471
 6922SOL    HW221666   2.389   6.682   0.561
 6923SOL     OW21667   4.945   0.391   3.827
 6923SOL    HW121668   4.856   0.354   3.852
 6923SOL    HW221669   4.990   0.429   3.908
 6924SOL     OW21670   0.252   5.352   1.693
 6924SOL    HW121671   0.266   5.319   1.599
 6924SOL    HW221672   0.265   5.277   1.757
 6925SOL     OW21673   4.382   5.711   3.360
 6925SOL    HW121674   4.377   5.675   3.267
 6925SOL    HW221675   4.448   5.786   3.364
 6926SOL     OW21676   3.334   3.048   4.440
 6926SOL    HW121677   3.398   2.972   4.451
 6926SOL    HW221678   3.267   3.046   4.514
 6927SOL     OW21679   4.654   3.996   5.815
 6927SOL    HW121680   4.594   3.916   5.814
 6927SOL    HW221681   4.601   4.077   5.791
 6928SOL     OW21682   5.545   0.657   6.509
 6928SOL    HW121683   5.568   0.610   6.594
 6928SOL    HW221684   5.493   0.740   6.530
 6929SOL     OW21685   4.177   5.480   0.201
 6929SOL    HW121686   4.147   5.574   0.215
 6929SOL    HW221687   4.223   5.446   0.283
 6930SOL     OW21688   0.635   0.172   3.998
 6930SOL    HW121689   0.588   0.246   3.949
 6930SOL    HW221690   0.633   0.089   3.943
 6931SOL     OW21691   1.748   1.263   1.773
 6931SOL    HW121692   1.733   1.231   1.867
 6931SOL    HW221693   1.714   1.194   1.709
 6932SOL     OW21694   3.254   1.898   0.774
 6932SOL    HW121695   3.289   1.896   0.868
 6932SOL    HW221696   3.298   1.826   0.721
 6933SOL     OW21697   4.182   5.423   5.714
 6933SOL    HW121698   4.239   5.492   5.758
 6933SOL    HW221699   4.086   5.445   5.729
 6934SOL     OW21700   4.953   3.011   6.849
 6934SOL    HW121701   4.910   3.101   6.847
 6934SOL    HW221702   4.898   2.947   6.795
 6935SOL     OW21703   4.315   5.502   3.527
 6935SOL    HW121704   4.375   5.501   3.607
 6935SOL    HW221705   4.326   5.589   3.479
 6936SOL     OW21706   1.005   3.969   1.322
 6936SOL    HW121707   0.976   3.938   1.231
 6936SOL    HW221708   1.101   3.995   1.319
 6937SOL     OW21709   4.184   6.922   5.363
 6937SOL    HW121710   4.218   6.952   5.452
 6937SOL    HW221711   4.232   6.972   5.290
 6938SOL     OW21712   5.199   2.987   5.141
 6938SOL    HW121713   5.180   2.894   5.110
 6938SOL    HW221714   5.115   3.026   5.180
 6939SOL     OW21715   0.001   4.236   2.472
 6939SOL    HW121716   7.021   4.228   2.572
 6939SOL    HW221717   0.054   4.317   2.446
 6940SOL     OW21718   5.512   0.414   5.550
 6940SOL    HW121719   5.431   0.378   5.596
 6940SOL    HW221720   5.485   0.461   5.466
 6941SOL     OW21721   4.010   3.903   3.763
 6941SOL    HW121722   4.030   3.867   3.854
 6941SOL    HW221723   3.977   3.998   3.770
 6942SOL     OW21724   6.695   2.289   6.965
 6942SOL    HW121725   6.748   2.210   6.936
 6942SOL    HW221726   6.673   2.345   6.885
 6943SOL     OW21727   5.256   5.532   6.733
 6943SOL    HW121728   5.355   5.541   6.727
 6943SOL    HW221729   5.214   5.569   6.650
 6944SOL     OW21730   1.262   5.464   6.156
 6944SOL    HW121731   1.248   5.562   6.170
 6944SOL    HW221732   1.330   5.431   6.222
 6945SOL     OW21733   6.353   2.656   5.829
 6945SOL    HW121734   6.305   2.573   5.857
 6945SOL    HW221735   6.384   2.646   5.734
 6946SOL     OW21736   5.511   3.787   2.510
 6946SOL    HW121737   5.468   3.816   2.596
 6946SOL    HW221738   5.588   3.848   2.490
 6947SOL     OW21739   3.845   6.624   3.289
 6947SOL    HW121740   3.812   6.530   3.277
 6947SOL    HW221741   3.934   6.623   3.335
 6948SOL     OW21742   4.989   0.761   5.763
 6948SOL    HW121743   5.022   0.855   5.756
 6948SOL    HW221744   4.907   0.758   5.820
 6949SOL     OW21745   4.914   0.035   2.706
 6949SOL    HW121746   4.915   6.988   2.633
 6949SOL    HW221747   4.825   0.081   2.706
 6950SOL     OW21748   2.268   0.994   3.098
 6950SOL    HW121749   2.256   0.962   3.192
 6950SOL    HW221750   2.365   0.990   3.073
 6951SOL     OW21751   6.481   5.634   5.832
 6951SOL    HW121752   6.471   5.535   5.816
 6951SOL    HW221753   6.500   5.650   5.929
 6952SOL     OW21754   0.597   5.191   5.403
 6952SOL    HW121755   0.597   5.275   5.350
 6952SOL    HW221756   0.576   5.114   5.343
 6953SOL     OW21757   4.912   1.079   5.368
 6953SOL    HW121758   4.868   1.150   5.423
 6953SOL    HW221759   4.893   1.096   5.271
 6954SOL     OW21760   6.704   3.620   3.491
 6954SOL    HW121761   6.759   3.694   3.453
 6954SOL    HW221762   6.705   3.542   3.429
 6955SOL     OW21763   6.541   5.643   1.750
 6955SOL    HW121764   6.608   5.633   1.677
 6955SOL    HW221765   6.490   5.557   1.761
 6956SOL     OW21766   4.131   4.967   1.176
 6956SOL    HW121767   4.208   4.946   1.237
 6956SOL    HW221768   4.145   4.922   1.088
 6957SOL     OW21769   6.965   4.882   1.723
 6957SOL    HW121770   6.928   4.813   1.785
 6957SOL    HW221771   0.042   4.870   1.714
 6958SOL     OW21772   3.122   2.796   6.018
 6958SOL    HW121773   3.143   2.876   5.963
 6958SOL    HW221774   3.203   2.738   6.026
 6959SOL     OW21775   3.245   1.753   4.365
 6959SOL    HW121776   3.234   1.734   4.463
 6959SOL    HW221777   3.287   1.674   4.321
 6960SOL     OW21778   0.786   4.713   6.412
 6960SOL    HW121779   0.812   4.626   6.371
 6960SOL    HW221780   0.742   4.697   6.500
 6961SOL     OW21781   1.121   1.073   3.257
 6961SOL    HW121782   1.066   0.996   3.226
 6961SOL    HW221783   1.069   1.158   3.247
 6962SOL     OW21784   5.028   4.439   1.429
 6962SOL    HW121785   5.079   4.354   1.431
 6962SOL    HW221786   4.938   4.423   1.388
 6963SOL     OW21787   6.662   4.818   1.522
 6963SOL    HW121788   6.708   4.777   1.444
 6963SOL    HW221789   6.656   4.752   1.597
 6964SOL     OW21790   4.409   5.425   4.931
 6964SOL    HW121791   4.381   5.439   5.026
 6964SOL    HW221792   4.507   5.402   4.928
 6965SOL     OW21793   6.824   2.846   6.035
 6965SOL    HW121794   6.888   2.917   6.064
 6965SOL    HW221795   6.803   2.857   5.938
 6966SOL     OW21796   4.811   2.417   3.100
 6966SOL    HW121797   4.782   2.350   3.167
 6966SOL    HW221798   4.742   2.490   3.093
 6967SOL     OW21799   1.159   1.263   5.901
 6967SOL    HW121800   1.171   1.245   5.999
 6967SOL    HW221801   1.249   1.261   5.856
 6968SOL     OW21802   5.122   5.770   2.125
 6968SOL    HW121803   5.181   5.716   2.065
 6968SOL    HW221804   5.121   5.865   2.095
 6969SOL     OW21805   3.445   1.867   0.502
 6969SOL    HW121806   3.458   1.784   0.447
 6969SOL    HW221807   3.351   1.869   0.537
 6970SOL     OW21808   5.299   3.992   0.369
 6970SOL    HW121809   5.311   3.949   0.459
 6970SOL    HW221810   5.333   3.931   0.298
 6971SOL     OW21811   5.251   1.409   1.351
 6971SOL    HW121812   5.229   1.330   1.408
 6971SOL    HW221813   5.345   1.401   1.318
 6972SOL     OW21814   5.286   5.080   3.715
 6972SOL    HW121815   5.234   4.996   3.732
 6972SOL    HW221816   5.372   5.076   3.766
 6973SOL     OW21817   1.938   4.397   3.715
 6973SOL    HW121818   1.949   4.383   3.617
 6973SOL    HW221819   2.028   4.394   3.760
 6974SOL     OW21820   3.452   3.622   4.425
 6974SOL    HW121821   3.503   3.691   4.373
 6974SOL    HW221822   3.513   3.579   4.492
 6975SOL     OW21823   4.185   0.489   5.671
 6975SOL    HW121824   4.153   0.487   5.576
 6975SOL    HW221825   4.273   0.443   5.677
 6976SOL     OW21826   2.036   4.909   6.832
 6976SOL    HW121827   1.985   4.827   6.805
 6976SOL    HW221828   1.978   4.965   6.892
 6977SOL     OW21829   3.332   1.809   2.903
 6977SOL    HW121830   3.330   1.725   2.957
 6977SOL    HW221831   3.253   1.810   2.841
 6978SOL     OW21832   0.492   0.359   1.839
 6978SOL    HW121833   0.444   0.445   1.821
 6978SOL    HW221834   0.590   0.376   1.848
 6979SOL     OW21835   0.618   4.864   2.672
 6979SOL    HW121836   0.660   4.943   2.717
 6979SOL    HW221837   0.690   4.803   2.639
 6980SOL     OW21838   2.162   1.210   4.394
 6980SOL    HW121839   2.119   1.138   4.448
 6980SOL    HW221840   2.181   1.176   4.302
 6981SOL     OW21841   1.870   5.555   0.524
 6981SOL    HW121842   1.938   5.619   0.560
 6981SOL    HW221843   1.806   5.605   0.466
 6982SOL     OW21844   0.450   0.195   4.752
 6982SOL    HW121845   0.486   0.274   4.702
 6982SOL    HW221846   0.499   0.112   4.724
 6983SOL     OW21847   6.811   0.281   4.150
 6983SOL    HW121848   6.828   0.303   4.055
 6983SOL    HW221849   6.728   0.225   4.157
 6984SOL     OW21850   1.993   1.671   6.136
 6984SOL    HW121851   2.080   1.644   6.094
 6984SOL    HW221852   1.967   1.603   6.205
 6985SOL     OW21853   4.922   5.731   2.591
 6985SOL    HW121854   4.924   5.672   2.511
 6985SOL    HW221855   5.010   5.779   2.600
 6986SOL     OW21856   2.271   6.478   6.574
 6986SOL    HW121857   2.208   6.554   6.563
 6986SOL    HW221858   2.348   6.488   6.511
 6987SOL     OW21859   0.476   3.340   6.591
 6987SOL    HW121860   0.477   3.386   6.502
 6987SOL    HW221861   0.568   3.304   6.610
 6988SOL     OW21862   5.403   1.541   3.758
 6988SOL    HW121863   5.425   1.447   3.732
 6988SOL    HW221864   5.426   1.603   3.682
 6989SOL     OW21865   1.425   1.958   3.134
 6989SOL    HW121866   1.467   1.868   3.149
 6989SOL    HW221867   1.370   1.983   3.214
 6990SOL     OW21868   3.401   2.928   0.494
 6990SOL    HW121869   3.412   2.853   0.560
 6990SOL    HW221870   3.347   3.001   0.536
 6991SOL     OW21871   3.020   4.769   6.080
 6991SOL    HW121872   3.017   4.866   6.055
 6991SOL    HW221873   3.062   4.759   6.171
 6992SOL     OW21874   5.344   6.695   4.106
 6992SOL    HW121875   5.297   6.608   4.089
 6992SOL    HW221876   5.434   6.694   4.064
 6993SOL     OW21877   0.397   7.011   3.054
 6993SOL    HW121878   0.393   6.954   2.971
 6993SOL    HW221879   0.446   0.073   3.034
 6994SOL     OW21880   2.039   3.044   6.228
 6994SOL    HW121881   2.024   2.957   6.181
 6994SOL    HW221882   2.135   3.050   6.258
 6995SOL     OW21883   5.520   5.590   3.278
 6995SOL    HW121884   5.512   5.680   3.322
 6995SOL    HW221885   5.616   5.574   3.254
 6996SOL     OW21886   2.741   0.404   5.434
 6996SOL    HW121887   2.710   0.432   5.525
 6996SOL    HW221888   2.662   0.373   5.380
 6997SOL     OW21889   4.618   6.896   4.664
 6997SOL    HW121890   4.672   6.820   4.628
 6997SOL    HW221891   4.524   6.888   4.631
 6998SOL     OW21892   1.311   3.277   2.841
 6998SOL    HW121893   1.237   3.301   2.778
 6998SOL    HW221894   1.352   3.361   2.878
 6999SOL     OW21895   3.109   1.549   5.704
 6999SOL    HW121896   3.185   1.491   5.673
 6999SOL    HW221897   3.111   1.556   5.804
 7000SOL     OW21898   1.007   6.409   2.252
 7000SOL    HW121899   1.032   6.329   2.197
 7000SOL    HW221900   0.918   6.443   2.223
 7001SOL     OW21901   2.746   2.994   5.860
 7001SOL    HW121902   2.819   3.057   5.836
 7001SOL    HW221903   2.696   2.968   5.777
 7002SOL     OW21904   0.875   5.146   3.196
 7002SOL    HW121905   0.864   5.092   3.112
 7002SOL    HW221906   0.891   5.084   3.273
 7003SOL     OW21907   3.133   6.108   0.791
 7003SOL    HW121908   3.215   6.125   0.736
 7003SOL    HW221909   3.059   6.168   0.759
 7004SOL     OW21910   1.369   3.854   1.069
 7004SOL    HW121911   1.341   3.843   0.973
 7004SOL    HW221912   1.469   3.854   1.074
 7005SOL     OW21913   5.288   5.980   6.718
 7005SOL    HW121914   5.321   6.074   6.726
 7005SOL    HW221915   5.275   5.958   6.621
 7006SOL     OW21916   4.527   4.574   4.776
 7006SOL    HW121917   4.563   4.667   4.773
 7006SOL    HW221918   4.469   4.564   4.856
 7007SOL     OW21919   4.318   6.043   3.368
 7007SOL    HW121920   4.220   6.026   3.371
 7007SOL    HW221921   4.339   6.132   3.408
 7008SOL     OW21922   1.699   5.045   4.100
 7008SOL    HW121923   1.660   5.013   4.013
 7008SOL    HW221924   1.633   5.105   4.145
 7009SOL     OW21925   0.169   4.952   2.420
 7009SOL    HW121926   0.200   4.870   2.467
 7009SOL    HW221927   0.162   5.027   2.486
 7010SOL     OW21928   3.875   5.051   6.536
 7010SOL    HW121929   3.933   5.119   6.491
 7010SOL    HW221930   3.874   4.967   6.482
 7011SOL     OW21931   3.085   0.187   5.918
 7011SOL    HW121932   3.136   0.254   5.973
 7011SOL    HW221933   3.028   0.235   5.852
 7012SOL     OW21934   1.656   0.456   1.738
 7012SOL    HW121935   1.588   0.528   1.730
 7012SOL    HW221936   1.687   0.428   1.647
 7013SOL     OW21937   1.253   0.443   1.835
 7013SOL    HW121938   1.182   0.375   1.853
 7013SOL    HW221939   1.282   0.436   1.739
 7014SOL     OW21940   2.911   4.162   1.038
 7014SOL    HW121941   2.818   4.176   1.072
 7014SOL    HW221942   2.967   4.123   1.111
 7015SOL     OW21943   5.125   2.454   2.334
 7015SOL    HW121944   5.084   2.365   2.354
 7015SOL    HW221945   5.170   2.489   2.416
 7016SOL     OW21946   4.280   4.593   1.469
 7016SOL    HW121947   4.278   4.690   1.494
 7016SOL    HW221948   4.189   4.564   1.440
 7017SOL     OW21949   2.891   1.798   3.439
 7017SOL    HW121950   2.953   1.876   3.430
 7017SOL    HW221951   2.810   1.825   3.491
 7018SOL     OW21952   0.611   4.451   4.908
 7018SOL    HW121953   0.637   4.466   5.003
 7018SOL    HW221954   0.692   4.424   4.856
 7019SOL     OW21955   2.480   5.499   0.209
 7019SOL    HW121956   2.550   5.567   0.189
 7019SOL    HW221957   2.441   5.516   0.299
 7020SOL     OW21958   6.377   6.882   6.449
 7020SOL    HW121959   6.387   6.800   6.505
 7020SOL    HW221960   6.295   6.873   6.392
 7021SOL     OW21961   2.338   0.801   5.915
 7021SOL    HW121962   2.398   0.829   5.990
 7021SOL    HW221963   2.245   0.791   5.950
 7022SOL     OW21964   5.415   3.929   6.842
 7022SOL    HW121965   5.487   3.859   6.844
 7022SOL    HW221966   5.426   3.986   6.761
 7023SOL     OW21967   6.413   3.488   1.924
 7023SOL    HW121968   6.362   3.494   2.009
 7023SOL    HW221969   6.511   3.483   1.944
 7024SOL     OW21970   1.403   5.943   0.477
 7024SOL    HW121971   1.399   6.022   0.415
 7024SOL    HW221972   1.492   5.898   0.468
 7025SOL     OW21973   3.054   2.502   6.955
 7025SOL    HW121974   3.068   2.455   6.868
 7025SOL    HW221975   3.043   2.600   6.939
 7026SOL     OW21976   3.699   1.708   1.083
 7026SOL    HW121977   3.747   1.724   1.169
 7026SOL    HW221978   3.601   1.709   1.098
 7027SOL     OW21979   3.777   6.178   4.144
 7027SOL    HW121980   3.797   6.092   4.192
 7027SOL    HW221981   3.841   6.249   4.174
 7028SOL     OW21982   4.551   6.287   3.733
 7028SOL    HW121983   4.459   6.281   3.693
 7028SOL    HW221984   4.619   6.266   3.662
 7029SOL     OW21985   3.657   6.741   0.156
 7029SOL    HW121986   3.590   6.684   0.107
 7029SOL    HW221987   3.687   6.694   0.238
 7030SOL     OW21988   0.410   3.669   4.750
 7030SOL    HW121989   0.312   3.681   4.735
 7030SOL    HW221990   0.459   3.746   4.711
 7031SOL     OW21991   1.731   5.847   4.334
 7031SOL    HW121992   1.734   5.911   4.257
 7031SOL    HW221993   1.745   5.754   4.301
 7032SOL     OW21994   6.251   0.776   2.327
 7032SOL    HW121995   6.231   0.837   2.403
 7032SOL    HW221996   6.336   0.803   2.283
 7033SOL     OW21997   6.929   1.277   3.430
 7033SOL    HW121998   6.986   1.279   3.512
 7033SOL    HW221999   6.908   1.182   3.406
 7034SOL     OW22000   6.706   0.519   2.773
 7034SOL    HW122001   6.761   0.601   2.755
 7034SOL    HW222002   6.689   0.471   2.687
 7035SOL     OW22003   6.727   5.710   2.316
 7035SOL    HW122004   6.823   5.708   2.288
 7035SOL    HW222005   6.686   5.796   2.288
 7036SOL     OW22006   6.897   5.266   2.212
 7036SOL    HW122007   6.881   5.223   2.301
 7036SOL    HW222008   6.822   5.329   2.191
 7037SOL     OW22009   1.355   6.485   6.191
 7037SOL    HW122010   1.335   6.433   6.108
 7037SOL    HW222011   1.309   6.442   6.269
 7038SOL     OW22012   0.907   4.685   3.954
 7038SOL    HW122013   0.830   4.748   3.949
 7038SOL    HW222014   0.985   4.730   3.997
 7039SOL     OW22015   3.546   1.137   5.996
 7039SOL    HW122016   3.637   1.173   5.978
 7039SOL    HW222017   3.530   1.057   5.938
 7040SOL     OW22018   5.125   2.418   6.435
 7040SOL    HW122019   5.168   2.381   6.353
 7040SOL    HW222020   5.138   2.354   6.511
 7041SOL     OW22021   1.717   1.936   3.008
 7041SOL    HW122022   1.632   1.968   3.049
 7041SOL    HW222023   1.790   1.937   3.076
 7042SOL     OW22024   3.710   6.134   6.287
 7042SOL    HW122025   3.735   6.038   6.274
 7042SOL    HW222026   3.658   6.144   6.371
 7043SOL     OW22027   2.325   2.095   3.186
 7043SOL    HW122028   2.307   2.147   3.103
 7043SOL    HW222029   2.383   2.016   3.165
 7044SOL     OW22030   4.637   4.822   2.652
 7044SOL    HW122031   4.692   4.755   2.701
 7044SOL    HW222032   4.696   4.876   2.591
 7045SOL     OW22033   5.644   5.935   0.979
 7045SOL    HW122034   5.642   6.035   0.968
 7045SOL    HW222035   5.624   5.892   0.891
 7046SOL     OW22036   4.168   0.636   4.399
 7046SOL    HW122037   4.136   0.703   4.332
 7046SOL    HW222038   4.179   0.547   4.354
 7047SOL     OW22039   1.023   1.037   4.597
 7047SOL    HW122040   1.081   0.956   4.597
 7047SOL    HW222041   0.982   1.049   4.507
 7048SOL     OW22042   6.433   5.878   0.471
 7048SOL    HW122043   6.433   5.780   0.455
 7048SOL    HW222044   6.402   5.896   0.565
 7049SOL     OW22045   2.578   1.222   0.533
 7049SOL    HW122046   2.514   1.209   0.608
 7049SOL    HW222047   2.667   1.184   0.558
 7050SOL     OW22048   3.072   3.907   4.765
 7050SOL    HW122049   3.037   3.971   4.833
 7050SOL    HW222050   3.012   3.827   4.760
 7051SOL     OW22051   0.114   0.118   1.646
 7051SOL    HW122052   0.048   0.102   1.719
 7051SOL    HW222053   0.099   0.053   1.572
 7052SOL     OW22054   0.300   2.008   3.930
 7052SOL    HW122055   0.384   2.030   3.881
 7052SOL    HW222056   0.307   2.039   4.025
 7053SOL     OW22057   0.675   3.848   6.810
 7053SOL    HW122058   0.645   3.927   6.863
 7053SOL    HW222059   0.597   3.806   6.764
 7054SOL     OW22060   6.108   6.617   1.737
 7054SOL    HW122061   6.193   6.565   1.733
 7054SOL    HW222062   6.055   6.602   1.653
 7055SOL     OW22063   4.511   0.570   4.280
 7055SOL    HW122064   4.492   0.667   4.294
 7055SOL    HW222065   4.505   0.521   4.367
 7056SOL     OW22066   5.300   5.052   3.402
 7056SOL    HW122067   5.321   5.148   3.385
 7056SOL    HW222068   5.250   5.044   3.488
 7057SOL     OW22069   6.853   5.411   3.533
 7057SOL    HW122070   6.863   5.429   3.631
 7057SOL    HW222071   6.859   5.313   3.517
 7058SOL     OW22072   0.907   5.218   5.856
 7058SOL    HW122073   0.951   5.292   5.805
 7058SOL    HW222074   0.965   5.193   5.933
 7059SOL     OW22075   1.342   0.274   2.578
 7059SOL    HW122076   1.267   0.257   2.643
 7059SOL    HW222077   1.381   0.187   2.550
 7060SOL     OW22078   3.357   6.380   1.647
 7060SOL    HW122079   3.436   6.442   1.644
 7060SOL    HW222080   3.286   6.414   1.586
 7061SOL     OW22081   0.631   0.878   3.053
 7061SOL    HW122082   0.650   0.823   2.971
 7061SOL    HW222083   0.621   0.974   3.027
 7062SOL     OW22084   5.508   1.943   5.030
 7062SOL    HW122085   5.421   1.975   5.068
 7062SOL    HW222086   5.549   1.878   5.094
 7063SOL     OW22087   2.165   6.587   1.233
 7063SOL    HW122088   2.155   6.510   1.297
 7063SOL    HW222089   2.105   6.662   1.262
 7064SOL     OW22090   3.838   2.420   1.604
 7064SOL    HW122091   3.859   2.340   1.659
 7064SOL    HW222092   3.774   2.479   1.654
 7065SOL     OW22093   4.331   3.874   1.524
 7065SOL    HW122094   4.393   3.855   1.447
 7065SOL    HW222095   4.385   3.895   1.605
 7066SOL     OW22096   4.345   6.801   0.193
 7066SOL    HW122097   4.404   6.723   0.176
 7066SOL    HW222098   4.355   6.867   0.119
 7067SOL     OW22099   0.678   3.827   5.744
 7067SOL    HW122100   0.605   3.842   5.811
 7067SOL    HW222101   0.651   3.865   5.656
 7068SOL     OW22102   1.437   1.418   3.274
 7068SOL    HW122103   1.367   1.394   3.207
 7068SOL    HW222104   1.399   1.412   3.366
 7069SOL     OW22105   0.681   4.557   5.739
 7069SOL    HW122106   0.727   4.635   5.781
 7069SOL    HW222107   0.658   4.491   5.811
 7070SOL     OW22108   6.584   4.765   5.050
 7070SOL    HW122109   6.634   4.714   4.980
 7070SOL    HW222110   6.486   4.765   5.028
 7071SOL     OW22111   1.572   5.841   5.414
 7071SOL    HW122112   1.560   5.742   5.417
 7071SOL    HW222113   1.485   5.885   5.394
 7072SOL     OW22114   0.140   6.466   6.461
 7072SOL    HW122115   0.193   6.481   6.378
 7072SOL    HW222116   0.053   6.515   6.453
 7073SOL     OW22117   0.440   0.962   5.369
 7073SOL    HW122118   0.404   0.889   5.311
 7073SOL    HW222119   0.433   0.935   5.465
 7074SOL     OW22120   3.278   1.841   2.027
 7074SOL    HW122121   3.328   1.791   2.099
 7074SOL    HW222122   3.338   1.856   1.949
 7075SOL     OW22123   1.934   5.888   4.570
 7075SOL    HW122124   1.876   5.870   4.650
 7075SOL    HW222125   1.903   5.832   4.493
 7076SOL     OW22126   3.869   1.833   6.428
 7076SOL    HW122127   3.783   1.880   6.409
 7076SOL    HW222128   3.863   1.738   6.398
 7077SOL     OW22129   2.296   5.585   5.598
 7077SOL    HW122130   2.385   5.569   5.554
 7077SOL    HW222131   2.275   5.509   5.659
 7078SOL     OW22132   5.920   0.016   3.462
 7078SOL    HW122133   5.914   0.048   3.557
 7078SOL    HW222134   5.945   0.093   3.402
 7079SOL     OW22135   6.339   6.359   6.109
 7079SOL    HW122136   6.241   6.379   6.102
 7079SOL    HW222137   6.390   6.445   6.106
 7080SOL     OW22138   4.067   2.229   3.788
 7080SOL    HW122139   4.072   2.288   3.707
 7080SOL    HW222140   4.114   2.273   3.864
 7081SOL     OW22141   3.053   1.234   5.620
 7081SOL    HW122142   3.116   1.217   5.696
 7081SOL    HW222143   2.983   1.298   5.648
 7082SOL     OW22144   5.650   1.666   6.676
 7082SOL    HW122145   5.563   1.618   6.683
 7082SOL    HW222146   5.652   1.742   6.740
 7083SOL     OW22147   3.616   0.342   5.643
 7083SOL    HW122148   3.635   0.439   5.629
 7083SOL    HW222149   3.520   0.324   5.626
 7084SOL     OW22150   6.918   6.400   5.507
 7084SOL    HW122151   6.976   6.376   5.585
 7084SOL    HW222152   6.907   6.320   5.447
 7085SOL     OW22153   2.002   2.427   2.739
 7085SOL    HW122154   2.087   2.375   2.727
 7085SOL    HW222155   1.996   2.497   2.668
 7086SOL     OW22156   5.394   0.903   6.495
 7086SOL    HW122157   5.310   0.912   6.442
 7086SOL    HW222158   5.465   0.960   6.455
 7087SOL     OW22159   0.700   3.885   4.360
 7087SOL    HW122160   0.760   3.814   4.397
 7087SOL    HW222161   0.687   3.870   4.262
 7088SOL     OW22162   5.101   2.941   4.166
 7088SOL    HW122163   5.055   2.858   4.132
 7088SOL    HW222164   5.198   2.937   4.142
 7089SOL     OW22165   3.615   2.234   5.953
 7089SOL    HW122166   3.629   2.230   5.854
 7089SOL    HW222167   3.677   2.302   5.992
 7090SOL     OW22168   1.971   1.963   5.206
 7090SOL    HW122169   2.028   2.010   5.139
 7090SOL    HW222170   1.949   2.025   5.281
 7091SOL     OW22171   0.194   1.004   0.666
 7091SOL    HW122172   0.100   1.007   0.633
 7091SOL    HW222173   0.200   1.050   0.754
 7092SOL     OW22174   3.634   4.184   0.949
 7092SOL    HW122175   3.732   4.198   0.962
 7092SOL    HW222176   3.588   4.186   1.038
 7093SOL     OW22177   3.569   3.900   4.612
 7093SOL    HW122178   3.483   3.951   4.618
 7093SOL    HW222179   3.586   3.854   4.700
 7094SOL     OW22180   1.043   6.687   5.767
 7094SOL    HW122181   1.114   6.727   5.824
 7094SOL    HW222182   0.960   6.743   5.771
 7095SOL     OW22183   1.232   2.999   6.364
 7095SOL    HW122184   1.272   3.007   6.272
 7095SOL    HW222185   1.203   3.089   6.396
 7096SOL     OW22186   4.270   2.308   3.974
 7096SOL    HW122187   4.333   2.232   3.958
 7096SOL    HW222188   4.318   2.381   4.024
 7097SOL     OW22189   0.507   1.116   1.623
 7097SOL    HW122190   0.523   1.060   1.705
 7097SOL    HW222191   0.546   1.070   1.543
 7098SOL     OW22192   1.702   5.718   6.278
 7098SOL    HW122193   1.743   5.652   6.214
 7098SOL    HW222194   1.722   5.689   6.372
 7099SOL     OW22195   1.055   1.270   4.968
 7099SOL    HW122196   0.987   1.266   5.042
 7099SOL    HW222197   1.106   1.355   4.973
 7100SOL     OW22198   5.117   3.986   1.288
 7100SOL    HW122199   5.096   3.888   1.284
 7100SOL    HW222200   5.047   4.037   1.239
 7101SOL     OW22201   3.087   0.586   4.935
 7101SOL    HW122202   3.167   0.530   4.919
 7101SOL    HW222203   3.116   0.680   4.957
 7102SOL     OW22204   4.088   1.348   0.904
 7102SOL    HW122205   4.188   1.346   0.909
 7102SOL    HW222206   4.058   1.304   0.820
 7103SOL     OW22207   3.249   6.540   0.272
 7103SOL    HW122208   3.243   6.482   0.190
 7103SOL    HW222209   3.344   6.544   0.303
 7104SOL     OW22210   1.680   2.783   3.347
 7104SOL    HW122211   1.598   2.785   3.405
 7104SOL    HW222212   1.755   2.742   3.398
 7105SOL     OW22213   3.342   3.376   4.354
 7105SOL    HW122214   3.358   3.475   4.354
 7105SOL    HW222215   3.249   3.357   4.322
 7106SOL     OW22216   3.554   3.145   4.720
 7106SOL    HW122217   3.612   3.200   4.780
 7106SOL    HW222218   3.588   3.051   4.720
 7107SOL     OW22219   3.226   0.990   0.972
 7107SOL    HW122220   3.206   0.934   1.052
 7107SOL    HW222221   3.308   0.956   0.926
 7108SOL     OW22222   4.929   6.028   1.106
 7108SOL    HW122223   4.916   5.934   1.138
 7108SOL    HW222224   4.846   6.080   1.121
 7109SOL     OW22225   3.294   0.606   6.188
 7109SOL    HW122226   3.212   0.560   6.156
 7109SOL    HW222227   3.363   0.538   6.214
 7110SOL     OW22228   4.383   5.050   4.187
 7110SOL    HW122229   4.310   5.049   4.119
 7110SOL    HW222230   4.438   4.967   4.178
 7111SOL     OW22231   2.164   3.209   4.145
 7111SOL    HW122232   2.201   3.290   4.190
 7111SOL    HW222233   2.216   3.190   4.062
 7112SOL     OW22234   0.601   6.272   4.038
 7112SOL    HW122235   0.688   6.318   4.022
 7112SOL    HW222236   0.608   6.212   4.117
 7113SOL     OW22237   3.776   4.096   4.475
 7113SOL    HW122238   3.816   4.018   4.427
 7113SOL    HW222239   3.705   4.064   4.538
 7114SOL     OW22240   4.204   1.130   2.069
 7114SOL    HW122241   4.231   1.208   2.125
 7114SOL    HW222242   4.278   1.109   2.004
 7115SOL     OW22243   4.513   1.705   1.600
 7115SOL    HW122244   4.522   1.778   1.531
 7115SOL    HW222245   4.602   1.664   1.617
 7116SOL     OW22246   5.410   3.733   3.341
 7116SOL    HW122247   5.388   3.830   3.358
 7116SOL    HW222248   5.380   3.708   3.250
 7117SOL     OW22249   6.315   5.967   2.241
 7117SOL    HW122250   6.242   5.930   2.299
 7117SOL    HW222251   6.375   6.025   2.296
 7118SOL     OW22252   5.314   3.831   0.937
 7118SOL    HW122253   5.369   3.914   0.940
 7118SOL    HW222254   5.302   3.796   1.030
 7119SOL     OW22255   6.105   1.507   2.538
 7119SOL    HW122256   6.068   1.415   2.546
 7119SOL    HW222257   6.200   1.508   2.569
 7120SOL     OW22258   5.064   1.423   3.546
 7120SOL    HW122259   5.067   1.323   3.541
 7120SOL    HW222260   4.989   1.451   3.605
 7121SOL     OW22261   2.273   0.074   3.855
 7121SOL    HW122262   2.240   7.002   3.865
 7121SOL    HW222263   2.218   0.135   3.911
 7122SOL     OW22264   6.638   0.795   0.081
 7122SOL    HW122265   6.628   0.886   0.121
 7122SOL    HW222266   6.667   0.804   7.008
 7123SOL     OW22267   3.057   5.560   1.236
 7123SOL    HW122268   3.063   5.472   1.284
 7123SOL    HW222269   3.138   5.573   1.179
 7124SOL     OW22270   0.059   5.244   6.528
 7124SOL    HW122271   0.102   5.309   6.466
 7124SOL    HW222272   0.078   5.270   6.623
 7125SOL     OW22273   6.400   6.601   2.451
 7125SOL    HW122274   6.315   6.587   2.402
 7125SOL    HW222275   6.406   6.696   2.482
 7126SOL     OW22276   1.881   4.089   0.349
 7126SOL    HW122277   1.973   4.079   0.312
 7126SOL    HW222278   1.865   4.018   0.417
 7127SOL     OW22279   3.109   5.879   4.387
 7127SOL    HW122280   3.061   5.945   4.328
 7127SOL    HW222281   3.177   5.830   4.333
 7128SOL     OW22282   3.429   4.281   0.802
 7128SOL    HW122283   3.504   4.237   0.851
 7128SOL    HW222284   3.449   4.283   0.704
 7129SOL     OW22285   3.313   0.599   1.280
 7129SOL    HW122286   3.225   0.562   1.309
 7129SOL    HW222287   3.314   0.606   1.180
 7130SOL     OW22288   2.893   4.935   3.917
 7130SOL    HW122289   2.932   4.894   3.835
 7130SOL    HW222290   2.935   4.895   3.999
 7131SOL     OW22291   2.933   1.421   2.226
 7131SOL    HW122292   2.945   1.488   2.154
 7131SOL    HW222293   2.905   1.467   2.310
 7132SOL     OW22294   4.088   3.826   2.869
 7132SOL    HW122295   4.184   3.838   2.842
 7132SOL    HW222296   4.032   3.810   2.788
 7133SOL     OW22297   4.434   5.512   3.116
 7133SOL    HW122298   4.382   5.458   3.049
 7133SOL    HW222299   4.515   5.460   3.145
 7134SOL     OW22300   5.902   5.837   3.786
 7134SOL    HW122301   5.830   5.895   3.747
 7134SOL    HW222302   5.991   5.869   3.754
 7135SOL     OW22303   1.518   0.984   4.427
 7135SOL    HW122304   1.540   1.038   4.509
 7135SOL    HW222305   1.557   0.893   4.437
 7136SOL     OW22306   1.767   0.889   0.571
 7136SOL    HW122307   1.761   0.945   0.654
 7136SOL    HW222308   1.722   0.935   0.495
 7137SOL     OW22309   4.459   0.833   4.320
 7137SOL    HW122310   4.376   0.887   4.330
 7137SOL    HW222311   4.524   0.880   4.260
 7138SOL     OW22312   2.857   3.659   1.235
 7138SOL    HW122313   2.821   3.634   1.145
 7138SOL    HW222314   2.870   3.576   1.290
 7139SOL     OW22315   4.503   3.262   1.685
 7139SOL    HW122316   4.441   3.207   1.628
 7139SOL    HW222317   4.541   3.205   1.758
 7140SOL     OW22318   6.304   4.696   4.928
 7140SOL    HW122319   6.278   4.656   5.016
 7140SOL    HW222320   6.312   4.624   4.859
 7141SOL     OW22321   2.828   0.175   1.130
 7141SOL    HW122322   2.731   0.149   1.130
 7141SOL    HW222323   2.884   0.094   1.112
 7142SOL     OW22324   4.013   5.865   3.950
 7142SOL    HW122325   4.074   5.944   3.942
 7142SOL    HW222326   4.052   5.800   4.015
 7143SOL     OW22327   1.763   3.930   6.244
 7143SOL    HW122328   1.821   3.928   6.325
 7143SOL    HW222329   1.688   3.864   6.254
 7144SOL     OW22330   0.891   2.056   3.040
 7144SOL    HW122331   0.795   2.049   3.065
 7144SOL    HW222332   0.948   2.060   3.122
 7145SOL     OW22333   4.713   6.981   6.580
 7145SOL    HW122334   4.807   6.947   6.575
 7145SOL    HW222335   4.668   6.968   6.492
 7146SOL     OW22336   2.803   6.763   0.693
 7146SOL    HW122337   2.900   6.763   0.669
 7146SOL    HW222338   2.788   6.696   0.767
 7147SOL     OW22339   6.952   0.757   2.996
 7147SOL    HW122340   6.953   0.717   2.904
 7147SOL    HW222341   6.897   0.840   2.995
 7148SOL     OW22342   1.418   6.309   1.768
 7148SOL    HW122343   1.457   6.381   1.825
 7148SOL    HW222344   1.451   6.319   1.674
 7149SOL     OW22345   6.575   1.296   3.063
 7149SOL    HW122346   6.542   1.216   3.013
 7149SOL    HW222347   6.507   1.323   3.131
 7150SOL     OW22348   5.327   2.737   0.032
 7150SOL    HW122349   5.238   2.695   0.051
 7150SOL    HW222350   5.379   2.745   0.117
 7151SOL     OW22351   1.879   5.695   1.413
 7151SOL    HW122352   1.799   5.727   1.361
 7151SOL    HW222353   1.902   5.602   1.384
 7152SOL     OW22354   0.807   3.232   4.862
 7152SOL    HW122355   0.745   3.181   4.803
 7152SOL    HW222356   0.859   3.168   4.919
 7153SOL     OW22357   4.527   0.801   4.862
 7153SOL    HW122358   4.601   0.839   4.918
 7153SOL    HW222359   4.496   0.715   4.903
 7154SOL     OW22360   3.797   5.906   4.267
 7154SOL    HW122361   3.892   5.882   4.248
 7154SOL    HW222362   3.737   5.840   4.222
 7155SOL     OW22363   1.062   6.772   2.035
 7155SOL    HW122364   1.040   6.853   2.089
 7155SOL    HW222365   1.006   6.695   2.067
 7156SOL     OW22366   6.623   5.478   5.246
 7156SOL    HW122367   6.560   5.547   5.213
 7156SOL    HW222368   6.707   5.480   5.191
 7157SOL     OW22369   5.721   5.397   0.427
 7157SOL    HW122370   5.702   5.491   0.398
 7157SOL    HW222371   5.673   5.333   0.367
 7158SOL     OW22372   0.148   6.806   3.414
 7158SOL    HW122373   0.218   6.803   3.486
 7158SOL    HW222374   0.184   6.857   3.335
 7159SOL     OW22375   0.440   5.221   0.563
 7159SOL    HW122376   0.383   5.265   0.633
 7159SOL    HW222377   0.449   5.124   0.584
 7160SOL     OW22378   6.354   0.166   2.029
 7160SOL    HW122379   6.282   0.124   1.973
 7160SOL    HW222380   6.389   0.247   1.983
 7161SOL     OW22381   3.559   2.871   4.188
 7161SOL    HW122382   3.633   2.921   4.142
 7161SOL    HW222383   3.475   2.880   4.134
 7162SOL     OW22384   3.802   5.048   4.047
 7162SOL    HW122385   3.740   5.048   4.125
 7162SOL    HW222386   3.821   5.142   4.020
 7163SOL     OW22387   3.391   0.395   3.696
 7163SOL    HW122388   3.348   0.437   3.775
 7163SOL    HW222389   3.467   0.337   3.726
 7164SOL     OW22390   2.100   1.273   3.686
 7164SOL    HW122391   2.196   1.246   3.690
 7164SOL    HW222392   2.066   1.265   3.593
 7165SOL     OW22393   5.684   0.990   0.939
 7165SOL    HW122394   5.782   0.974   0.929
 7165SOL    HW222395   5.648   1.034   0.857
 7166SOL     OW22396   4.921   4.881   0.519
 7166SOL    HW122397   4.917   4.807   0.586
 7166SOL    HW222398   4.919   4.969   0.565
 7167SOL     OW22399   4.643   3.599   5.453
 7167SOL    HW122400   4.599   3.592   5.364
 7167SOL    HW222401   4.631   3.514   5.504
 7168SOL     OW22402   1.447   0.719   4.186
 7168SOL    HW122403   1.482   0.725   4.280
 7168SOL    HW222404   1.439   0.811   4.147
 7169SOL     OW22405   1.412   3.419   6.438
 7169SOL    HW122406   1.462   3.427   6.525
 7169SOL    HW222407   1.339   3.352   6.448
 7170SOL     OW22408   5.268   4.574   3.537
 7170SOL    HW122409   5.173   4.574   3.570
 7170SOL    HW222410   5.302   4.668   3.534
 7171SOL     OW22411   4.204   2.938   5.485
 7171SOL    HW122412   4.245   2.847   5.475
 7171SOL    HW222413   4.130   2.935   5.552
 7172SOL     OW22414   1.913   6.877   0.653
 7172SOL    HW122415   1.844   6.824   0.702
 7172SOL    HW222416   1.869   6.937   0.586
 7173SOL     OW22417   6.999   5.850   4.433
 7173SOL    HW122418   7.011   5.935   4.485
 7173SOL    HW222419   0.009   5.864   4.339
 7174SOL     OW22420   2.027   5.409   0.354
 7174SOL    HW122421   1.968   5.458   0.419
 7174SOL    HW222422   2.118   5.397   0.394
 7175SOL     OW22423   5.480   3.964   0.096
 7175SOL    HW122424   5.576   3.948   0.119
 7175SOL    HW222425   5.470   3.971   7.019
 7176SOL     OW22426   6.726   4.187   1.670
 7176SOL    HW122427   6.639   4.219   1.633
 7176SOL    HW222428   6.709   4.134   1.753
 7177SOL     OW22429   0.891   5.883   3.670
 7177SOL    HW122430   0.911   5.840   3.758
 7177SOL    HW222431   0.853   5.815   3.607
 7178SOL     OW22432   1.065   2.862   4.764
 7178SOL    HW122433   1.066   2.765   4.790
 7178SOL    HW222434   0.974   2.885   4.730
 7179SOL     OW22435   2.897   3.718   5.407
 7179SOL    HW122436   2.849   3.782   5.347
 7179SOL    HW222437   2.944   3.649   5.352
 7180SOL     OW22438   0.468   6.025   1.283
 7180SOL    HW122439   0.511   6.096   1.226
 7180SOL    HW222440   0.385   5.992   1.238
 7181SOL     OW22441   4.395   0.968   1.413
 7181SOL    HW122442   4.328   1.034   1.446
 7181SOL    HW222443   4.368   0.935   1.323
 7182SOL     OW22444   2.666   4.631   5.642
 7182SOL    HW122445   2.754   4.586   5.625
 7182SOL    HW222446   2.598   4.597   5.576
 7183SOL     OW22447   2.094   4.991   3.051
 7183SOL    HW122448   2.165   5.025   3.113
 7183SOL    HW222449   2.118   4.898   3.022
 7184SOL     OW22450   1.544   6.656   4.121
 7184SOL    HW122451   1.619   6.712   4.155
 7184SOL    HW222452   1.458   6.706   4.131
 7185SOL     OW22453   4.543   3.023   6.990
 7185SOL    HW122454   4.538   2.997   6.894
 7185SOL    HW222455   4.577   2.946   0.022
 7186SOL     OW22456   6.619   6.127   5.251
 7186SOL    HW122457   6.568   6.212   5.237
 7186SOL    HW222458   6.696   6.144   5.312
 7187SOL     OW22459   1.657   3.806   1.631
 7187SOL    HW122460   1.682   3.796   1.728
 7187SOL    HW222461   1.601   3.888   1.620
 7188SOL     OW22462   4.658   0.384   1.984
 7188SOL    HW122463   4.751   0.367   1.951
 7188SOL    HW222464   4.640   0.483   1.981
 7189SOL     OW22465   0.043   1.337   5.525
 7189SOL    HW122466   6.988   1.335   5.589
 7189SOL    HW222467   0.009   1.355   5.433
 7190SOL     OW22468   5.668   4.088   3.092
 7190SOL    HW122469   5.589   4.065   3.035
 7190SOL    HW222470   5.671   4.187   3.107
 7191SOL     OW22471   1.243   3.701   2.347
 7191SOL    HW122472   1.269   3.610   2.381
 7191SOL    HW222473   1.325   3.756   2.330
 7192SOL     OW22474   2.344   4.963   6.318
 7192SOL    HW122475   2.433   4.926   6.348
 7192SOL    HW222476   2.314   5.034   6.382
 7193SOL     OW22477   3.714   1.409   4.622
 7193SOL    HW122478   3.723   1.328   4.564
 7193SOL    HW222479   3.723   1.383   4.718
 7194SOL     OW22480   2.500   2.112   1.783
 7194SOL    HW122481   2.425   2.177   1.776
 7194SOL    HW222482   2.576   2.153   1.832
 7195SOL     OW22483   0.181   5.606   0.524
 7195SOL    HW122484   0.144   5.585   0.615
 7195SOL    HW222485   0.139   5.546   0.456
 7196SOL     OW22486   2.962   3.647   3.135
 7196SOL    HW122487   3.055   3.679   3.151
 7196SOL    HW222488   2.919   3.703   3.064
 7197SOL     OW22489   6.715   1.789   4.757
 7197SOL    HW122490   6.746   1.725   4.828
 7197SOL    HW222491   6.626   1.759   4.722
 7198SOL     OW22492   1.551   6.870   6.236
 7198SOL    HW122493   1.498   6.953   6.216
 7198SOL    HW222494   1.646   6.883   6.208
 7199SOL     OW22495   0.371   0.235   2.356
 7199SOL    HW122496   0.336   0.206   2.267
 7199SOL    HW222497   0.327   0.181   2.428
 7200SOL     OW22498   2.474   1.128   1.237
 7200SOL    HW122499   2.538   1.204   1.245
 7200SOL    HW222500   2.381   1.163   1.226
 7201SOL     OW22501   1.458   4.712   3.988
 7201SOL    HW122502   1.523   4.698   3.913
 7201SOL    HW222503   1.507   4.715   4.075
 7202SOL     OW22504   4.221   0.253   6.317
 7202SOL    HW122505   4.123   0.240   6.301
 7202SOL    HW222506   4.249   0.341   6.279
 7203SOL     OW22507   5.615   0.624   0.082
 7203SOL    HW122508   5.598   0.721   0.065
 7203SOL    HW222509   5.678   0.589   0.012
 7204SOL     OW22510   5.993   0.961   3.029
 7204SOL    HW122511   5.993   1.052   2.989
 7204SOL    HW222512   6.042   0.962   3.116
 7205SOL     OW22513   1.813   5.274   3.277
 7205SOL    HW122514   1.715   5.293   3.269
 7205SOL    HW222515   1.846   5.306   3.366
 7206SOL     OW22516   6.558   1.241   0.636
 7206SOL    HW122517   6.635   1.227   0.698
 7206SOL    HW222518   6.478   1.271   0.688
 7207SOL     OW22519   3.190   6.380   1.193
 7207SOL    HW122520   3.180   6.286   1.161
 7207SOL    HW222521   3.192   6.381   1.293
 7208SOL     OW22522   3.406   0.219   5.503
 7208SOL    HW122523   3.332   0.206   5.436
 7208SOL    HW222524   3.466   0.139   5.501
 7209SOL     OW22525   3.961   3.455   3.885
 7209SOL    HW122526   3.945   3.463   3.787
 7209SOL    HW222527   3.877   3.424   3.931
 7210SOL     OW22528   4.348   1.089   3.878
 7210SOL    HW122529   4.355   1.059   3.783
 7210SOL    HW222530   4.277   1.160   3.885
 7211SOL     OW22531   1.224   5.689   4.059
 7211SOL    HW122532   1.130   5.713   4.034
 7211SOL    HW222533   1.284   5.767   4.041
 7212SOL     OW22534   6.094   5.957   4.544
 7212SOL    HW122535   5.995   5.974   4.546
 7212SOL    HW222536   6.125   5.951   4.449
 7213SOL     OW22537   5.854   0.679   5.513
 7213SOL    HW122538   5.806   0.641   5.434
 7213SOL    HW222539   5.804   0.758   5.548
 7214SOL     OW22540   2.131   5.384   5.124
 7214SOL    HW122541   2.155   5.326   5.201
 7214SOL    HW222542   2.035   5.411   5.132
 7215SOL     OW22543   0.668   3.921   4.058
 7215SOL    HW122544   0.632   4.013   4.039
 7215SOL    HW222545   0.593   3.856   4.061
 7216SOL     OW22546   2.606   0.403   0.083
 7216SOL    HW122547   2.640   0.477   0.140
 7216SOL    HW222548   2.594   0.435   7.011
 7217SOL     OW22549   0.998   3.410   2.362
 7217SOL    HW122550   0.952   3.499   2.372
 7217SOL    HW222551   0.947   3.341   2.413
 7218SOL     OW22552   4.553   2.201   5.871
 7218SOL    HW122553   4.541   2.298   5.848
 7218SOL    HW222554   4.554   2.190   5.970
 7219SOL     OW22555   4.494   6.392   3.433
 7219SOL    HW122556   4.514   6.458   3.505
 7219SOL    HW222557   4.555   6.313   3.441
 7220SOL     OW22558   6.747   1.140   2.189
 7220SOL    HW122559   6.757   1.223   2.135
 7220SOL    HW222560   6.793   1.064   2.142
 7221SOL     OW22561   5.236   3.785   5.752
 7221SOL    HW122562   5.241   3.763   5.849
 7221SOL    HW222563   5.267   3.707   5.698
 7222SOL     OW22564   6.851   5.862   1.338
 7222SOL    HW122565   6.786   5.793   1.309
 7222SOL    HW222566   6.929   5.818   1.382
 7223SOL     OW22567   3.356   1.662   6.119
 7223SOL    HW122568   3.352   1.762   6.128
 7223SOL    HW222569   3.450   1.635   6.098
 7224SOL     OW22570   5.355   0.488   4.566
 7224SOL    HW122571   5.445   0.513   4.602
 7224SOL    HW222572   5.338   0.538   4.481
 7225SOL     OW22573   2.142   5.734   0.420
 7225SOL    HW122574   2.134   5.685   0.507
 7225SOL    HW222575   2.207   5.809   0.430
 7226SOL     OW22576   0.436   0.098   0.334
 7226SOL    HW122577   0.415   0.189   0.372
 7226SOL    HW222578   0.358   0.038   0.347
 7227SOL     OW22579   0.579   2.802   6.262
 7227SOL    HW122580   0.565   2.900   6.250
 7227SOL    HW222581   0.574   2.757   6.173
 7228SOL     OW22582   7.008   0.142   2.209
 7228SOL    HW122583   6.949   0.211   2.169
 7228SOL    HW222584   7.015   0.158   2.308
 7229SOL     OW22585   1.329   0.128   4.369
 7229SOL    HW122586   1.386   0.207   4.345
 7229SOL    HW222587   1.248   0.127   4.310
 7230SOL     OW22588   4.676   4.851   3.386
 7230SOL    HW122589   4.629   4.815   3.467
 7230SOL    HW222590   4.771   4.872   3.408
 7231SOL     OW22591   6.070   1.233   5.663
 7231SOL    HW122592   6.052   1.272   5.572
 7231SOL    HW222593   6.011   1.154   5.677
 7232SOL     OW22594   3.975   4.862   2.372
 7232SOL    HW122595   3.902   4.853   2.440
 7232SOL    HW222596   3.936   4.852   2.280
 7233SOL     OW22597   0.262   2.852   5.640
 7233SOL    HW122598   0.262   2.910   5.559
 7233SOL    HW222599   0.197   2.888   5.707
 7234SOL     OW22600   6.441   1.789   1.820
 7234SOL    HW122601   6.387   1.733   1.883
 7234SOL    HW222602   6.513   1.837   1.870
 7235SOL     OW22603   5.393   3.560   5.485
 7235SOL    HW122604   5.433   3.484   5.434
 7235SOL    HW222605   5.353   3.526   5.570
 7236SOL     OW22606   3.688   0.941   3.192
 7236SOL    HW122607   3.669   0.848   3.161
 7236SOL    HW222608   3.775   0.943   3.241
 7237SOL     OW22609   5.758   6.162   5.864
 7237SOL    HW122610   5.836   6.153   5.801
 7237SOL    HW222611   5.785   6.134   5.956
 7238SOL     OW22612   2.778   2.131   2.307
 7238SOL    HW122613   2.731   2.073   2.241
 7238SOL    HW222614   2.745   2.225   2.298
 7239SOL     OW22615   2.783   1.678   2.146
 7239SOL    HW122616   2.737   1.766   2.136
 7239SOL    HW222617   2.875   1.692   2.182
 7240SOL     OW22618   2.767   4.655   0.345
 7240SOL    HW122619   2.725   4.565   0.358
 7240SOL    HW222620   2.808   4.685   0.431
 7241SOL     OW22621   3.326   7.016   5.066
 7241SOL    HW122622   3.290   0.074   5.113
 7241SOL    HW222623   3.251   6.960   5.031
 7242SOL     OW22624   6.269   4.134   6.432
 7242SOL    HW122625   6.202   4.150   6.359
 7242SOL    HW222626   6.265   4.209   6.498
 7243SOL     OW22627   0.622   5.838   0.531
 7243SOL    HW122628   0.616   5.937   0.520
 7243SOL    HW222629   0.717   5.812   0.545
 7244SOL     OW22630   5.612   1.843   1.225
 7244SOL    HW122631   5.602   1.870   1.130
 7244SOL    HW222632   5.542   1.889   1.281
 7245SOL     OW22633   0.134   1.608   4.137
 7245SOL    HW122634   0.180   1.635   4.053
 7245SOL    HW222635   0.035   1.616   4.126
 7246SOL     OW22636   6.751   6.984   5.311
 7246SOL    HW122637   6.703   6.901   5.282
 7246SOL    HW222638   6.824   6.959   5.375
 7247SOL     OW22639   2.557   6.008   2.301
 7247SOL    HW122640   2.475   5.975   2.255
 7247SOL    HW222641   2.541   6.011   2.400
 7248SOL     OW22642   4.007   1.180   4.566
 7248SOL    HW122643   4.010   1.206   4.663
 7248SOL    HW222644   3.926   1.220   4.524
 7249SOL     OW22645   6.164   5.357   6.698
 7249SOL    HW122646   6.180   5.455   6.712
 7249SOL    HW222647   6.174   5.308   6.784
 7250SOL     OW22648   2.937   4.813   6.408
 7250SOL    HW122649   2.982   4.828   6.496
 7250SOL    HW222650   2.907   4.718   6.401
 7251SOL     OW22651   6.371   0.036   5.036
 7251SOL    HW122652   6.441   0.099   5.071
 7251SOL    HW222653   6.408   7.006   4.959
 7252SOL     OW22654   3.555   2.875   5.111
 7252SOL    HW122655   3.479   2.829   5.157
 7252SOL    HW222656   3.520   2.952   5.057
 7253SOL     OW22657   3.944   6.187   1.336
 7253SOL    HW122658   4.004   6.115   1.370
 7253SOL    HW222659   3.998   6.268   1.313
 7254SOL     OW22660   4.248   6.450   4.173
 7254SOL    HW122661   4.262   6.415   4.266
 7254SOL    HW222662   4.334   6.444   4.122
 7255SOL     OW22663   2.949   3.526   2.516
 7255SOL    HW122664   2.948   3.513   2.417
 7255SOL    HW222665   2.901   3.450   2.560
 7256SOL     OW22666   4.327   4.640   3.913
 7256SOL    HW122667   4.244   4.685   3.879
 7256SOL    HW222668   4.301   4.565   3.974
 7257SOL     OW22669   6.227   2.977   3.301
 7257SOL    HW122670   6.242   3.002   3.205
 7257SOL    HW222671   6.236   3.058   3.359
 7258SOL     OW22672   3.365   6.942   4.634
 7258SOL    HW122673   3.272   6.978   4.636
 7258SOL    HW222674   3.430   7.016   4.619
 7259SOL     OW22675   2.130   4.586   6.895
 7259SOL    HW122676   2.182   4.671   6.890
 7259SOL    HW222677   2.047   4.602   6.950
 7260SOL     OW22678   3.244   2.173   3.011
 7260SOL    HW122679   3.312   2.101   2.996
 7260SOL    HW222680   3.266   2.251   2.952
 7261SOL     OW22681   2.047   3.716   1.699
 7261SOL    HW122682   2.016   3.807   1.671
 7261SOL    HW222683   2.024   3.702   1.795
 7262SOL     OW22684   5.869   1.534   4.863
 7262SOL    HW122685   5.791   1.535   4.800
 7262SOL    HW222686   5.895   1.439   4.882
 7263SOL     OW22687   2.116   5.947   2.024
 7263SOL    HW122688   2.103   5.902   1.935
 7263SOL    HW222689   2.179   6.024   2.012
 7264SOL     OW22690   0.481   0.218   5.685
 7264SOL    HW122691   0.384   0.240   5.688
 7264SOL    HW222692   0.532   0.294   5.645
 7265SOL     OW22693   4.470   4.643   5.611
 7265SOL    HW122694   4.532   4.564   5.611
 7265SOL    HW222695   4.388   4.621   5.664
 7266SOL     OW22696   4.903   0.447   1.632
 7266SOL    HW122697   4.832   0.517   1.639
 7266SOL    HW222698   4.862   0.361   1.600
 7267SOL     OW22699   7.001   4.172   3.977
 7267SOL    HW122700   0.016   4.150   3.887
 7267SOL    HW222701   6.943   4.096   4.010
 7268SOL     OW22702   3.592   6.917   1.724
 7268SOL    HW122703   3.632   6.874   1.642
 7268SOL    HW222704   3.507   6.962   1.699
 7269SOL     OW22705   1.524   5.789   2.124
 7269SOL    HW122706   1.613   5.824   2.096
 7269SOL    HW222707   1.521   5.783   2.224
 7270SOL     OW22708   2.754   0.907   2.732
 7270SOL    HW122709   2.814   0.978   2.769
 7270SOL    HW222710   2.668   0.948   2.702
 7271SOL     OW22711   0.023   3.219   3.225
 7271SOL    HW122712   0.053   3.311   3.198
 7271SOL    HW222713   6.977   3.226   3.298
 7272SOL     OW22714   6.047   2.182   2.378
 7272SOL    HW122715   5.986   2.247   2.335
 7272SOL    HW222716   6.017   2.165   2.472
 7273SOL     OW22717   5.511   4.458   0.046
 7273SOL    HW122718   5.468   4.387   7.012
 7273SOL    HW222719   5.491   4.442   0.142
 7274SOL     OW22720   6.334   4.839   5.302
 7274SOL    HW122721   6.425   4.807   5.328
 7274SOL    HW222722   6.277   4.761   5.275
 7275SOL     OW22723   6.805   7.004   0.499
 7275SOL    HW122724   6.802   7.015   0.599
 7275SOL    HW222725   6.867   0.050   0.460
 7276SOL     OW22726   2.359   2.746   3.841
 7276SOL    HW122727   2.279   2.685   3.837
 7276SOL    HW222728   2.330   2.836   3.874
 7277SOL     OW22729   4.837   2.276   4.812
 7277SOL    HW122730   4.932   2.289   4.784
 7277SOL    HW222731   4.834   2.216   4.892
 7278SOL     OW22732   3.187   1.435   2.720
 7278SOL    HW122733   3.248   1.433   2.799
 7278SOL    HW222734   3.217   1.366   2.654
 7279SOL     OW22735   5.637   4.966   1.215
 7279SOL    HW122736   5.705   4.935   1.150
 7279SOL    HW222737   5.673   4.958   1.308
 7280SOL     OW22738   6.226   2.745   5.273
 7280SOL    HW122739   6.209   2.677   5.202
 7280SOL    HW222740   6.146   2.805   5.281
 7281SOL     OW22741   3.911   5.970   2.317
 7281SOL    HW122742   3.994   5.914   2.321
 7281SOL    HW222743   3.864   5.953   2.231
 7282SOL     OW22744   6.778   4.737   2.697
 7282SOL    HW122745   6.842   4.669   2.734
 7282SOL    HW222746   6.753   4.711   2.604
 7283SOL     OW22747   4.000   4.755   2.921
 7283SOL    HW122748   3.907   4.787   2.901
 7283SOL    HW222749   4.052   4.828   2.966
 7284SOL     OW22750   6.630   1.807   3.299
 7284SOL    HW122751   6.565   1.739   3.332
 7284SOL    HW222752   6.594   1.851   3.217
 7285SOL     OW22753   4.937   2.840   1.943
 7285SOL    HW122754   4.856   2.895   1.962
 7285SOL    HW222755   4.992   2.884   1.871
 7286SOL     OW22756   0.759   1.498   1.753
 7286SOL    HW122757   0.668   1.466   1.729
 7286SOL    HW222758   0.810   1.520   1.670
 7287SOL     OW22759   1.450   2.632   3.870
 7287SOL    HW122760   1.511   2.562   3.907
 7287SOL    HW222761   1.357   2.595   3.862
 7288SOL     OW22762   2.632   2.454   2.917
 7288SOL    HW122763   2.628   2.547   2.951
 7288SOL    HW222764   2.692   2.399   2.975
 7289SOL     OW22765   5.661   2.257   1.009
 7289SOL    HW122766   5.702   2.325   0.947
 7289SOL    HW222767   5.691   2.166   0.982
 7290SOL     OW22768   3.341   1.419   5.629
 7290SOL    HW122769   3.335   1.501   5.573
 7290SOL    HW222770   3.340   1.338   5.571
 7291SOL     OW22771   4.447   1.040   0.410
 7291SOL    HW122772   4.350   1.038   0.434
 7291SOL    HW222773   4.496   1.098   0.475
 7292SOL     OW22774   2.574   0.392   2.347
 7292SOL    HW122775   2.619   0.469   2.301
 7292SOL    HW222776   2.617   0.377   2.436
 7293SOL     OW22777   1.196   0.535   5.054
 7293SOL    HW122778   1.119   0.511   5.113
 7293SOL    HW222779   1.236   0.452   5.017
 7294SOL     OW22780   2.310   6.147   2.074
 7294SOL    HW122781   2.301   6.131   2.173
 7294SOL    HW222782   2.306   6.246   2.056
 7295SOL     OW22783   5.956   5.559   2.496
 7295SOL    HW122784   6.011   5.569   2.579
 7295SOL    HW222785   5.859   5.561   2.519
 7296SOL     OW22786   4.870   4.435   1.937
 7296SOL    HW122787   4.845   4.385   2.020
 7296SOL    HW222788   4.956   4.483   1.951
 7297SOL     OW22789   4.251   6.320   1.587
 7297SOL    HW122790   4.239   6.335   1.488
 7297SOL    HW222791   4.171   6.273   1.623
 7298SOL     OW22792   4.581   5.451   0.176
 7298SOL    HW122793   4.530   5.522   0.225
 7298SOL    HW222794   4.517   5.384   0.139
 7299SOL     OW22795   1.614   2.729   6.691
 7299SOL    HW122796   1.516   2.742   6.672
 7299SOL    HW222797   1.666   2.803   6.649
 7300SOL     OW22798   0.430   5.256   2.309
 7300SOL    HW122799   0.432   5.198   2.227
 7300SOL    HW222800   0.461   5.348   2.286
 7301SOL     OW22801   5.273   0.374   5.671
 7301SOL    HW122802   5.208   0.438   5.631
 7301SOL    HW222803   5.259   0.371   5.770
 7302SOL     OW22804   5.013   1.057   5.819
 7302SOL    HW122805   5.034   1.150   5.850
 7302SOL    HW222806   4.928   1.026   5.861
 7303SOL     OW22807   2.244   1.409   1.721
 7303SOL    HW122808   2.152   1.448   1.714
 7303SOL    HW222809   2.247   1.343   1.796
 7304SOL     OW22810   2.423   5.940   1.679
 7304SOL    HW122811   2.343   5.982   1.722
 7304SOL    HW222812   2.410   5.937   1.580
 7305SOL     OW22813   6.559   1.983   0.558
 7305SOL    HW122814   6.496   1.907   0.576
 7305SOL    HW222815   6.576   2.033   0.643
 7306SOL     OW22816   1.882   2.391   1.942
 7306SOL    HW122817   1.935   2.406   2.025
 7306SOL    HW222818   1.910   2.457   1.872
 7307SOL     OW22819   2.206   0.237   1.804
 7307SOL    HW122820   2.271   0.189   1.863
 7307SOL    HW222821   2.256   0.288   1.733
 7308SOL     OW22822   5.063   0.918   3.218
 7308SOL    HW122823   5.133   0.860   3.176
 7308SOL    HW222824   5.099   0.957   3.303
 7309SOL     OW22825   2.033   5.410   3.029
 7309SOL    HW122826   2.034   5.339   2.958
 7309SOL    HW222827   1.938   5.432   3.053
 7310SOL     OW22828   2.559   2.700   6.500
 7310SOL    HW122829   2.535   2.645   6.580
 7310SOL    HW222830   2.486   2.696   6.432
 7311SOL     OW22831   0.219   6.558   6.718
 7311SOL    HW122832   0.285   6.632   6.728
 7311SOL    HW222833   0.188   6.554   6.623
 7312SOL     OW22834   6.860   2.047   4.020
 7312SOL    HW122835   6.850   1.950   4.044
 7312SOL    HW222836   6.935   2.057   3.955
 7313SOL     OW22837   2.974   0.923   1.714
 7313SOL    HW122838   3.044   0.875   1.662
 7313SOL    HW222839   3.005   1.016   1.734
 7314SOL     OW22840   0.702   3.903   6.482
 7314SOL    HW122841   0.785   3.875   6.530
 7314SOL    HW222842   0.655   3.973   6.535
 7315SOL     OW22843   1.284   4.174   2.226
 7315SOL    HW122844   1.360   4.128   2.273
 7315SOL    HW222845   1.234   4.231   2.291
 7316SOL     OW22846   3.353   1.697   0.972
 7316SOL    HW122847   3.269   1.655   0.937
 7316SOL    HW222848   3.433   1.650   0.933
 7317SOL     OW22849   3.803   1.348   1.177
 7317SOL    HW122850   3.849   1.279   1.232
 7317SOL    HW222851   3.868   1.419   1.151
 7318SOL     OW22852   4.278   6.413   0.096
 7318SOL    HW122853   4.357   6.470   0.071
 7318SOL    HW222854   4.276   6.401   0.196
 7319SOL     OW22855   5.982   4.796   6.693
 7319SOL    HW122856   5.940   4.837   6.774
 7319SOL    HW222857   5.955   4.849   6.612
 7320SOL     OW22858   6.722   2.772   1.955
 7320SOL    HW122859   6.651   2.728   1.901
 7320SOL    HW222860   6.760   2.706   2.020
 7321SOL     OW22861   1.741   0.221   6.917
 7321SOL    HW122862   1.836   0.250   6.930
 7321SOL    HW222863   1.730   0.127   6.952
 7322SOL     OW22864   0.794   2.913   2.678
 7322SOL    HW122865   0.718   2.901   2.742
 7322SOL    HW222866   0.795   2.836   2.614
 7323SOL     OW22867   1.073   2.686   1.273
 7323SOL    HW122868   1.077   2.587   1.286
 7323SOL    HW222869   1.145   2.730   1.327
 7324SOL     OW22870   5.398   4.937   3.152
 7324SOL    HW122871   5.367   4.945   3.247
 7324SOL    HW222872   5.492   4.903   3.151
 7325SOL     OW22873   4.604   1.077   5.851
 7325SOL    HW122874   4.615   1.023   5.767
 7325SOL    HW222875   4.507   1.101   5.862
 7326SOL     OW22876   3.560   0.238   0.285
 7326SOL    HW122877   3.463   0.215   0.295
 7326SOL    HW222878   3.592   0.208   0.195
 7327SOL     OW22879   0.608   3.560   3.363
 7327SOL    HW122880   0.587   3.465   3.386
 7327SOL    HW222881   0.706   3.571   3.353
 7328SOL     OW22882   4.244   4.737   4.769
 7328SOL    HW122883   4.273   4.672   4.839
 7328SOL    HW222884   4.310   4.738   4.695
 7329SOL     OW22885   2.879   3.147   1.291
 7329SOL    HW122886   2.964   3.104   1.321
 7329SOL    HW222887   2.802   3.090   1.318
 7330SOL     OW22888   2.620   3.170   1.639
 7330SOL    HW122889   2.695   3.114   1.674
 7330SOL    HW222890   2.610   3.252   1.695
 7331SOL     OW22891   4.754   0.543   3.192
 7331SOL    HW122892   4.798   0.563   3.104
 7331SOL    HW222893   4.724   0.448   3.194
 7332SOL     OW22894   3.353   5.281   6.462
 7332SOL    HW122895   3.267   5.325   6.437
 7332SOL    HW222896   3.343   5.182   6.456
 7333SOL     OW22897   0.118   2.153   1.053
 7333SOL    HW122898   0.079   2.168   1.144
 7333SOL    HW222899   0.216   2.137   1.060
 7334SOL     OW22900   2.635   0.244   4.564
 7334SOL    HW122901   2.692   0.163   4.578
 7334SOL    HW222902   2.575   0.257   4.643
 7335SOL     OW22903   6.306   2.968   2.139
 7335SOL    HW122904   6.282   2.992   2.233
 7335SOL    HW222905   6.225   2.930   2.093
 7336SOL     OW22906   1.507   6.893   2.009
 7336SOL    HW122907   1.527   6.852   1.921
 7336SOL    HW222908   1.541   6.987   2.011
 7337SOL     OW22909   1.953   2.189   3.581
 7337SOL    HW122910   2.001   2.163   3.497
 7337SOL    HW222911   1.864   2.143   3.583
 7338SOL     OW22912   5.197   3.139   1.305
 7338SOL    HW122913   5.235   3.054   1.269
 7338SOL    HW222914   5.256   3.215   1.279
 7339SOL     OW22915   6.288   5.026   4.383
 7339SOL    HW122916   6.371   5.006   4.331
 7339SOL    HW222917   6.212   4.972   4.346
 7340SOL     OW22918   2.789   0.402   0.498
 7340SOL    HW122919   2.835   0.453   0.571
 7340SOL    HW222920   2.702   0.365   0.532
 7341SOL     OW22921   6.039   4.925   4.275
 7341SOL    HW122922   5.983   4.989   4.222
 7341SOL    HW222923   5.985   4.843   4.297
 7342SOL     OW22924   0.187   6.286   0.359
 7342SOL    HW122925   0.196   6.233   0.275
 7342SOL    HW222926   0.220   6.379   0.345
 7343SOL     OW22927   5.928   3.482   2.435
 7343SOL    HW122928   5.914   3.445   2.343
 7343SOL    HW222929   5.840   3.490   2.482
 7344SOL     OW22930   1.401   6.933   0.300
 7344SOL    HW122931   1.316   6.924   0.247
 7344SOL    HW222932   1.395   6.874   0.381
 7345SOL     OW22933   3.669   5.650   6.677
 7345SOL    HW122934   3.705   5.726   6.732
 7345SOL    HW222935   3.570   5.654   6.676
 7346SOL     OW22936   3.951   4.589   1.754
 7346SOL    HW122937   4.018   4.517   1.736
 7346SOL    HW222938   3.993   4.661   1.810
 7347SOL     OW22939   6.191   1.556   3.007
 7347SOL    HW122940   6.188   1.568   2.908
 7347SOL    HW222941   6.104   1.583   3.047
 7348SOL     OW22942   1.314   2.100   2.901
 7348SOL    HW122943   1.305   2.025   2.835
 7348SOL    HW222944   1.354   2.065   2.986
 7349SOL     OW22945   3.622   1.221   1.011
 7349SOL    HW122946   3.567   1.178   1.084
 7349SOL    HW222947   3.708   1.253   1.050
 7350SOL     OW22948   2.390   1.603   3.057
 7350SOL    HW122949   2.373   1.522   3.113
 7350SOL    HW222950   2.322   1.673   3.079
 7351SOL     OW22951   4.255   4.271   6.483
 7351SOL    HW122952   4.179   4.256   6.546
 7351SOL    HW222953   4.259   4.367   6.456
 7352SOL     OW22954   0.793   1.503   2.341
 7352SOL    HW122955   0.697   1.528   2.331
 7352SOL    HW222956   0.844   1.536   2.261
 7353SOL     OW22957   5.198   2.107   4.791
 7353SOL    HW122958   5.179   2.204   4.777
 7353SOL    HW222959   5.124   2.051   4.753
 7354SOL     OW22960   6.061   4.789   5.703
 7354SOL    HW122961   6.149   4.749   5.731
 7354SOL    HW222962   6.071   4.829   5.612
 7355SOL     OW22963   1.971   5.340   2.072
 7355SOL    HW122964   1.915   5.423   2.076
 7355SOL    HW222965   1.970   5.295   2.162
 7356SOL     OW22966   5.787   1.502   5.580
 7356SOL    HW122967   5.859   1.535   5.518
 7356SOL    HW222968   5.791   1.554   5.666
 7357SOL     OW22969   6.157   1.685   0.356
 7357SOL    HW122970   6.058   1.691   0.364
 7357SOL    HW222971   6.189   1.750   0.286
 7358SOL     OW22972   3.131   1.257   3.973
 7358SOL    HW122973   3.125   1.223   3.879
 7358SOL    HW222974   3.053   1.223   4.026
 7359SOL     OW22975   4.060   3.286   3.444
 7359SOL    HW122976   4.086   3.330   3.358
 7359SOL    HW222977   4.025   3.194   3.426
 7360SOL     OW22978   0.690   2.715   4.799
 7360SOL    HW122979   0.696   2.622   4.833
 7360SOL    HW222980   0.697   2.715   4.699
 7361SOL     OW22981   5.197   6.258   2.312
 7361SOL    HW122982   5.176   6.341   2.260
 7361SOL    HW222983   5.280   6.216   2.277
 7362SOL     OW22984   2.071   5.980   6.021
 7362SOL    HW122985   2.007   5.949   5.951
 7362SOL    HW222986   2.025   5.985   6.110
 7363SOL     OW22987   4.816   3.463   6.326
 7363SOL    HW122988   4.788   3.386   6.269
 7363SOL    HW222989   4.795   3.443   6.422
 7364SOL     OW22990   4.292   6.774   1.550
 7364SOL    HW122991   4.368   6.728   1.597
 7364SOL    HW222992   4.210   6.770   1.607
 7365SOL     OW22993   3.127   0.192   2.651
 7365SOL    HW122994   3.186   0.160   2.577
 7365SOL    HW222995   3.182   0.204   2.734
 7366SOL     OW22996   0.687   4.963   6.730
 7366SOL    HW122997   0.597   4.969   6.774
 7366SOL    HW222998   0.704   4.868   6.703
 7367SOL     OW22999   4.967   4.190   1.189
 7367SOL    HW123000   5.010   4.277   1.162
 7367SOL    HW223001   4.925   4.201   1.280
 7368SOL     OW23002   3.334   3.625   4.810
 7368SOL    HW123003   3.296   3.690   4.745
 7368SOL    HW223004   3.263   3.594   4.873
 7369SOL     OW23005   4.997   4.012   0.547
 7369SOL    HW123006   5.027   3.999   0.642
 7369SOL    HW223007   5.037   3.940   0.490
 7370SOL     OW23008   2.319   6.703   0.728
 7370SOL    HW123009   2.352   6.771   0.792
 7370SOL    HW223010   2.369   6.617   0.741
 7371SOL     OW23011   2.510   5.188   4.681
 7371SOL    HW123012   2.518   5.225   4.588
 7371SOL    HW223013   2.417   5.153   4.695
 7372SOL     OW23014   3.471   0.312   6.026
 7372SOL    HW123015   3.490   0.394   5.971
 7372SOL    HW223016   3.421   0.246   5.971
 7373SOL     OW23017   3.932   0.385   1.960
 7373SOL    HW123018   3.900   0.434   2.041
 7373SOL    HW223019   4.025   0.352   1.976
 7374SOL     OW23020   1.664   3.069   6.370
 7374SOL    HW123021   1.687   3.072   6.273
 7374SOL    HW223022   1.725   3.129   6.421
 7375SOL     OW23023   1.307   0.469   4.290
 7375SOL    HW123024   1.382   0.404   4.276
 7375SOL    HW223025   1.341   0.562   4.279
 7376SOL     OW23026   2.162   3.620   6.895
 7376SOL    HW123027   2.122   3.647   6.808
 7376SOL    HW223028   2.220   3.694   6.929
 7377SOL     OW23029   4.746   4.396   1.474
 7377SOL    HW123030   4.668   4.441   1.432
 7377SOL    HW223031   4.720   4.360   1.564
 7378SOL     OW23032   6.780   0.927   5.173
 7378SOL    HW123033   6.681   0.933   5.168
 7378SOL    HW223034   6.814   0.864   5.102
 7379SOL     OW23035   4.042   1.182   2.455
 7379SOL    HW123036   4.002   1.110   2.512
 7379SOL    HW223037   3.972   1.251   2.435
 7380SOL     OW23038   0.194   3.564   6.276
 7380SOL    HW123039   0.232   3.529   6.190
 7380SOL    HW223040   0.268   3.583   6.340
 7381SOL     OW23041   5.056   2.059   1.548
 7381SOL    HW123042   5.117   1.999   1.599
 7381SOL    HW223043   4.993   2.004   1.493
 7382SOL     OW23044   6.668   5.873   4.195
 7382SOL    HW123045   6.625   5.959   4.222
 7382SOL    HW223046   6.631   5.798   4.251
 7383SOL     OW23047   6.705   6.052   3.323
 7383SOL    HW123048   6.783   6.031   3.264
 7383SOL    HW223049   6.625   6.001   3.291
 7384SOL     OW23050   5.248   0.231   2.349
 7384SOL    HW123051   5.224   0.310   2.291
 7384SOL    HW223052   5.255   0.261   2.444
 7385SOL     OW23053   4.850   6.195   1.491
 7385SOL    HW123054   4.890   6.211   1.581
 7385SOL    HW223055   4.883   6.107   1.455
 7386SOL     OW23056   0.782   2.173   5.317
 7386SOL    HW123057   0.832   2.241   5.263
 7386SOL    HW223058   0.744   2.103   5.255
 7387SOL     OW23059   3.687   5.657   3.596
 7387SOL    HW123060   3.651   5.566   3.577
 7387SOL    HW223061   3.623   5.707   3.654
 7388SOL     OW23062   6.274   4.937   3.264
 7388SOL    HW123063   6.337   4.866   3.233
 7388SOL    HW223064   6.316   4.990   3.337
 7389SOL     OW23065   1.706   4.182   6.169
 7389SOL    HW123066   1.732   4.087   6.186
 7389SOL    HW223067   1.606   4.189   6.164
 7390SOL     OW23068   1.268   0.242   5.568
 7390SOL    HW123069   1.318   0.240   5.481
 7390SOL    HW223070   1.330   0.220   5.643
 7391SOL     OW23071   6.091   3.284   6.444
 7391SOL    HW123072   6.046   3.219   6.506
 7391SOL    HW223073   6.102   3.372   6.491
 7392SOL     OW23074   1.237   4.449   4.089
 7392SOL    HW123075   1.197   4.498   4.012
 7392SOL    HW223076   1.263   4.515   4.160
 7393SOL     OW23077   0.502   4.474   2.491
 7393SOL    HW123078   0.547   4.456   2.578
 7393SOL    HW223079   0.538   4.411   2.421
 7394SOL     OW23080   4.050   3.684   6.800
 7394SOL    HW123081   4.140   3.639   6.796
 7394SOL    HW223082   4.045   3.754   6.729
 7395SOL     OW23083   0.964   0.325   0.545
 7395SOL    HW123084   1.027   0.394   0.509
 7395SOL    HW223085   0.885   0.317   0.484
 7396SOL     OW23086   0.802   0.024   6.304
 7396SOL    HW123087   0.887   7.003   6.336
 7396SOL    HW223088   0.810   0.048   6.208
 7397SOL     OW23089   6.074   4.942   5.491
 7397SOL    HW123090   6.107   4.937   5.397
 7397SOL    HW223091   6.001   5.010   5.497
 7398SOL     OW23092   4.547   4.383   3.639
 7398SOL    HW123093   4.562   4.353   3.733
 7398SOL    HW223094   4.559   4.306   3.576
 7399SOL     OW23095   4.932   4.023   6.030
 7399SOL    HW123096   4.837   4.031   6.058
 7399SOL    HW223097   4.973   3.943   6.073
 7400SOL     OW23098   2.925   5.573   6.830
 7400SOL    HW123099   2.831   5.597   6.853
 7400SOL    HW223100   2.928   5.532   6.739
 7401SOL     OW23101   0.029   2.035   3.841
 7401SOL    HW123102   0.119   2.055   3.881
 7401SOL    HW223103   0.025   1.939   3.814
 7402SOL     OW23104   2.637   0.455   3.847
 7402SOL    HW123105   2.708   0.460   3.776
 7402SOL    HW223106   2.660   0.383   3.912
 7403SOL     OW23107   1.664   3.979   3.020
 7403SOL    HW123108   1.727   3.904   3.002
 7403SOL    HW223109   1.618   3.963   3.108
 7404SOL     OW23110   1.334   0.402   1.591
 7404SOL    HW123111   1.357   0.306   1.606
 7404SOL    HW223112   1.325   0.419   1.493
 7405SOL     OW23113   3.125   5.310   6.109
 7405SOL    HW123114   3.101   5.215   6.088
 7405SOL    HW223115   3.109   5.367   6.029
 7406SOL     OW23116   0.725   4.635   1.811
 7406SOL    HW123117   0.631   4.659   1.788
 7406SOL    HW223118   0.760   4.696   1.881
 7407SOL     OW23119   1.226   6.379   6.413
 7407SOL    HW123120   1.176   6.298   6.384
 7407SOL    HW223121   1.275   6.359   6.498
 7408SOL     OW23122   1.766   4.546   5.869
 7408SOL    HW123123   1.705   4.621   5.894
 7408SOL    HW223124   1.827   4.576   5.796
 7409SOL     OW23125   2.144   5.879   5.203
 7409SOL    HW123126   2.242   5.870   5.220
 7409SOL    HW223127   2.096   5.893   5.290
 7410SOL     OW23128   0.066   5.297   1.250
 7410SOL    HW123129   0.017   5.248   1.178
 7410SOL    HW223130   0.102   5.231   1.316
 7411SOL     OW23131   3.252   6.161   5.073
 7411SOL    HW123132   3.327   6.146   5.008
 7411SOL    HW223133   3.168   6.180   5.022
 7412SOL     OW23134   1.152   1.897   0.278
 7412SOL    HW123135   1.104   1.954   0.211
 7412SOL    HW223136   1.114   1.915   0.369
 7413SOL     OW23137   5.981   3.836   5.008
 7413SOL    HW123138   6.024   3.755   5.048
 7413SOL    HW223139   6.037   3.871   4.933
 7414SOL     OW23140   6.624   6.970   2.264
 7414SOL    HW123141   6.526   6.965   2.244
 7414SOL    HW223142   6.666   6.880   2.250
 7415SOL     OW23143   1.741   2.968   3.978
 7415SOL    HW123144   1.711   2.938   4.069
 7415SOL    HW223145   1.742   3.068   3.974
 7416SOL     OW23146   3.575   1.146   4.239
 7416SOL    HW123147   3.615   1.135   4.147
 7416SOL    HW223148   3.546   1.057   4.273
 7417SOL     OW23149   1.168   6.594   0.196
 7417SOL    HW123150   1.266   6.603   0.212
 7417SOL    HW223151   1.151   6.513   0.140
 7418SOL     OW23152   1.722   3.385   0.723
 7418SOL    HW123153   1.738   3.342   0.634
 7418SOL    HW223154   1.807   3.384   0.777
 7419SOL     OW23155   6.357   1.001   5.036
 7419SOL    HW123156   6.407   1.003   5.122
 7419SOL    HW223157   6.261   0.979   5.053
 7420SOL     OW23158   6.757   6.020   1.684
 7420SOL    HW123159   6.822   5.950   1.713
 7420SOL    HW223160   6.676   5.977   1.647
 7421SOL     OW23161   3.932   3.636   1.489
 7421SOL    HW123162   3.938   3.669   1.583
 7421SOL    HW223163   4.019   3.596   1.462
 7422SOL     OW23164   0.125   3.003   0.265
 7422SOL    HW123165   0.102   2.955   0.349
 7422SOL    HW223166   0.096   3.099   0.271
 7423SOL     OW23167   1.794   4.978   6.497
 7423SOL    HW123168   1.804   5.045   6.571
 7423SOL    HW223169   1.884   4.949   6.465
 7424SOL     OW23170   5.498   0.692   4.078
 7424SOL    HW123171   5.504   0.792   4.083
 7424SOL    HW223172   5.478   0.665   3.984
 7425SOL     OW23173   3.663   5.409   6.129
 7425SOL    HW123174   3.701   5.347   6.061
 7425SOL    HW223175   3.666   5.365   6.219
 7426SOL     OW23176   1.116   1.176   6.555
 7426SOL    HW123177   1.130   1.206   6.649
 7426SOL    HW223178   1.018   1.175   6.535
 7427SOL     OW23179   4.116   5.189   4.847
 7427SOL    HW123180   4.058   5.190   4.766
 7427SOL    HW223181   4.128   5.282   4.882
 7428SOL     OW23182   3.416   2.019   5.834
 7428SOL    HW123183   3.476   2.081   5.884
 7428SOL    HW223184   3.463   1.987   5.752
 7429SOL     OW23185   0.328   0.570   3.010
 7429SOL    HW123186   0.419   0.597   2.980
 7429SOL    HW223187   0.334   0.492   3.072
 7430SOL     OW23188   6.234   3.918   5.252
 7430SOL    HW123189   6.176   3.838   5.242
 7430SOL    HW223190   6.291   3.929   5.170
 7431SOL     OW23191   0.612   4.241   1.976
 7431SOL    HW123192   0.541   4.175   2.001
 7431SOL    HW223193   0.702   4.198   1.983
 7432SOL     OW23194   6.994   6.496   4.855
 7432SOL    HW123195   0.024   6.474   4.938
 7432SOL    HW223196   0.034   6.491   4.776
 7433SOL     OW23197   6.214   5.356   0.815
 7433SOL    HW123198   6.121   5.320   0.807
 7433SOL    HW223199   6.210   5.455   0.829
 7434SOL     OW23200   3.357   1.187   6.198
 7434SOL    HW123201   3.387   1.124   6.270
 7434SOL    HW223202   3.414   1.174   6.117
 7435SOL     OW23203   2.712   6.442   0.429
 7435SOL    HW123204   2.640   6.411   0.367
 7435SOL    HW223205   2.693   6.537   0.455
 7436SOL     OW23206   5.055   3.234   0.217
 7436SOL    HW123207   4.991   3.158   0.229
 7436SOL    HW223208   5.117   3.214   0.141
 7437SOL     OW23209   0.957   5.801   5.922
 7437SOL    HW123210   1.015   5.841   5.992
 7437SOL    HW223211   0.955   5.702   5.933
 7438SOL     OW23212   6.680   4.670   1.758
 7438SOL    HW123213   6.776   4.644   1.750
 7438SOL    HW223214   6.651   4.659   1.853
 7439SOL     OW23215   1.935   0.078   3.661
 7439SOL    HW123216   2.031   0.065   3.638
 7439SOL    HW223217   1.886   0.117   3.582
 7440SOL     OW23218   1.218   2.624   4.495
 7440SOL    HW123219   1.191   2.719   4.480
 7440SOL    HW223220   1.177   2.566   4.426
 7441SOL     OW23221   5.743   1.197   4.110
 7441SOL    HW123222   5.773   1.242   4.025
 7441SOL    HW223223   5.713   1.267   4.175
 7442SOL     OW23224   0.934   0.808   6.550
 7442SOL    HW123225   0.905   0.904   6.550
 7442SOL    HW223226   0.853   0.749   6.537
 7443SOL     OW23227   0.472   1.118   6.742
 7443SOL    HW123228   0.424   1.123   6.654
 7443SOL    HW223229   0.547   1.185   6.742
 7444SOL     OW23230   0.886   3.238   6.398
 7444SOL    HW123231   0.883   3.142   6.426
 7444SOL    HW223232   0.862   3.296   6.476
 7445SOL     OW23233   5.160   1.825   2.036
 7445SOL    HW123234   5.210   1.749   1.994
 7445SOL    HW223235   5.072   1.837   1.989
 7446SOL     OW23236   6.573   4.205   1.324
 7446SOL    HW123237   6.492   4.178   1.376
 7446SOL    HW223238   6.606   4.293   1.358
 7447SOL     OW23239   1.546   3.777   6.284
 7447SOL    HW123240   1.479   3.841   6.322
 7447SOL    HW223241   1.499   3.707   6.230
 7448SOL     OW23242   6.450   0.281   6.066
 7448SOL    HW123243   6.504   0.201   6.040
 7448SOL    HW223244   6.485   0.362   6.019
 7449SOL     OW23245   5.690   2.083   1.935
 7449SOL    HW123246   5.624   2.008   1.942
 7449SOL    HW223247   5.741   2.090   2.020
 7450SOL     OW23248   4.628   2.089   2.794
 7450SOL    HW123249   4.710   2.123   2.842
 7450SOL    HW223250   4.642   2.097   2.696
 7451SOL     OW23251   2.092   0.745   4.945
 7451SOL    HW123252   2.014   0.807   4.940
 7451SOL    HW223253   2.073   0.663   4.891
 7452SOL     OW23254   1.811   6.633   4.789
 7452SOL    HW123255   1.770   6.577   4.716
 7452SOL    HW223256   1.749   6.635   4.868
 7453SOL     OW23257   5.480   6.145   4.300
 7453SOL    HW123258   5.477   6.080   4.377
 7453SOL    HW223259   5.508   6.235   4.334
 7454SOL     OW23260   0.777   3.471   1.505
 7454SOL    HW123261   0.831   3.544   1.462
 7454SOL    HW223262   0.689   3.465   1.459
 7455SOL     OW23263   4.753   2.801   0.440
 7455SOL    HW123264   4.706   2.849   0.514
 7455SOL    HW223265   4.842   2.768   0.472
 7456SOL     OW23266   1.764   3.407   4.681
 7456SOL    HW123267   1.760   3.485   4.618
 7456SOL    HW223268   1.671   3.374   4.699
 7457SOL     OW23269   6.304   0.750   5.443
 7457SOL    HW123270   6.323   0.685   5.517
 7457SOL    HW223271   6.362   0.729   5.364
 7458SOL     OW23272   2.831   0.894   0.734
 7458SOL    HW123273   2.840   0.948   0.817
 7458SOL    HW223274   2.839   0.797   0.757
 7459SOL     OW23275   4.600   0.586   4.640
 7459SOL    HW123276   4.502   0.566   4.630
 7459SOL    HW223277   4.619   0.677   4.604
 7460SOL     OW23278   0.412   4.394   0.481
 7460SOL    HW123279   0.486   4.437   0.534
 7460SOL    HW223280   0.391   4.305   0.520
 7461SOL     OW23281   5.288   1.064   4.708
 7461SOL    HW123282   5.263   1.000   4.780
 7461SOL    HW223283   5.374   1.110   4.733
 7462SOL     OW23284   2.148   2.022   2.514
 7462SOL    HW123285   2.233   1.970   2.508
 7462SOL    HW223286   2.115   2.044   2.422
 7463SOL     OW23287   4.065   3.823   2.199
 7463SOL    HW123288   4.096   3.891   2.133
 7463SOL    HW223289   4.040   3.869   2.285
 7464SOL     OW23290   5.147   5.786   0.830
 7464SOL    HW123291   5.163   5.697   0.873
 7464SOL    HW223292   5.160   5.779   0.731
 7465SOL     OW23293   3.076   0.061   1.937
 7465SOL    HW123294   3.029   0.103   1.859
 7465SOL    HW223295   3.112   0.132   1.996
 7466SOL     OW23296   0.335   0.364   6.812
 7466SOL    HW123297   0.377   0.319   6.733
 7466SOL    HW223298   0.262   0.306   6.847
 7467SOL     OW23299   0.281   1.745   0.790
 7467SOL    HW123300   0.329   1.832   0.775
 7467SOL    HW223301   0.183   1.758   0.772
 7468SOL     OW23302   5.754   1.559   2.718
 7468SOL    HW123303   5.725   1.488   2.654
 7468SOL    HW223304   5.680   1.625   2.731
 7469SOL     OW23305   1.376   0.933   0.688
 7469SOL    HW123306   1.445   0.868   0.655
 7469SOL    HW223307   1.292   0.884   0.711
 7470SOL     OW23308   6.999   2.176   2.360
 7470SOL    HW123309   6.966   2.178   2.266
 7470SOL    HW223310   7.002   2.270   2.396
 7471SOL     OW23311   6.110   6.567   5.822
 7471SOL    HW123312   6.052   6.644   5.795
 7471SOL    HW223313   6.057   6.503   5.877
 7472SOL     OW23314   3.391   0.495   3.974
 7472SOL    HW123315   3.298   0.460   3.985
 7472SOL    HW223316   3.457   0.420   3.982
 7473SOL     OW23317   6.460   4.009   4.641
 7473SOL    HW123318   6.445   4.024   4.544
 7473SOL    HW223319   6.483   3.913   4.657
 7474SOL     OW23320   3.865   0.902   3.409
 7474SOL    HW123321   3.837   0.977   3.469
 7474SOL    HW223322   3.827   0.816   3.444
 7475SOL     OW23323   3.850   0.964   1.224
 7475SOL    HW123324   3.784   0.921   1.286
 7475SOL    HW223325   3.905   1.030   1.276
 7476SOL     OW23326   3.539   6.482   4.209
 7476SOL    HW123327   3.477   6.486   4.131
 7476SOL    HW223328   3.631   6.459   4.178
 7477SOL     OW23329   4.113   1.390   4.056
 7477SOL    HW123330   4.143   1.327   3.985
 7477SOL    HW223331   4.189   1.408   4.119
 7478SOL     OW23332   2.104   4.427   0.357
 7478SOL    HW123333   2.088   4.472   0.445
 7478SOL    HW223334   2.021   4.380   0.328
 7479SOL     OW23335   4.616   0.986   6.941
 7479SOL    HW123336   4.581   1.024   6.856
 7479SOL    HW223337   4.620   1.059   7.010
 7480SOL     OW23338   6.477   6.087   1.113
 7480SOL    HW123339   6.407   6.040   1.058
 7480SOL    HW223340   6.544   6.129   1.052
 7481SOL     OW23341   5.728   4.837   0.744
 7481SOL    HW123342   5.709   4.749   0.700
 7481SOL    HW223343   5.758   4.903   0.675
 7482SOL     OW23344   4.603   0.985   2.679
 7482SOL    HW123345   4.616   0.949   2.772
 7482SOL    HW223346   4.617   0.913   2.612
 7483SOL     OW23347   3.509   0.868   4.518
 7483SOL    HW123348   3.526   0.944   4.580
 7483SOL    HW223349   3.435   0.812   4.554
 7484SOL     OW23350   2.012   6.396   2.378
 7484SOL    HW123351   2.005   6.313   2.323
 7484SOL    HW223352   1.954   6.467   2.339
 7485SOL     OW23353   2.994   5.665   6.220
 7485SOL    HW123354   2.903   5.631   6.243
 7485SOL    HW223355   3.063   5.602   6.255
 7486SOL     OW23356   2.968   6.004   5.401
 7486SOL    HW123357   2.993   5.911   5.429
 7486SOL    HW223358   3.050   6.060   5.392
 7487SOL     OW23359   3.181   6.128   4.011
 7487SOL    HW123360   3.248   6.054   4.003
 7487SOL    HW223361   3.153   6.138   4.106
 7488SOL     OW23362   3.745   0.249   6.052
 7488SOL    HW123363   3.648   0.250   6.029
 7488SOL    HW223364   3.788   0.332   6.017
 7489SOL     OW23365   4.895   2.711   4.243
 7489SOL    HW123366   4.820   2.720   4.309
 7489SOL    HW223367   4.861   2.730   4.151
 7490SOL     OW23368   5.797   0.752   1.064
 7490SOL    HW123369   5.807   0.734   0.966
 7490SOL    HW223370   5.749   0.838   1.078
 7491SOL     OW23371   6.568   5.692   6.085
 7491SOL    HW123372   6.495   5.740   6.135
 7491SOL    HW223373   6.624   5.641   6.150
 7492SOL     OW23374   1.759   2.731   5.125
 7492SOL    HW123375   1.791   2.825   5.139
 7492SOL    HW223376   1.770   2.706   5.029
 7493SOL     OW23377   5.508   3.434   6.613
 7493SOL    HW123378   5.444   3.450   6.688
 7493SOL    HW223379   5.586   3.496   6.623
 7494SOL     OW23380   5.306   0.282   2.014
 7494SOL    HW123381   5.301   0.348   2.089
 7494SOL    HW223382   5.309   0.330   1.927
 7495SOL     OW23383   2.157   1.947   0.767
 7495SOL    HW123384   2.243   1.904   0.791
 7495SOL    HW223385   2.120   1.905   0.684
 7496SOL     OW23386   1.143   5.060   6.219
 7496SOL    HW123387   1.111   5.009   6.299
 7496SOL    HW223388   1.243   5.052   6.212
 7497SOL     OW23389   1.586   4.095   2.299
 7497SOL    HW123390   1.606   4.181   2.254
 7497SOL    HW223391   1.571   4.111   2.397
 7498SOL     OW23392   3.434   1.880   4.726
 7498SOL    HW123393   3.396   1.939   4.796
 7498SOL    HW223394   3.432   1.926   4.638
 7499SOL     OW23395   5.644   7.006   4.627
 7499SOL    HW123396   5.697   0.064   4.655
 7499SOL    HW223397   5.665   6.929   4.688
 7500SOL     OW23398   4.612   6.272   2.081
 7500SOL    HW123399   4.698   6.323   2.075
 7500SOL    HW223400   4.630   6.180   2.116
 7501SOL     OW23401   0.413   4.154   3.645
 7501SOL    HW123402   0.386   4.059   3.657
 7501SOL    HW223403   0.512   4.161   3.641
 7502SOL     OW23404   2.649   0.617   5.085
 7502SOL    HW123405   2.555   0.584   5.087
 7502SOL    HW223406   2.655   0.702   5.138
 7503SOL     OW23407   2.891   1.182   0.149
 7503SOL    HW123408   2.972   1.134   0.116
 7503SOL    HW223409   2.879   1.267   0.098
 7504SOL     OW23410   4.254   6.619   3.322
 7504SOL    HW123411   4.175   6.606   3.382
 7504SOL    HW223412   4.295   6.708   3.340
 7505SOL     OW23413   1.712   1.490   4.819
 7505SOL    HW123414   1.714   1.590   4.809
 7505SOL    HW223415   1.735   1.447   4.732
 7506SOL     OW23416   3.681   0.688   2.459
 7506SOL    HW123417   3.748   0.762   2.462
 7506SOL    HW223418   3.722   0.604   2.495
 7507SOL     OW23419   1.036   6.373   5.604
 7507SOL    HW123420   1.064   6.450   5.661
 7507SOL    HW223421   0.989   6.305   5.660
 7508SOL     OW23422   5.937   6.961   2.800
 7508SOL    HW123423   5.878   6.907   2.860
 7508SOL    HW223424   5.996   6.900   2.747
 7509SOL     OW23425   4.847   3.411   5.981
 7509SOL    HW123426   4.783   3.486   6.001
 7509SOL    HW223427   4.847   3.392   5.883
 7510SOL     OW23428   3.554   4.222   4.889
 7510SOL    HW123429   3.567   4.274   4.805
 7510SOL    HW223430   3.640   4.217   4.939
 7511SOL     OW23431   1.569   0.473   2.369
 7511SOL    HW123432   1.582   0.389   2.316
 7511SOL    HW223433   1.658   0.505   2.403
 7512SOL     OW23434   2.806   3.041   1.775
 7512SOL    HW123435   2.830   2.945   1.790
 7512SOL    HW223436   2.856   3.098   1.840
 7513SOL     OW23437   1.577   1.869   6.650
 7513SOL    HW123438   1.630   1.910   6.724
 7513SOL    HW223439   1.633   1.801   6.603
 7514SOL     OW23440   2.744   5.685   2.446
 7514SOL    HW123441   2.802   5.604   2.437
 7514SOL    HW223442   2.773   5.755   2.380
 7515SOL     OW23443   6.732   6.790   2.721
 7515SOL    HW123444   6.731   6.730   2.642
 7515SOL    HW223445   6.680   6.747   2.796
 7516SOL     OW23446   0.900   1.165   3.947
 7516SOL    HW123447   0.820   1.223   3.932
 7516SOL    HW223448   0.880   1.072   3.915
 7517SOL     OW23449   0.256   3.928   0.804
 7517SOL    HW123450   0.325   3.986   0.760
 7517SOL    HW223451   0.240   3.848   0.747
 7518SOL     OW23452   4.362   5.641   4.235
 7518SOL    HW123453   4.405   5.551   4.246
 7518SOL    HW223454   4.287   5.650   4.300
 7519SOL     OW23455   1.633   6.114   4.571
 7519SOL    HW123456   1.692   6.074   4.641
 7519SOL    HW223457   1.600   6.043   4.510
 7520SOL     OW23458   1.615   6.694   3.806
 7520SOL    HW123459   1.531   6.649   3.776
 7520SOL    HW223460   1.660   6.637   3.875
 7521SOL     OW23461   4.790   4.051   4.779
 7521SOL    HW123462   4.829   3.984   4.717
 7521SOL    HW223463   4.706   4.089   4.739
 7522SOL     OW23464   2.406   1.186   0.736
 7522SOL    HW123465   2.396   1.285   0.738
 7522SOL    HW223466   2.321   1.144   0.703
 7523SOL     OW23467   5.784   0.321   6.044
 7523SOL    HW123468   5.862   0.310   5.981
 7523SOL    HW223469   5.812   0.296   6.136
 7524SOL     OW23470   0.336   1.921   5.476
 7524SOL    HW123471   0.271   1.995   5.461
 7524SOL    HW223472   0.406   1.950   5.542
 7525SOL     OW23473   1.427   0.813   0.010
 7525SOL    HW123474   1.472   0.891   6.986
 7525SOL    HW223475   1.395   0.842   0.100
 7526SOL     OW23476   3.552   2.882   4.455
 7526SOL    HW123477   3.643   2.918   4.473
 7526SOL    HW223478   3.545   2.852   4.360
 7527SOL     OW23479   5.078   4.184   2.689
 7527SOL    HW123480   5.133   4.165   2.770
 7527SOL    HW223481   5.010   4.112   2.677
 7528SOL     OW23482   4.704   2.765   0.126
 7528SOL    HW123483   4.674   2.747   0.220
 7528SOL    HW223484   4.698   2.680   0.072
 7529SOL     OW23485   3.957   1.129   5.116
 7529SOL    HW123486   3.975   1.044   5.067
 7529SOL    HW223487   3.901   1.109   5.197
 7530SOL     OW23488   0.199   4.312   2.141
 7530SOL    HW123489   0.268   4.253   2.186
 7530SOL    HW223490   0.157   4.262   2.066
 7531SOL     OW23491   4.179   1.957   3.750
 7531SOL    HW123492   4.247   1.949   3.822
 7531SOL    HW223493   4.145   2.051   3.746
 7532SOL     OW23494   5.291   5.705   2.411
 7532SOL    HW123495   5.207   5.742   2.371
 7532SOL    HW223496   5.342   5.778   2.455
 7533SOL     OW23497   3.315   1.076   4.689
 7533SOL    HW123498   3.324   1.064   4.590
 7533SOL    HW223499   3.404   1.063   4.733
 7534SOL     OW23500   4.176   6.427   4.972
 7534SOL    HW123501   4.173   6.343   4.918
 7534SOL    HW223502   4.216   6.501   4.918
 7535SOL     OW23503   2.785   2.261   6.002
 7535SOL    HW123504   2.879   2.229   5.984
 7535SOL    HW223505   2.734   2.188   6.047
 7536SOL     OW23506   4.247   5.586   4.753
 7536SOL    HW123507   4.278   5.510   4.810
 7536SOL    HW223508   4.151   5.573   4.729
 7537SOL     OW23509   2.446   4.846   5.643
 7537SOL    HW123510   2.494   4.796   5.715
 7537SOL    HW223511   2.466   4.804   5.554
 7538SOL     OW23512   2.890   3.368   3.215
 7538SOL    HW123513   2.895   3.468   3.217
 7538SOL    HW223514   2.795   3.340   3.219
 7539SOL     OW23515   2.097   2.941   5.225
 7539SOL    HW123516   2.122   2.913   5.132
 7539SOL    HW223517   2.171   2.996   5.264
 7540SOL     OW23518   2.860   1.665   6.883
 7540SOL    HW123519   2.929   1.657   6.811
 7540SOL    HW223520   2.899   1.711   6.963
 7541SOL     OW23521   6.141   1.917   5.090
 7541SOL    HW123522   6.230   1.897   5.050
 7541SOL    HW223523   6.096   1.832   5.117
 7542SOL     OW23524   1.447   6.971   5.729
 7542SOL    HW123525   1.462   6.944   5.634
 7542SOL    HW223526   1.533   6.962   5.780
 7543SOL     OW23527   3.774   3.603   0.604
 7543SOL    HW123528   3.844   3.661   0.646
 7543SOL    HW223529   3.711   3.660   0.551
 7544SOL     OW23530   1.810   2.485   3.234
 7544SOL    HW123531   1.829   2.564   3.293
 7544SOL    HW223532   1.882   2.477   3.165
 7545SOL     OW23533   5.069   6.590   3.913
 7545SOL    HW123534   5.087   6.564   4.007
 7545SOL    HW223535   5.064   6.508   3.856
 7546SOL     OW23536   4.900   0.426   0.096
 7546SOL    HW123537   4.933   0.511   0.138
 7546SOL    HW223538   4.884   0.442   7.020
 7547SOL     OW23539   3.732   0.335   0.493
 7547SOL    HW123540   3.715   0.430   0.518
 7547SOL    HW223541   3.654   0.300   0.441
 7548SOL     OW23542   2.728   2.265   1.525
 7548SOL    HW123543   2.826   2.261   1.508
 7548SOL    HW223544   2.709   2.330   1.598
 7549SOL     OW23545   5.304   2.192   2.752
 7549SOL    HW123546   5.231   2.150   2.699
 7549SOL    HW223547   5.289   2.291   2.758
 7550SOL     OW23548   1.767   6.203   2.859
 7550SOL    HW123549   1.721   6.189   2.771
 7550SOL    HW223550   1.858   6.240   2.843
 7551SOL     OW23551   4.761   3.163   6.639
 7551SOL    HW123552   4.665   3.141   6.654
 7551SOL    HW223553   4.798   3.207   6.721
 7552SOL     OW23554   2.483   5.278   4.402
 7552SOL    HW123555   2.425   5.309   4.327
 7552SOL    HW223556   2.579   5.285   4.375
 7553SOL     OW23557   3.876   5.691   5.835
 7553SOL    HW123558   3.778   5.708   5.836
 7553SOL    HW223559   3.914   5.720   5.747
 7554SOL     OW23560   5.524   1.565   0.315
 7554SOL    HW123561   5.525   1.532   0.409
 7554SOL    HW223562   5.519   1.487   0.252
 7555SOL     OW23563   0.169   6.421   5.064
 7555SOL    HW123564   0.249   6.380   5.107
 7555SOL    HW223565   0.122   6.351   5.009
 7556SOL     OW23566   0.465   3.089   4.319
 7556SOL    HW123567   0.513   3.004   4.339
 7556SOL    HW223568   0.530   3.166   4.323
 7557SOL     OW23569   5.323   4.108   5.999
 7557SOL    HW123570   5.398   4.173   6.014
 7557SOL    HW223571   5.349   4.018   6.035
 7558SOL     OW23572   1.958   3.466   3.253
 7558SOL    HW123573   1.880   3.412   3.223
 7558SOL    HW223574   1.955   3.477   3.352
 7559SOL     OW23575   0.498   4.728   0.926
 7559SOL    HW123576   0.573   4.791   0.948
 7559SOL    HW223577   0.448   4.705   1.009
 7560SOL     OW23578   5.374   6.811   0.736
 7560SOL    HW123579   5.321   6.740   0.783
 7560SOL    HW223580   5.338   6.824   0.644
 7561SOL     OW23581   6.553   3.388   0.291
 7561SOL    HW123582   6.597   3.471   0.327
 7561SOL    HW223583   6.456   3.405   0.276
 7562SOL     OW23584   5.046   6.579   5.165
 7562SOL    HW123585   5.131   6.584   5.219
 7562SOL    HW223586   5.057   6.513   5.091
 7563SOL     OW23587   3.008   0.565   2.021
 7563SOL    HW123588   2.949   0.641   1.994
 7563SOL    HW223589   2.989   0.539   2.115
 7564SOL     OW23590   4.843   0.123   3.015
 7564SOL    HW123591   4.915   0.160   3.073
 7564SOL    HW223592   4.838   0.177   2.930
 7565SOL     OW23593   4.643   5.076   6.978
 7565SOL    HW123594   4.595   5.094   6.892
 7565SOL    HW223595   4.719   5.140   6.989
 7566SOL     OW23596   0.556   5.813   4.796
 7566SOL    HW123597   0.627   5.782   4.732
 7566SOL    HW223598   0.469   5.770   4.772
 7567SOL     OW23599   2.572   4.837   6.420
 7567SOL    HW123600   2.625   4.836   6.335
 7567SOL    HW223601   2.623   4.887   6.490
 7568SOL     OW23602   4.977   5.784   3.014
 7568SOL    HW123603   5.062   5.747   2.977
 7568SOL    HW223604   4.980   5.884   3.010
 7569SOL     OW23605   3.971   5.656   0.024
 7569SOL    HW123606   3.877   5.660   0.058
 7569SOL    HW223607   3.976   5.591   6.970
 7570SOL     OW23608   5.486   5.187   3.861
 7570SOL    HW123609   5.549   5.254   3.820
 7570SOL    HW223610   5.485   5.199   3.961
 7571SOL     OW23611   5.964   3.570   1.500
 7571SOL    HW123612   5.865   3.567   1.482
 7571SOL    HW223613   6.011   3.611   1.422
 7572SOL     OW23614   3.602   0.831   4.250
 7572SOL    HW123615   3.584   0.857   4.345
 7572SOL    HW223616   3.525   0.776   4.216
 7573SOL     OW23617   0.243   6.214   4.436
 7573SOL    HW123618   0.236   6.185   4.341
 7573SOL    HW223619   0.340   6.218   4.462
 7574SOL     OW23620   5.445   6.852   3.378
 7574SOL    HW123621   5.455   6.926   3.445
 7574SOL    HW223622   5.351   6.850   3.344
 7575SOL     OW23623   3.917   1.318   5.512
 7575SOL    HW123624   3.834   1.368   5.490
 7575SOL    HW223625   3.997   1.371   5.482
 7576SOL     OW23626   6.307   3.422   0.203
 7576SOL    HW123627   6.298   3.470   0.116
 7576SOL    HW223628   6.226   3.367   0.220
 7577SOL     OW23629   6.382   0.998   4.776
 7577SOL    HW123630   6.357   1.016   4.872
 7577SOL    HW223631   6.481   1.001   4.767
 7578SOL     OW23632   2.125   5.622   4.968
 7578SOL    HW123633   2.094   5.586   5.056
 7578SOL    HW223634   2.219   5.594   4.952
 7579SOL     OW23635   3.563   1.650   2.799
 7579SOL    HW123636   3.517   1.734   2.829
 7579SOL    HW223637   3.626   1.620   2.871
 7580SOL     OW23638   1.999   4.022   2.749
 7580SOL    HW123639   1.956   3.956   2.810
 7580SOL    HW223640   1.953   4.110   2.758
 7581SOL     OW23641   5.047   1.765   1.130
 7581SOL    HW123642   5.025   1.677   1.087
 7581SOL    HW223643   5.141   1.763   1.164
 7582SOL     OW23644   3.564   1.451   1.249
 7582SOL    HW123645   3.565   1.504   1.334
 7582SOL    HW223646   3.657   1.428   1.223
 7583SOL     OW23647   5.698   3.159   1.908
 7583SOL    HW123648   5.692   3.257   1.930
 7583SOL    HW223649   5.793   3.133   1.898
 7584SOL     OW23650   2.752   6.719   1.497
 7584SOL    HW123651   2.669   6.667   1.511
 7584SOL    HW223652   2.735   6.793   1.432
 7585SOL     OW23653   1.427   4.827   6.610
 7585SOL    HW123654   1.491   4.867   6.545
 7585SOL    HW223655   1.435   4.873   6.698
 7586SOL     OW23656   2.991   0.416   2.726
 7586SOL    HW123657   3.031   0.330   2.694
 7586SOL    HW223658   2.892   0.412   2.718
 7587SOL     OW23659   1.157   1.684   6.330
 7587SOL    HW123660   1.063   1.700   6.361
 7587SOL    HW223661   1.190   1.765   6.282
 7588SOL     OW23662   0.210   4.854   3.133
 7588SOL    HW123663   0.307   4.867   3.152
 7588SOL    HW223664   0.194   4.863   3.034
 7589SOL     OW23665   6.119   5.845   0.562
 7589SOL    HW123666   6.124   5.920   0.627
 7589SOL    HW223667   6.054   5.868   0.490
 7590SOL     OW23668   2.607   1.587   5.778
 7590SOL    HW123669   2.585   1.561   5.872
 7590SOL    HW223670   2.574   1.679   5.760
 7591SOL     OW23671   6.982   4.792   6.810
 7591SOL    HW123672   0.035   4.814   6.746
 7591SOL    HW223673   6.895   4.800   6.762
 7592SOL     OW23674   6.600   5.048   6.815
 7592SOL    HW123675   6.542   5.129   6.824
 7592SOL    HW223676   6.693   5.076   6.794
 7593SOL     OW23677   4.935   2.129   7.013
 7593SOL    HW123678   4.882   2.070   6.953
 7593SOL    HW223679   4.885   2.144   0.076
 7594SOL     OW23680   0.930   6.078   4.140
 7594SOL    HW123681   1.021   6.056   4.106
 7594SOL    HW223682   0.923   6.176   4.157
 7595SOL     OW23683   0.005   3.010   6.387
 7595SOL    HW123684   0.084   3.023   6.327
 7595SOL    HW223685   6.954   3.073   6.361
 7596SOL     OW23686   5.163   4.465   1.704
 7596SOL    HW123687   5.105   4.416   1.769
 7596SOL    HW223688   5.126   4.456   1.612
 7597SOL     OW23689   3.742   5.093   1.556
 7597SOL    HW123690   3.815   5.096   1.487
 7597SOL    HW223691   3.654   5.085   1.510
 7598SOL     OW23692   6.937   6.993   3.015
 7598SOL    HW123693   6.849   7.019   2.976
 7598SOL    HW223694   7.010   0.027   2.974
 7599SOL     OW23695   6.299   1.914   3.681
 7599SOL    HW123696   6.368   1.930   3.751
 7599SOL    HW223697   6.328   1.955   3.595
 7600SOL     OW23698   1.688   0.795   2.222
 7600SOL    HW123699   1.626   0.819   2.297
 7600SOL    HW223700   1.665   0.703   2.190
 7601SOL     OW23701   1.535   6.214   4.230
 7601SOL    HW123702   1.615   6.173   4.273
 7601SOL    HW223703   1.556   6.240   4.136
 7602SOL     OW23704   1.479   4.131   4.854
 7602SOL    HW123705   1.577   4.132   4.837
 7602SOL    HW223706   1.462   4.144   4.952
 7603SOL     OW23707   1.193   6.084   0.795
 7603SOL    HW123708   1.134   6.075   0.715
 7603SOL    HW223709   1.202   6.181   0.818
 7604SOL     OW23710   4.078   6.127   4.805
 7604SOL    HW123711   4.105   6.104   4.899
 7604SOL    HW223712   4.048   6.045   4.757
 7605SOL     OW23713   0.382   4.231   6.902
 7605SOL    HW123714   0.368   4.289   6.982
 7605SOL    HW223715   0.308   4.163   6.897
 7606SOL     OW23716   6.709   2.758   2.551
 7606SOL    HW123717   6.796   2.756   2.501
 7606SOL    HW223718   6.719   2.708   2.637
 7607SOL     OW23719   5.000   0.149   6.440
 7607SOL    HW123720   4.968   0.153   6.346
 7607SOL    HW223721   4.993   0.054   6.473
 7608SOL     OW23722   2.956   3.376   4.000
 7608SOL    HW123723   3.046   3.334   4.007
 7608SOL    HW223724   2.910   3.343   3.917
 7609SOL     OW23725   0.702   3.762   3.788
 7609SOL    HW123726   0.747   3.837   3.836
 7609SOL    HW223727   0.668   3.794   3.700
 7610SOL     OW23728   5.160   0.277   0.875
 7610SOL    HW123729   5.143   0.184   0.907
 7610SOL    HW223730   5.208   0.328   0.946
 7611SOL     OW23731   1.222   1.952   6.930
 7611SOL    HW123732   1.296   1.958   6.862
 7611SOL    HW223733   1.214   2.039   6.978
 7612SOL     OW23734   3.970   1.826   4.495
 7612SOL    HW123735   3.930   1.778   4.416
 7612SOL    HW223736   4.059   1.864   4.468
 7613SOL     OW23737   4.863   0.885   1.631
 7613SOL    HW123738   4.864   0.957   1.562
 7613SOL    HW223739   4.790   0.819   1.609
 7614SOL     OW23740   3.755   1.802   1.584
 7614SOL    HW123741   3.731   1.894   1.616
 7614SOL    HW223742   3.821   1.761   1.647
 7615SOL     OW23743   3.764   5.503   6.450
 7615SOL    HW123744   3.739   5.567   6.377
 7615SOL    HW223745   3.722   5.533   6.536
 7616SOL     OW23746   6.733   4.143   3.398
 7616SOL    HW123747   6.662   4.179   3.337
 7616SOL    HW223748   6.742   4.044   3.382
 7617SOL     OW23749   3.099   5.172   3.452
 7617SOL    HW123750   3.094   5.224   3.537
 7617SOL    HW223751   3.065   5.227   3.376
 7618SOL     OW23752   1.619   2.220   6.626
 7618SOL    HW123753   1.625   2.308   6.579
 7618SOL    HW223754   1.683   2.218   6.703
 7619SOL     OW23755   6.103   3.263   5.383
 7619SOL    HW123756   6.019   3.317   5.392
 7619SOL    HW223757   6.083   3.167   5.402
 7620SOL     OW23758   4.305   6.938   0.700
 7620SOL    HW123759   4.242   6.861   0.692
 7620SOL    HW223760   4.333   6.967   0.608
 7621SOL     OW23761   1.876   1.302   0.781
 7621SOL    HW123762   1.856   1.329   0.875
 7621SOL    HW223763   1.953   1.354   0.746
 7622SOL     OW23764   4.143   3.349   1.066
 7622SOL    HW123765   4.192   3.327   0.982
 7622SOL    HW223766   4.138   3.267   1.124
 7623SOL     OW23767   4.412   6.190   6.160
 7623SOL    HW123768   4.393   6.232   6.248
 7623SOL    HW223769   4.489   6.126   6.168
 7624SOL     OW23770   0.695   1.568   3.134
 7624SOL    HW123771   0.699   1.637   3.206
 7624SOL    HW223772   0.684   1.613   3.045
 7625SOL     OW23773   5.206   0.701   1.106
 7625SOL    HW123774   5.169   0.742   1.022
 7625SOL    HW223775   5.155   0.734   1.185
 7626SOL     OW23776   1.364   6.479   4.623
 7626SOL    HW123777   1.338   6.385   4.643
 7626SOL    HW223778   1.416   6.483   4.537
 7627SOL     OW23779   6.365   3.142   0.815
 7627SOL    HW123780   6.356   3.122   0.912
 7627SOL    HW223781   6.455   3.183   0.797
 7628SOL     OW23782   3.316   1.345   1.161
 7628SOL    HW123783   3.409   1.377   1.180
 7628SOL    HW223784   3.312   1.310   1.067
 7629SOL     OW23785   6.718   5.904   2.594
 7629SOL    HW123786   6.769   5.990   2.594
 7629SOL    HW223787   6.690   5.882   2.687
 7630SOL     OW23788   6.545   0.361   2.298
 7630SOL    HW123789   6.455   0.388   2.333
 7630SOL    HW223790   6.536   0.276   2.246
 7631SOL     OW23791   0.953   1.803   4.791
 7631SOL    HW123792   0.964   1.730   4.724
 7631SOL    HW223793   0.915   1.765   4.876
 7632SOL     OW23794   4.432   2.207   1.169
 7632SOL    HW123795   4.400   2.266   1.243
 7632SOL    HW223796   4.385   2.118   1.175
 7633SOL     OW23797   5.352   3.168   6.485
 7633SOL    HW123798   5.331   3.141   6.580
 7633SOL    HW223799   5.395   3.258   6.484
 7634SOL     OW23800   2.099   0.651   2.439
 7634SOL    HW123801   2.166   0.710   2.394
 7634SOL    HW223802   2.084   0.681   2.533
 7635SOL     OW23803   2.407   5.452   6.216
 7635SOL    HW123804   2.391   5.473   6.119
 7635SOL    HW223805   2.397   5.535   6.270
 7636SOL     OW23806   1.142   0.961   4.140
 7636SOL    HW123807   1.148   0.928   4.045
 7636SOL    HW223808   1.234   0.977   4.175
 7637SOL     OW23809   1.158   0.068   4.148
 7637SOL    HW123810   1.097   7.014   4.128
 7637SOL    HW223811   1.247   0.052   4.105
 7638SOL     OW23812   5.185   5.637   1.887
 7638SOL    HW123813   5.227   5.595   1.807
 7638SOL    HW223814   5.092   5.667   1.865
 7639SOL     OW23815   0.869   1.636   5.450
 7639SOL    HW123816   0.781   1.628   5.404
 7639SOL    HW223817   0.860   1.695   5.530
 7640SOL     OW23818   2.721   2.119   1.199
 7640SOL    HW123819   2.690   2.059   1.273
 7640SOL    HW223820   2.799   2.173   1.230
 7641SOL     OW23821   6.102   3.959   2.239
 7641SOL    HW123822   6.181   3.931   2.185
 7641SOL    HW223823   6.108   3.917   2.330
 7642SOL     OW23824   2.322   1.826   2.436
 7642SOL    HW123825   2.351   1.851   2.344
 7642SOL    HW223826   2.401   1.792   2.488
 7643SOL     OW23827   4.477   2.533   2.655
 7643SOL    HW123828   4.411   2.464   2.627
 7643SOL    HW223829   4.531   2.561   2.575
 7644SOL     OW23830   0.330   2.792   3.393
 7644SOL    HW123831   0.415   2.774   3.344
 7644SOL    HW223832   0.285   2.706   3.416
 7645SOL     OW23833   4.810   4.551   6.970
 7645SOL    HW123834   4.829   4.475   6.908
 7645SOL    HW223835   4.894   4.602   6.987
 7646SOL     OW23836   2.246   2.187   2.207
 7646SOL    HW123837   2.246   2.233   2.118
 7646SOL    HW223838   2.166   2.128   2.214
 7647SOL     OW23839   1.848   3.846   1.456
 7647SOL    HW123840   1.894   3.758   1.466
 7647SOL    HW223841   1.768   3.849   1.515
 7648SOL     OW23842   4.401   1.717   3.757
 7648SOL    HW123843   4.498   1.737   3.747
 7648SOL    HW223844   4.381   1.696   3.852
 7649SOL     OW23845   2.653   0.621   2.198
 7649SOL    HW123846   2.637   0.697   2.261
 7649SOL    HW223847   2.608   0.641   2.111
 7650SOL     OW23848   6.762   3.693   2.206
 7650SOL    HW123849   6.861   3.692   2.222
 7650SOL    HW223850   6.725   3.782   2.231
 7651SOL     OW23851   3.189   7.004   6.937
 7651SOL    HW123852   3.204   6.938   7.011
 7651SOL    HW223853   3.185   6.955   6.850
 7652SOL     OW23854   6.992   3.777   3.378
 7652SOL    HW123855   6.969   3.855   3.321
 7652SOL    HW223856   6.974   3.799   3.474
 7653SOL     OW23857   2.741   1.619   1.539
 7653SOL    HW123858   2.815   1.637   1.474
 7653SOL    HW223859   2.761   1.665   1.625
 7654SOL     OW23860   5.167   3.114   3.867
 7654SOL    HW123861   5.069   3.125   3.883
 7654SOL    HW223862   5.186   3.018   3.847
 7655SOL     OW23863   2.938   6.676   4.555
 7655SOL    HW123864   3.036   6.671   4.536
 7655SOL    HW223865   2.920   6.643   4.648
 7656SOL     OW23866   0.023   6.206   4.903
 7656SOL    HW123867   6.988   6.132   4.941
 7656SOL    HW223868   0.098   6.166   4.851
 7657SOL     OW23869   2.999   2.041   3.542
 7657SOL    HW123870   3.071   2.105   3.517
 7657SOL    HW223871   3.027   1.989   3.623
 7658SOL     OW23872   4.471   0.772   5.931
 7658SOL    HW123873   4.566   0.764   5.898
 7658SOL    HW223874   4.424   0.843   5.878
 7659SOL     OW23875   6.311   6.626   0.634
 7659SOL    HW123876   6.375   6.665   0.701
 7659SOL    HW223877   6.226   6.600   0.680
 7660SOL     OW23878   5.696   5.581   2.558
 7660SOL    HW123879   5.658   5.500   2.513
 7660SOL    HW223880   5.639   5.604   2.638
 7661SOL     OW23881   6.374   2.861   3.913
 7661SOL    HW123882   6.346   2.815   3.997
 7661SOL    HW223883   6.446   2.808   3.869
 7662SOL     OW23884   1.494   3.539   2.105
 7662SOL    HW123885   1.471   3.547   2.202
 7662SOL    HW223886   1.425   3.587   2.050
 7663SOL     OW23887   0.671   4.972   6.385
 7663SOL    HW123888   0.664   4.972   6.485
 7663SOL    HW223889   0.710   4.885   6.354
 7664SOL     OW23890   2.532   6.551   3.594
 7664SOL    HW123891   2.504   6.646   3.583
 7664SOL    HW223892   2.504   6.499   3.513
 7665SOL     OW23893   2.777   0.963   4.386
 7665SOL    HW123894   2.763   0.907   4.467
 7665SOL    HW223895   2.696   0.957   4.327
 7666SOL     OW23896   1.263   6.940   1.346
 7666SOL    HW123897   1.216   6.860   1.381
 7666SOL    HW223898   1.344   6.959   1.402
 7667SOL     OW23899   4.993   6.651   6.973
 7667SOL    HW123900   4.906   6.687   6.940
 7667SOL    HW223901   4.986   6.631   0.050
 7668SOL     OW23902   3.779   4.439   1.253
 7668SOL    HW123903   3.807   4.381   1.329
 7668SOL    HW223904   3.753   4.382   1.175
 7669SOL     OW23905   4.396   0.204   3.802
 7669SOL    HW123906   4.437   0.121   3.766
 7669SOL    HW223907   4.467   0.275   3.810
 7670SOL     OW23908   1.271   5.688   0.515
 7670SOL    HW123909   1.292   5.785   0.502
 7670SOL    HW223910   1.181   5.679   0.557
 7671SOL     OW23911   5.818   1.630   4.514
 7671SOL    HW123912   5.774   1.592   4.595
 7671SOL    HW223913   5.888   1.696   4.541
 7672SOL     OW23914   5.645   0.452   3.827
 7672SOL    HW123915   5.598   0.534   3.794
 7672SOL    HW223916   5.601   0.421   3.911
 7673SOL     OW23917   0.674   4.935   0.920
 7673SOL    HW123918   0.746   4.984   0.871
 7673SOL    HW223919   0.649   4.985   1.003
 7674SOL     OW23920   6.726   1.811   4.482
 7674SOL    HW123921   6.724   1.825   4.581
 7674SOL    HW223922   6.812   1.848   4.445
 7675SOL     OW23923   4.754   0.070   2.057
 7675SOL    HW123924   4.777   0.003   1.986
 7675SOL    HW223925   4.730   0.157   2.014
 7676SOL     OW23926   1.201   0.793   6.612
 7676SOL    HW123927   1.103   0.811   6.599
 7676SOL    HW223928   1.234   0.843   6.692
 7677SOL     OW23929   2.016   3.553   2.509
 7677SOL    HW123930   2.065   3.513   2.431
 7677SOL    HW223931   1.921   3.570   2.483
 7678SOL     OW23932   0.709   0.687   0.647
 7678SOL    HW123933   0.692   0.785   0.655
 7678SOL    HW223934   0.797   0.672   0.603
 7679SOL     OW23935   0.977   5.459   4.813
 7679SOL    HW123936   0.893   5.484   4.861
 7679SOL    HW223937   1.024   5.542   4.784
 7680SOL     OW23938   3.400   3.524   7.004
 7680SOL    HW123939   3.369   3.611   0.020
 7680SOL    HW223940   3.500   3.524   7.000
 7681SOL     OW23941   2.674   1.726   0.062
 7681SOL    HW123942   2.745   1.707   7.016
 7681SOL    HW223943   2.625   1.810   0.037
 7682SOL     OW23944   3.376   0.027   1.655
 7682SOL    HW123945   3.407   0.121   1.643
 7682SOL    HW223946   3.294   0.011   1.600
 7683SOL     OW23947   5.999   1.837   2.903
 7683SOL    HW123948   6.027   1.912   2.964
 7683SOL    HW223949   6.081   1.788   2.871
 7684SOL     OW23950   4.761   1.948   6.049
 7684SOL    HW123951   4.669   1.917   6.073
 7684SOL    HW223952   4.782   1.919   5.955
 7685SOL     OW23953   3.534   2.934   0.829
 7685SOL    HW123954   3.529   3.033   0.815
 7685SOL    HW223955   3.597   2.894   0.763
 7686SOL     OW23956   4.695   6.683   3.732
 7686SOL    HW123957   4.786   6.715   3.703
 7686SOL    HW223958   4.690   6.683   3.832
 7687SOL     OW23959   5.500   5.307   5.584
 7687SOL    HW123960   5.422   5.359   5.618
 7687SOL    HW223961   5.468   5.239   5.517
 7688SOL     OW23962   6.634   6.767   5.226
 7688SOL    HW123963   6.704   6.697   5.213
 7688SOL    HW223964   6.549   6.737   5.183
 7689SOL     OW23965   4.458   6.582   4.531
 7689SOL    HW123966   4.538   6.576   4.591
 7689SOL    HW223967   4.486   6.614   4.441
 7690SOL     OW23968   5.458   4.530   3.077
 7690SOL    HW123969   5.520   4.548   3.001
 7690SOL    HW223970   5.364   4.548   3.049
 7691SOL     OW23971   5.092   2.579   4.048
 7691SOL    HW123972   5.186   2.595   4.077
 7691SOL    HW223973   5.029   2.606   4.122
 7692SOL     OW23974   1.921   6.225   2.032
 7692SOL    HW123975   1.830   6.265   2.038
 7692SOL    HW223976   1.990   6.298   2.027
 7693SOL     OW23977   3.809   1.292   5.921
 7693SOL    HW123978   3.898   1.295   5.876
 7693SOL    HW223979   3.820   1.311   6.019
 7694SOL     OW23980   6.842   4.692   4.375
 7694SOL    HW123981   6.830   4.644   4.461
 7694SOL    HW223982   6.809   4.786   4.385
 7695SOL     OW23983   4.631   6.984   1.068
 7695SOL    HW123984   4.563   6.960   0.999
 7695SOL    HW223985   4.585   7.010   1.153
 7696SOL     OW23986   0.217   1.984   4.519
 7696SOL    HW123987   0.254   1.970   4.427
 7696SOL    HW223988   0.158   2.065   4.519
 7697SOL     OW23989   2.224   1.525   3.339
 7697SOL    HW123990   2.314   1.531   3.381
 7697SOL    HW223991   2.166   1.600   3.370
 7698SOL     OW23992   6.971   2.744   4.590
 7698SOL    HW123993   7.022   2.830   4.598
 7698SOL    HW223994   7.002   2.695   4.509
 7699SOL     OW23995   2.735   6.057   1.030
 7699SOL    HW123996   2.801   6.053   1.106
 7699SOL    HW223997   2.770   6.004   0.953
 7700SOL     OW23998   4.736   6.826   5.059
 7700SOL    HW123999   4.773   6.884   4.986
 7700SOL    HW224000   4.756   6.730   5.039
 7701SOL     OW24001   0.032   1.143   5.024
 7701SOL    HW124002   0.088   1.170   5.102
 7701SOL    HW224003   6.965   1.111   5.056
 7702SOL     OW24004   3.244   5.929   5.796
 7702SOL    HW124005   3.150   5.951   5.771
 7702SOL    HW224006   3.286   6.007   5.842
 7703SOL     OW24007   0.299   1.361   5.600
 7703SOL    HW124008   0.214   1.384   5.552
 7703SOL    HW224009   0.289   1.270   5.642
 7704SOL     OW24010   4.586   4.302   6.583
 7704SOL    HW124011   4.617   4.218   6.627
 7704SOL    HW224012   4.568   4.371   6.653
 7705SOL     OW24013   3.858   5.258   5.290
 7705SOL    HW124014   3.873   5.232   5.195
 7705SOL    HW224015   3.914   5.338   5.312
 7706SOL     OW24016   6.254   0.366   5.291
 7706SOL    HW124017   6.337   0.385   5.239
 7706SOL    HW224018   6.192   0.444   5.286
 7707SOL     OW24019   6.743   5.543   6.269
 7707SOL    HW124020   6.697   5.455   6.279
 7707SOL    HW224021   6.739   5.593   6.355
 7708SOL     OW24022   4.711   6.475   4.190
 7708SOL    HW124023   4.656   6.540   4.138
 7708SOL    HW224024   4.772   6.427   4.128
 7709SOL     OW24025   4.988   2.600   1.620
 7709SOL    HW124026   4.890   2.621   1.625
 7709SOL    HW224027   5.021   2.578   1.712
 7710SOL     OW24028   3.115   0.140   0.608
 7710SOL    HW124029   3.028   0.141   0.558
 7710SOL    HW224030   3.099   0.170   0.702
 7711SOL     OW24031   5.570   6.395   5.591
 7711SOL    HW124032   5.524   6.482   5.571
 7711SOL    HW224033   5.503   6.321   5.583
 7712SOL     OW24034   5.881   4.933   1.079
 7712SOL    HW124035   5.913   4.866   1.012
 7712SOL    HW224036   5.956   4.959   1.139
 7713SOL     OW24037   1.742   4.338   6.630
 7713SOL    HW124038   1.653   4.377   6.607
 7713SOL    HW224039   1.750   4.247   6.589
 7714SOL     OW24040   6.058   4.286   3.968
 7714SOL    HW124041   6.051   4.272   3.869
 7714SOL    HW224042   6.130   4.354   3.987
 7715SOL     OW24043   5.323   0.215   1.531
 7715SOL    HW124044   5.230   0.240   1.503
 7715SOL    HW224045   5.380   0.205   1.450
 7716SOL     OW24046   4.778   2.229   2.569
 7716SOL    HW124047   4.771   2.274   2.480
 7716SOL    HW224048   4.832   2.286   2.631
 7717SOL     OW24049   2.902   1.385   5.161
 7717SOL    HW124050   2.925   1.477   5.128
 7717SOL    HW224051   2.880   1.326   5.084
 7718SOL     OW24052   2.521   1.024   3.373
 7718SOL    HW124053   2.533   0.942   3.317
 7718SOL    HW224054   2.594   1.089   3.353
 7719SOL     OW24055   0.004   2.136   4.214
 7719SOL    HW124056   6.959   2.123   4.141
 7719SOL    HW224057   7.000   2.215   4.269
 7720SOL     OW24058   6.314   6.452   0.930
 7720SOL    HW124059   6.394   6.414   0.884
 7720SOL    HW224060   6.329   6.453   1.028
 7721SOL     OW24061   2.346   4.393   3.598
 7721SOL    HW124062   2.351   4.379   3.499
 7721SOL    HW224063   2.332   4.305   3.643
 7722SOL     OW24064   6.156   4.640   3.492
 7722SOL    HW124065   6.240   4.633   3.437
 7722SOL    HW224066   6.166   4.583   3.574
 7723SOL     OW24067   0.032   2.919   0.517
 7723SOL    HW124068   0.057   3.016   0.521
 7723SOL    HW224069   0.090   2.868   0.580
 7724SOL     OW24070   1.187   4.448   0.994
 7724SOL    HW124071   1.139   4.373   1.040
 7724SOL    HW224072   1.182   4.435   0.895
 7725SOL     OW24073   5.856   2.662   3.420
 7725SOL    HW124074   5.904   2.731   3.365
 7725SOL    HW224075   5.777   2.628   3.369
 7726SOL     OW24076   0.842   4.369   2.630
 7726SOL    HW124077   0.757   4.407   2.665
 7726SOL    HW224078   0.823   4.289   2.574
 7727SOL     OW24079   6.385   2.715   3.623
 7727SOL    HW124080   6.351   2.623   3.642
 7727SOL    HW224081   6.466   2.733   3.679
 7728SOL     OW24082   1.757   3.217   2.841
 7728SOL    HW124083   1.743   3.253   2.933
 7728SOL    HW224084   1.823   3.142   2.844
 7729SOL     OW24085   5.060   2.361   0.957
 7729SOL    HW124086   5.152   2.374   0.992
 7729SOL    HW224087   5.003   2.319   1.027
 7730SOL     OW24088   4.862   6.692   2.969
 7730SOL    HW124089   4.895   6.783   2.944
 7730SOL    HW224090   4.796   6.661   2.901
 7731SOL     OW24091   6.115   1.246   0.252
 7731SOL    HW124092   6.161   1.313   0.194
 7731SOL    HW224093   6.124   1.273   0.348
 7732SOL     OW24094   4.602   6.056   0.524
 7732SOL    HW124095   4.600   5.961   0.555
 7732SOL    HW224096   4.509   6.093   0.526
 7733SOL     OW24097   3.562   0.464   1.685
 7733SOL    HW124098   3.575   0.468   1.586
 7733SOL    HW224099   3.509   0.544   1.715
 7734SOL     OW24100   1.152   2.720   3.931
 7734SOL    HW124101   1.169   2.692   3.836
 7734SOL    HW224102   1.093   2.652   3.976
 7735SOL     OW24103   5.397   4.306   6.512
 7735SOL    HW124104   5.418   4.371   6.584
 7735SOL    HW224105   5.421   4.214   6.542
 7736SOL     OW24106   5.556   4.240   6.790
 7736SOL    HW124107   5.491   4.190   6.847
 7736SOL    HW224108   5.524   4.333   6.776
 7737SOL     OW24109   4.542   1.921   0.552
 7737SOL    HW124110   4.458   1.866   0.546
 7737SOL    HW224111   4.607   1.875   0.614
 7738SOL     OW24112   2.878   5.713   0.435
 7738SOL    HW124113   2.951   5.774   0.405
 7738SOL    HW224114   2.827   5.679   0.356
 7739SOL     OW24115   0.661   2.532   1.051
 7739SOL    HW124116   0.714   2.617   1.043
 7739SOL    HW224117   0.636   2.517   1.147
 7740SOL     OW24118   0.511   6.862   2.629
 7740SOL    HW124119   0.511   6.825   2.722
 7740SOL    HW224120   0.586   6.928   2.619
 7741SOL     OW24121   1.624   5.935   3.929
 7741SOL    HW124122   1.650   5.988   3.848
 7741SOL    HW224123   1.692   5.946   4.000
 7742SOL     OW24124   6.180   2.039   3.311
 7742SOL    HW124125   6.136   1.955   3.282
 7742SOL    HW224126   6.264   2.017   3.361
 7743SOL     OW24127   4.613   2.680   5.034
 7743SOL    HW124128   4.663   2.708   4.952
 7743SOL    HW224129   4.567   2.760   5.074
 7744SOL     OW24130   6.217   6.990   3.820
 7744SOL    HW124131   6.129   6.956   3.853
 7744SOL    HW224132   6.290   6.952   3.876
 7745SOL     OW24133   3.470   2.715   6.031
 7745SOL    HW124134   3.563   2.731   5.999
 7745SOL    HW224135   3.441   2.791   6.089
 7746SOL     OW24136   1.874   0.342   0.274
 7746SOL    HW124137   1.931   0.391   0.208
 7746SOL    HW224138   1.896   0.245   0.273
 7747SOL     OW24139   5.221   5.995   1.039
 7747SOL    HW124140   5.136   6.048   1.041
 7747SOL    HW224141   5.200   5.902   1.008
 7748SOL     OW24142   2.590   4.289   6.391
 7748SOL    HW124143   2.520   4.218   6.401
 7748SOL    HW224144   2.586   4.326   6.298
 7749SOL     OW24145   5.301   3.028   5.410
 7749SOL    HW124146   5.357   3.006   5.490
 7749SOL    HW224147   5.218   3.075   5.441
 7750SOL     OW24148   0.263   5.924   1.720
 7750SOL    HW124149   0.261   5.959   1.627
 7750SOL    HW224150   0.256   5.824   1.719
 7751SOL     OW24151   0.719   2.569   1.870
 7751SOL    HW124152   0.701   2.494   1.807
 7751SOL    HW224153   0.671   2.651   1.840
 7752SOL     OW24154   4.514   1.272   4.503
 7752SOL    HW124155   4.591   1.336   4.500
 7752SOL    HW224156   4.548   1.179   4.512
 7753SOL     OW24157   2.596   1.432   5.436
 7753SOL    HW124158   2.670   1.365   5.443
 7753SOL    HW224159   2.569   1.442   5.340
 7754SOL     OW24160   4.228   6.138   2.090
 7754SOL    HW124161   4.268   6.047   2.094
 7754SOL    HW224162   4.275   6.193   2.021
 7755SOL     OW24163   1.444   4.476   6.050
 7755SOL    HW124164   1.373   4.418   6.091
 7755SOL    HW224165   1.499   4.421   5.987
 7756SOL     OW24166   3.038   6.162   1.460
 7756SOL    HW124167   3.085   6.080   1.428
 7756SOL    HW224168   3.001   6.147   1.551
 7757SOL     OW24169   0.150   4.340   2.816
 7757SOL    HW124170   0.226   4.346   2.882
 7757SOL    HW224171   0.185   4.356   2.724
 7758SOL     OW24172   1.594   0.686   5.529
 7758SOL    HW124173   1.514   0.743   5.547
 7758SOL    HW224174   1.676   0.732   5.562
 7759SOL     OW24175   3.430   2.258   6.628
 7759SOL    HW124176   3.411   2.197   6.705
 7759SOL    HW224177   3.371   2.234   6.551
 7760SOL     OW24178   4.572   3.096   1.284
 7760SOL    HW124179   4.641   3.040   1.238
 7760SOL    HW224180   4.618   3.167   1.337
 7761SOL     OW24181   4.551   5.819   4.405
 7761SOL    HW124182   4.473   5.845   4.349
 7761SOL    HW224183   4.521   5.759   4.479
 7762SOL     OW24184   6.590   0.453   3.022
 7762SOL    HW124185   6.507   0.508   3.029
 7762SOL    HW224186   6.626   0.458   2.928
 7763SOL     OW24187   2.646   6.867   4.674
 7763SOL    HW124188   2.557   6.822   4.665
 7763SOL    HW224189   2.708   6.808   4.725
 7764SOL     OW24190   3.014   3.935   5.513
 7764SOL    HW124191   2.964   3.856   5.479
 7764SOL    HW224192   3.112   3.923   5.496
 7765SOL     OW24193   6.774   3.014   4.592
 7765SOL    HW124194   6.871   2.992   4.585
 7765SOL    HW224195   6.727   2.985   4.509
 7766SOL     OW24196   6.981   4.057   6.538
 7766SOL    HW124197   6.907   4.124   6.540
 7766SOL    HW224198   6.978   4.007   6.451
 7767SOL     OW24199   2.559   0.972   3.072
 7767SOL    HW124200   2.648   0.935   3.099
 7767SOL    HW224201   2.568   1.070   3.054
 7768SOL     OW24202   4.571   5.007   2.861
 7768SOL    HW124203   4.609   4.927   2.816
 7768SOL    HW224204   4.500   5.047   2.802
 7769SOL     OW24205   3.392   2.575   5.304
 7769SOL    HW124206   3.322   2.507   5.281
 7769SOL    HW224207   3.363   2.665   5.270
 7770SOL     OW24208   1.976   3.233   4.748
 7770SOL    HW124209   2.028   3.190   4.674
 7770SOL    HW224210   1.902   3.287   4.710
 7771SOL     OW24211   2.729   2.200   6.454
 7771SOL    HW124212   2.780   2.146   6.388
 7771SOL    HW224213   2.686   2.277   6.408
 7772SOL     OW24214   5.258   0.043   1.872
 7772SOL    HW124215   5.276   6.977   1.915
 7772SOL    HW224216   5.301   0.116   1.925
 7773SOL     OW24217   3.543   5.982   0.194
 7773SOL    HW124218   3.620   5.967   0.133
 7773SOL    HW224219   3.525   5.899   0.247
 7774SOL     OW24220   4.440   1.852   2.700
 7774SOL    HW124221   4.385   1.868   2.782
 7774SOL    HW224222   4.490   1.936   2.677
 7775SOL     OW24223   3.379   0.620   7.002
 7775SOL    HW124224   3.433   0.599   6.921
 7775SOL    HW224225   3.429   0.592   0.062
 7776SOL     OW24226   1.662   1.113   4.781
 7776SOL    HW124227   1.580   1.153   4.740
 7776SOL    HW224228   1.744   1.153   4.740
 7777SOL     OW24229   4.886   5.209   3.576
 7777SOL    HW124230   4.974   5.255   3.569
 7777SOL    HW224231   4.812   5.273   3.554
 7778SOL     OW24232   5.675   4.899   3.121
 7778SOL    HW124233   5.645   4.825   3.061
 7778SOL    HW224234   5.775   4.905   3.118
 7779SOL     OW24235   3.607   5.615   2.355
 7779SOL    HW124236   3.563   5.683   2.297
 7779SOL    HW224237   3.677   5.660   2.411
 7780SOL     OW24238   5.627   5.857   4.774
 7780SOL    HW124239   5.607   5.781   4.836
 7780SOL    HW224240   5.542   5.895   4.738
 7781SOL     OW24241   1.961   2.573   0.567
 7781SOL    HW124242   1.989   2.481   0.538
 7781SOL    HW224243   1.930   2.570   0.662
 7782SOL     OW24244   5.458   4.100   3.498
 7782SOL    HW124245   5.550   4.070   3.473
 7782SOL    HW224246   5.463   4.192   3.538
 7783SOL     OW24247   1.049   0.572   5.394
 7783SOL    HW124248   0.999   0.560   5.308
 7783SOL    HW224249   1.037   0.492   5.452
 7784SOL     OW24250   2.207   2.985   2.809
 7784SOL    HW124251   2.177   2.894   2.838
 7784SOL    HW224252   2.262   2.977   2.726
 7785SOL     OW24253   0.647   6.472   2.626
 7785SOL    HW124254   0.550   6.493   2.614
 7785SOL    HW224255   0.656   6.394   2.688
 7786SOL     OW24256   4.471   0.183   6.059
 7786SOL    HW124257   4.419   0.104   6.027
 7786SOL    HW224258   4.441   0.265   6.011
 7787SOL     OW24259   2.721   2.608   1.334
 7787SOL    HW124260   2.676   2.541   1.276
 7787SOL    HW224261   2.820   2.604   1.319
 7788SOL     OW24262   0.217   4.396   1.757
 7788SOL    HW124263   0.218   4.479   1.701
 7788SOL    HW224264   0.305   4.348   1.747
 7789SOL     OW24265   3.889   1.226   6.266
 7789SOL    HW124266   3.875   1.129   6.285
 7789SOL    HW224267   3.898   1.276   6.352
 7790SOL     OW24268   5.111   4.835   1.824
 7790SOL    HW124269   5.041   4.792   1.767
 7790SOL    HW224270   5.135   4.924   1.784
 7791SOL     OW24271   2.729   5.056   2.553
 7791SOL    HW124272   2.659   5.060   2.624
 7791SOL    HW224273   2.815   5.026   2.593
 7792SOL     OW24274   1.318   1.694   2.348
 7792SOL    HW124275   1.392   1.761   2.341
 7792SOL    HW224276   1.315   1.656   2.440
 7793SOL     OW24277   4.776   0.585   6.194
 7793SOL    HW124278   4.697   0.611   6.251
 7793SOL    HW224279   4.843   0.536   6.251
 7794SOL     OW24280   0.595   6.607   3.417
 7794SOL    HW124281   0.526   6.661   3.368
 7794SOL    HW224282   0.664   6.576   3.353
 7795SOL     OW24283   3.332   5.982   6.439
 7795SOL    HW124284   3.297   5.919   6.508
 7795SOL    HW224285   3.344   5.933   6.353
 7796SOL     OW24286   3.928   3.449   6.223
 7796SOL    HW124287   3.882   3.440   6.134
 7796SOL    HW224288   3.860   3.450   6.295
 7797SOL     OW24289   1.206   6.579   2.869
 7797SOL    HW124290   1.294   6.624   2.879
 7797SOL    HW224291   1.165   6.564   2.959
 7798SOL     OW24292   1.134   3.004   0.741
 7798SOL    HW124293   1.093   3.094   0.755
 7798SOL    HW224294   1.205   2.989   0.810
 7799SOL     OW24295   2.401   5.811   3.721
 7799SOL    HW124296   2.394   5.731   3.780
 7799SOL    HW224297   2.492   5.852   3.730
 7800SOL     OW24298   0.301   6.438   1.819
 7800SOL    HW124299   0.301   6.351   1.869
 7800SOL    HW224300   0.252   6.507   1.872
 7801SOL     OW24301   2.087   2.296   2.423
 7801SOL    HW124302   2.070   2.394   2.430
 7801SOL    HW224303   2.149   2.267   2.496
 7802SOL     OW24304   0.147   3.700   4.554
 7802SOL    HW124305   0.053   3.734   4.555
 7802SOL    HW224306   0.208   3.772   4.522
 7803SOL     OW24307   4.160   2.551   5.677
 7803SOL    HW124308   4.134   2.454   5.677
 7803SOL    HW224309   4.086   2.606   5.715
 7804SOL     OW24310   3.052   1.887   5.330
 7804SOL    HW124311   3.084   1.973   5.368
 7804SOL    HW224312   3.117   1.853   5.263
 7805SOL     OW24313   5.866   2.796   0.367
 7805SOL    HW124314   5.871   2.710   0.418
 7805SOL    HW224315   5.794   2.854   0.405
 7806SOL     OW24316   6.959   2.430   5.622
 7806SOL    HW124317   6.959   2.341   5.667
 7806SOL    HW224318   0.013   2.485   5.657
 7807SOL     OW24319   2.718   4.827   6.192
 7807SOL    HW124320   2.759   4.758   6.252
 7807SOL    HW224321   2.747   4.810   6.097
 7808SOL     OW24322   4.877   3.551   3.115
 7808SOL    HW124323   4.894   3.649   3.118
 7808SOL    HW224324   4.867   3.516   3.208
 7809SOL     OW24325   4.536   5.097   3.319
 7809SOL    HW124326   4.466   5.150   3.368
 7809SOL    HW224327   4.568   5.022   3.377
 7810SOL     OW24328   3.522   6.660   5.306
 7810SOL    HW124329   3.596   6.596   5.286
 7810SOL    HW224330   3.490   6.702   5.221
 7811SOL     OW24331   1.482   5.606   3.118
 7811SOL    HW124332   1.413   5.603   3.046
 7811SOL    HW224333   1.485   5.697   3.158
 7812SOL     OW24334   3.129   1.944   6.427
 7812SOL    HW124335   3.122   1.870   6.360
 7812SOL    HW224336   3.194   1.919   6.498
 7813SOL     OW24337   5.471   0.867   0.734
 7813SOL    HW124338   5.510   0.886   0.825
 7813SOL    HW224339   5.534   0.901   0.664
 7814SOL     OW24340   6.953   3.170   1.932
 7814SOL    HW124341   0.006   3.179   1.999
 7814SOL    HW224342   6.866   3.194   1.975
 7815SOL     OW24343   5.797   3.430   5.232
 7815SOL    HW124344   5.757   3.498   5.170
 7815SOL    HW224345   5.893   3.417   5.209
 7816SOL     OW24346   0.645   1.227   5.122
 7816SOL    HW124347   0.669   1.166   5.047
 7816SOL    HW224348   0.722   1.233   5.186
 7817SOL     OW24349   3.054   3.233   6.199
 7817SOL    HW124350   3.031   3.279   6.285
 7817SOL    HW224351   2.977   3.175   6.172
 7818SOL     OW24352   5.516   1.187   2.306
 7818SOL    HW124353   5.613   1.165   2.320
 7818SOL    HW224354   5.502   1.285   2.318
 7819SOL     OW24355   1.381   4.049   3.513
 7819SOL    HW124356   1.415   3.995   3.590
 7819SOL    HW224357   1.448   4.046   3.438
 7820SOL     OW24358   1.828   6.918   6.181
 7820SOL    HW124359   1.904   6.853   6.193
 7820SOL    HW224360   1.865   7.010   6.167
 7821SOL     OW24361   5.442   5.533   6.400
 7821SOL    HW124362   5.485   5.532   6.491
 7821SOL    HW224363   5.471   5.615   6.351
 7822SOL     OW24364   1.450   1.189   4.611
 7822SOL    HW124365   1.477   1.282   4.583
 7822SOL    HW224366   1.351   1.187   4.625
 7823SOL     OW24367   1.410   3.562   6.083
 7823SOL    HW124368   1.464   3.494   6.132
 7823SOL    HW224369   1.317   3.528   6.070
 7824SOL     OW24370   5.290   2.619   3.059
 7824SOL    HW124371   5.316   2.643   3.153
 7824SOL    HW224372   5.326   2.689   2.996
 7825SOL     OW24373   3.457   3.400   2.480
 7825SOL    HW124374   3.432   3.322   2.423
 7825SOL    HW224375   3.382   3.421   2.543
 7826SOL     OW24376   6.826   0.657   0.567
 7826SOL    HW124377   6.881   0.575   0.578
 7826SOL    HW224378   6.763   0.666   0.645
 7827SOL     OW24379   5.586   5.030   1.825
 7827SOL    HW124380   5.554   5.072   1.740
 7827SOL    HW224381   5.649   4.956   1.804
 7828SOL     OW24382   0.698   6.631   0.765
 7828SOL    HW124383   0.760   6.705   0.738
 7828SOL    HW224384   0.604   6.666   0.769
 7829SOL     OW24385   3.923   2.949   1.714
 7829SOL    HW124386   3.916   2.850   1.708
 7829SOL    HW224387   3.840   2.986   1.756
 7830SOL     OW24388   6.487   2.616   6.773
 7830SOL    HW124389   6.565   2.666   6.811
 7830SOL    HW224390   6.404   2.671   6.782
 7831SOL     OW24391   1.452   3.066   0.179
 7831SOL    HW124392   1.467   3.098   0.273
 7831SOL    HW224393   1.355   3.068   0.158
 7832SOL     OW24394   2.558   2.340   5.690
 7832SOL    HW124395   2.550   2.245   5.722
 7832SOL    HW224396   2.653   2.370   5.700
 7833SOL     OW24397   0.266   6.779   0.051
 7833SOL    HW124398   0.248   6.857   7.013
 7833SOL    HW224399   0.299   6.813   0.140
 7834SOL     OW24400   0.665   0.317   1.287
 7834SOL    HW124401   0.723   0.380   1.340
 7834SOL    HW224402   0.576   0.309   1.332
 7835SOL     OW24403   2.110   2.619   4.993
 7835SOL    HW124404   2.131   2.717   5.000
 7835SOL    HW224405   2.166   2.568   5.058
 7836SOL     OW24406   2.197   6.410   0.623
 7836SOL    HW124407   2.270   6.439   0.561
 7836SOL    HW224408   2.124   6.479   0.623
 7837SOL     OW24409   6.112   0.054   2.996
 7837SOL    HW124410   6.083   0.075   3.089
 7837SOL    HW224411   6.037   0.007   2.948
 7838SOL     OW24412   3.498   0.130   4.271
 7838SOL    HW124413   3.560   0.208   4.266
 7838SOL    HW224414   3.515   0.079   4.355
 7839SOL     OW24415   6.305   4.650   4.444
 7839SOL    HW124416   6.272   4.614   4.531
 7839SOL    HW224417   6.361   4.732   4.460
 7840SOL     OW24418   5.862   2.969   4.700
 7840SOL    HW124419   5.886   2.975   4.603
 7840SOL    HW224420   5.812   2.884   4.717
 7841SOL     OW24421   0.882   1.691   6.382
 7841SOL    HW124422   0.830   1.636   6.318
 7841SOL    HW224423   0.858   1.787   6.371
 7842SOL     OW24424   2.704   0.640   2.820
 7842SOL    HW124425   2.751   0.718   2.778
 7842SOL    HW224426   2.745   0.620   2.909
 7843SOL     OW24427   5.437   3.666   0.741
 7843SOL    HW124428   5.459   3.580   0.786
 7843SOL    HW224429   5.392   3.728   0.806
 7844SOL     OW24430   4.353   1.048   3.587
 7844SOL    HW124431   4.350   1.125   3.524
 7844SOL    HW224432   4.263   1.005   3.593
 7845SOL     OW24433   6.653   1.607   4.037
 7845SOL    HW124434   6.609   1.684   4.083
 7845SOL    HW224435   6.647   1.526   4.095
 7846SOL     OW24436   2.907   6.932   2.349
 7846SOL    HW124437   3.000   6.915   2.317
 7846SOL    HW224438   2.911   6.981   2.436
 7847SOL     OW24439   6.970   0.884   0.440
 7847SOL    HW124440   6.923   0.811   0.490
 7847SOL    HW224441   6.959   0.971   0.490
 7848SOL     OW24442   5.086   3.916   1.883
 7848SOL    HW124443   5.142   3.839   1.914
 7848SOL    HW224444   4.989   3.894   1.896
 7849SOL     OW24445   6.524   3.644   5.118
 7849SOL    HW124446   6.491   3.550   5.121
 7849SOL    HW224447   6.526   3.681   5.210
 7850SOL     OW24448   1.414   0.830   4.833
 7850SOL    HW124449   1.374   0.917   4.860
 7850SOL    HW224450   1.358   0.755   4.869
 7851SOL     OW24451   5.364   6.597   7.012
 7851SOL    HW124452   5.295   6.668   7.020
 7851SOL    HW224453   5.408   6.604   6.922
 7852SOL     OW24454   2.675   6.203   0.160
 7852SOL    HW124455   2.684   6.233   0.065
 7852SOL    HW224456   2.620   6.269   0.211
 7853SOL     OW24457   2.716   2.991   0.227
 7853SOL    HW124458   2.715   2.926   0.151
 7853SOL    HW224459   2.725   3.084   0.191
 7854SOL     OW24460   3.719   3.965   2.449
 7854SOL    HW124461   3.645   4.013   2.495
 7854SOL    HW224462   3.681   3.901   2.382
 7855SOL     OW24463   4.295   6.006   6.013
 7855SOL    HW124464   4.336   6.092   6.045
 7855SOL    HW224465   4.357   5.962   5.948
 7856SOL     OW24466   5.221   3.338   5.943
 7856SOL    HW124467   5.267   3.292   6.019
 7856SOL    HW224468   5.179   3.423   5.976
 7857SOL     OW24469   6.891   1.592   5.812
 7857SOL    HW124470   6.795   1.613   5.795
 7857SOL    HW224471   6.915   1.620   5.905
 7858SOL     OW24472   6.215   3.980   2.919
 7858SOL    HW124473   6.121   3.946   2.920
 7858SOL    HW224474   6.276   3.912   2.961
 7859SOL     OW24475   1.315   5.161   6.977
 7859SOL    HW124476   1.352   5.195   0.042
 7859SOL    HW224477   1.272   5.072   6.992
 7860SOL     OW24478   4.179   6.803   2.149
 7860SOL    HW124479   4.247   6.733   2.172
 7860SOL    HW224480   4.215   6.860   2.075
 7861SOL     OW24481   5.173   4.535   0.449
 7861SOL    HW124482   5.141   4.455   0.397
 7861SOL    HW224483   5.171   4.514   0.546
 7862SOL     OW24484   3.127   4.528   1.639
 7862SOL    HW124485   3.213   4.579   1.642
 7862SOL    HW224486   3.095   4.512   1.733
 7863SOL     OW24487   6.578   5.746   1.995
 7863SOL    HW124488   6.612   5.707   1.910
 7863SOL    HW224489   6.497   5.696   2.025
 7864SOL     OW24490   0.566   5.076   4.782
 7864SOL    HW124491   0.656   5.117   4.796
 7864SOL    HW224492   0.578   4.984   4.743
 7865SOL     OW24493   3.114   0.090   3.470
 7865SOL    HW124494   3.112   0.136   3.382
 7865SOL    HW224495   3.164   0.004   3.462
 7866SOL     OW24496   2.486   2.080   4.243
 7866SOL    HW124497   2.411   2.053   4.304
 7866SOL    HW224498   2.541   2.151   4.289
 7867SOL     OW24499   6.200   4.452   1.797
 7867SOL    HW124500   6.235   4.545   1.804
 7867SOL    HW224501   6.269   4.388   1.831
 7868SOL     OW24502   5.402   6.307   0.730
 7868SOL    HW124503   5.385   6.329   0.633
 7868SOL    HW224504   5.393   6.390   0.785
 7869SOL     OW24505   0.630   3.317   1.902
 7869SOL    HW124506   0.540   3.326   1.859
 7869SOL    HW224507   0.678   3.405   1.898
 7870SOL     OW24508   6.874   5.528   3.817
 7870SOL    HW124509   6.784   5.493   3.793
 7870SOL    HW224510   6.865   5.606   3.879
 7871SOL     OW24511   4.831   3.092   3.081
 7871SOL    HW124512   4.825   3.190   3.063
 7871SOL    HW224513   4.850   3.044   2.996
 7872SOL     OW24514   0.111   3.013   3.075
 7872SOL    HW124515   0.067   2.925   3.091
 7872SOL    HW224516   0.055   3.087   3.112
 7873SOL     OW24517   0.282   5.277   5.329
 7873SOL    HW124518   0.377   5.301   5.314
 7873SOL    HW224519   0.276   5.205   5.398
 7874SOL     OW24520   5.842   1.326   0.872
 7874SOL    HW124521   5.916   1.368   0.820
 7874SOL    HW224522   5.879   1.279   0.952
 7875SOL     OW24523   4.085   3.125   6.458
 7875SOL    HW124524   4.115   3.208   6.504
 7875SOL    HW224525   4.081   3.140   6.359
 7876SOL     OW24526   6.408   0.149   3.563
 7876SOL    HW124527   6.409   0.112   3.470
 7876SOL    HW224528   6.314   0.146   3.598
 7877SOL     OW24529   6.942   1.951   2.508
 7877SOL    HW124530   6.855   1.971   2.553
 7877SOL    HW224531   6.959   2.018   2.436
 7878SOL     OW24532   4.994   3.580   2.244
 7878SOL    HW124533   5.066   3.516   2.271
 7878SOL    HW224534   4.954   3.550   2.158
 7879SOL     OW24535   5.125   0.154   3.837
 7879SOL    HW124536   5.036   0.198   3.827
 7879SOL    HW224537   5.183   0.211   3.895
 7880SOL     OW24538   0.433   0.227   6.596
 7880SOL    HW124539   0.348   0.175   6.595
 7880SOL    HW224540   0.508   0.171   6.562
 7881SOL     OW24541   0.215   4.709   4.503
 7881SOL    HW124542   0.250   4.803   4.503
 7881SOL    HW224543   0.161   4.693   4.586
 7882SOL     OW24544   6.701   4.023   3.112
 7882SOL    HW124545   6.637   4.090   3.149
 7882SOL    HW224546   6.733   4.054   3.022
 7883SOL     OW24547   3.196   1.811   3.431
 7883SOL    HW124548   3.212   1.718   3.463
 7883SOL    HW224549   3.201   1.874   3.509
 7884SOL     OW24550   0.498   4.345   4.616
 7884SOL    HW124551   0.559   4.267   4.629
 7884SOL    HW224552   0.510   4.411   4.689
 7885SOL     OW24553   6.049   5.599   2.948
 7885SOL    HW124554   6.090   5.516   2.985
 7885SOL    HW224555   5.951   5.583   2.931
 7886SOL     OW24556   4.763   2.802   2.403
 7886SOL    HW124557   4.855   2.784   2.368
 7886SOL    HW224558   4.711   2.855   2.335
 7887SOL     OW24559   2.969   3.571   0.595
 7887SOL    HW124560   3.030   3.635   0.640
 7887SOL    HW224561   3.017   3.528   0.518
 7888SOL     OW24562   5.481   1.891   4.151
 7888SOL    HW124563   5.541   1.861   4.226
 7888SOL    HW224564   5.529   1.960   4.097
 7889SOL     OW24565   5.964   4.740   0.906
 7889SOL    HW124566   5.870   4.735   0.872
 7889SOL    HW224567   6.027   4.706   0.836
 7890SOL     OW24568   1.034   3.677   4.664
 7890SOL    HW124569   1.123   3.685   4.617
 7890SOL    HW224570   1.048   3.635   4.753
 7891SOL     OW24571   0.925   1.966   4.255
 7891SOL    HW124572   0.946   1.881   4.303
 7891SOL    HW224573   0.830   1.965   4.225
 7892SOL     OW24574   1.018   2.480   5.784
 7892SOL    HW124575   1.026   2.566   5.734
 7892SOL    HW224576   0.956   2.418   5.735
 7893SOL     OW24577   5.786   0.713   0.791
 7893SOL    HW124578   5.717   0.702   0.720
 7893SOL    HW224579   5.874   0.737   0.750
 7894SOL     OW24580   2.936   1.379   6.532
 7894SOL    HW124581   2.861   1.445   6.539
 7894SOL    HW224582   2.942   1.345   6.438
 7895SOL     OW24583   4.056   6.306   3.518
 7895SOL    HW124584   4.046   6.253   3.602
 7895SOL    HW224585   3.999   6.265   3.447
 7896SOL     OW24586   3.432   1.912   1.129
 7896SOL    HW124587   3.384   1.995   1.102
 7896SOL    HW224588   3.396   1.834   1.079
 7897SOL     OW24589   3.984   4.203   0.130
 7897SOL    HW124590   4.060   4.260   0.160
 7897SOL    HW224591   4.019   4.122   0.084
 7898SOL     OW24592   5.585   0.210   4.284
 7898SOL    HW124593   5.638   0.163   4.212
 7898SOL    HW224594   5.534   0.143   4.337
 7899SOL     OW24595   5.428   4.287   1.974
 7899SOL    HW124596   5.427   4.314   1.877
 7899SOL    HW224597   5.514   4.239   1.994
 7900SOL     OW24598   0.793   3.716   0.003
 7900SOL    HW124599   0.721   3.759   0.057
 7900SOL    HW224600   0.784   3.743   6.929
 7901SOL     OW24601   5.957   1.519   6.120
 7901SOL    HW124602   5.910   1.476   6.197
 7901SOL    HW224603   5.957   1.456   6.042
 7902SOL     OW24604   0.377   6.461   2.954
 7902SOL    HW124605   0.297   6.475   2.895
 7902SOL    HW224606   0.442   6.401   2.907
 7903SOL     OW24607   2.392   2.072   4.951
 7903SOL    HW124608   2.425   2.142   4.888
 7903SOL    HW224609   2.463   2.051   5.018
 7904SOL     OW24610   5.274   1.041   1.729
 7904SOL    HW124611   5.258   1.128   1.682
 7904SOL    HW224612   5.220   0.969   1.685
 7905SOL     OW24613   5.467   0.344   0.456
 7905SOL    HW124614   5.562   0.335   0.486
 7905SOL    HW224615   5.407   0.296   0.521
 7906SOL     OW24616   1.651   5.626   1.094
 7906SOL    HW124617   1.588   5.673   1.033
 7906SOL    HW224618   1.600   5.567   1.156
 7907SOL     OW24619   6.175   0.593   3.112
 7907SOL    HW124620   6.231   0.601   3.029
 7907SOL    HW224621   6.150   0.497   3.125
 7908SOL     OW24622   6.938   0.687   0.159
 7908SOL    HW124623   7.022   0.739   0.140
 7908SOL    HW224624   6.872   0.703   0.086
 7909SOL     OW24625   5.678   3.867   2.038
 7909SOL    HW124626   5.585   3.894   2.063
 7909SOL    HW224627   5.743   3.930   2.082
 7910SOL     OW24628   2.383   3.527   0.617
 7910SOL    HW124629   2.397   3.623   0.639
 7910SOL    HW224630   2.386   3.515   0.517
 7911SOL     OW24631   0.854   4.108   0.635
 7911SOL    HW124632   0.768   4.112   0.585
 7911SOL    HW224633   0.837   4.127   0.732
 7912SOL     OW24634   5.966   5.540   0.155
 7912SOL    HW124635   6.041   5.607   0.158
 7912SOL    HW224636   5.971   5.481   0.235
 7913SOL     OW24637   0.759   3.587   0.877
 7913SOL    HW124638   0.771   3.586   0.778
 7913SOL    HW224639   0.684   3.525   0.903
 7914SOL     OW24640   6.453   5.307   4.714
 7914SOL    HW124641   6.540   5.322   4.669
 7914SOL    HW224642   6.395   5.249   4.656
 7915SOL     OW24643   3.723   6.828   3.077
 7915SOL    HW124644   3.730   6.758   3.147
 7915SOL    HW224645   3.645   6.887   3.097
 7916SOL     OW24646   1.963   0.580   4.496
 7916SOL    HW124647   1.916   0.665   4.518
 7916SOL    HW224648   2.060   0.598   4.479
 7917SOL     OW24649   4.015   3.425   0.547
 7917SOL    HW124650   3.996   3.329   0.530
 7917SOL    HW224651   3.932   3.471   0.578
 7918SOL     OW24652   2.557   0.983   5.019
 7918SOL    HW124653   2.506   1.061   5.057
 7918SOL    HW224654   2.575   0.917   5.091
 7919SOL     OW24655   1.468   5.763   2.861
 7919SOL    HW124656   1.539   5.754   2.791
 7919SOL    HW224657   1.505   5.810   2.941
 7920SOL     OW24658   4.782   0.179   0.859
 7920SOL    HW124659   4.703   0.190   0.799
 7920SOL    HW224660   4.864   0.164   0.805
 7921SOL     OW24661   4.825   1.495   1.868
 7921SOL    HW124662   4.760   1.420   1.860
 7921SOL    HW224663   4.788   1.565   1.930
 7922SOL     OW24664   0.259   5.613   0.826
 7922SOL    HW124665   0.289   5.674   0.900
 7922SOL    HW224666   0.161   5.623   0.813
 7923SOL     OW24667   3.841   1.546   0.021
 7923SOL    HW124668   3.879   1.559   0.113
 7923SOL    HW224669   3.768   1.613   0.006
 7924SOL     OW24670   6.133   0.037   0.435
 7924SOL    HW124671   6.133   0.028   0.335
 7924SOL    HW224672   6.041   0.056   0.467
 7925SOL     OW24673   2.242   6.206   0.802
 7925SOL    HW124674   2.189   6.135   0.756
 7925SOL    HW224675   2.239   6.290   0.748
 7926SOL     OW24676   4.184   5.853   6.444
 7926SOL    HW124677   4.123   5.795   6.497
 7926SOL    HW224678   4.179   5.828   6.347
 7927SOL     OW24679   4.579   6.785   2.091
 7927SOL    HW124680   4.628   6.779   2.178
 7927SOL    HW224681   4.643   6.810   2.019
 7928SOL     OW24682   6.653   1.459   2.838
 7928SOL    HW124683   6.648   1.405   2.922
 7928SOL    HW224684   6.703   1.408   2.768
 7929SOL     OW24685   3.813   4.472   5.629
 7929SOL    HW124686   3.743   4.402   5.620
 7929SOL    HW224687   3.828   4.516   5.540
 7930SOL     OW24688   4.195   5.708   5.449
 7930SOL    HW124689   4.262   5.657   5.504
 7930SOL    HW224690   4.214   5.695   5.352
 7931SOL     OW24691   3.603   2.076   0.617
 7931SOL    HW124692   3.612   2.046   0.713
 7931SOL    HW224693   3.542   2.014   0.568
 7932SOL     OW24694   0.796   5.336   1.893
 7932SOL    HW124695   0.717   5.395   1.909
 7932SOL    HW224696   0.862   5.348   1.968
 7933SOL     OW24697   0.174   1.164   6.115
 7933SOL    HW124698   0.189   1.087   6.177
 7933SOL    HW224699   0.229   1.151   6.032
 7934SOL     OW24700   0.705   4.267   1.122
 7934SOL    HW124701   0.701   4.367   1.120
 7934SOL    HW224702   0.763   4.238   1.198
 7935SOL     OW24703   5.349   2.908   2.431
 7935SOL    HW124704   5.285   2.983   2.444
 7935SOL    HW224705   5.326   2.858   2.348
 7936SOL     OW24706   3.307   5.758   4.255
 7936SOL    HW124707   3.320   5.820   4.178
 7936SOL    HW224708   3.392   5.708   4.273
 7937SOL     OW24709   3.168   6.552   6.995
 7937SOL    HW124710   3.237   6.486   6.965
 7937SOL    HW224711   3.090   6.503   0.012
 7938SOL     OW24712   3.200   6.447   4.577
 7938SOL    HW124713   3.239   6.531   4.541
 7938SOL    HW224714   3.170   6.461   4.672
 7939SOL     OW24715   0.351   1.513   4.660
 7939SOL    HW124716   0.289   1.589   4.681
 7939SOL    HW224717   0.316   1.461   4.582
 7940SOL     OW24718   4.824   0.795   3.310
 7940SOL    HW124719   4.804   0.721   3.245
 7940SOL    HW224720   4.893   0.856   3.271
 7941SOL     OW24721   3.960   6.258   1.646
 7941SOL    HW124722   3.932   6.313   1.725
 7941SOL    HW224723   3.878   6.231   1.594
 7942SOL     OW24724   1.460   4.333   1.338
 7942SOL    HW124725   1.528   4.279   1.287
 7942SOL    HW224726   1.441   4.418   1.288
 7943SOL     OW24727   1.680   6.010   6.316
 7943SOL    HW124728   1.696   6.044   6.223
 7943SOL    HW224729   1.719   5.919   6.325
 7944SOL     OW24730   1.715   2.845   0.946
 7944SOL    HW124731   1.686   2.838   1.041
 7944SOL    HW224732   1.645   2.805   0.887
 7945SOL     OW24733   5.729   4.697   2.675
 7945SOL    HW124734   5.806   4.634   2.662
 7945SOL    HW224735   5.708   4.742   2.589
 7946SOL     OW24736   3.626   1.223   5.298
 7946SOL    HW124737   3.527   1.212   5.299
 7946SOL    HW224738   3.650   1.312   5.335
 7947SOL     OW24739   1.419   2.882   5.526
 7947SOL    HW124740   1.356   2.810   5.554
 7947SOL    HW224741   1.501   2.841   5.485
 7948SOL     OW24742   1.472   4.494   2.459
 7948SOL    HW124743   1.422   4.420   2.504
 7948SOL    HW224744   1.564   4.499   2.497
 7949SOL     OW24745   3.863   4.730   6.602
 7949SOL    HW124746   3.907   4.640   6.598
 7949SOL    HW224747   3.882   4.771   6.691
 7950SOL     OW24748   6.067   5.385   5.479
 7950SOL    HW124749   6.111   5.360   5.393
 7950SOL    HW224750   5.971   5.408   5.462
 7951SOL     OW24751   2.682   5.580   3.037
 7951SOL    HW124752   2.616   5.572   3.112
 7951SOL    HW224753   2.768   5.537   3.064
 7952SOL     OW24754   4.975   3.564   6.920
 7952SOL    HW124755   4.955   3.659   6.942
 7952SOL    HW224756   4.962   3.549   6.822
 7953SOL     OW24757   2.829   1.348   0.782
 7953SOL    HW124758   2.918   1.323   0.744
 7953SOL    HW224759   2.760   1.343   0.710
 7954SOL     OW24760   3.477   2.924   0.239
 7954SOL    HW124761   3.444   2.928   0.334
 7954SOL    HW224762   3.571   2.891   0.237
 7955SOL     OW24763   1.602   0.676   6.607
 7955SOL    HW124764   1.629   0.594   6.656
 7955SOL    HW224765   1.503   0.689   6.616
 7956SOL     OW24766   6.856   6.365   0.887
 7956SOL    HW124767   6.945   6.335   0.923
 7956SOL    HW224768   6.818   6.436   0.946
 7957SOL     OW24769   4.772   0.729   5.498
 7957SOL    HW124770   4.756   0.656   5.564
 7957SOL    HW224771   4.843   0.700   5.433
 7958SOL     OW24772   5.786   2.830   6.843
 7958SOL    HW124773   5.835   2.881   6.772
 7958SOL    HW224774   5.810   2.733   6.836
 7959SOL     OW24775   5.213   1.020   6.150
 7959SOL    HW124776   5.248   1.068   6.069
 7959SOL    HW224777   5.158   0.942   6.122
 7960SOL     OW24778   0.357   0.711   5.566
 7960SOL    HW124779   0.321   0.801   5.590
 7960SOL    HW224780   0.280   0.648   5.550
 7961SOL     OW24781   6.633   0.261   0.345
 7961SOL    HW124782   6.727   0.227   0.356
 7961SOL    HW224783   6.574   0.219   0.414
 7962SOL     OW24784   6.192   6.898   5.354
 7962SOL    HW124785   6.270   6.855   5.400
 7962SOL    HW224786   6.125   6.828   5.329
 7963SOL     OW24787   0.200   5.176   5.095
 7963SOL    HW124788   0.274   5.120   5.058
 7963SOL    HW224789   0.233   5.223   5.177
 7964SOL     OW24790   6.343   3.689   2.423
 7964SOL    HW124791   6.259   3.701   2.476
 7964SOL    HW224792   6.389   3.777   2.413
 7965SOL     OW24793   4.116   1.551   6.642
 7965SOL    HW124794   4.206   1.510   6.629
 7965SOL    HW224795   4.087   1.536   6.737
 7966SOL     OW24796   4.789   4.086   5.066
 7966SOL    HW124797   4.789   4.070   4.967
 7966SOL    HW224798   4.696   4.102   5.097
 7967SOL     OW24799   1.254   4.826   2.442
 7967SOL    HW124800   1.268   4.767   2.362
 7967SOL    HW224801   1.222   4.916   2.411
 7968SOL     OW24802   6.671   2.215   4.258
 7968SOL    HW124803   6.656   2.191   4.162
 7968SOL    HW224804   6.624   2.149   4.316
 7969SOL     OW24805   4.544   5.626   6.902
 7969SOL    HW124806   4.621   5.642   6.840
 7969SOL    HW224807   4.509   5.533   6.889
 7970SOL     OW24808   6.167   2.511   2.544
 7970SOL    HW124809   6.068   2.527   2.539
 7970SOL    HW224810   6.197   2.524   2.638
 7971SOL     OW24811   3.279   1.251   0.886
 7971SOL    HW124812   3.241   1.160   0.901
 7971SOL    HW224813   3.375   1.244   0.860
 7972SOL     OW24814   4.137   3.426   2.919
 7972SOL    HW124815   4.171   3.476   2.999
 7972SOL    HW224816   4.074   3.484   2.868
 7973SOL     OW24817   6.399   3.832   3.071
 7973SOL    HW124818   6.486   3.881   3.080
 7973SOL    HW224819   6.415   3.748   3.019
 7974SOL     OW24820   6.711   1.820   5.060
 7974SOL    HW124821   6.743   1.749   5.123
 7974SOL    HW224822   6.612   1.832   5.071
 7975SOL     OW24823   5.243   0.904   0.876
 7975SOL    HW124824   5.316   0.862   0.823
 7975SOL    HW224825   5.157   0.898   0.825
 7976SOL     OW24826   0.730   0.012   6.740
 7976SOL    HW124827   0.827   0.032   6.747
 7976SOL    HW224828   0.696   6.999   6.827
 7977SOL     OW24829   5.334   6.264   2.791
 7977SOL    HW124830   5.272   6.235   2.719
 7977SOL    HW224831   5.414   6.204   2.792
 7978SOL     OW24832   0.125   5.006   0.909
 7978SOL    HW124833   0.181   5.055   0.976
 7978SOL    HW224834   0.182   4.938   0.862
 7979SOL     OW24835   1.161   3.537   4.865
 7979SOL    HW124836   1.124   3.506   4.953
 7979SOL    HW224837   1.259   3.554   4.874
 7980SOL     OW24838   4.265   4.981   6.802
 7980SOL    HW124839   4.274   5.078   6.826
 7980SOL    HW224840   4.173   4.949   6.827
 7981SOL     OW24841   1.845   4.648   3.592
 7981SOL    HW124842   1.904   4.568   3.584
 7981SOL    HW224843   1.867   4.697   3.677
 7982SOL     OW24844   0.799   2.048   6.224
 7982SOL    HW124845   0.847   2.034   6.138
 7982SOL    HW224846   0.710   2.003   6.220
 7983SOL     OW24847   5.018   0.749   1.317
 7983SOL    HW124848   4.971   0.773   1.232
 7983SOL    HW224849   4.985   0.660   1.349
 7984SOL     OW24850   1.158   2.047   2.078
 7984SOL    HW124851   1.127   2.128   2.028
 7984SOL    HW224852   1.228   2.073   2.144
 7985SOL     OW24853   2.068   2.187   5.666
 7985SOL    HW124854   2.095   2.284   5.672
 7985SOL    HW224855   2.090   2.141   5.752
 7986SOL     OW24856   2.753   1.275   3.873
 7986SOL    HW124857   2.709   1.363   3.855
 7986SOL    HW224858   2.739   1.249   3.968
 7987SOL     OW24859   1.478   3.394   0.927
 7987SOL    HW124860   1.543   3.433   0.862
 7987SOL    HW224861   1.386   3.427   0.906
 7988SOL     OW24862   0.548   1.774   0.988
 7988SOL    HW124863   0.476   1.734   0.931
 7988SOL    HW224864   0.533   1.873   0.994
 7989SOL     OW24865   1.048   4.769   0.561
 7989SOL    HW124866   1.104   4.851   0.570
 7989SOL    HW224867   1.055   4.734   0.468
 7990SOL     OW24868   3.242   5.235   5.653
 7990SOL    HW124869   3.183   5.157   5.631
 7990SOL    HW224870   3.256   5.239   5.752
 7991SOL     OW24871   5.562   1.528   4.722
 7991SOL    HW124872   5.484   1.514   4.661
 7991SOL    HW224873   5.555   1.466   4.801
 7992SOL     OW24874   3.093   0.455   0.493
 7992SOL    HW124875   3.028   0.461   0.418
 7992SOL    HW224876   3.145   0.540   0.499
 7993SOL     OW24877   6.465   5.630   1.447
 7993SOL    HW124878   6.559   5.663   1.449
 7993SOL    HW224879   6.454   5.559   1.517
 7994SOL     OW24880   5.246   0.496   3.220
 7994SOL    HW124881   5.316   0.506   3.291
 7994SOL    HW224882   5.159   0.470   3.262
 7995SOL     OW24883   0.136   4.587   1.560
 7995SOL    HW124884   0.044   4.590   1.601
 7995SOL    HW224885   0.177   4.678   1.566
 7996SOL     OW24886   3.720   0.451   2.889
 7996SOL    HW124887   3.716   0.373   2.952
 7996SOL    HW224888   3.804   0.503   2.905
 7997SOL     OW24889   0.489   2.336   0.350
 7997SOL    HW124890   0.508   2.435   0.348
 7997SOL    HW224891   0.554   2.289   0.292
 7998SOL     OW24892   3.161   0.766   0.530
 7998SOL    HW124893   3.149   0.741   0.626
 7998SOL    HW224894   3.128   0.859   0.515
 7999SOL     OW24895   1.374   1.281   5.380
 7999SOL    HW124896   1.462   1.315   5.411
 7999SOL    HW224897   1.375   1.270   5.280
 8000SOL     OW24898   5.738   5.391   6.656
 8000SOL    HW124899   5.679   5.332   6.602
 8000SOL    HW224900   5.784   5.337   6.727
 8001SOL     OW24901   4.861   0.415   1.307
 8001SOL    HW124902   4.771   0.423   1.349
 8001SOL    HW224903   4.858   0.454   1.215
 8002SOL     OW24904   0.991   0.007   5.601
 8002SOL    HW124905   1.020   0.037   5.692
 8002SOL    HW224906   0.960   0.086   5.549
 8003SOL     OW24907   2.297   6.696   3.239
 8003SOL    HW124908   2.391   6.712   3.268
 8003SOL    HW224909   2.289   6.603   3.203
 8004SOL     OW24910   1.048   3.358   4.146
 8004SOL    HW124911   1.036   3.447   4.190
 8004SOL    HW224912   1.005   3.360   4.055
 8005SOL     OW24913   2.428   0.517   3.554
 8005SOL    HW124914   2.379   0.472   3.479
 8005SOL    HW224915   2.526   0.519   3.533
 8006SOL     OW24916   3.512   4.413   5.299
 8006SOL    HW124917   3.489   4.482   5.230
 8006SOL    HW224918   3.453   4.426   5.379
 8007SOL     OW24919   5.810   1.056   6.697
 8007SOL    HW124920   5.873   1.095   6.630
 8007SOL    HW224921   5.781   1.127   6.761
 8008SOL     OW24922   4.925   6.555   6.447
 8008SOL    HW124923   4.850   6.570   6.512
 8008SOL    HW224924   4.941   6.639   6.395
 8009SOL     OW24925   5.152   1.401   0.053
 8009SOL    HW124926   5.146   1.306   0.086
 8009SOL    HW224927   5.155   1.463   0.132
 8010SOL     OW24928   2.567   2.633   5.379
 8010SOL    HW124929   2.645   2.580   5.346
 8010SOL    HW224930   2.556   2.621   5.477
 8011SOL     OW24931   4.052   1.975   2.260
 8011SOL    HW124932   4.107   2.021   2.190
 8011SOL    HW224933   3.962   2.017   2.264
 8012SOL     OW24934   0.955   2.653   5.310
 8012SOL    HW124935   0.908   2.675   5.396
 8012SOL    HW224936   0.961   2.734   5.253
 8013SOL     OW24937   1.935   2.697   3.387
 8013SOL    HW124938   2.024   2.731   3.358
 8013SOL    HW224939   1.927   2.706   3.487
 8014SOL     OW24940   1.962   1.133   2.807
 8014SOL    HW124941   1.922   1.156   2.895
 8014SOL    HW224942   1.899   1.159   2.734
 8015SOL     OW24943   2.104   0.048   5.512
 8015SOL    HW124944   2.119   0.093   5.424
 8015SOL    HW224945   2.066   0.115   5.577
 8016SOL     OW24946   4.596   1.315   5.374
 8016SOL    HW124947   4.564   1.302   5.279
 8016SOL    HW224948   4.532   1.270   5.436
 8017SOL     OW24949   6.405   6.912   0.293
 8017SOL    HW124950   6.458   6.953   0.219
 8017SOL    HW224951   6.329   6.972   0.318
 8018SOL     OW24952   4.227   1.685   0.106
 8018SOL    HW124953   4.154   1.718   0.045
 8018SOL    HW224954   4.295   1.634   0.052
 8019SOL     OW24955   3.057   2.908   0.811
 8019SOL    HW124956   3.045   3.002   0.780
 8019SOL    HW224957   2.967   2.867   0.828
 8020SOL     OW24958   0.325   0.533   5.034
 8020SOL    HW124959   0.231   0.518   5.003
 8020SOL    HW224960   0.327   0.608   5.100
 8021SOL     OW24961   1.529   2.194   2.710
 8021SOL    HW124962   1.475   2.250   2.647
 8021SOL    HW224963   1.467   2.141   2.769
 8022SOL     OW24964   4.521   1.375   2.105
 8022SOL    HW124965   4.425   1.346   2.102
 8022SOL    HW224966   4.563   1.358   2.016
 8023SOL     OW24967   4.841   5.592   3.760
 8023SOL    HW124968   4.802   5.515   3.809
 8023SOL    HW224969   4.773   5.628   3.696
 8024SOL     OW24970   2.076   6.704   6.554
 8024SOL    HW124971   2.043   6.722   6.647
 8024SOL    HW224972   2.014   6.745   6.488
 8025SOL     OW24973   2.112   5.162   1.354
 8025SOL    HW124974   2.120   5.135   1.450
 8025SOL    HW224975   2.021   5.199   1.338
 8026SOL     OW24976   0.992   5.877   6.844
 8026SOL    HW124977   0.966   5.791   6.801
 8026SOL    HW224978   0.998   5.949   6.774
 8027SOL     OW24979   3.675   6.388   6.852
 8027SOL    HW124980   3.721   6.310   6.808
 8027SOL    HW224981   3.718   6.406   6.940
 8028SOL     OW24982   2.815   5.699   4.825
 8028SOL    HW124983   2.886   5.679   4.892
 8028SOL    HW224984   2.853   5.759   4.754
 8029SOL     OW24985   6.267   0.742   0.614
 8029SOL    HW124986   6.346   0.681   0.625
 8029SOL    HW224987   6.261   0.773   0.519
 8030SOL     OW24988   6.872   4.563   0.528
 8030SOL    HW124989   6.920   4.646   0.555
 8030SOL    HW224990   6.868   4.558   0.428
 8031SOL     OW24991   0.012   0.546   2.513
 8031SOL    HW124992   0.061   0.489   2.580
 8031SOL    HW224993   0.078   0.589   2.451
 8032SOL     OW24994   5.670   2.609   0.988
 8032SOL    HW124995   5.718   2.537   0.939
 8032SOL    HW224996   5.722   2.636   1.069
 8033SOL     OW24997   4.051   3.993   1.117
 8033SOL    HW124998   3.995   3.936   1.178
 8033SOL    HW224999   4.148   3.973   1.132
 8034SOL     OW25000   5.590   0.207   5.350
 8034SOL    HW125001   5.510   0.237   5.299
 8034SOL    HW225002   5.624   0.282   5.406
 8035SOL     OW25003   5.279   1.530   2.901
 8035SOL    HW125004   5.367   1.518   2.947
 8035SOL    HW225005   5.233   1.441   2.894
 8036SOL     OW25006   6.545   3.470   3.249
 8036SOL    HW125007   6.591   3.439   3.165
 8036SOL    HW225008   6.505   3.561   3.233
 8037SOL     OW25009   0.546   2.341   6.075
 8037SOL    HW125010   0.617   2.310   6.012
 8037SOL    HW225011   0.580   2.333   6.169
 8038SOL     OW25012   6.619   6.438   2.377
 8038SOL    HW125013   6.539   6.499   2.374
 8038SOL    HW225014   6.589   6.343   2.365
 8039SOL     OW25015   1.496   1.957   5.497
 8039SOL    HW125016   1.493   1.905   5.583
 8039SOL    HW225017   1.588   1.997   5.486
 8040SOL     OW25018   1.753   5.094   6.230
 8040SOL    HW125019   1.756   5.001   6.194
 8040SOL    HW225020   1.756   5.091   6.330
 8041SOL     OW25021   3.656   1.771   3.099
 8041SOL    HW125022   3.705   1.685   3.113
 8041SOL    HW225023   3.720   1.842   3.068
 8042SOL     OW25024   3.964   4.284   5.464
 8042SOL    HW125025   3.894   4.306   5.396
 8042SOL    HW225026   3.935   4.205   5.518
 8043SOL     OW25027   5.540   4.711   0.251
 8043SOL    HW125028   5.476   4.735   0.177
 8043SOL    HW225029   5.508   4.629   0.297
 8044SOL     OW25030   3.176   3.585   0.964
 8044SOL    HW125031   3.267   3.625   0.967
 8044SOL    HW225032   3.165   3.520   1.040
 8045SOL     OW25033   0.406   1.155   2.670
 8045SOL    HW125034   0.384   1.091   2.596
 8045SOL    HW225035   0.488   1.207   2.646
 8046SOL     OW25036   0.226   5.367   2.439
 8046SOL    HW125037   0.302   5.318   2.397
 8046SOL    HW225038   0.249   5.389   2.534
 8047SOL     OW25039   3.939   6.876   5.598
 8047SOL    HW125040   3.999   6.937   5.546
 8047SOL    HW225041   3.994   6.824   5.664
 8048SOL     OW25042   3.900   3.807   0.279
 8048SOL    HW125043   3.967   3.737   0.303
 8048SOL    HW225044   3.895   3.815   0.179
 8049SOL     OW25045   2.327   0.114   1.016
 8049SOL    HW125046   2.353   0.186   0.952
 8049SOL    HW225047   2.361   0.026   0.983
 8050SOL     OW25048   1.743   4.133   4.814
 8050SOL    HW125049   1.785   4.086   4.737
 8050SOL    HW225050   1.813   4.183   4.865
 8051SOL     OW25051   3.269   5.955   4.604
 8051SOL    HW125052   3.278   6.054   4.599
 8051SOL    HW225053   3.250   5.918   4.513
 8052SOL     OW25054   2.320   2.543   2.196
 8052SOL    HW125055   2.379   2.495   2.261
 8052SOL    HW225056   2.242   2.485   2.174
 8053SOL     OW25057   2.556   3.135   5.991
 8053SOL    HW125058   2.463   3.103   6.012
 8053SOL    HW225059   2.609   3.060   5.953
 8054SOL     OW25060   5.526   3.827   5.183
 8054SOL    HW125061   5.452   3.806   5.119
 8054SOL    HW225062   5.550   3.924   5.176
 8055SOL     OW25063   6.962   1.014   5.372
 8055SOL    HW125064   6.927   1.096   5.417
 8055SOL    HW225065   6.889   0.972   5.319
 8056SOL     OW25066   2.692   0.810   4.588
 8056SOL    HW125067   2.625   0.884   4.602
 8056SOL    HW225068   2.651   0.739   4.531
 8057SOL     OW25069   2.654   2.411   2.047
 8057SOL    HW125070   2.733   2.371   2.000
 8057SOL    HW225071   2.673   2.414   2.145
 8058SOL     OW25072   3.160   6.786   3.512
 8058SOL    HW125073   3.255   6.770   3.485
 8058SOL    HW225074   3.099   6.740   3.447
 8059SOL     OW25075   2.762   3.152   6.392
 8059SOL    HW125076   2.809   3.077   6.439
 8059SOL    HW225077   2.677   3.174   6.440
 8060SOL     OW25078   6.398   0.127   5.447
 8060SOL    HW125079   6.386   0.028   5.453
 8060SOL    HW225080   6.309   0.170   5.430
 8061SOL     OW25081   0.551   1.595   2.265
 8061SOL    HW125082   0.459   1.555   2.263
 8061SOL    HW225083   0.546   1.689   2.233
 8062SOL     OW25084   4.334   6.013   5.266
 8062SOL    HW125085   4.308   6.039   5.359
 8062SOL    HW225086   4.359   5.916   5.264
 8063SOL     OW25087   3.435   6.726   3.170
 8063SOL    HW125088   3.458   6.646   3.225
 8063SOL    HW225089   3.431   6.700   3.073
 8064SOL     OW25090   5.868   2.550   6.848
 8064SOL    HW125091   5.794   2.495   6.810
 8064SOL    HW225092   5.913   2.500   6.922
 8065SOL     OW25093   3.321   6.634   4.935
 8065SOL    HW125094   3.371   6.672   4.858
 8065SOL    HW225095   3.358   6.545   4.960
 8066SOL     OW25096   6.955   0.874   4.509
 8066SOL    HW125097   0.033   0.888   4.512
 8066SOL    HW225098   6.935   0.777   4.515
 8067SOL     OW25099   5.146   3.191   3.597
 8067SOL    HW125100   5.219   3.160   3.536
 8067SOL    HW225101   5.182   3.200   3.690
 8068SOL     OW25102   6.411   4.385   0.912
 8068SOL    HW125103   6.364   4.347   0.991
 8068SOL    HW225104   6.474   4.457   0.942
 8069SOL     OW25105   2.506   4.594   2.360
 8069SOL    HW125106   2.572   4.597   2.284
 8069SOL    HW225107   2.443   4.517   2.346
 8070SOL     OW25108   5.523   4.695   6.912
 8070SOL    HW125109   5.517   4.612   6.969
 8070SOL    HW225110   5.532   4.775   6.971
 8071SOL     OW25111   3.739   6.541   5.971
 8071SOL    HW125112   3.683   6.465   6.004
 8071SOL    HW225113   3.734   6.546   5.872
 8072SOL     OW25114   1.765   2.927   6.590
 8072SOL    HW125115   1.740   2.960   6.499
 8072SOL    HW225116   1.761   3.002   6.655
 8073SOL     OW25117   3.687   0.334   6.752
 8073SOL    HW125118   3.734   0.249   6.727
 8073SOL    HW225119   3.592   0.313   6.776
 8074SOL     OW25120   1.830   1.359   0.156
 8074SOL    HW125121   1.864   1.310   0.236
 8074SOL    HW225122   1.907   1.395   0.103
 8075SOL     OW25123   0.331   6.315   6.712
 8075SOL    HW125124   0.287   6.405   6.714
 8075SOL    HW225125   0.353   6.286   6.805
 8076SOL     OW25126   6.613   6.588   6.868
 8076SOL    HW125127   6.677   6.568   6.794
 8076SOL    HW225128   6.619   6.685   6.892
 8077SOL     OW25129   4.277   5.343   0.855
 8077SOL    HW125130   4.251   5.415   0.791
 8077SOL    HW225131   4.261   5.375   0.949
 8078SOL     OW25132   0.530   0.764   0.993
 8078SOL    HW125133   0.621   0.749   1.031
 8078SOL    HW225134   0.533   0.752   0.894
 8079SOL     OW25135   1.476   1.343   4.856
 8079SOL    HW125136   1.444   1.298   4.773
 8079SOL    HW225137   1.551   1.405   4.833
 8080SOL     OW25138   1.229   3.607   2.661
 8080SOL    HW125139   1.198   3.688   2.611
 8080SOL    HW225140   1.227   3.527   2.600
 8081SOL     OW25141   5.987   5.006   4.801
 8081SOL    HW125142   6.010   4.979   4.708
 8081SOL    HW225143   6.070   5.018   4.854
 8082SOL     OW25144   3.216   2.078   2.678
 8082SOL    HW125145   3.312   2.104   2.683
 8082SOL    HW225146   3.183   2.088   2.584
 8083SOL     OW25147   5.940   2.039   4.891
 8083SOL    HW125148   5.912   1.950   4.857
 8083SOL    HW225149   6.011   2.027   4.961
 8084SOL     OW25150   2.291   0.043   6.670
 8084SOL    HW125151   2.356   7.005   6.624
 8084SOL    HW225152   2.205   0.045   6.619
 8085SOL     OW25153   0.091   5.667   4.088
 8085SOL    HW125154   7.018   5.656   4.120
 8085SOL    HW225155   0.095   5.647   3.991
 8086SOL     OW25156   0.637   1.170   2.026
 8086SOL    HW125157   0.722   1.224   2.032
 8086SOL    HW225158   0.560   1.231   2.009
 8087SOL     OW25159   1.242   0.596   6.888
 8087SOL    HW125160   1.310   0.659   6.926
 8087SOL    HW225161   1.150   0.631   6.906
 8088SOL     OW25162   5.099   6.821   5.936
 8088SOL    HW125163   5.138   6.758   6.004
 8088SOL    HW225164   5.013   6.784   5.901
 8089SOL     OW25165   6.020   2.517   6.144
 8089SOL    HW125166   5.926   2.550   6.132
 8089SOL    HW225167   6.082   2.595   6.150
 8090SOL     OW25168   4.484   1.652   6.520
 8090SOL    HW125169   4.409   1.589   6.542
 8090SOL    HW225170   4.542   1.611   6.450
 8091SOL     OW25171   1.073   4.207   5.073
 8091SOL    HW125172   1.108   4.287   5.123
 8091SOL    HW225173   1.123   4.198   4.987
 8092SOL     OW25174   5.213   2.194   5.547
 8092SOL    HW125175   5.279   2.123   5.525
 8092SOL    HW225176   5.153   2.210   5.469
 8093SOL     OW25177   2.976   6.585   2.596
 8093SOL    HW125178   2.922   6.628   2.524
 8093SOL    HW225179   3.061   6.548   2.557
 8094SOL     OW25180   1.532   4.174   3.980
 8094SOL    HW125181   1.583   4.219   3.906
 8094SOL    HW225182   1.577   4.193   4.067
 8095SOL     OW25183   1.318   4.712   5.377
 8095SOL    HW125184   1.408   4.670   5.387
 8095SOL    HW225185   1.262   4.689   5.456
 8096SOL     OW25186   0.797   6.715   2.454
 8096SOL    HW125187   0.723   6.703   2.388
 8096SOL    HW225188   0.765   6.686   2.545
 8097SOL     OW25189   2.881   5.907   5.152
 8097SOL    HW125190   2.912   5.955   5.235
 8097SOL    HW225191   2.956   5.851   5.117
 8098SOL     OW25192   1.044   5.420   4.035
 8098SOL    HW125193   1.049   5.395   3.938
 8098SOL    HW225194   1.135   5.441   4.069
 8099SOL     OW25195   2.684   5.982   4.513
 8099SOL    HW125196   2.608   5.970   4.577
 8099SOL    HW225197   2.732   5.895   4.502
 8100SOL     OW25198   6.779   1.026   6.429
 8100SOL    HW125199   6.694   1.072   6.456
 8100SOL    HW225200   6.770   0.991   6.336
 8101SOL     OW25201   1.732   6.267   1.355
 8101SOL    HW125202   1.744   6.364   1.337
 8101SOL    HW225203   1.814   6.230   1.398
 8102SOL     OW25204   0.955   3.044   4.473
 8102SOL    HW125205   0.886   3.111   4.500
 8102SOL    HW225206   0.992   3.067   4.384
 8103SOL     OW25207   3.523   1.297   2.530
 8103SOL    HW125208   3.509   1.390   2.497
 8103SOL    HW225209   3.439   1.245   2.519
 8104SOL     OW25210   1.966   6.622   6.798
 8104SOL    HW125211   1.980   6.674   6.882
 8104SOL    HW225212   1.946   6.527   6.820
 8105SOL     OW25213   6.793   1.499   2.479
 8105SOL    HW125214   6.758   1.436   2.549
 8105SOL    HW225215   6.825   1.447   2.400
 8106SOL     OW25216   1.834   5.906   4.998
 8106SOL    HW125217   1.766   5.878   4.929
 8106SOL    HW225218   1.843   5.833   5.066
 8107SOL     OW25219   1.653   5.198   5.221
 8107SOL    HW125220   1.682   5.124   5.160
 8107SOL    HW225221   1.623   5.276   5.167
 8108SOL     OW25222   0.239   0.647   6.782
 8108SOL    HW125223   0.151   0.628   6.825
 8108SOL    HW225224   0.295   0.565   6.783
 8109SOL     OW25225   6.620   3.586   6.339
 8109SOL    HW125226   6.528   3.619   6.318
 8109SOL    HW225227   6.677   3.590   6.257
 8110SOL     OW25228   4.829   5.088   0.661
 8110SOL    HW125229   4.840   5.027   0.739
 8110SOL    HW225230   4.887   5.169   0.673
 8111SOL     OW25231   5.756   0.823   2.921
 8111SOL    HW125232   5.779   0.808   2.825
 8111SOL    HW225233   5.822   0.886   2.962
 8112SOL     OW25234   0.513   2.291   5.424
 8112SOL    HW125235   0.490   2.357   5.352
 8112SOL    HW225236   0.608   2.261   5.412
 8113SOL     OW25237   6.044   2.509   0.897
 8113SOL    HW125238   5.956   2.460   0.903
 8113SOL    HW225239   6.027   2.605   0.877
 8114SOL     OW25240   1.501   4.054   1.609
 8114SOL    HW125241   1.411   4.084   1.577
 8114SOL    HW225242   1.563   4.132   1.611
 8115SOL     OW25243   2.947   6.819   0.177
 8115SOL    HW125244   2.931   6.740   0.236
 8115SOL    HW225245   3.045   6.827   0.158
 8116SOL     OW25246   3.481   4.981   1.003
 8116SOL    HW125247   3.502   5.050   0.934
 8116SOL    HW225248   3.382   4.978   1.018
 8117SOL     OW25249   2.561   0.333   2.878
 8117SOL    HW125250   2.470   0.324   2.918
 8117SOL    HW225251   2.627   0.357   2.949
 8118SOL     OW25252   6.324   3.305   6.700
 8118SOL    HW125253   6.370   3.335   6.617
 8118SOL    HW225254   6.300   3.385   6.755
 8119SOL     OW25255   6.091   5.893   5.634
 8119SOL    HW125256   6.011   5.837   5.651
 8119SOL    HW225257   6.172   5.835   5.626
 8120SOL     OW25258   2.045   5.677   0.659
 8120SOL    HW125259   2.020   5.774   0.664
 8120SOL    HW225260   2.076   5.646   0.748
 8121SOL     OW25261   1.097   4.156   2.751
 8121SOL    HW125262   1.070   4.253   2.749
 8121SOL    HW225263   1.034   4.106   2.810
 8122SOL     OW25264   1.012   4.249   2.362
 8122SOL    HW125265   0.988   4.263   2.266
 8122SOL    HW225266   1.033   4.337   2.404
 8123SOL     OW25267   0.249   2.000   6.610
 8123SOL    HW125268   0.321   1.951   6.659
 8123SOL    HW225269   0.290   2.052   6.535
 8124SOL     OW25270   5.159   5.341   3.542
 8124SOL    HW125271   5.231   5.364   3.476
 8124SOL    HW225272   5.200   5.328   3.633
 8125SOL     OW25273   0.736   0.508   3.224
 8125SOL    HW125274   0.679   0.589   3.237
 8125SOL    HW225275   0.738   0.455   3.309
 8126SOL     OW25276   3.684   5.312   4.166
 8126SOL    HW125277   3.652   5.242   4.231
 8126SOL    HW225278   3.615   5.324   4.095
 8127SOL     OW25279   2.716   2.622   0.433
 8127SOL    HW125280   2.728   2.542   0.492
 8127SOL    HW225281   2.625   2.620   0.392
 8128SOL     OW25282   3.184   2.906   2.289
 8128SOL    HW125283   3.220   2.918   2.197
 8128SOL    HW225284   3.085   2.921   2.288
 8129SOL     OW25285   1.287   2.445   0.389
 8129SOL    HW125286   1.367   2.409   0.438
 8129SOL    HW225287   1.265   2.386   0.312
 8130SOL     OW25288   1.369   5.583   0.231
 8130SOL    HW125289   1.349   5.491   0.198
 8130SOL    HW225290   1.343   5.591   0.327
 8131SOL     OW25291   2.350   2.903   0.602
 8131SOL    HW125292   2.283   2.975   0.619
 8131SOL    HW225293   2.303   2.816   0.587
 8132SOL     OW25294   6.170   0.243   3.757
 8132SOL    HW125295   6.231   0.321   3.743
 8132SOL    HW225296   6.222   0.164   3.789
 8133SOL     OW25297   3.626   5.136   1.203
 8133SOL    HW125298   3.600   5.104   1.294
 8133SOL    HW225299   3.573   5.086   1.134
 8134SOL     OW25300   6.463   0.655   5.246
 8134SOL    HW125301   6.440   0.633   5.151
 8134SOL    HW225302   6.550   0.612   5.270
 8135SOL     OW25303   2.811   0.142   2.011
 8135SOL    HW125304   2.891   0.087   1.987
 8135SOL    HW225305   2.805   0.221   1.950
 8136SOL     OW25306   4.598   4.763   2.326
 8136SOL    HW125307   4.637   4.788   2.415
 8136SOL    HW225308   4.666   4.711   2.274
 8137SOL     OW25309   3.975   1.907   4.858
 8137SOL    HW125310   4.055   1.847   4.862
 8137SOL    HW225311   3.984   1.970   4.781
 8138SOL     OW25312   5.083   1.248   1.889
 8138SOL    HW125313   5.102   1.312   1.814
 8138SOL    HW225314   5.168   1.223   1.934
 8139SOL     OW25315   1.309   1.615   2.602
 8139SOL    HW125316   1.214   1.614   2.633
 8139SOL    HW225317   1.352   1.527   2.623
 8140SOL     OW25318   4.262   0.997   4.126
 8140SOL    HW125319   4.293   1.016   4.032
 8140SOL    HW225320   4.297   1.067   4.187
 8141SOL     OW25321   4.576   5.078   5.397
 8141SOL    HW125322   4.603   5.127   5.480
 8141SOL    HW225323   4.477   5.084   5.385
 8142SOL     OW25324   5.710   4.616   0.566
 8142SOL    HW125325   5.756   4.561   0.496
 8142SOL    HW225326   5.713   4.568   0.653
 8143SOL     OW25327   5.929   4.443   5.999
 8143SOL    HW125328   5.878   4.477   6.078
 8143SOL    HW225329   5.886   4.359   5.966
 8144SOL     OW25330   5.510   0.024   0.043
 8144SOL    HW125331   5.602   7.010   0.059
 8144SOL    HW225332   5.485   0.086   0.116
 8145SOL     OW25333   6.400   5.821   3.030
 8145SOL    HW125334   6.427   5.850   3.122
 8145SOL    HW225335   6.307   5.854   3.011
 8146SOL     OW25336   3.533   0.879   5.856
 8146SOL    HW125337   3.596   0.801   5.848
 8146SOL    HW225338   3.488   0.895   5.768
 8147SOL     OW25339   4.435   2.137   4.235
 8147SOL    HW125340   4.424   2.133   4.136
 8147SOL    HW225341   4.532   2.133   4.259
 8148SOL     OW25342   5.500   2.661   2.780
 8148SOL    HW125343   5.493   2.676   2.682
 8148SOL    HW225344   5.460   2.739   2.828
 8149SOL     OW25345   3.765   5.217   2.508
 8149SOL    HW125346   3.797   5.301   2.553
 8149SOL    HW225347   3.668   5.203   2.529
 8150SOL     OW25348   0.492   5.178   0.272
 8150SOL    HW125349   0.483   5.171   0.371
 8150SOL    HW225350   0.567   5.241   0.250
 8151SOL     OW25351   1.259   2.269   4.670
 8151SOL    HW125352   1.255   2.353   4.725
 8151SOL    HW225353   1.261   2.294   4.573
 8152SOL     OW25354   1.931   0.937   3.593
 8152SOL    HW125355   2.030   0.934   3.586
 8152SOL    HW225356   1.899   1.031   3.580
 8153SOL     OW25357   2.729   6.934   1.283
 8153SOL    HW125358   2.751   6.984   1.367
 8153SOL    HW225359   2.666   6.989   1.227
 8154SOL     OW25360   1.921   6.433   4.176
 8154SOL    HW125361   1.884   6.472   4.260
 8154SOL    HW225362   1.856   6.445   4.102
 8155SOL     OW25363   2.897   3.283   2.606
 8155SOL    HW125364   2.909   3.216   2.679
 8155SOL    HW225365   2.903   3.236   2.517
 8156SOL     OW25366   5.786   1.131   5.414
 8156SOL    HW125367   5.848   1.210   5.406
 8156SOL    HW225368   5.819   1.071   5.487
 8157SOL     OW25369   5.856   4.022   6.546
 8157SOL    HW125370   5.809   4.109   6.530
 8157SOL    HW225371   5.950   4.039   6.572
 8158SOL     OW25372   1.117   5.610   1.576
 8158SOL    HW125373   1.030   5.651   1.604
 8158SOL    HW225374   1.112   5.511   1.587
 8159SOL     OW25375   2.344   4.928   1.923
 8159SOL    HW125376   2.315   4.992   1.995
 8159SOL    HW225377   2.431   4.886   1.949
 8160SOL     OW25378   4.213   2.181   1.446
 8160SOL    HW125379   4.137   2.245   1.439
 8160SOL    HW225380   4.290   2.224   1.493
 8161SOL     OW25381   4.836   1.356   0.356
 8161SOL    HW125382   4.809   1.314   0.269
 8161SOL    HW225383   4.876   1.446   0.339
 8162SOL     OW25384   5.664   6.824   1.170
 8162SOL    HW125385   5.584   6.791   1.120
 8162SOL    HW225386   5.701   6.904   1.123
 8163SOL     OW25387   2.531   4.374   5.321
 8163SOL    HW125388   2.623   4.412   5.320
 8163SOL    HW225389   2.536   4.274   5.331
 8164SOL     OW25390   4.428   2.439   1.388
 8164SOL    HW125391   4.435   2.536   1.414
 8164SOL    HW225392   4.519   2.400   1.381
 8165SOL     OW25393   2.238   3.990   1.469
 8165SOL    HW125394   2.222   4.036   1.381
 8165SOL    HW225395   2.171   4.022   1.536
 8166SOL     OW25396   2.752   0.717   1.927
 8166SOL    HW125397   2.758   0.709   1.827
 8166SOL    HW225398   2.660   0.746   1.953
 8167SOL     OW25399   6.000   2.819   3.871
 8167SOL    HW125400   5.970   2.741   3.816
 8167SOL    HW225401   6.089   2.851   3.838
 8168SOL     OW25402   3.790   1.386   3.250
 8168SOL    HW125403   3.829   1.457   3.309
 8168SOL    HW225404   3.719   1.336   3.299
 8169SOL     OW25405   4.409   3.691   6.944
 8169SOL    HW125406   4.383   3.681   0.018
 8169SOL    HW225407   4.507   3.672   6.933
 8170SOL     OW25408   0.415   5.839   4.140
 8170SOL    HW125409   0.366   5.866   4.057
 8170SOL    HW225410   0.351   5.797   4.204
 8171SOL     OW25411   0.617   2.362   6.337
 8171SOL    HW125412   0.605   2.448   6.386
 8171SOL    HW225413   0.695   2.312   6.376
 8172SOL     OW25414   0.354   6.513   0.361
 8172SOL    HW125415   0.304   6.530   0.445
 8172SOL    HW225416   0.441   6.562   0.362
 8173SOL     OW25417   3.212   2.793   0.264
 8173SOL    HW125418   3.175   2.754   0.349
 8173SOL    HW225419   3.309   2.814   0.277
 8174SOL     OW25420   5.519   0.979   1.609
 8174SOL    HW125421   5.540   0.882   1.618
 8174SOL    HW225422   5.430   0.998   1.651
 8175SOL     OW25423   0.538   2.025   6.640
 8175SOL    HW125424   0.487   2.102   6.599
 8175SOL    HW225425   0.574   2.053   6.728
 8176SOL     OW25426   2.667   5.452   2.060
 8176SOL    HW125427   2.605   5.531   2.066
 8176SOL    HW225428   2.744   5.474   2.001
 8177SOL     OW25429   0.026   6.584   4.565
 8177SOL    HW125430   0.073   6.673   4.562
 8177SOL    HW225431   6.949   6.599   4.564
 8178SOL     OW25432   1.363   6.379   6.663
 8178SOL    HW125433   1.432   6.316   6.700
 8178SOL    HW225434   1.343   6.450   6.731
 8179SOL     OW25435   3.312   2.966   6.910
 8179SOL    HW125436   3.245   3.008   6.849
 8179SOL    HW225437   3.321   3.021   6.993
 8180SOL     OW25438   6.489   6.625   4.713
 8180SOL    HW125439   6.494   6.716   4.753
 8180SOL    HW225440   6.487   6.556   4.785
 8181SOL     OW25441   2.428   2.394   3.289
 8181SOL    HW125442   2.335   2.421   3.311
 8181SOL    HW225443   2.426   2.309   3.236
 8182SOL     OW25444   4.149   2.067   5.280
 8182SOL    HW125445   4.167   2.106   5.370
 8182SOL    HW225446   4.214   1.993   5.262
 8183SOL     OW25447   1.233   3.722   4.492
 8183SOL    HW125448   1.281   3.803   4.459
 8183SOL    HW225449   1.261   3.642   4.438
 8184SOL     OW25450   6.977   0.258   5.437
 8184SOL    HW125451   6.923   0.341   5.446
 8184SOL    HW225452   6.949   0.209   5.354
 8185SOL     OW25453   3.065   1.690   2.227
 8185SOL    HW125454   3.158   1.679   2.262
 8185SOL    HW225455   3.057   1.778   2.181
 8186SOL     OW25456   4.107   6.081   5.812
 8186SOL    HW125457   4.140   6.014   5.879
 8186SOL    HW225458   4.183   6.142   5.785
 8187SOL     OW25459   1.747   2.045   5.595
 8187SOL    HW125460   1.820   1.995   5.641
 8187SOL    HW225461   1.781   2.134   5.565
 8188SOL     OW25462   6.106   2.623   3.210
 8188SOL    HW125463   6.086   2.526   3.224
 8188SOL    HW225464   6.183   2.650   3.268
 8189SOL     OW25465   6.296   4.187   2.772
 8189SOL    HW125466   6.274   4.109   2.831
 8189SOL    HW225467   6.211   4.226   2.737
 8190SOL     OW25468   5.252   3.559   3.697
 8190SOL    HW125469   5.257   3.659   3.698
 8190SOL    HW225470   5.304   3.522   3.773
 8191SOL     OW25471   0.552   5.458   4.097
 8191SOL    HW125472   0.632   5.413   4.058
 8191SOL    HW225473   0.476   5.393   4.102
 8192SOL     OW25474   2.016   4.335   2.230
 8192SOL    HW125475   2.026   4.385   2.316
 8192SOL    HW225476   1.932   4.365   2.184
 8193SOL     OW25477   3.789   7.000   5.276
 8193SOL    HW125478   3.708   7.001   5.217
 8193SOL    HW225479   3.858   6.939   5.238
 8194SOL     OW25480   6.676   0.696   0.338
 8194SOL    HW125481   6.712   0.721   0.248
 8194SOL    HW225482   6.751   0.692   0.403
 8195SOL     OW25483   6.682   6.515   0.117
 8195SOL    HW125484   6.591   6.496   0.153
 8195SOL    HW225485   6.677   6.528   0.018
 8196SOL     OW25486   3.134   6.669   6.415
 8196SOL    HW125487   3.101   6.588   6.368
 8196SOL    HW225488   3.193   6.722   6.354
 8197SOL     OW25489   0.610   0.630   6.018
 8197SOL    HW125490   0.542   0.626   5.944
 8197SOL    HW225491   0.602   0.548   6.075
 8198SOL     OW25492   2.706   6.958   3.239
 8198SOL    HW125493   2.724   7.009   3.323
 8198SOL    HW225494   2.701   0.000   3.162
 8199SOL     OW25495   6.864   3.296   6.792
 8199SOL    HW125496   6.810   3.222   6.831
 8199SOL    HW225497   6.804   3.373   6.768
 8200SOL     OW25498   5.453   4.056   0.955
 8200SOL    HW125499   5.404   4.108   1.025
 8200SOL    HW225500   5.525   4.002   0.998
 8201SOL     OW25501   5.650   6.787   3.536
 8201SOL    HW125502   5.563   6.797   3.488
 8201SOL    HW225503   5.724   6.780   3.469
 8202SOL     OW25504   1.527   3.906   3.684
 8202SOL    HW125505   1.605   3.952   3.642
 8202SOL    HW225506   1.558   3.824   3.731
 8203SOL     OW25507   5.760   3.643   1.229
 8203SOL    HW125508   5.849   3.688   1.242
 8203SOL    HW225509   5.756   3.603   1.137
 8204SOL     OW25510   3.434   0.164   1.942
 8204SOL    HW125511   3.533   0.179   1.945
 8204SOL    HW225512   3.415   0.082   1.887
 8205SOL     OW25513   5.597   5.597   1.514
 8205SOL    HW125514   5.575   5.507   1.552
 8205SOL    HW225515   5.605   5.590   1.415
 8206SOL     OW25516   4.300   2.028   4.948
 8206SOL    HW125517   4.326   1.944   4.901
 8206SOL    HW225518   4.291   2.009   5.046
 8207SOL     OW25519   2.639   5.646   6.822
 8207SOL    HW125520   2.660   5.664   6.726
 8207SOL    HW225521   2.559   5.586   6.828
 8208SOL     OW25522   1.656   4.496   0.971
 8208SOL    HW125523   1.716   4.566   1.011
 8208SOL    HW225524   1.570   4.493   1.021
 8209SOL     OW25525   0.523   0.268   5.056
 8209SOL    HW125526   0.475   0.356   5.056
 8209SOL    HW225527   0.509   0.222   5.144
 8210SOL     OW25528   2.443   1.029   0.112
 8210SOL    HW125529   2.409   1.112   0.156
 8210SOL    HW225530   2.538   1.014   0.139
 8211SOL     OW25531   3.656   2.900   4.755
 8211SOL    HW125532   3.598   2.827   4.718
 8211SOL    HW225533   3.691   2.873   4.845
 8212SOL     OW25534   3.767   0.408   1.234
 8212SOL    HW125535   3.766   0.486   1.171
 8212SOL    HW225536   3.770   0.323   1.181
 8213SOL     OW25537   4.506   3.983   1.698
 8213SOL    HW125538   4.602   3.970   1.722
 8213SOL    HW225539   4.472   4.067   1.741
 8214SOL     OW25540   3.506   5.602   4.596
 8214SOL    HW125541   3.515   5.686   4.650
 8214SOL    HW225542   3.430   5.548   4.631
 8215SOL     OW25543   4.369   6.902   6.726
 8215SOL    HW125544   4.283   6.851   6.724
 8215SOL    HW225545   4.443   6.844   6.695
 8216SOL     OW25546   5.194   5.189   1.440
 8216SOL    HW125547   5.229   5.265   1.386
 8216SOL    HW225548   5.234   5.103   1.407
 8217SOL     OW25549   1.977   5.843   3.566
 8217SOL    HW125550   1.942   5.782   3.495
 8217SOL    HW225551   2.072   5.866   3.545
 8218SOL     OW25552   1.440   6.900   4.765
 8218SOL    HW125553   1.352   6.947   4.770
 8218SOL    HW225554   1.500   6.934   4.837
 8219SOL     OW25555   3.842   3.448   0.919
 8219SOL    HW125556   3.751   3.483   0.896
 8219SOL    HW225557   3.847   3.428   1.016
 8220SOL     OW25558   4.123   3.236   3.976
 8220SOL    HW125559   4.075   3.309   3.928
 8220SOL    HW225560   4.219   3.235   3.946
 8221SOL     OW25561   5.829   3.224   3.544
 8221SOL    HW125562   5.875   3.313   3.540
 8221SOL    HW225563   5.888   3.158   3.589
 8222SOL     OW25564   6.198   3.343   0.543
 8222SOL    HW125565   6.261   3.269   0.519
 8222SOL    HW225566   6.123   3.345   0.478
 8223SOL     OW25567   0.854   5.744   5.441
 8223SOL    HW125568   0.838   5.646   5.438
 8223SOL    HW225569   0.934   5.763   5.499
 8224SOL     OW25570   5.239   1.768   0.519
 8224SOL    HW125571   5.139   1.769   0.523
 8224SOL    HW225572   5.276   1.840   0.577
 8225SOL     OW25573   5.257   1.394   0.514
 8225SOL    HW125574   5.169   1.441   0.517
 8225SOL    HW225575   5.257   1.327   0.440
 8226SOL     OW25576   4.189   0.466   0.234
 8226SOL    HW125577   4.111   0.426   0.281
 8226SOL    HW225578   4.175   0.565   0.224
 8227SOL     OW25579   5.018   1.994   3.053
 8227SOL    HW125580   5.077   1.933   3.001
 8227SOL    HW225581   4.980   1.945   3.131
 8228SOL     OW25582   1.908   0.419   5.115
 8228SOL    HW125583   1.923   0.503   5.063
 8228SOL    HW225584   1.931   0.435   5.211
 8229SOL     OW25585   4.600   4.388   1.115
 8229SOL    HW125586   4.511   4.355   1.147
 8229SOL    HW225587   4.606   4.376   1.015
 8230SOL     OW25588   5.757   0.587   6.037
 8230SOL    HW125589   5.716   0.607   5.948
 8230SOL    HW225590   5.785   0.492   6.041
 8231SOL     OW25591   2.401   1.430   2.559
 8231SOL    HW125592   2.389   1.507   2.622
 8231SOL    HW225593   2.405   1.463   2.465
 8232SOL     OW25594   3.618   6.257   2.697
 8232SOL    HW125595   3.677   6.294   2.625
 8232SOL    HW225596   3.628   6.157   2.701
 8233SOL     OW25597   0.838   1.085   6.128
 8233SOL    HW125598   0.820   0.987   6.119
 8233SOL    HW225599   0.923   1.098   6.180
 8234SOL     OW25600   1.529   1.729   0.571
 8234SOL    HW125601   1.447   1.721   0.628
 8234SOL    HW225602   1.519   1.672   0.490
 8235SOL     OW25603   0.613   5.667   1.076
 8235SOL    HW125604   0.550   5.733   1.036
 8235SOL    HW225605   0.702   5.674   1.031
 8236SOL     OW25606   0.656   6.086   0.824
 8236SOL    HW125607   0.608   6.088   0.736
 8236SOL    HW225608   0.711   6.169   0.834
 8237SOL     OW25609   4.537   4.904   0.154
 8237SOL    HW125610   4.621   4.884   0.203
 8237SOL    HW225611   4.557   4.964   0.077
 8238SOL     OW25612   0.591   4.028   0.519
 8238SOL    HW125613   0.556   4.034   0.612
 8238SOL    HW225614   0.515   4.040   0.454
 8239SOL     OW25615   1.787   1.279   5.400
 8239SOL    HW125616   1.703   1.282   5.453
 8239SOL    HW225617   1.783   1.348   5.327
 8240SOL     OW25618   3.615   3.846   4.343
 8240SOL    HW125619   3.605   3.848   4.442
 8240SOL    HW225620   3.712   3.839   4.319
 8241SOL     OW25621   2.105   3.873   6.098
 8241SOL    HW125622   2.096   3.812   6.176
 8241SOL    HW225623   2.198   3.868   6.063
 8242SOL     OW25624   0.896   3.525   3.775
 8242SOL    HW125625   0.825   3.593   3.796
 8242SOL    HW225626   0.976   3.572   3.739
 8243SOL     OW25627   0.394   4.798   4.737
 8243SOL    HW125628   0.431   4.756   4.820
 8243SOL    HW225629   0.306   4.755   4.714
 8244SOL     OW25630   1.027   0.524   4.650
 8244SOL    HW125631   0.953   0.463   4.679
 8244SOL    HW225632   1.000   0.570   4.565
 8245SOL     OW25633   5.374   1.727   3.530
 8245SOL    HW125634   5.321   1.796   3.580
 8245SOL    HW225635   5.452   1.770   3.486
 8246SOL     OW25636   2.404   5.528   6.938
 8246SOL    HW125637   2.428   5.499   0.009
 8246SOL    HW225638   2.366   5.620   6.940
 8247SOL     OW25639   2.961   5.340   2.807
 8247SOL    HW125640   2.999   5.424   2.768
 8247SOL    HW225641   2.862   5.338   2.791
 8248SOL     OW25642   0.072   5.121   2.962
 8248SOL    HW125643   0.096   5.202   3.014
 8248SOL    HW225644   0.132   5.113   2.882
 8249SOL     OW25645   3.394   1.948   6.143
 8249SOL    HW125646   3.406   1.965   6.045
 8249SOL    HW225647   3.430   2.025   6.196
 8250SOL     OW25648   1.581   1.349   0.060
 8250SOL    HW125649   1.573   1.289   7.003
 8250SOL    HW225650   1.676   1.355   0.089
 8251SOL     OW25651   0.290   1.842   4.306
 8251SOL    HW125652   0.292   1.932   4.262
 8251SOL    HW225653   0.370   1.789   4.277
 8252SOL     OW25654   1.375   2.040   6.564
 8252SOL    HW125655   1.427   1.957   6.586
 8252SOL    HW225656   1.438   2.117   6.552
 8253SOL     OW25657   4.720   6.153   0.983
 8253SOL    HW125658   4.762   6.131   0.894
 8253SOL    HW225659   4.710   6.252   0.990
 8254SOL     OW25660   5.155   4.862   6.735
 8254SOL    HW125661   5.154   4.926   6.658
 8254SOL    HW225662   5.066   4.865   6.781
 8255SOL     OW25663   0.780   6.662   6.604
 8255SOL    HW125664   0.798   6.626   6.695
 8255SOL    HW225665   0.805   6.759   6.600
 8256SOL     OW25666   1.527   5.341   3.221
 8256SOL    HW125667   1.518   5.432   3.180
 8256SOL    HW225668   1.494   5.343   3.315
 8257SOL     OW25669   4.880   3.326   2.950
 8257SOL    HW125670   4.930   3.355   2.868
 8257SOL    HW225671   4.845   3.406   2.997
 8258SOL     OW25672   6.464   3.187   2.028
 8258SOL    HW125673   6.398   3.125   2.071
 8258SOL    HW225674   6.415   3.254   1.973
 8259SOL     OW25675   5.165   1.214   4.246
 8259SOL    HW125676   5.093   1.272   4.207
 8259SOL    HW225677   5.254   1.250   4.219
 8260SOL     OW25678   3.951   1.325   1.590
 8260SOL    HW125679   3.866   1.354   1.546
 8260SOL    HW225680   4.019   1.398   1.583
 8261SOL     OW25681   5.689   0.334   2.878
 8261SOL    HW125682   5.754   0.267   2.839
 8261SOL    HW225683   5.665   0.400   2.807
 8262SOL     OW25684   6.031   3.593   2.054
 8262SOL    HW125685   5.991   3.583   1.963
 8262SOL    HW225686   5.977   3.658   2.107
 8263SOL     OW25687   6.819   2.244   5.998
 8263SOL    HW125688   6.802   2.343   6.001
 8263SOL    HW225689   6.882   2.223   5.923
 8264SOL     OW25690   2.883   0.053   2.958
 8264SOL    HW125691   2.864   0.115   2.882
 8264SOL    HW225692   2.821   6.997   2.955
 8265SOL     OW25693   5.121   0.233   0.413
 8265SOL    HW125694   5.036   0.279   0.436
 8265SOL    HW225695   5.170   0.285   0.343
 8266SOL     OW25696   2.413   0.705   3.806
 8266SOL    HW125697   2.429   0.737   3.712
 8266SOL    HW225698   2.492   0.729   3.863
 8267SOL     OW25699   1.555   4.248   3.012
 8267SOL    HW125700   1.602   4.161   2.999
 8267SOL    HW225701   1.466   4.246   2.967
 8268SOL     OW25702   3.374   4.958   6.419
 8268SOL    HW125703   3.293   4.901   6.403
 8268SOL    HW225704   3.455   4.912   6.384
 8269SOL     OW25705   5.909   2.617   3.702
 8269SOL    HW125706   5.879   2.678   3.628
 8269SOL    HW225707   5.915   2.523   3.667
 8270SOL     OW25708   3.748   0.097   6.588
 8270SOL    HW125709   3.771   0.020   6.648
 8270SOL    HW225710   3.772   0.074   6.494
 8271SOL     OW25711   3.802   5.977   5.601
 8271SOL    HW125712   3.891   5.933   5.612
 8271SOL    HW225713   3.768   6.007   5.691
 8272SOL     OW25714   0.483   0.263   1.541
 8272SOL    HW125715   0.535   0.211   1.609
 8272SOL    HW225716   0.448   0.201   1.471
 8273SOL     OW25717   3.277   0.149   0.203
 8273SOL    HW125718   3.182   0.152   0.172
 8273SOL    HW225719   3.292   0.064   0.254
 8274SOL     OW25720   5.530   6.319   5.877
 8274SOL    HW125721   5.460   6.305   5.807
 8274SOL    HW225722   5.611   6.265   5.855
 8275SOL     OW25723   5.512   0.212   3.428
 8275SOL    HW125724   5.440   0.147   3.449
 8275SOL    HW225725   5.513   0.231   3.330
 8276SOL     OW25726   0.135   2.421   6.052
 8276SOL    HW125727   0.135   2.515   6.019
 8276SOL    HW225728   0.111   2.419   6.149
 8277SOL     OW25729   1.084   6.192   6.601
 8277SOL    HW125730   1.015   6.126   6.573
 8277SOL    HW225731   1.168   6.144   6.626
 8278SOL     OW25732   3.850   0.986   0.408
 8278SOL    HW125733   3.870   1.066   0.352
 8278SOL    HW225734   3.900   0.907   0.373
 8279SOL     OW25735   5.109   4.918   5.736
 8279SOL    HW125736   5.201   4.899   5.770
 8279SOL    HW225737   5.082   5.011   5.760
 8280SOL     OW25738   5.200   3.143   6.989
 8280SOL    HW125739   5.251   3.089   0.034
 8280SOL    HW225740   5.122   3.091   6.957
 8281SOL     OW25741   2.392   4.830   0.144
 8281SOL    HW125742   2.427   4.890   0.216
 8281SOL    HW225743   2.337   4.757   0.185
 8282SOL     OW25744   2.822   2.082   0.662
 8282SOL    HW125745   2.874   2.164   0.641
 8282SOL    HW225746   2.738   2.080   0.608
 8283SOL     OW25747   0.058   5.728   3.272
 8283SOL    HW125748   0.006   5.663   3.217
 8283SOL    HW225749   0.153   5.698   3.278
 8284SOL     OW25750   2.607   1.953   2.144
 8284SOL    HW125751   2.641   2.021   2.079
 8284SOL    HW225752   2.510   1.937   2.128
 8285SOL     OW25753   2.926   4.315   6.253
 8285SOL    HW125754   2.965   4.352   6.337
 8285SOL    HW225755   2.910   4.217   6.264
 8286SOL     OW25756   5.481   1.602   5.527
 8286SOL    HW125757   5.385   1.573   5.518
 8286SOL    HW225758   5.536   1.527   5.564
 8287SOL     OW25759   1.882   0.659   3.656
 8287SOL    HW125760   1.867   0.757   3.641
 8287SOL    HW225761   1.861   0.609   3.572
 8288SOL     OW25762   2.252   1.255   2.954
 8288SOL    HW125763   2.227   1.163   2.986
 8288SOL    HW225764   2.175   1.317   2.969
 8289SOL     OW25765   6.539   1.495   5.935
 8289SOL    HW125766   6.551   1.427   5.863
 8289SOL    HW225767   6.520   1.584   5.895
 8290SOL     OW25768   4.577   2.880   1.666
 8290SOL    HW125769   4.572   2.967   1.714
 8290SOL    HW225770   4.487   2.856   1.630
 8291SOL     OW25771   4.182   5.008   6.395
 8291SOL    HW125772   4.248   4.935   6.379
 8291SOL    HW225773   4.227   5.086   6.438
 8292SOL     OW25774   0.741   4.159   4.391
 8292SOL    HW125775   0.729   4.172   4.490
 8292SOL    HW225776   0.719   4.064   4.368
 8293SOL     OW25777   2.979   4.817   4.145
 8293SOL    HW125778   3.076   4.842   4.147
 8293SOL    HW225779   2.931   4.864   4.219
 8294SOL     OW25780   4.579   3.094   5.697
 8294SOL    HW125781   4.516   3.096   5.774
 8294SOL    HW225782   4.577   3.003   5.655
 8295SOL     OW25783   5.161   4.136   1.746
 8295SOL    HW125784   5.254   4.099   1.748
 8295SOL    HW225785   5.098   4.068   1.782
 8296SOL     OW25786   3.407   6.103   1.731
 8296SOL    HW125787   3.443   6.090   1.824
 8296SOL    HW225788   3.356   6.189   1.727
 8297SOL     OW25789   5.650   4.403   3.502
 8297SOL    HW125790   5.731   4.444   3.459
 8297SOL    HW225791   5.568   4.432   3.453
 8298SOL     OW25792   6.545   0.031   6.011
 8298SOL    HW125793   6.628   0.044   5.957
 8298SOL    HW225794   6.545   6.961   6.051
 8299SOL     OW25795   0.470   3.501   0.872
 8299SOL    HW125796   0.474   3.581   0.812
 8299SOL    HW225797   0.442   3.421   0.818
 8300SOL     OW25798   5.165   4.774   2.569
 8300SOL    HW125799   5.260   4.743   2.577
 8300SOL    HW225800   5.113   4.709   2.513
 8301SOL     OW25801   4.650   6.464   0.450
 8301SOL    HW125802   4.632   6.555   0.486
 8301SOL    HW225803   4.577   6.401   0.479
 8302SOL     OW25804   3.338   6.825   5.488
 8302SOL    HW125805   3.261   6.886   5.505
 8302SOL    HW225806   3.422   6.877   5.483
 8303SOL     OW25807   7.009   6.279   3.088
 8303SOL    HW125808   6.950   6.216   3.036
 8303SOL    HW225809   6.985   6.373   3.065
 8304SOL     OW25810   5.419   3.983   3.074
 8304SOL    HW125811   5.398   4.000   3.170
 8304SOL    HW225812   5.386   3.893   3.047
 8305SOL     OW25813   4.761   6.552   4.915
 8305SOL    HW125814   4.687   6.485   4.922
 8305SOL    HW225815   4.738   6.619   4.845
 8306SOL     OW25816   6.676   0.691   1.994
 8306SOL    HW125817   6.699   0.597   2.019
 8306SOL    HW225818   6.642   0.693   1.900
 8307SOL     OW25819   1.629   3.838   2.639
 8307SOL    HW125820   1.655   3.816   2.545
 8307SOL    HW225821   1.608   3.753   2.687
 8308SOL     OW25822   1.445   5.738   0.971
 8308SOL    HW125823   1.414   5.779   0.885
 8308SOL    HW225824   1.368   5.732   1.035
 8309SOL     OW25825   5.961   4.534   4.505
 8309SOL    HW125826   5.929   4.464   4.441
 8309SOL    HW225827   5.923   4.516   4.596
 8310SOL     OW25828   0.877   6.824   0.724
 8310SOL    HW125829   0.866   6.916   0.688
 8310SOL    HW225830   0.974   6.803   0.737
 8311SOL     OW25831   5.834   6.539   3.365
 8311SOL    HW125832   5.918   6.497   3.329
 8311SOL    HW225833   5.840   6.638   3.356
 8312SOL     OW25834   5.592   1.510   0.580
 8312SOL    HW125835   5.687   1.531   0.604
 8312SOL    HW225836   5.538   1.500   0.663
 8313SOL     OW25837   5.378   2.578   5.113
 8313SOL    HW125838   5.460   2.632   5.094
 8313SOL    HW225839   5.297   2.634   5.097
 8314SOL     OW25840   4.973   6.048   4.806
 8314SOL    HW125841   4.961   6.146   4.825
 8314SOL    HW225842   4.972   6.033   4.707
 8315SOL     OW25843   3.814   4.180   5.009
 8315SOL    HW125844   3.845   4.091   5.044
 8315SOL    HW225845   3.881   4.216   4.944
 8316SOL     OW25846   2.416   2.368   6.400
 8316SOL    HW125847   2.422   2.420   6.485
 8316SOL    HW225848   2.495   2.389   6.343
 8317SOL     OW25849   1.898   1.589   4.027
 8317SOL    HW125850   1.921   1.506   3.977
 8317SOL    HW225851   1.843   1.565   4.107
 8318SOL     OW25852   4.490   0.017   0.506
 8318SOL    HW125853   4.520   0.034   0.600
 8318SOL    HW225854   4.496   0.101   0.452
 8319SOL     OW25855   1.324   6.555   6.872
 8319SOL    HW125856   1.310   6.500   6.954
 8319SOL    HW225857   1.393   6.625   6.890
 8320SOL     OW25858   3.133   3.028   4.654
 8320SOL    HW125859   3.071   2.953   4.635
 8320SOL    HW225860   3.180   3.012   4.740
 8321SOL     OW25861   0.379   6.640   1.640
 8321SOL    HW125862   0.330   6.596   1.715
 8321SOL    HW225863   0.418   6.570   1.580
 8322SOL     OW25864   0.716   0.100   0.224
 8322SOL    HW125865   0.627   0.082   0.183
 8322SOL    HW225866   0.771   0.016   0.222
 8323SOL     OW25867   5.810   4.409   0.368
 8323SOL    HW125868   5.789   4.321   0.413
 8323SOL    HW225869   5.784   4.404   0.272
 8324SOL     OW25870   4.956   5.934   6.240
 8324SOL    HW125871   4.945   6.033   6.248
 8324SOL    HW225872   5.053   5.912   6.241
 8325SOL     OW25873   1.295   5.568   6.503
 8325SOL    HW125874   1.223   5.499   6.502
 8325SOL    HW225875   1.267   5.646   6.446
 8326SOL     OW25876   1.408   3.641   0.456
 8326SOL    HW125877   1.314   3.610   0.475
 8326SOL    HW225878   1.417   3.660   0.358
 8327SOL     OW25879   0.770   6.990   4.780
 8327SOL    HW125880   0.766   0.045   4.845
 8327SOL    HW225881   0.682   6.981   4.734
 8328SOL     OW25882   1.340   0.279   0.266
 8328SOL    HW125883   1.378   0.319   0.349
 8328SOL    HW225884   1.243   0.259   0.281
 8329SOL     OW25885   1.771   2.991   4.801
 8329SOL    HW125886   1.789   3.067   4.863
 8329SOL    HW225887   1.680   2.954   4.819
 8330SOL     OW25888   4.025   1.100   6.523
 8330SOL    HW125889   3.958   1.027   6.535
 8330SOL    HW225890   3.977   1.185   6.502
 8331SOL     OW25891   1.899   2.181   6.164
 8331SOL    HW125892   1.933   2.119   6.093
 8331SOL    HW225893   1.846   2.128   6.231
 8332SOL     OW25894   6.002   5.001   1.515
 8332SOL    HW125895   6.034   4.949   1.594
 8332SOL    HW225896   6.041   5.093   1.518
 8333SOL     OW25897   2.095   4.981   0.623
 8333SOL    HW125898   2.182   4.992   0.671
 8333SOL    HW225899   2.055   4.893   0.647
 8334SOL     OW25900   3.623   1.985   6.431
 8334SOL    HW125901   3.536   1.958   6.472
 8334SOL    HW225902   3.606   2.049   6.357
 8335SOL     OW25903   5.316   3.734   6.337
 8335SOL    HW125904   5.384   3.764   6.404
 8335SOL    HW225905   5.302   3.635   6.346
 8336SOL     OW25906   1.206   4.195   3.619
 8336SOL    HW125907   1.228   4.219   3.713
 8336SOL    HW225908   1.275   4.131   3.583
 8337SOL     OW25909   0.582   0.877   4.641
 8337SOL    HW125910   0.661   0.833   4.684
 8337SOL    HW225911   0.596   0.881   4.542
 8338SOL     OW25912   4.131   5.839   2.236
 8338SOL    HW125913   4.216   5.866   2.191
 8338SOL    HW225914   4.076   5.783   2.174
 8339SOL     OW25915   5.858   6.798   0.670
 8339SOL    HW125916   5.912   6.756   0.743
 8339SOL    HW225917   5.765   6.762   0.672
 8340SOL     OW25918   6.372   2.199   6.791
 8340SOL    HW125919   6.405   2.168   6.880
 8340SOL    HW225920   6.324   2.286   6.801
 8341SOL     OW25921   3.441   0.908   0.844
 8341SOL    HW125922   3.430   0.930   0.748
 8341SOL    HW225923   3.497   0.826   0.854
 8342SOL     OW25924   4.655   0.564   0.282
 8342SOL    HW125925   4.732   0.553   0.344
 8342SOL    HW225926   4.685   0.547   0.188
 8343SOL     OW25927   5.654   4.362   3.772
 8343SOL    HW125928   5.715   4.285   3.786
 8343SOL    HW225929   5.653   4.387   3.676
 8344SOL     OW25930   1.390   5.149   5.325
 8344SOL    HW125931   1.391   5.128   5.423
 8344SOL    HW225932   1.483   5.171   5.295
 8345SOL     OW25933   4.286   1.397   3.665
 8345SOL    HW125934   4.339   1.413   3.581
 8345SOL    HW225935   4.226   1.474   3.682
 8346SOL     OW25936   6.011   3.430   5.050
 8346SOL    HW125937   6.027   3.331   5.055
 8346SOL    HW225938   5.961   3.451   4.967
 8347SOL     OW25939   2.665   0.610   0.251
 8347SOL    HW125940   2.757   0.614   0.214
 8347SOL    HW225941   2.644   0.696   0.299
 8348SOL     OW25942   3.148   6.546   1.866
 8348SOL    HW125943   3.162   6.620   1.800
 8348SOL    HW225944   3.188   6.462   1.830
 8349SOL     OW25945   0.344   6.151   1.859
 8349SOL    HW125946   0.322   6.139   1.956
 8349SOL    HW225947   0.325   6.066   1.810
 8350SOL     OW25948   2.828   0.653   0.854
 8350SOL    HW125949   2.766   0.662   0.932
 8350SOL    HW225950   2.838   0.557   0.829
 8351SOL     OW25951   6.485   3.135   3.191
 8351SOL    HW125952   6.481   3.102   3.285
 8351SOL    HW225953   6.575   3.173   3.172
 8352SOL     OW25954   2.241   6.130   1.762
 8352SOL    HW125955   2.291   6.212   1.735
 8352SOL    HW225956   2.145   6.139   1.736
 8353SOL     OW25957   1.513   4.496   2.029
 8353SOL    HW125958   1.425   4.448   2.038
 8353SOL    HW225959   1.496   4.590   2.000
 8354SOL     OW25960   3.020   0.245   3.115
 8354SOL    HW125961   3.105   0.275   3.072
 8354SOL    HW225962   2.992   0.157   3.077
 8355SOL     OW25963   2.639   6.091   6.809
 8355SOL    HW125964   2.642   6.008   6.864
 8355SOL    HW225965   2.724   6.100   6.757
 8356SOL     OW25966   1.887   5.589   0.968
 8356SOL    HW125967   1.807   5.610   1.024
 8356SOL    HW225968   1.862   5.523   0.897
 8357SOL     OW25969   4.237   6.004   5.536
 8357SOL    HW125970   4.314   6.020   5.598
 8357SOL    HW225971   4.220   5.906   5.529
 8358SOL     OW25972   0.764   1.391   4.880
 8358SOL    HW125973   0.704   1.358   4.953
 8358SOL    HW225974   0.799   1.313   4.828
 8359SOL     OW25975   3.529   2.119   5.428
 8359SOL    HW125976   3.597   2.156   5.365
 8359SOL    HW225977   3.437   2.138   5.393
 8360SOL     OW25978   4.592   6.924   1.606
 8360SOL    HW125979   4.586   6.825   1.619
 8360SOL    HW225980   4.644   6.944   1.523
 8361SOL     OW25981   3.552   0.086   0.016
 8361SOL    HW125982   3.492   0.017   0.056
 8361SOL    HW225983   3.504   0.174   0.013
 8362SOL     OW25984   0.071   4.077   1.544
 8362SOL    HW125985   0.045   4.173   1.540
 8362SOL    HW225986   0.037   4.037   1.630
 8363SOL     OW25987   2.699   3.235   0.038
 8363SOL    HW125988   2.793   3.261   0.057
 8363SOL    HW225989   2.642   3.316   0.032
 8364SOL     OW25990   6.959   3.273   4.569
 8364SOL    HW125991   0.028   3.313   4.583
 8364SOL    HW225992   6.961   3.177   4.599
 8365SOL     OW25993   1.995   2.689   2.266
 8365SOL    HW125994   2.045   2.775   2.260
 8365SOL    HW225995   1.925   2.685   2.194
 8366SOL     OW25996   4.949   5.458   2.017
 8366SOL    HW125997   4.983   5.371   1.983
 8366SOL    HW225998   4.966   5.530   1.950
 8367SOL     OW25999   3.426   5.247   4.496
 8367SOL    HW126000   3.374   5.313   4.443
 8367SOL    HW226001   3.377   5.225   4.581
 8368SOL     OW26002   6.716   6.450   0.389
 8368SOL    HW126003   6.703   6.482   0.295
 8368SOL    HW226004   6.788   6.380   0.390
 8369SOL     OW26005   2.557   0.134   1.176
 8369SOL    HW126006   2.475   0.143   1.119
 8369SOL    HW226007   2.550   0.196   1.254
 8370SOL     OW26008   2.508   3.121   0.383
 8370SOL    HW126009   2.438   3.077   0.439
 8370SOL    HW226010   2.562   3.052   0.336
 8371SOL     OW26011   1.924   4.240   6.314
 8371SOL    HW126012   1.996   4.216   6.249
 8371SOL    HW226013   1.834   4.224   6.273
 8372SOL     OW26014   2.244   5.570   2.608
 8372SOL    HW126015   2.184   5.638   2.650
 8372SOL    HW226016   2.280   5.509   2.679
 8373SOL     OW26017   7.017   1.329   4.103
 8373SOL    HW126018   6.983   1.422   4.090
 8373SOL    HW226019   0.011   1.311   4.200
 8374SOL     OW26020   1.567   0.223   4.550
 8374SOL    HW126021   1.601   0.130   4.549
 8374SOL    HW226022   1.569   0.261   4.458
 8375SOL     OW26023   3.769   0.766   4.581
 8375SOL    HW126024   3.674   0.772   4.553
 8375SOL    HW226025   3.785   0.825   4.660
 8376SOL     OW26026   2.046   0.906   2.911
 8376SOL    HW126027   2.096   0.948   2.986
 8376SOL    HW226028   2.009   0.977   2.851
 8377SOL     OW26029   4.185   5.481   6.933
 8377SOL    HW126030   4.215   5.562   6.883
 8377SOL    HW226031   4.183   5.501   0.009
 8378SOL     OW26032   5.149   5.595   4.473
 8378SOL    HW126033   5.151   5.695   4.477
 8378SOL    HW226034   5.171   5.564   4.381
 8379SOL     OW26035   5.783   1.052   1.545
 8379SOL    HW126036   5.802   1.146   1.570
 8379SOL    HW226037   5.691   1.027   1.575
 8380SOL     OW26038   6.350   5.878   0.733
 8380SOL    HW126039   6.310   5.788   0.747
 8380SOL    HW226040   6.277   5.945   0.721
 8381SOL     OW26041   0.279   2.429   2.140
 8381SOL    HW126042   0.181   2.430   2.157
 8381SOL    HW226043   0.329   2.425   2.227
 8382SOL     OW26044   2.430   0.361   1.322
 8382SOL    HW126045   2.423   0.454   1.286
 8382SOL    HW226046   2.516   0.352   1.373
 8383SOL     OW26047   2.865   6.101   6.680
 8383SOL    HW126048   2.935   6.041   6.719
 8383SOL    HW226049   2.910   6.176   6.631
 8384SOL     OW26050   0.574   2.423   1.316
 8384SOL    HW126051   0.486   2.376   1.319
 8384SOL    HW226052   0.616   2.424   1.407
 8385SOL     OW26053   3.701   3.520   1.362
 8385SOL    HW126054   3.686   3.599   1.421
 8385SOL    HW226055   3.798   3.511   1.341
 8386SOL     OW26056   1.900   5.816   2.117
 8386SOL    HW126057   1.849   5.845   2.036
 8386SOL    HW226058   1.996   5.840   2.106
 8387SOL     OW26059   1.642   1.111   2.344
 8387SOL    HW126060   1.735   1.131   2.313
 8387SOL    HW226061   1.576   1.148   2.279
 8388SOL     OW26062   3.984   6.469   1.297
 8388SOL    HW126063   3.921   6.521   1.353
 8388SOL    HW226064   3.995   6.514   1.208
 8389SOL     OW26065   0.441   2.536   4.258
 8389SOL    HW126066   0.397   2.619   4.222
 8389SOL    HW226067   0.539   2.541   4.240
 8390SOL     OW26068   3.155   1.134   5.837
 8390SOL    HW126069   3.200   1.047   5.859
 8390SOL    HW226070   3.135   1.184   5.921
 8391SOL     OW26071   4.913   5.938   1.402
 8391SOL    HW126072   4.934   5.871   1.331
 8391SOL    HW226073   4.918   5.895   1.491
 8392SOL     OW26074   5.525   6.042   5.221
 8392SOL    HW126075   5.565   6.134   5.224
 8392SOL    HW226076   5.597   5.974   5.216
 8393SOL     OW26077   6.890   5.962   2.961
 8393SOL    HW126078   6.929   5.954   3.053
 8393SOL    HW226079   6.807   6.018   2.966
 8394SOL     OW26080   0.613   2.317   3.037
 8394SOL    HW126081   0.628   2.368   2.952
 8394SOL    HW226082   0.610   2.219   3.017
 8395SOL     OW26083   6.939   5.877   5.269
 8395SOL    HW126084   6.966   5.781   5.283
 8395SOL    HW226085   7.020   5.935   5.275
 8396SOL     OW26086   4.899   3.472   2.020
 8396SOL    HW126087   4.931   3.380   1.996
 8396SOL    HW226088   4.821   3.497   1.964
 8397SOL     OW26089   2.089   5.537   3.441
 8397SOL    HW126090   2.151   5.585   3.380
 8397SOL    HW226091   1.996   5.544   3.406
 8398SOL     OW26092   4.351   1.707   0.396
 8398SOL    HW126093   4.344   1.727   0.298
 8398SOL    HW226094   4.266   1.734   0.441
 8399SOL     OW26095   5.829   5.829   0.090
 8399SOL    HW126096   5.887   5.895   0.136
 8399SOL    HW226097   5.846   5.738   0.127
 8400SOL     OW26098   6.818   0.929   2.581
 8400SOL    HW126099   6.733   0.971   2.611
 8400SOL    HW226100   6.826   0.935   2.482
 8401SOL     OW26101   3.218   4.572   6.564
 8401SOL    HW126102   3.312   4.565   6.533
 8401SOL    HW226103   3.215   4.612   6.656
 8402SOL     OW26104   4.499   1.900   0.008
 8402SOL    HW126105   4.574   1.859   6.979
 8402SOL    HW226106   4.534   1.941   0.092
 8403SOL     OW26107   1.913   1.164   4.678
 8403SOL    HW126108   1.974   1.104   4.626
 8403SOL    HW226109   1.938   1.259   4.661
 8404SOL     OW26110   4.624   5.264   5.747
 8404SOL    HW126111   4.675   5.207   5.812
 8404SOL    HW226112   4.537   5.292   5.789
 8405SOL     OW26113   0.671   2.605   5.641
 8405SOL    HW126114   0.572   2.592   5.631
 8405SOL    HW226115   0.692   2.703   5.642
 8406SOL     OW26116   4.924   3.374   1.627
 8406SOL    HW126117   4.889   3.310   1.695
 8406SOL    HW226118   5.024   3.365   1.622
 8407SOL     OW26119   4.838   3.942   2.834
 8407SOL    HW126120   4.816   3.924   2.930
 8407SOL    HW226121   4.891   3.866   2.797
 8408SOL     OW26122   5.123   2.379   4.864
 8408SOL    HW126123   5.120   2.400   4.961
 8408SOL    HW226124   5.160   2.457   4.814
 8409SOL     OW26125   1.479   1.589   3.738
 8409SOL    HW126126   1.443   1.659   3.677
 8409SOL    HW226127   1.442   1.602   3.830
 8410SOL     OW26128   4.058   6.777   1.676
 8410SOL    HW126129   4.046   6.702   1.741
 8410SOL    HW226130   4.077   6.861   1.725
 8411SOL     OW26131   1.414   3.658   4.795
 8411SOL    HW126132   1.481   3.634   4.726
 8411SOL    HW226133   1.445   3.627   4.885
 8412SOL     OW26134   5.329   2.257   3.308
 8412SOL    HW126135   5.247   2.270   3.252
 8412SOL    HW226136   5.318   2.175   3.364
 8413SOL     OW26137   3.747   4.769   0.554
 8413SOL    HW126138   3.804   4.830   0.497
 8413SOL    HW226139   3.797   4.685   0.572
 8414SOL     OW26140   4.249   6.487   3.091
 8414SOL    HW126141   4.253   6.549   3.013
 8414SOL    HW226142   4.253   6.540   3.176
 8415SOL     OW26143   6.534   3.973   2.630
 8415SOL    HW126144   6.452   3.915   2.635
 8415SOL    HW226145   6.511   4.065   2.663
 8416SOL     OW26146   5.463   3.523   2.399
 8416SOL    HW126147   5.536   3.521   2.331
 8416SOL    HW226148   5.456   3.615   2.439
 8417SOL     OW26149   2.746   6.283   6.042
 8417SOL    HW126150   2.665   6.299   5.985
 8417SOL    HW226151   2.738   6.337   6.126
 8418SOL     OW26152   6.642   5.525   3.244
 8418SOL    HW126153   6.725   5.581   3.250
 8418SOL    HW226154   6.667   5.428   3.245
 8419SOL     OW26155   4.270   0.803   3.375
 8419SOL    HW126156   4.358   0.786   3.418
 8419SOL    HW226157   4.209   0.851   3.439
 8420SOL     OW26158   3.897   0.954   6.314
 8420SOL    HW126159   3.905   0.903   6.400
 8420SOL    HW226160   3.832   0.908   6.254
 8421SOL     OW26161   1.916   6.657   1.992
 8421SOL    HW126162   1.998   6.709   2.015
 8421SOL    HW226163   1.864   6.704   1.921
 8422SOL     OW26164   4.728   6.878   0.787
 8422SOL    HW126165   4.705   6.927   0.871
 8422SOL    HW226166   4.778   6.795   0.810
 8423SOL     OW26167   3.507   3.995   0.813
 8423SOL    HW126168   3.561   4.066   0.859
 8423SOL    HW226169   3.562   3.913   0.804
 8424SOL     OW26170   3.603   1.246   2.893
 8424SOL    HW126171   3.536   1.317   2.872
 8424SOL    HW226172   3.685   1.260   2.837
 8425SOL     OW26173   6.196   4.843   0.057
 8425SOL    HW126174   6.291   4.873   0.051
 8425SOL    HW226175   6.138   4.921   0.077
 8426SOL     OW26176   4.124   3.582   3.412
 8426SOL    HW126177   4.101   3.534   3.497
 8426SOL    HW226178   4.116   3.681   3.426
 8427SOL     OW26179   2.134   4.026   6.768
 8427SOL    HW126180   2.232   4.028   6.748
 8427SOL    HW226181   2.084   3.994   6.689
 8428SOL     OW26182   6.654   4.171   2.014
 8428SOL    HW126183   6.712   4.103   2.059
 8428SOL    HW226184   6.711   4.248   1.983
 8429SOL     OW26185   1.598   6.145   3.700
 8429SOL    HW126186   1.658   6.066   3.685
 8429SOL    HW226187   1.542   6.159   3.618
 8430SOL     OW26188   4.343   5.056   2.689
 8430SOL    HW126189   4.257   5.100   2.713
 8430SOL    HW226190   4.330   4.957   2.682
 8431SOL     OW26191   3.123   4.959   1.335
 8431SOL    HW126192   3.026   4.959   1.358
 8431SOL    HW226193   3.175   5.000   1.410
 8432SOL     OW26194   4.378   6.701   6.313
 8432SOL    HW126195   4.354   6.796   6.336
 8432SOL    HW226196   4.296   6.653   6.281
 8433SOL     OW26197   1.213   2.144   6.170
 8433SOL    HW126198   1.235   2.233   6.130
 8433SOL    HW226199   1.132   2.106   6.124
 8434SOL     OW26200   5.319   0.172   5.473
 8434SOL    HW126201   5.281   0.240   5.536
 8434SOL    HW226202   5.419   0.170   5.483
 8435SOL     OW26203   4.169   1.785   1.427
 8435SOL    HW126204   4.251   1.819   1.472
 8435SOL    HW226205   4.193   1.747   1.338
 8436SOL     OW26206   4.228   4.270   1.654
 8436SOL    HW126207   4.213   4.228   1.564
 8436SOL    HW226208   4.318   4.244   1.688
 8437SOL     OW26209   0.724   1.407   1.115
 8437SOL    HW126210   0.635   1.438   1.147
 8437SOL    HW226211   0.760   1.472   1.047
 8438SOL     OW26212   1.811   5.453   2.379
 8438SOL    HW126213   1.786   5.496   2.292
 8438SOL    HW226214   1.865   5.371   2.361
 8439SOL     OW26215   0.129   5.154   2.589
 8439SOL    HW126216   0.168   5.244   2.570
 8439SOL    HW226217   0.035   5.151   2.554
 8440SOL     OW26218   0.890   1.269   2.435
 8440SOL    HW126219   0.959   1.299   2.501
 8440SOL    HW226220   0.849   1.348   2.390
 8441SOL     OW26221   4.225   5.239   6.510
 8441SOL    HW126222   4.236   5.230   6.609
 8441SOL    HW226223   4.132   5.270   6.491
 8442SOL     OW26224   2.277   4.795   6.928
 8442SOL    HW126225   2.202   4.859   6.912
 8442SOL    HW226226   2.320   4.816   7.016
 8443SOL     OW26227   1.572   0.479   3.060
 8443SOL    HW126228   1.671   0.488   3.049
 8443SOL    HW226229   1.528   0.483   2.971
 8444SOL     OW26230   3.117   6.313   3.193
 8444SOL    HW126231   3.200   6.260   3.207
 8444SOL    HW226232   3.039   6.251   3.180
 8445SOL     OW26233   3.779   4.898   2.855
 8445SOL    HW126234   3.696   4.911   2.909
 8445SOL    HW226235   3.759   4.915   2.759
 8446SOL     OW26236   5.811   4.659   2.199
 8446SOL    HW126237   5.852   4.569   2.186
 8446SOL    HW226238   5.717   4.658   2.165
 8447SOL     OW26239   4.596   2.520   1.922
 8447SOL    HW126240   4.621   2.595   1.983
 8447SOL    HW226241   4.677   2.464   1.904
 8448SOL     OW26242   0.758   3.616   6.659
 8448SOL    HW126243   0.790   3.676   6.585
 8448SOL    HW226244   0.671   3.650   6.695
 8449SOL     OW26245   1.529   3.292   4.701
 8449SOL    HW126246   1.488   3.311   4.790
 8449SOL    HW226247   1.522   3.194   4.682
 8450SOL     OW26248   2.393   5.385   2.806
 8450SOL    HW126249   2.414   5.482   2.807
 8450SOL    HW226250   2.377   5.353   2.899
 8451SOL     OW26251   3.606   2.536   1.220
 8451SOL    HW126252   3.691   2.548   1.168
 8451SOL    HW226253   3.601   2.443   1.255
 8452SOL     OW26254   6.654   6.788   0.671
 8452SOL    HW126255   6.618   6.829   0.587
 8452SOL    HW226256   6.741   6.742   0.651
 8453SOL     OW26257   6.320   3.914   5.871
 8453SOL    HW126258   6.393   3.846   5.875
 8453SOL    HW226259   6.263   3.906   5.953
 8454SOL     OW26260   1.863   0.129   4.178
 8454SOL    HW126261   1.897   0.205   4.234
 8454SOL    HW226262   1.806   0.069   4.234
 8455SOL     OW26263   4.695   1.569   1.101
 8455SOL    HW126264   4.769   1.566   1.034
 8455SOL    HW226265   4.734   1.575   1.194
 8456SOL     OW26266   5.547   5.555   2.767
 8456SOL    HW126267   5.484   5.623   2.807
 8456SOL    HW226268   5.495   5.492   2.709
 8457SOL     OW26269   0.053   6.298   5.729
 8457SOL    HW126270   0.041   6.199   5.722
 8457SOL    HW226271   0.066   6.324   5.824
 8458SOL     OW26272   1.186   1.569   0.538
 8458SOL    HW126273   1.117   1.610   0.598
 8458SOL    HW226274   1.148   1.562   0.445
 8459SOL     OW26275   3.211   5.723   1.967
 8459SOL    HW126276   3.206   5.818   1.936
 8459SOL    HW226277   3.287   5.678   1.921
 8460SOL     OW26278   4.781   1.545   0.793
 8460SOL    HW126279   4.765   1.643   0.779
 8460SOL    HW226280   4.705   1.493   0.755
 8461SOL     OW26281   6.403   3.934   1.690
 8461SOL    HW126282   6.464   3.975   1.622
 8461SOL    HW226283   6.443   3.943   1.781
 8462SOL     OW26284   3.555   4.644   6.622
 8462SOL    HW126285   3.484   4.685   6.680
 8462SOL    HW226286   3.643   4.685   6.643
 8463SOL     OW26287   6.799   1.738   0.251
 8463SOL    HW126288   6.726   1.797   0.218
 8463SOL    HW226289   6.860   1.714   0.176
 8464SOL     OW26290   0.349   3.299   0.166
 8464SOL    HW126291   0.264   3.271   0.209
 8464SOL    HW226292   0.339   3.295   0.067
 8465SOL     OW26293   4.332   3.308   1.308
 8465SOL    HW126294   4.362   3.267   1.394
 8465SOL    HW226295   4.252   3.257   1.274
 8466SOL     OW26296   6.012   0.306   5.846
 8466SOL    HW126297   6.023   0.381   5.781
 8466SOL    HW226298   6.039   0.220   5.803
 8467SOL     OW26299   3.645   1.239   1.432
 8467SOL    HW126300   3.597   1.293   1.502
 8467SOL    HW226301   3.656   1.294   1.349
 8468SOL     OW26302   6.338   3.085   6.883
 8468SOL    HW126303   6.358   3.170   6.834
 8468SOL    HW226304   6.251   3.093   6.931
 8469SOL     OW26305   3.473   2.998   5.828
 8469SOL    HW126306   3.530   3.073   5.861
 8469SOL    HW226307   3.513   2.960   5.744
 8470SOL     OW26308   1.431   5.123   1.363
 8470SOL    HW126309   1.504   5.167   1.414
 8470SOL    HW226310   1.452   5.125   1.265
 8471SOL     OW26311   3.719   2.225   5.234
 8471SOL    HW126312   3.817   2.245   5.225
 8471SOL    HW226313   3.690   2.167   5.159
 8472SOL     OW26314   5.509   1.771   5.950
 8472SOL    HW126315   5.566   1.689   5.947
 8472SOL    HW226316   5.502   1.803   6.045
 8473SOL     OW26317   4.828   4.285   6.034
 8473SOL    HW126318   4.756   4.235   6.083
 8473SOL    HW226319   4.870   4.225   5.966
 8474SOL     OW26320   3.721   3.765   2.835
 8474SOL    HW126321   3.677   3.854   2.846
 8474SOL    HW226322   3.740   3.749   2.738
 8475SOL     OW26323   6.479   2.640   1.872
 8475SOL    HW126324   6.438   2.648   1.963
 8475SOL    HW226325   6.428   2.697   1.807
 8476SOL     OW26326   6.009   0.266   1.592
 8476SOL    HW126327   6.097   0.240   1.552
 8476SOL    HW226328   5.936   0.219   1.543
 8477SOL     OW26329   5.755   6.737   1.607
 8477SOL    HW126330   5.800   6.763   1.692
 8477SOL    HW226331   5.814   6.673   1.556
 8478SOL     OW26332   6.907   0.155   5.171
 8478SOL    HW126333   6.856   0.080   5.214
 8478SOL    HW226334   6.964   0.119   5.097
 8479SOL     OW26335   0.836   2.288   1.443
 8479SOL    HW126336   0.885   2.206   1.414
 8479SOL    HW226337   0.778   2.321   1.368
 8480SOL     OW26338   5.105   4.217   6.907
 8480SOL    HW126339   5.035   4.214   6.978
 8480SOL    HW226340   5.063   4.235   6.818
 8481SOL     OW26341   3.797   2.143   3.795
 8481SOL    HW126342   3.881   2.199   3.796
 8481SOL    HW226343   3.755   2.150   3.704
 8482SOL     OW26344   4.546   1.175   0.134
 8482SOL    HW126345   4.525   1.151   0.229
 8482SOL    HW226346   4.640   1.208   0.128
 8483SOL     OW26347   2.853   5.782   3.404
 8483SOL    HW126348   2.753   5.784   3.408
 8483SOL    HW226349   2.886   5.695   3.441
 8484SOL     OW26350   5.961   6.021   4.076
 8484SOL    HW126351   6.000   6.020   3.984
 8484SOL    HW226352   5.872   5.978   4.076
 8485SOL     OW26353   2.783   2.035   0.355
 8485SOL    HW126354   2.726   1.955   0.338
 8485SOL    HW226355   2.879   2.012   0.340
 8486SOL     OW26356   0.927   1.032   2.792
 8486SOL    HW126357   0.938   1.129   2.771
 8486SOL    HW226358   1.005   1.001   2.848
 8487SOL     OW26359   6.177   1.833   5.644
 8487SOL    HW126360   6.133   1.921   5.663
 8487SOL    HW226361   6.117   1.778   5.586
 8488SOL     OW26362   5.035   5.314   1.623
 8488SOL    HW126363   5.097   5.365   1.682
 8488SOL    HW226364   5.087   5.265   1.554
 8489SOL     OW26365   5.133   1.198   1.491
 8489SOL    HW126366   5.179   1.134   1.429
 8489SOL    HW226367   5.038   1.170   1.504
 8490SOL     OW26368   2.433   0.291   6.697
 8490SOL    HW126369   2.379   0.207   6.691
 8490SOL    HW226370   2.390   0.363   6.643
 8491SOL     OW26371   3.193   5.589   2.197
 8491SOL    HW126372   3.188   5.633   2.108
 8491SOL    HW226373   3.212   5.657   2.268
 8492SOL     OW26374   5.907   5.384   4.326
 8492SOL    HW126375   5.857   5.368   4.240
 8492SOL    HW226376   5.883   5.474   4.362
 8493SOL     OW26377   4.012   0.255   0.402
 8493SOL    HW126378   3.949   0.225   0.331
 8493SOL    HW226379   3.988   0.211   0.489
 8494SOL     OW26380   6.008   5.444   2.008
 8494SOL    HW126381   5.979   5.505   1.934
 8494SOL    HW226382   6.026   5.497   2.091
 8495SOL     OW26383   6.659   6.074   0.161
 8495SOL    HW126384   6.735   6.112   0.107
 8495SOL    HW226385   6.581   6.057   0.100
 8496SOL     OW26386   5.034   2.210   2.375
 8496SOL    HW126387   4.951   2.231   2.324
 8496SOL    HW226388   5.074   2.125   2.341
 8497SOL     OW26389   6.650   0.585   3.655
 8497SOL    HW126390   6.581   0.633   3.602
 8497SOL    HW226391   6.614   0.497   3.686
 8498SOL     OW26392   4.796   0.232   4.833
 8498SOL    HW126393   4.863   0.271   4.896
 8498SOL    HW226394   4.756   0.305   4.778
 8499SOL     OW26395   6.447   6.337   6.453
 8499SOL    HW126396   6.357   6.301   6.478
 8499SOL    HW226397   6.461   6.325   6.354
 8500SOL     OW26398   1.873   0.758   5.527
 8500SOL    HW126399   1.957   0.786   5.574
 8500SOL    HW226400   1.832   0.838   5.482
 8501SOL     OW26401   0.309   1.422   6.619
 8501SOL    HW126402   0.389   1.451   6.671
 8501SOL    HW226403   0.308   1.470   6.531
 8502SOL     OW26404   0.609   2.842   6.662
 8502SOL    HW126405   0.568   2.922   6.706
 8502SOL    HW226406   0.559   2.821   6.578
 8503SOL     OW26407   6.148   6.355   4.122
 8503SOL    HW126408   6.053   6.332   4.145
 8503SOL    HW226409   6.169   6.446   4.157
 8504SOL     OW26410   2.528   5.105   2.770
 8504SOL    HW126411   2.526   5.011   2.802
 8504SOL    HW226412   2.434   5.141   2.764
 8505SOL     OW26413   5.216   3.225   2.508
 8505SOL    HW126414   5.306   3.244   2.546
 8505SOL    HW226415   5.155   3.191   2.580
 8506SOL     OW26416   2.718   0.166   0.148
 8506SOL    HW126417   2.814   0.188   0.132
 8506SOL    HW226418   2.661   0.240   0.112
 8507SOL     OW26419   4.610   5.637   5.565
 8507SOL    HW126420   4.519   5.599   5.546
 8507SOL    HW226421   4.603   5.737   5.571
 8508SOL     OW26422   3.912   2.083   0.014
 8508SOL    HW126423   3.957   2.169   7.011
 8508SOL    HW226424   3.831   2.070   6.979
 8509SOL     OW26425   5.380   0.560   3.444
 8509SOL    HW126426   5.328   0.582   3.527
 8509SOL    HW226427   5.477   0.553   3.466
 8510SOL     OW26428   6.408   1.910   4.576
 8510SOL    HW126429   6.431   1.973   4.650
 8510SOL    HW226430   6.447   1.942   4.490
 8511SOL     OW26431   6.121   2.851   1.719
 8511SOL    HW126432   6.056   2.800   1.663
 8511SOL    HW226433   6.102   2.949   1.711
 8512SOL     OW26434   1.362   6.636   4.837
 8512SOL    HW126435   1.366   6.571   4.760
 8512SOL    HW226436   1.394   6.726   4.805
 8513SOL     OW26437   5.925   6.330   6.508
 8513SOL    HW126438   5.975   6.379   6.580
 8513SOL    HW226439   5.891   6.396   6.441
 8514SOL     OW26440   2.388   6.351   4.236
 8514SOL    HW126441   2.463   6.320   4.178
 8514SOL    HW226442   2.417   6.350   4.332
 8515SOL     OW26443   4.806   2.048   1.750
 8515SOL    HW126444   4.896   2.090   1.743
 8515SOL    HW226445   4.815   1.949   1.753
 8516SOL     OW26446   6.936   2.577   2.218
 8516SOL    HW126447   7.008   2.581   2.149
 8516SOL    HW226448   6.905   2.669   2.240
 8517SOL     OW26449   1.912   2.551   6.389
 8517SOL    HW126450   1.924   2.588   6.481
 8517SOL    HW226451   1.834   2.597   6.345
 8518SOL     OW26452   3.875   5.428   0.413
 8518SOL    HW126453   3.811   5.501   0.393
 8518SOL    HW226454   3.903   5.435   0.509
 8519SOL     OW26455   0.819   5.593   2.799
 8519SOL    HW126456   0.882   5.517   2.784
 8519SOL    HW226457   0.752   5.597   2.725
 8520SOL     OW26458   3.802   0.872   6.980
 8520SOL    HW126459   3.716   0.835   7.015
 8520SOL    HW226460   3.878   0.836   0.011
 8521SOL     OW26461   1.509   6.256   6.357
 8521SOL    HW126462   1.542   6.284   6.267
 8521SOL    HW226463   1.552   6.313   6.427
 8522SOL     OW26464   1.324   6.100   5.081
 8522SOL    HW126465   1.287   6.187   5.049
 8522SOL    HW226466   1.259   6.027   5.063
 8523SOL     OW26467   1.207   6.851   0.117
 8523SOL    HW126468   1.129   6.911   0.099
 8523SOL    HW226469   1.175   6.762   0.149
 8524SOL     OW26470   1.188   3.261   6.436
 8524SOL    HW126471   1.108   3.292   6.384
 8524SOL    HW226472   1.171   3.271   6.534
 8525SOL     OW26473   6.252   3.184   3.464
 8525SOL    HW126474   6.176   3.249   3.454
 8525SOL    HW226475   6.339   3.233   3.455
 8526SOL     OW26476   2.193   2.768   2.590
 8526SOL    HW126477   2.207   2.821   2.506
 8526SOL    HW226478   2.109   2.715   2.582
 8527SOL     OW26479   4.307   0.808   4.558
 8527SOL    HW126480   4.266   0.735   4.502
 8527SOL    HW226481   4.383   0.849   4.508
 8528SOL     OW26482   4.947   2.743   6.291
 8528SOL    HW126483   4.969   2.688   6.210
 8528SOL    HW226484   4.994   2.831   6.284
 8529SOL     OW26485   0.547   4.298   0.178
 8529SOL    HW126486   0.613   4.352   0.126
 8529SOL    HW226487   0.466   4.354   0.198
 8530SOL     OW26488   2.108   3.656   5.379
 8530SOL    HW126489   2.162   3.587   5.427
 8530SOL    HW226490   2.170   3.722   5.336
 8531SOL     OW26491   5.088   4.606   2.317
 8531SOL    HW126492   5.021   4.594   2.389
 8531SOL    HW226493   5.078   4.533   2.249
 8532SOL     OW26494   2.939   3.984   6.238
 8532SOL    HW126495   2.907   3.898   6.199
 8532SOL    HW226496   2.880   4.010   6.315
 8533SOL     OW26497   3.292   0.760   4.647
 8533SOL    HW126498   3.207   0.810   4.663
 8533SOL    HW226499   3.343   0.752   4.732
 8534SOL     OW26500   1.489   2.922   2.912
 8534SOL    HW126501   1.414   2.877   2.863
 8534SOL    HW226502   1.518   3.003   2.861
 8535SOL     OW26503   0.475   2.008   4.646
 8535SOL    HW126504   0.482   1.977   4.741
 8535SOL    HW226505   0.381   1.996   4.614
 8536SOL     OW26506   0.311   1.743   6.192
 8536SOL    HW126507   0.318   1.841   6.169
 8536SOL    HW226508   0.265   1.733   6.280
 8537SOL     OW26509   5.733   0.481   2.262
 8537SOL    HW126510   5.716   0.569   2.217
 8537SOL    HW226511   5.753   0.412   2.192
 8538SOL     OW26512   5.729   0.613   4.234
 8538SOL    HW126513   5.661   0.628   4.162
 8538SOL    HW226514   5.798   0.548   4.202
 8539SOL     OW26515   0.008   3.355   1.723
 8539SOL    HW126516   7.001   3.272   1.772
 8539SOL    HW226517   0.000   3.434   1.784
 8540SOL     OW26518   4.120   0.346   6.987
 8540SOL    HW126519   4.126   0.382   0.058
 8540SOL    HW226520   4.176   0.263   6.980
 8541SOL     OW26521   3.120   0.735   5.265
 8541SOL    HW126522   3.077   0.793   5.196
 8541SOL    HW226523   3.051   0.674   5.305
 8542SOL     OW26524   1.824   4.471   6.866
 8542SOL    HW126525   1.801   4.415   6.786
 8542SOL    HW226526   1.893   4.424   6.921
 8543SOL     OW26527   2.394   1.994   6.509
 8543SOL    HW126528   2.460   2.035   6.572
 8543SOL    HW226529   2.385   2.052   6.428
 8544SOL     OW26530   5.153   3.584   5.097
 8544SOL    HW126531   5.149   3.668   5.043
 8544SOL    HW226532   5.133   3.605   5.192
 8545SOL     OW26533   2.910   0.517   6.354
 8545SOL    HW126534   2.848   0.535   6.431
 8545SOL    HW226535   2.939   0.604   6.315
 8546SOL     OW26536   5.471   0.271   1.250
 8546SOL    HW126537   5.561   0.253   1.212
 8546SOL    HW226538   5.418   0.186   1.254
 8547SOL     OW26539   6.028   6.418   5.449
 8547SOL    HW126540   5.955   6.355   5.421
 8547SOL    HW226541   5.988   6.500   5.489
 8548SOL     OW26542   0.510   3.009   5.908
 8548SOL    HW126543   0.546   3.101   5.894
 8548SOL    HW226544   0.418   3.014   5.945
 8549SOL     OW26545   1.432   1.122   3.047
 8549SOL    HW126546   1.469   1.196   2.992
 8549SOL    HW226547   1.458   1.034   3.008
 8550SOL     OW26548   0.015   4.625   6.594
 8550SOL    HW126549   7.020   4.648   6.689
 8550SOL    HW226550   0.014   4.526   6.582
 8551SOL     OW26551   2.239   1.554   6.087
 8551SOL    HW126552   2.309   1.606   6.136
 8551SOL    HW226553   2.253   1.456   6.103
 8552SOL     OW26554   2.747   1.951   2.921
 8552SOL    HW126555   2.815   2.013   2.882
 8552SOL    HW226556   2.791   1.864   2.945
 8553SOL     OW26557   5.191   3.057   6.697
 8553SOL    HW126558   5.271   3.015   6.739
 8553SOL    HW226559   5.118   3.064   6.764
 8554SOL     OW26560   1.419   0.782   0.426
 8554SOL    HW126561   1.366   0.713   0.475
 8554SOL    HW226562   1.500   0.739   0.386
 8555SOL     OW26563   4.749   1.181   4.161
 8555SOL    HW126564   4.848   1.164   4.166
 8555SOL    HW226565   4.700   1.095   4.162
 8556SOL     OW26566   1.649   6.393   0.816
 8556SOL    HW126567   1.616   6.378   0.723
 8556SOL    HW226568   1.671   6.305   0.858
 8557SOL     OW26569   0.533   0.630   0.461
 8557SOL    HW126570   0.546   0.706   0.397
 8557SOL    HW226571   0.590   0.644   0.542
 8558SOL     OW26572   2.429   5.572   3.872
 8558SOL    HW126573   2.513   5.518   3.862
 8558SOL    HW226574   2.439   5.634   3.950
 8559SOL     OW26575   1.186   5.410   2.782
 8559SOL    HW126576   1.216   5.316   2.794
 8559SOL    HW226577   1.192   5.458   2.870
 8560SOL     OW26578   3.033   4.197   1.753
 8560SOL    HW126579   3.034   4.132   1.829
 8560SOL    HW226580   3.027   4.290   1.790
 8561SOL     OW26581   4.398   6.623   2.207
 8561SOL    HW126582   4.455   6.682   2.150
 8561SOL    HW226583   4.452   6.545   2.238
 8562SOL     OW26584   4.404   1.554   6.973
 8562SOL    HW126585   4.362   1.466   6.953
 8562SOL    HW226586   4.503   1.544   6.975
 8563SOL     OW26587   2.761   5.064   2.159
 8563SOL    HW126588   2.786   4.971   2.131
 8563SOL    HW226589   2.680   5.060   2.217
 8564SOL     OW26590   4.313   0.490   6.832
 8564SOL    HW126591   4.356   0.438   6.758
 8564SOL    HW226592   4.270   0.426   6.897
 8565SOL     OW26593   2.394   5.368   1.068
 8565SOL    HW126594   2.482   5.416   1.068
 8565SOL    HW226595   2.321   5.433   1.049
 8566SOL     OW26596   3.213   1.097   3.076
 8566SOL    HW126597   3.313   1.105   3.069
 8566SOL    HW226598   3.172   1.189   3.074
 8567SOL     OW26599   2.071   2.210   1.491
 8567SOL    HW126600   2.107   2.119   1.468
 8567SOL    HW226601   1.972   2.212   1.474
 8568SOL     OW26602   6.542   0.829   6.732
 8568SOL    HW126603   6.613   0.899   6.731
 8568SOL    HW226604   6.525   0.799   6.826
 8569SOL     OW26605   4.925   2.176   6.352
 8569SOL    HW126606   4.942   2.081   6.324
 8569SOL    HW226607   4.986   2.237   6.300
 8570SOL     OW26608   1.476   2.911   3.899
 8570SOL    HW126609   1.559   2.923   3.953
 8570SOL    HW226610   1.458   2.814   3.885
 8571SOL     OW26611   1.664   0.897   3.091
 8571SOL    HW126612   1.669   0.940   3.002
 8571SOL    HW226613   1.585   0.835   3.094
 8572SOL     OW26614   3.082   4.242   5.790
 8572SOL    HW126615   3.002   4.204   5.745
 8572SOL    HW226616   3.058   4.268   5.884
 8573SOL     OW26617   3.907   5.929   0.612
 8573SOL    HW126618   3.972   5.858   0.587
 8573SOL    HW226619   3.814   5.894   0.602
 8574SOL     OW26620   5.307   0.223   4.938
 8574SOL    HW126621   5.311   0.245   4.840
 8574SOL    HW226622   5.391   0.174   4.964
 8575SOL     OW26623   3.031   6.544   3.368
 8575SOL    HW126624   3.061   6.475   3.302
 8575SOL    HW226625   3.016   6.631   3.322
 8576SOL     OW26626   0.878   4.717   3.033
 8576SOL    HW126627   0.939   4.677   3.101
 8576SOL    HW226628   0.902   4.813   3.020
 8577SOL     OW26629   1.606   1.726   0.222
 8577SOL    HW126630   1.640   1.686   0.137
 8577SOL    HW226631   1.524   1.780   0.203
 8578SOL     OW26632   6.779   6.938   5.752
 8578SOL    HW126633   6.831   6.979   5.827
 8578SOL    HW226634   6.827   6.954   5.666
 8579SOL     OW26635   3.262   6.371   2.805
 8579SOL    HW126636   3.263   6.287   2.859
 8579SOL    HW226637   3.344   6.376   2.749
 8580SOL     OW26638   2.439   0.691   1.778
 8580SOL    HW126639   2.343   0.683   1.750
 8580SOL    HW226640   2.485   0.604   1.763
 8581SOL     OW26641   2.935   4.449   1.451
 8581SOL    HW126642   2.953   4.528   1.393
 8581SOL    HW226643   2.990   4.455   1.534
 8582SOL     OW26644   4.158   4.701   5.694
 8582SOL    HW126645   4.060   4.718   5.681
 8582SOL    HW226646   4.186   4.734   5.784
 8583SOL     OW26647   4.464   0.567   2.906
 8583SOL    HW126648   4.546   0.587   2.851
 8583SOL    HW226649   4.443   0.646   2.964
 8584SOL     OW26650   6.644   1.407   4.208
 8584SOL    HW126651   6.723   1.347   4.220
 8584SOL    HW226652   6.566   1.369   4.259
 8585SOL     OW26653   5.449   1.990   2.439
 8585SOL    HW126654   5.435   2.089   2.426
 8585SOL    HW226655   5.426   1.942   2.355
 8586SOL     OW26656   6.068   5.607   1.335
 8586SOL    HW126657   6.145   5.596   1.273
 8586SOL    HW226658   6.026   5.697   1.321
 8587SOL     OW26659   1.929   1.398   6.241
 8587SOL    HW126660   1.845   1.374   6.290
 8587SOL    HW226661   1.912   1.393   6.143
 8588SOL     OW26662   2.901   1.392   6.982
 8588SOL    HW126663   2.894   1.485   6.946
 8588SOL    HW226664   2.946   1.333   6.915
 8589SOL     OW26665   6.824   3.171   6.282
 8589SOL    HW126666   6.726   3.161   6.294
 8589SOL    HW226667   6.843   3.205   6.189
 8590SOL     OW26668   1.526   1.347   2.916
 8590SOL    HW126669   1.620   1.380   2.920
 8590SOL    HW226670   1.463   1.425   2.918
 8591SOL     OW26671   6.641   4.414   0.123
 8591SOL    HW126672   6.710   4.365   0.070
 8591SOL    HW226673   6.680   4.441   0.211
 8592SOL     OW26674   1.350   1.521   6.238
 8592SOL    HW126675   1.288   1.579   6.290
 8592SOL    HW226676   1.393   1.454   6.299
 8593SOL     OW26677   3.414   1.325   6.533
 8593SOL    HW126678   3.378   1.232   6.532
 8593SOL    HW226679   3.392   1.370   6.446
 8594SOL     OW26680   6.702   2.764   5.382
 8594SOL    HW126681   6.782   2.789   5.327
 8594SOL    HW226682   6.731   2.746   5.476
 8595SOL     OW26683   5.896   6.350   2.227
 8595SOL    HW126684   5.982   6.327   2.273
 8595SOL    HW226685   5.895   6.448   2.205
 8596SOL     OW26686   0.716   1.730   3.426
 8596SOL    HW126687   0.658   1.698   3.501
 8596SOL    HW226688   0.697   1.826   3.407
 8597SOL     OW26689   5.707   3.124   0.199
 8597SOL    HW126690   5.635   3.171   0.149
 8597SOL    HW226691   5.762   3.070   0.136
 8598SOL     OW26692   5.829   6.571   3.817
 8598SOL    HW126693   5.864   6.605   3.729
 8598SOL    HW226694   5.732   6.591   3.823
 8599SOL     OW26695   0.585   3.198   3.792
 8599SOL    HW126696   0.517   3.272   3.791
 8599SOL    HW226697   0.628   3.192   3.702
 8600SOL     OW26698   3.953   2.268   1.390
 8600SOL    HW126699   3.910   2.314   1.467
 8600SOL    HW226700   3.883   2.220   1.337
 8601SOL     OW26701   1.258   6.714   3.329
 8601SOL    HW126702   1.278   6.779   3.257
 8601SOL    HW226703   1.160   6.711   3.346
 8602SOL     OW26704   2.131   6.965   4.723
 8602SOL    HW126705   2.093   0.035   4.735
 8602SOL    HW226706   2.067   6.908   4.673
 8603SOL     OW26707   0.208   0.660   0.624
 8603SOL    HW126708   0.133   0.597   0.602
 8603SOL    HW226709   0.207   0.736   0.560
 8604SOL     OW26710   0.660   4.073   6.231
 8604SOL    HW126711   0.620   4.132   6.301
 8604SOL    HW226712   0.590   4.051   6.163
 8605SOL     OW26713   6.940   5.167   4.416
 8605SOL    HW126714   0.010   5.143   4.384
 8605SOL    HW226715   6.917   5.259   4.386
 8606SOL     OW26716   2.059   3.051   6.969
 8606SOL    HW126717   2.056   3.151   6.974
 8606SOL    HW226718   2.073   3.023   6.875
 8607SOL     OW26719   2.646   4.002   1.558
 8607SOL    HW126720   2.672   4.083   1.611
 8607SOL    HW226721   2.570   3.956   1.602
 8608SOL     OW26722   2.293   5.333   3.109
 8608SOL    HW126723   2.279   5.249   3.161
 8608SOL    HW226724   2.211   5.390   3.115
 8609SOL     OW26725   4.594   0.947   4.134
 8609SOL    HW126726   4.679   0.896   4.125
 8609SOL    HW226727   4.552   0.960   4.044
 8610SOL     OW26728   0.649   6.279   2.836
 8610SOL    HW126729   0.677   6.197   2.786
 8610SOL    HW226730   0.658   6.262   2.934
 8611SOL     OW26731   2.621   1.096   4.756
 8611SOL    HW126732   2.587   1.190   4.759
 8611SOL    HW226733   2.602   1.051   4.843
 8612SOL     OW26734   4.030   3.821   3.497
 8612SOL    HW126735   3.954   3.756   3.493
 8612SOL    HW226736   4.031   3.865   3.587
 8613SOL     OW26737   3.625   2.856   1.348
 8613SOL    HW126738   3.559   2.782   1.359
 8613SOL    HW226739   3.717   2.816   1.338
 8614SOL     OW26740   1.047   2.748   3.148
 8614SOL    HW126741   1.003   2.831   3.114
 8614SOL    HW226742   0.999   2.668   3.113
 8615SOL     OW26743   4.103   1.226   3.794
 8615SOL    HW126744   4.170   1.251   3.724
 8615SOL    HW226745   4.024   1.287   3.787
 8616SOL     OW26746   4.317   4.639   2.897
 8616SOL    HW126747   4.316   4.719   2.837
 8616SOL    HW226748   4.235   4.584   2.881
 8617SOL     OW26749   3.642   0.370   3.973
 8617SOL    HW126750   3.660   0.468   3.969
 8617SOL    HW226751   3.729   0.320   3.966
 8618SOL     OW26752   5.577   4.165   0.740
 8618SOL    HW126753   5.676   4.166   0.759
 8618SOL    HW226754   5.531   4.109   0.808
 8619SOL     OW26755   5.140   4.448   0.729
 8619SOL    HW126756   5.190   4.512   0.787
 8619SOL    HW226757   5.176   4.356   0.741
 8620SOL     OW26758   1.940   0.278   4.425
 8620SOL    HW126759   1.948   0.371   4.462
 8620SOL    HW226760   2.024   0.253   4.378
 8621SOL     OW26761   5.119   2.653   1.334
 8621SOL    HW126762   5.046   2.668   1.267
 8621SOL    HW226763   5.086   2.674   1.426
 8622SOL     OW26764   6.247   4.673   2.757
 8622SOL    HW126765   6.332   4.639   2.796
 8622SOL    HW226766   6.218   4.613   2.682
 8623SOL     OW26767   0.103   3.424   4.308
 8623SOL    HW126768   0.029   3.437   4.242
 8623SOL    HW226769   0.070   3.443   4.400
 8624SOL     OW26770   2.879   4.113   5.672
 8624SOL    HW126771   2.780   4.125   5.676
 8624SOL    HW226772   2.901   4.029   5.624
 8625SOL     OW26773   3.619   2.227   5.667
 8625SOL    HW126774   3.606   2.174   5.583
 8625SOL    HW226775   3.616   2.325   5.646
 8626SOL     OW26776   4.373   4.267   0.600
 8626SOL    HW126777   4.412   4.359   0.609
 8626SOL    HW226778   4.274   4.273   0.599
 8627SOL     OW26779   2.097   0.655   3.015
 8627SOL    HW126780   2.194   0.651   3.039
 8627SOL    HW226781   2.076   0.746   2.977
 8628SOL     OW26782   0.759   6.355   0.797
 8628SOL    HW126783   0.733   6.450   0.813
 8628SOL    HW226784   0.839   6.332   0.853
 8629SOL     OW26785   0.050   6.899   4.522
 8629SOL    HW126786   0.128   6.903   4.584
 8629SOL    HW226787   0.024   6.991   4.494
 8630SOL     OW26788   5.022   2.824   2.208
 8630SOL    HW126789   4.999   2.824   2.111
 8630SOL    HW226790   5.120   2.809   2.219
 8631SOL     OW26791   2.981   6.583   0.302
 8631SOL    HW126792   3.080   6.574   0.291
 8631SOL    HW226793   2.935   6.538   0.226
 8632SOL     OW26794   4.996   4.687   6.012
 8632SOL    HW126795   5.018   4.606   5.956
 8632SOL    HW226796   5.050   4.684   6.096
 8633SOL     OW26797   5.333   3.466   6.403
 8633SOL    HW126798   5.375   3.463   6.494
 8633SOL    HW226799   5.241   3.428   6.408
 8634SOL     OW26800   5.169   4.388   0.107
 8634SOL    HW126801   5.153   4.313   0.171
 8634SOL    HW226802   5.169   4.352   0.013
 8635SOL     OW26803   5.750   2.593   6.098
 8635SOL    HW126804   5.663   2.622   6.138
 8635SOL    HW226805   5.754   2.622   6.003
 8636SOL     OW26806   4.955   6.705   1.086
 8636SOL    HW126807   4.907   6.747   1.010
 8636SOL    HW226808   5.028   6.645   1.051
 8637SOL     OW26809   2.163   1.551   6.717
 8637SOL    HW126810   2.151   1.587   6.810
 8637SOL    HW226811   2.226   1.474   6.719
 8638SOL     OW26812   4.684   2.499   4.785
 8638SOL    HW126813   4.730   2.410   4.790
 8638SOL    HW226814   4.664   2.532   4.877
 8639SOL     OW26815   3.617   3.866   6.444
 8639SOL    HW126816   3.631   3.840   6.348
 8639SOL    HW226817   3.606   3.784   6.499
 8640SOL     OW26818   2.587   3.674   1.239
 8640SOL    HW126819   2.686   3.667   1.254
 8640SOL    HW226820   2.540   3.677   1.327
 8641SOL     OW26821   4.232   6.050   2.503
 8641SOL    HW126822   4.140   6.015   2.483
 8641SOL    HW226823   4.297   5.974   2.501
 8642SOL     OW26824   0.538   5.989   3.831
 8642SOL    HW126825   0.618   6.047   3.816
 8642SOL    HW226826   0.563   5.911   3.889
 8643SOL     OW26827   4.445   6.875   0.925
 8643SOL    HW126828   4.376   6.823   0.975
 8643SOL    HW226829   4.407   6.904   0.837
 8644SOL     OW26830   6.018   2.018   0.017
 8644SOL    HW126831   6.080   2.028   0.095
 8644SOL    HW226832   5.977   1.927   0.019
 8645SOL     OW26833   5.700   3.192   2.350
 8645SOL    HW126834   5.662   3.277   2.388
 8645SOL    HW226835   5.746   3.212   2.264
 8646SOL     OW26836   0.152   1.694   5.102
 8646SOL    HW126837   0.109   1.781   5.078
 8646SOL    HW226838   0.195   1.703   5.192
 8647SOL     OW26839   2.288   4.783   2.183
 8647SOL    HW126840   2.321   4.877   2.183
 8647SOL    HW226841   2.356   4.724   2.140
 8648SOL     OW26842   5.620   5.436   0.682
 8648SOL    HW126843   5.668   5.443   0.595
 8648SOL    HW226844   5.636   5.345   0.722
 8649SOL     OW26845   4.362   0.068   1.559
 8649SOL    HW126846   4.277   0.075   1.612
 8649SOL    HW226847   4.422   0.000   1.602
 8650SOL     OW26848   1.776   0.058   4.513
 8650SOL    HW126849   1.794   0.003   4.594
 8650SOL    HW226850   1.845   0.131   4.506
 8651SOL     OW26851   3.598   2.009   0.907
 8651SOL    HW126852   3.624   2.102   0.934
 8651SOL    HW226853   3.552   1.964   0.984
 8652SOL     OW26854   1.355   3.644   3.606
 8652SOL    HW126855   1.413   3.645   3.687
 8652SOL    HW226856   1.266   3.684   3.629
 8653SOL     OW26857   0.009   1.662   6.052
 8653SOL    HW126858   0.083   1.595   6.045
 8653SOL    HW226859   6.997   1.666   6.146
 8654SOL     OW26860   0.874   4.300   1.622
 8654SOL    HW126861   0.815   4.312   1.701
 8654SOL    HW226862   0.928   4.383   1.608
 8655SOL     OW26863   0.585   0.689   5.136
 8655SOL    HW126864   0.532   0.769   5.108
 8655SOL    HW226865   0.644   0.660   5.061
 8656SOL     OW26866   4.821   0.002   1.465
 8656SOL    HW126867   4.847   0.074   1.401
 8656SOL    HW226868   4.831   6.935   1.421
 8657SOL     OW26869   4.695   1.230   2.803
 8657SOL    HW126870   4.659   1.319   2.772
 8657SOL    HW226871   4.648   1.157   2.754
 8658SOL     OW26872   7.015   4.836   1.061
 8658SOL    HW126873   0.035   4.909   1.007
 8658SOL    HW226874   0.022   4.748   1.024
 8659SOL     OW26875   4.324   1.205   2.338
 8659SOL    HW126876   4.370   1.282   2.383
 8659SOL    HW226877   4.236   1.189   2.382
 8660SOL     OW26878   6.919   3.822   1.637
 8660SOL    HW126879   6.884   3.798   1.547
 8660SOL    HW226880   7.008   3.779   1.651
 8661SOL     OW26881   6.742   3.277   3.067
 8661SOL    HW126882   6.719   3.285   2.970
 8661SOL    HW226883   6.833   3.237   3.077
 8662SOL     OW26884   2.762   4.707   3.174
 8662SOL    HW126885   2.671   4.684   3.208
 8662SOL    HW226886   2.827   4.708   3.251
 8663SOL     OW26887   3.828   5.912   2.898
 8663SOL    HW126888   3.908   5.960   2.861
 8663SOL    HW226889   3.843   5.894   2.996
 8664SOL     OW26890   2.895   5.567   4.095
 8664SOL    HW126891   2.947   5.481   4.101
 8664SOL    HW226892   2.816   5.563   4.156
 8665SOL     OW26893   5.404   3.176   6.099
 8665SOL    HW126894   5.444   3.256   6.144
 8665SOL    HW226895   5.416   3.095   6.156
 8666SOL     OW26896   4.583   6.386   2.679
 8666SOL    HW126897   4.628   6.296   2.679
 8666SOL    HW226898   4.547   6.405   2.588
 8667SOL     OW26899   5.112   2.021   4.101
 8667SOL    HW126900   5.168   2.070   4.035
 8667SOL    HW226901   5.162   2.012   4.187
 8668SOL     OW26902   4.898   2.795   5.323
 8668SOL    HW126903   4.849   2.848   5.391
 8668SOL    HW226904   4.833   2.740   5.270
 8669SOL     OW26905   6.022   6.185   5.758
 8669SOL    HW126906   6.104   6.135   5.784
 8669SOL    HW226907   6.008   6.178   5.659
 8670SOL     OW26908   5.837   4.266   5.647
 8670SOL    HW126909   5.777   4.273   5.567
 8670SOL    HW226910   5.784   4.231   5.724
 8671SOL     OW26911   6.974   1.704   2.632
 8671SOL    HW126912   6.943   1.794   2.602
 8671SOL    HW226913   6.968   1.639   2.555
 8672SOL     OW26914   0.752   1.437   3.437
 8672SOL    HW126915   0.746   1.537   3.438
 8672SOL    HW226916   0.670   1.399   3.394
 8673SOL     OW26917   1.165   1.723   1.234
 8673SOL    HW126918   1.127   1.808   1.196
 8673SOL    HW226919   1.124   1.645   1.188
 8674SOL     OW26920   6.437   4.754   3.078
 8674SOL    HW126921   6.364   4.686   3.077
 8674SOL    HW226922   6.523   4.710   3.106
 8675SOL     OW26923   4.256   1.729   5.995
 8675SOL    HW126924   4.303   1.812   5.965
 8675SOL    HW226925   4.167   1.753   6.034
 8676SOL     OW26926   5.679   0.872   0.557
 8676SOL    HW126927   5.663   0.790   0.502
 8676SOL    HW226928   5.774   0.900   0.548
 8677SOL     OW26929   1.652   6.601   5.758
 8677SOL    HW126930   1.691   6.670   5.696
 8677SOL    HW226931   1.723   6.569   5.820
 8678SOL     OW26932   1.829   1.329   1.100
 8678SOL    HW126933   1.801   1.274   1.179
 8678SOL    HW226934   1.921   1.364   1.116
 8679SOL     OW26935   1.968   1.413   4.654
 8679SOL    HW126936   2.020   1.447   4.732
 8679SOL    HW226937   1.981   1.475   4.576
 8680SOL     OW26938   6.378   2.077   6.545
 8680SOL    HW126939   6.452   2.123   6.497
 8680SOL    HW226940   6.363   2.121   6.634
 8681SOL     OW26941   5.442   5.822   1.576
 8681SOL    HW126942   5.436   5.852   1.481
 8681SOL    HW226943   5.519   5.759   1.587
 8682SOL     OW26944   1.050   0.957   0.959
 8682SOL    HW126945   0.966   0.999   0.927
 8682SOL    HW226946   1.093   0.906   0.883
 8683SOL     OW26947   1.882   4.549   4.713
 8683SOL    HW126948   1.964   4.597   4.682
 8683SOL    HW226949   1.862   4.576   4.808
 8684SOL     OW26950   0.735   3.777   4.780
 8684SOL    HW126951   0.776   3.690   4.751
 8684SOL    HW226952   0.808   3.844   4.794
 8685SOL     OW26953   5.072   2.450   5.132
 8685SOL    HW126954   4.981   2.411   5.143
 8685SOL    HW226955   5.120   2.447   5.220
 8686SOL     OW26956   6.987   5.665   2.908
 8686SOL    HW126957   6.919   5.714   2.963
 8686SOL    HW226958   6.947   5.641   2.819
 8687SOL     OW26959   5.884   3.110   4.150
 8687SOL    HW126960   5.867   3.079   4.243
 8687SOL    HW226961   5.962   3.059   4.112
 8688SOL     OW26962   1.067   4.828   6.396
 8688SOL    HW126963   1.128   4.767   6.448
 8688SOL    HW226964   0.975   4.824   6.435
 8689SOL     OW26965   4.917   3.663   6.657
 8689SOL    HW126966   4.972   3.707   6.586
 8689SOL    HW226967   4.850   3.602   6.614
 8690SOL     OW26968   1.650   2.231   3.710
 8690SOL    HW126969   1.715   2.161   3.740
 8690SOL    HW226970   1.574   2.235   3.774
 8691SOL     OW26971   2.944   2.246   5.213
 8691SOL    HW126972   3.025   2.280   5.165
 8691SOL    HW226973   2.956   2.260   5.311
 8692SOL     OW26974   4.294   2.047   5.599
 8692SOL    HW126975   4.347   2.029   5.516
 8692SOL    HW226976   4.309   2.142   5.628
 8693SOL     OW26977   6.664   0.225   6.399
 8693SOL    HW126978   6.569   0.249   6.377
 8693SOL    HW226979   6.670   0.192   6.493
 8694SOL     OW26980   5.586   3.110   4.098
 8694SOL    HW126981   5.647   3.103   4.177
 8694SOL    HW226982   5.637   3.146   4.020
 8695SOL     OW26983   3.562   4.358   5.983
 8695SOL    HW126984   3.525   4.343   5.891
 8695SOL    HW226985   3.648   4.409   5.977
 8696SOL     OW26986   3.368   5.716   6.311
 8696SOL    HW126987   3.309   5.716   6.230
 8696SOL    HW226988   3.311   5.717   6.393
 8697SOL     OW26989   1.432   3.359   5.718
 8697SOL    HW126990   1.505   3.379   5.784
 8697SOL    HW226991   1.446   3.267   5.681
 8698SOL     OW26992   5.597   5.662   4.939
 8698SOL    HW126993   5.594   5.573   4.895
 8698SOL    HW226994   5.602   5.650   5.038
 8699SOL     OW26995   1.574   3.264   0.077
 8699SOL    HW126996   1.659   3.273   0.129
 8699SOL    HW226997   1.525   3.183   0.108
 8700SOL     OW26998   0.939   0.190   5.164
 8700SOL    HW126999   0.874   0.155   5.096
 8700SOL    HW227000   1.031   0.158   5.141
 8701SOL     OW27001   0.821   2.393   0.067
 8701SOL    HW127002   0.891   2.330   0.034
 8701SOL    HW227003   0.828   2.480   0.018
 8702SOL     OW27004   5.800   4.302   1.581
 8702SOL    HW127005   5.744   4.229   1.620
 8702SOL    HW227006   5.753   4.390   1.594
 8703SOL     OW27007   2.781   4.756   1.170
 8703SOL    HW127008   2.877   4.737   1.189
 8703SOL    HW227009   2.725   4.726   1.248
 8704SOL     OW27010   0.802   2.032   3.556
 8704SOL    HW127011   0.874   2.081   3.606
 8704SOL    HW227012   0.802   1.936   3.584
 8705SOL     OW27013   3.970   2.914   0.127
 8705SOL    HW127014   3.917   2.957   0.054
 8705SOL    HW227015   4.066   2.941   0.118
 8706SOL     OW27016   4.486   3.506   6.568
 8706SOL    HW127017   4.399   3.519   6.616
 8706SOL    HW227018   4.505   3.586   6.512
 8707SOL     OW27019   1.759   1.948   5.009
 8707SOL    HW127020   1.662   1.946   5.035
 8707SOL    HW227021   1.815   1.969   5.089
 8708SOL     OW27022   5.945   2.210   1.971
 8708SOL    HW127023   6.030   2.158   1.982
 8708SOL    HW227024   5.891   2.171   1.897
 8709SOL     OW27025   6.773   0.301   5.754
 8709SOL    HW127026   6.855   0.244   5.760
 8709SOL    HW227027   6.693   0.243   5.739
 8710SOL     OW27028   2.377   1.323   3.766
 8710SOL    HW127029   2.437   1.380   3.823
 8710SOL    HW227030   2.386   1.350   3.670
 8711SOL     OW27031   1.931   0.540   1.967
 8711SOL    HW127032   1.855   0.597   1.936
 8711SOL    HW227033   2.017   0.586   1.946
 8712SOL     OW27034   1.642   3.091   6.042
 8712SOL    HW127035   1.616   3.181   6.075
 8712SOL    HW227036   1.693   3.100   5.956
 8713SOL     OW27037   0.450   5.117   2.089
 8713SOL    HW127038   0.494   5.029   2.074
 8713SOL    HW227039   0.387   5.136   2.013
 8714SOL     OW27040   0.339   5.827   0.056
 8714SOL    HW127041   0.264   5.815   0.121
 8714SOL    HW227042   0.309   5.799   6.987
 8715SOL     OW27043   2.093   2.631   1.071
 8715SOL    HW127044   2.115   2.543   1.029
 8715SOL    HW227045   2.158   2.700   1.039
 8716SOL     OW27046   6.615   6.635   1.431
 8716SOL    HW127047   6.597   6.663   1.337
 8716SOL    HW227048   6.666   6.549   1.432
 8717SOL     OW27049   2.688   4.291   0.840
 8717SOL    HW127050   2.652   4.207   0.881
 8717SOL    HW227051   2.648   4.371   0.886
 8718SOL     OW27052   2.524   4.767   6.752
 8718SOL    HW127053   2.481   4.697   6.695
 8718SOL    HW227054   2.456   4.803   6.816
 8719SOL     OW27055   3.918   0.721   5.629
 8719SOL    HW127056   3.945   0.625   5.636
 8719SOL    HW227057   3.958   0.762   5.547
 8720SOL     OW27058   6.668   4.431   5.054
 8720SOL    HW127059   6.680   4.376   5.137
 8720SOL    HW227060   6.574   4.421   5.021
 8721SOL     OW27061   0.604   6.669   6.210
 8721SOL    HW127062   0.702   6.672   6.225
 8721SOL    HW227063   0.576   6.750   6.158
 8722SOL     OW27064   3.987   1.170   1.332
 8722SOL    HW127065   4.067   1.154   1.275
 8722SOL    HW227066   4.015   1.190   1.425
 8723SOL     OW27067   4.625   6.838   2.527
 8723SOL    HW127068   4.588   6.859   2.618
 8723SOL    HW227069   4.723   6.819   2.535
 8724SOL     OW27070   4.073   0.892   4.701
 8724SOL    HW127071   4.152   0.868   4.645
 8724SOL    HW227072   4.016   0.958   4.652
 8725SOL     OW27073   7.017   6.422   3.711
 8725SOL    HW127074   0.086   6.389   3.736
 8725SOL    HW227075   6.956   6.344   3.695
 8726SOL     OW27076   0.623   0.958   0.668
 8726SOL    HW127077   0.542   0.900   0.677
 8726SOL    HW227078   0.595   1.049   0.638
 8727SOL     OW27079   4.458   5.040   6.287
 8727SOL    HW127080   4.510   5.094   6.353
 8727SOL    HW227081   4.521   4.998   6.222
 8728SOL     OW27082   0.080   0.505   3.501
 8728SOL    HW127083   0.129   0.423   3.532
 8728SOL    HW227084   0.145   0.581   3.494
 8729SOL     OW27085   3.607   5.973   6.680
 8729SOL    HW127086   3.592   6.061   6.636
 8729SOL    HW227087   3.699   5.940   6.658
 8730SOL     OW27088   5.044   4.934   2.327
 8730SOL    HW127089   5.016   4.935   2.231
 8730SOL    HW227090   5.109   4.859   2.342
 8731SOL     OW27091   1.003   1.817   3.346
 8731SOL    HW127092   0.938   1.844   3.417
 8731SOL    HW227093   1.051   1.734   3.374
 8732SOL     OW27094   5.596   6.018   0.631
 8732SOL    HW127095   5.582   5.937   0.688
 8732SOL    HW227096   5.539   6.093   0.666
 8733SOL     OW27097   6.387   5.407   1.834
 8733SOL    HW127098   6.442   5.328   1.863
 8733SOL    HW227099   6.327   5.380   1.758
 8734SOL     OW27100   0.168   3.582   2.077
 8734SOL    HW127101   0.150   3.534   2.163
 8734SOL    HW227102   0.214   3.520   2.013
 8735SOL     OW27103   1.633   3.696   5.894
 8735SOL    HW127104   1.537   3.701   5.920
 8735SOL    HW227105   1.658   3.777   5.841
 8736SOL     OW27106   1.000   6.119   2.806
 8736SOL    HW127107   1.043   6.175   2.735
 8736SOL    HW227108   0.951   6.043   2.763
 8737SOL     OW27109   1.498   6.709   7.013
 8737SOL    HW127110   1.558   6.664   6.946
 8737SOL    HW227111   1.552   6.772   0.047
 8738SOL     OW27112   1.189   3.424   3.565
 8738SOL    HW127113   1.237   3.338   3.584
 8738SOL    HW227114   1.251   3.501   3.577
 8739SOL     OW27115   5.575   4.105   5.195
 8739SOL    HW127116   5.657   4.092   5.139
 8739SOL    HW227117   5.586   4.186   5.252
 8740SOL     OW27118   3.182   1.666   4.631
 8740SOL    HW127119   3.144   1.585   4.586
 8740SOL    HW227120   3.238   1.638   4.709
 8741SOL     OW27121   0.973   6.963   2.801
 8741SOL    HW127122   0.940   7.015   2.880
 8741SOL    HW227123   0.977   6.866   2.824
 8742SOL     OW27124   3.103   1.832   2.760
 8742SOL    HW127125   3.063   1.789   2.679
 8742SOL    HW227126   3.117   1.929   2.743
 8743SOL     OW27127   1.203   1.706   1.505
 8743SOL    HW127128   1.294   1.715   1.545
 8743SOL    HW227129   1.208   1.721   1.406
 8744SOL     OW27130   3.341   4.717   6.781
 8744SOL    HW127131   3.356   4.647   6.851
 8744SOL    HW227132   3.334   4.807   6.825
 8745SOL     OW27133   6.182   1.525   5.823
 8745SOL    HW127134   6.234   1.441   5.840
 8745SOL    HW227135   6.225   1.601   5.871
 8746SOL     OW27136   4.359   5.120   4.442
 8746SOL    HW127137   4.386   5.111   4.346
 8746SOL    HW227138   4.266   5.087   4.454
 8747SOL     OW27139   0.212   1.139   1.592
 8747SOL    HW127140   0.178   1.099   1.507
 8747SOL    HW227141   0.310   1.123   1.600
 8748SOL     OW27142   0.817   2.332   3.804
 8748SOL    HW127143   0.801   2.241   3.844
 8748SOL    HW227144   0.732   2.384   3.806
 8749SOL     OW27145   3.228   1.235   5.217
 8749SOL    HW127146   3.147   1.187   5.251
 8749SOL    HW227147   3.245   1.209   5.122
 8750SOL     OW27148   4.209   3.010   6.223
 8750SOL    HW127149   4.142   3.083   6.212
 8750SOL    HW227150   4.172   2.939   6.282
 8751SOL     OW27151   0.868   5.929   2.020
 8751SOL    HW127152   0.929   5.859   1.984
 8751SOL    HW227153   0.921   6.000   2.065
 8752SOL     OW27154   4.766   3.434   6.592
 8752SOL    HW127155   4.784   3.336   6.600
 8752SOL    HW227156   4.668   3.452   6.601
 8753SOL     OW27157   2.525   2.601   0.114
 8753SOL    HW127158   2.488   2.512   0.139
 8753SOL    HW227159   2.618   2.590   0.080
 8754SOL     OW27160   2.643   5.162   0.461
 8754SOL    HW127161   2.550   5.179   0.494
 8754SOL    HW227162   2.647   5.074   0.414
 8755SOL     OW27163   0.044   2.445   2.452
 8755SOL    HW127164   0.124   2.503   2.468
 8755SOL    HW227165   7.013   2.482   2.375
 8756SOL     OW27166   2.178   1.781   3.040
 8756SOL    HW127167   2.122   1.846   3.091
 8756SOL    HW227168   2.238   1.830   2.977
 8757SOL     OW27169   5.145   6.299   5.051
 8757SOL    HW127170   5.207   6.228   5.019
 8757SOL    HW227171   5.062   6.299   4.995
 8758SOL     OW27172   3.157   6.286   4.316
 8758SOL    HW127173   3.139   6.370   4.265
 8758SOL    HW227174   3.134   6.300   4.412
 8759SOL     OW27175   5.714   1.158   0.646
 8759SOL    HW127176   5.793   1.132   0.591
 8759SOL    HW227177   5.745   1.204   0.729
 8760SOL     OW27178   2.158   2.413   4.270
 8760SOL    HW127179   2.242   2.449   4.230
 8760SOL    HW227180   2.179   2.372   4.358
 8761SOL     OW27181   4.788   0.658   2.193
 8761SOL    HW127182   4.720   0.668   2.120
 8761SOL    HW227183   4.872   0.707   2.167
 8762SOL     OW27184   1.408   4.714   3.013
 8762SOL    HW127185   1.419   4.695   3.110
 8762SOL    HW227186   1.497   4.737   2.973
 8763SOL     OW27187   0.570   1.242   6.337
 8763SOL    HW127188   0.488   1.189   6.359
 8763SOL    HW227189   0.567   1.329   6.386
 8764SOL     OW27190   3.464   4.639   5.672
 8764SOL    HW127191   3.406   4.642   5.754
 8764SOL    HW227192   3.458   4.548   5.631
 8765SOL     OW27193   4.921   0.536   5.182
 8765SOL    HW127194   4.892   0.443   5.203
 8765SOL    HW227195   4.896   0.558   5.088
 8766SOL     OW27196   5.141   5.186   5.382
 8766SOL    HW127197   5.159   5.095   5.344
 8766SOL    HW227198   5.090   5.177   5.467
 8767SOL     OW27199   2.931   1.110   4.059
 8767SOL    HW127200   2.914   1.017   4.025
 8767SOL    HW227201   2.844   1.155   4.078
 8768SOL     OW27202   6.452   2.222   0.016
 8768SOL    HW127203   6.539   2.271   0.008
 8768SOL    HW227204   6.392   2.270   0.081
 8769SOL     OW27205   6.233   0.786   0.348
 8769SOL    HW127206   6.160   0.854   0.340
 8769SOL    HW227207   6.204   0.701   0.305
 8770SOL     OW27208   4.866   4.161   1.467
 8770SOL    HW127209   4.821   4.248   1.448
 8770SOL    HW227210   4.876   4.148   1.565
 8771SOL     OW27211   0.286   3.585   0.247
 8771SOL    HW127212   0.335   3.511   0.202
 8771SOL    HW227213   0.319   3.673   0.211
 8772SOL     OW27214   5.574   6.623   3.745
 8772SOL    HW127215   5.612   6.667   3.664
 8772SOL    HW227216   5.492   6.571   3.719
 8773SOL     OW27217   0.041   1.503   3.609
 8773SOL    HW127218   6.974   1.548   3.618
 8773SOL    HW227219   0.066   1.462   3.697
 8774SOL     OW27220   1.769   1.030   0.809
 8774SOL    HW127221   1.816   1.113   0.779
 8774SOL    HW227222   1.680   1.054   0.847
 8775SOL     OW27223   5.083   1.712   4.441
 8775SOL    HW127224   5.157   1.700   4.375
 8775SOL    HW227225   5.008   1.762   4.399
 8776SOL     OW27226   4.195   3.216   0.195
 8776SOL    HW127227   4.280   3.256   0.162
 8776SOL    HW227228   4.126   3.219   0.123
 8777SOL     OW27229   1.213   2.401   3.166
 8777SOL    HW127230   1.269   2.371   3.089
 8777SOL    HW227231   1.124   2.433   3.133
 8778SOL     OW27232   4.121   5.162   7.021
 8778SOL    HW127233   4.104   5.068   0.031
 8778SOL    HW227234   4.070   5.226   0.057
 8779SOL     OW27235   3.726   4.992   3.313
 8779SOL    HW127236   3.769   4.917   3.363
 8779SOL    HW227237   3.792   5.029   3.247
 8780SOL     OW27238   5.693   5.205   3.461
 8780SOL    HW127239   5.714   5.113   3.428
 8780SOL    HW227240   5.720   5.272   3.392
 8781SOL     OW27241   3.265   6.640   2.103
 8781SOL    HW127242   3.298   6.549   2.127
 8781SOL    HW227243   3.266   6.651   2.004
 8782SOL     OW27244   4.862   1.067   1.854
 8782SOL    HW127245   4.929   1.140   1.844
 8782SOL    HW227246   4.888   0.989   1.797
 8783SOL     OW27247   4.910   3.479   4.954
 8783SOL    HW127248   4.833   3.493   5.015
 8783SOL    HW227249   4.991   3.456   5.007
 8784SOL     OW27250   5.610   6.703   0.710
 8784SOL    HW127251   5.531   6.757   0.740
 8784SOL    HW227252   5.579   6.637   0.641
 8785SOL     OW27253   0.714   5.392   6.557
 8785SOL    HW127254   0.757   5.429   6.475
 8785SOL    HW227255   0.780   5.336   6.608
 8786SOL     OW27256   4.246   2.065   2.060
 8786SOL    HW127257   4.214   1.982   2.015
 8786SOL    HW227258   4.240   2.142   1.997
 8787SOL     OW27259   3.701   0.086   1.222
 8787SOL    HW127260   3.785   0.117   1.267
 8787SOL    HW227261   3.721   0.054   1.130
 8788SOL     OW27262   0.804   0.476   4.245
 8788SOL    HW127263   0.739   0.400   4.239
 8788SOL    HW227264   0.892   0.442   4.277
 8789SOL     OW27265   6.604   2.890   4.791
 8789SOL    HW127266   6.636   2.906   4.885
 8789SOL    HW227267   6.656   2.947   4.728
 8790SOL     OW27268   5.505   2.872   6.063
 8790SOL    HW127269   5.445   2.796   6.089
 8790SOL    HW227270   5.529   2.925   6.145
 8791SOL     OW27271   4.111   5.393   6.083
 8791SOL    HW127272   4.153   5.307   6.112
 8791SOL    HW227273   4.117   5.401   5.984
 8792SOL     OW27274   5.512   5.389   1.056
 8792SOL    HW127275   5.523   5.291   1.075
 8792SOL    HW227276   5.444   5.402   0.984
 8793SOL     OW27277   0.168   5.093   4.337
 8793SOL    HW127278   0.194   5.038   4.417
 8793SOL    HW227279   0.153   5.033   4.259
 8794SOL     OW27280   0.549   0.913   2.137
 8794SOL    HW127281   0.472   0.925   2.200
 8794SOL    HW227282   0.581   1.002   2.106
 8795SOL     OW27283   1.624   5.282   6.115
 8795SOL    HW127284   1.575   5.328   6.188
 8795SOL    HW227285   1.695   5.224   6.154
 8796SOL     OW27286   6.719   3.871   3.330
 8796SOL    HW127287   6.631   3.838   3.363
 8796SOL    HW227288   6.706   3.920   3.244
 8797SOL     OW27289   4.648   6.928   4.326
 8797SOL    HW127290   4.659   6.998   4.397
 8797SOL    HW227291   4.738   6.896   4.296
 8798SOL     OW27292   3.526   6.170   5.862
 8798SOL    HW127293   3.527   6.213   5.952
 8798SOL    HW227294   3.598   6.101   5.857
 8799SOL     OW27295   1.704   5.413   1.871
 8799SOL    HW127296   1.774   5.347   1.898
 8799SOL    HW227297   1.725   5.448   1.779
 8800SOL     OW27298   0.045   6.012   5.740
 8800SOL    HW127299   0.045   5.955   5.822
 8800SOL    HW227300   6.994   5.982   5.678
 8801SOL     OW27301   6.457   2.960   5.326
 8801SOL    HW127302   6.394   3.001   5.259
 8801SOL    HW227303   6.435   2.993   5.418
 8802SOL     OW27304   1.343   6.743   6.110
 8802SOL    HW127305   1.418   6.797   6.147
 8802SOL    HW227306   1.345   6.651   6.149
 8803SOL     OW27307   6.432   0.292   6.770
 8803SOL    HW127308   6.369   0.369   6.769
 8803SOL    HW227309   6.391   0.215   6.720
 8804SOL     OW27310   1.674   6.613   2.817
 8804SOL    HW127311   1.700   6.591   2.911
 8804SOL    HW227312   1.677   6.530   2.761
 8805SOL     OW27313   4.823   4.991   3.012
 8805SOL    HW127314   4.761   5.023   2.940
 8805SOL    HW227315   4.876   5.069   3.047
 8806SOL     OW27316   2.223   6.995   0.664
 8806SOL    HW127317   2.277   0.006   0.587
 8806SOL    HW227318   2.284   6.949   0.730
 8807SOL     OW27319   4.802   3.080   0.951
 8807SOL    HW127320   4.763   2.993   0.981
 8807SOL    HW227321   4.786   3.150   1.020
 8808SOL     OW27322   2.169   2.353   1.004
 8808SOL    HW127323   2.132   2.319   0.917
 8808SOL    HW227324   2.176   2.278   1.069
 8809SOL     OW27325   0.785   3.941   2.629
 8809SOL    HW127326   0.863   3.958   2.689
 8809SOL    HW227327   0.770   3.843   2.620
 8810SOL     OW27328   0.789   0.832   6.054
 8810SOL    HW127329   0.742   0.745   6.068
 8810SOL    HW227330   0.887   0.816   6.042
 8811SOL     OW27331   3.191   5.382   2.598
 8811SOL    HW127332   3.106   5.435   2.594
 8811SOL    HW227333   3.268   5.443   2.582
 8812SOL     OW27334   4.981   1.573   6.595
 8812SOL    HW127335   5.049   1.626   6.544
 8812SOL    HW227336   5.022   1.540   6.680
 8813SOL     OW27337   2.547   4.610   3.563
 8813SOL    HW127338   2.558   4.661   3.649
 8813SOL    HW227339   2.494   4.527   3.580
 8814SOL     OW27340   5.206   6.522   6.562
 8814SOL    HW127341   5.275   6.500   6.493
 8814SOL    HW227342   5.119   6.545   6.517
 8815SOL     OW27343   5.797   1.528   0.110
 8815SOL    HW127344   5.839   1.446   0.072
 8815SOL    HW227345   5.701   1.509   0.131
 8816SOL     OW27346   0.766   6.600   4.964
 8816SOL    HW127347   0.776   6.588   4.865
 8816SOL    HW227348   0.682   6.650   4.984
 8817SOL     OW27349   1.447   3.173   3.789
 8817SOL    HW127350   1.456   3.080   3.823
 8817SOL    HW227351   1.403   3.230   3.858
 8818SOL     OW27352   1.353   6.873   4.420
 8818SOL    HW127353   1.414   6.834   4.489
 8818SOL    HW227354   1.358   6.973   4.422
 8819SOL     OW27355   5.732   4.222   5.964
 8819SOL    HW127356   5.686   4.164   5.897
 8819SOL    HW227357   5.669   4.240   6.040
 8820SOL     OW27358   3.178   0.294   4.619
 8820SOL    HW127359   3.110   0.363   4.643
 8820SOL    HW227360   3.241   0.331   4.551
 8821SOL     OW27361   0.576   4.026   6.976
 8821SOL    HW127362   0.595   4.010   0.051
 8821SOL    HW227363   0.504   4.095   6.967
 8822SOL     OW27364   6.730   6.864   3.976
 8822SOL    HW127365   6.754   6.949   3.929
 8822SOL    HW227366   6.812   6.809   3.990
 8823SOL     OW27367   4.055   0.897   2.604
 8823SOL    HW127368   4.033   0.944   2.690
 8823SOL    HW227369   4.151   0.912   2.581
 8824SOL     OW27370   2.135   1.015   2.059
 8824SOL    HW127371   2.233   1.016   2.036
 8824SOL    HW227372   2.081   1.019   1.975
 8825SOL     OW27373   0.176   6.159   0.102
 8825SOL    HW127374   0.076   6.160   0.099
 8825SOL    HW227375   0.208   6.065   0.085
 8826SOL     OW27376   1.211   3.410   0.481
 8826SOL    HW127377   1.195   3.414   0.382
 8826SOL    HW227378   1.252   3.321   0.504
 8827SOL     OW27379   3.944   6.575   2.136
 8827SOL    HW127380   3.944   6.638   2.214
 8827SOL    HW227381   4.003   6.497   2.156
 8828SOL     OW27382   3.484   3.477   6.127
 8828SOL    HW127383   3.441   3.394   6.162
 8828SOL    HW227384   3.420   3.554   6.135
 8829SOL     OW27385   0.311   1.539   2.447
 8829SOL    HW127386   0.344   1.621   2.494
 8829SOL    HW227387   0.294   1.467   2.514
 8830SOL     OW27388   2.945   1.656   4.157
 8830SOL    HW127389   2.909   1.607   4.236
 8830SOL    HW227390   2.970   1.749   4.184
 8831SOL     OW27391   0.245   2.741   2.328
 8831SOL    HW127392   0.201   2.711   2.244
 8831SOL    HW227393   0.340   2.709   2.330
 8832SOL     OW27394   6.401   0.637   4.325
 8832SOL    HW127395   6.367   0.578   4.398
 8832SOL    HW227396   6.500   0.625   4.316
 8833SOL     OW27397   3.294   2.829   0.948
 8833SOL    HW127398   3.372   2.850   0.889
 8833SOL    HW227399   3.209   2.846   0.898
 8834SOL     OW27400   4.855   3.196   5.750
 8834SOL    HW127401   4.904   3.145   5.820
 8834SOL    HW227402   4.757   3.173   5.754
 8835SOL     OW27403   6.343   0.956   5.792
 8835SOL    HW127404   6.357   0.888   5.720
 8835SOL    HW227405   6.406   0.938   5.867
 8836SOL     OW27406   4.443   1.972   0.970
 8836SOL    HW127407   4.375   2.045   0.968
 8836SOL    HW227408   4.521   2.001   1.026
 8837SOL     OW27409   5.370   0.003   1.189
 8837SOL    HW127410   5.277   6.991   1.204
 8837SOL    HW227411   5.391   7.019   1.091
 8838SOL     OW27412   0.474   4.110   2.733
 8838SOL    HW127413   0.536   4.035   2.713
 8838SOL    HW227414   0.525   4.186   2.772
 8839SOL     OW27415   4.772   5.698   3.253
 8839SOL    HW127416   4.703   5.747   3.200
 8839SOL    HW227417   4.786   5.607   3.215
 8840SOL     OW27418   6.913   1.076   1.073
 8840SOL    HW127419   6.823   1.036   1.054
 8840SOL    HW227420   6.983   1.018   1.032
 8841SOL     OW27421   3.266   1.171   1.385
 8841SOL    HW127422   3.177   1.147   1.347
 8841SOL    HW227423   3.304   1.249   1.334
 8842SOL     OW27424   3.812   3.491   4.312
 8842SOL    HW127425   3.749   3.544   4.255
 8842SOL    HW227426   3.906   3.510   4.284
 8843SOL     OW27427   2.430   4.618   6.538
 8843SOL    HW127428   2.472   4.689   6.483
 8843SOL    HW227429   2.366   4.566   6.482
 8844SOL     OW27430   4.593   1.605   5.363
 8844SOL    HW127431   4.598   1.507   5.346
 8844SOL    HW227432   4.628   1.654   5.283
 8845SOL     OW27433   0.258   4.882   2.155
 8845SOL    HW127434   0.237   4.926   2.242
 8845SOL    HW227435   0.323   4.807   2.170
 8846SOL     OW27436   5.393   4.832   3.567
 8846SOL    HW127437   5.389   4.926   3.533
 8846SOL    HW227438   5.378   4.832   3.666
 8847SOL     OW27439   2.264   2.197   2.950
 8847SOL    HW127440   2.165   2.190   2.942
 8847SOL    HW227441   2.295   2.284   2.914
 8848SOL     OW27442   3.816   2.097   1.189
 8848SOL    HW127443   3.880   2.085   1.113
 8848SOL    HW227444   3.789   2.007   1.224
 8849SOL     OW27445   2.720   5.454   5.084
 8849SOL    HW127446   2.718   5.364   5.127
 8849SOL    HW227447   2.680   5.448   4.993
 8850SOL     OW27448   3.111   1.756   1.768
 8850SOL    HW127449   3.061   1.707   1.838
 8850SOL    HW227450   3.051   1.822   1.723
 8851SOL     OW27451   6.812   5.190   2.746
 8851SOL    HW127452   6.853   5.099   2.749
 8851SOL    HW227453   6.786   5.218   2.839
 8852SOL     OW27454   5.149   2.523   5.518
 8852SOL    HW127455   5.218   2.468   5.471
 8852SOL    HW227456   5.148   2.616   5.480
 8853SOL     OW27457   4.639   0.959   5.600
 8853SOL    HW127458   4.686   0.871   5.588
 8853SOL    HW227459   4.657   1.017   5.521
 8854SOL     OW27460   1.781   1.733   6.441
 8854SOL    HW127461   1.816   1.825   6.419
 8854SOL    HW227462   1.856   1.677   6.476
 8855SOL     OW27463   6.387   5.058   6.334
 8855SOL    HW127464   6.413   5.120   6.408
 8855SOL    HW227465   6.369   4.967   6.371
 8856SOL     OW27466   5.565   0.899   4.453
 8856SOL    HW127467   5.568   0.927   4.357
 8856SOL    HW227468   5.596   0.974   4.511
 8857SOL     OW27469   6.623   2.193   3.743
 8857SOL    HW127470   6.687   2.137   3.691
 8857SOL    HW227471   6.570   2.250   3.680
 8858SOL     OW27472   0.259   3.176   6.543
 8858SOL    HW127473   0.330   3.246   6.542
 8858SOL    HW227474   0.193   3.198   6.615
 8859SOL     OW27475   1.822   5.877   5.892
 8859SOL    HW127476   1.778   5.848   5.977
 8859SOL    HW227477   1.859   5.797   5.845
 8860SOL     OW27478   1.516   1.807   2.757
 8860SOL    HW127479   1.523   1.850   2.667
 8860SOL    HW227480   1.603   1.762   2.779
 8861SOL     OW27481   3.986   3.298   0.013
 8861SOL    HW127482   3.983   3.376   6.973
 8861SOL    HW227483   3.918   3.230   7.005
 8862SOL     OW27484   5.603   1.336   4.317
 8862SOL    HW127485   5.519   1.313   4.269
 8862SOL    HW227486   5.592   1.423   4.365
 8863SOL     OW27487   2.079   5.674   5.464
 8863SOL    HW127488   2.098   5.771   5.447
 8863SOL    HW227489   2.164   5.625   5.482
 8864SOL     OW27490   1.354   2.517   6.843
 8864SOL    HW127491   1.373   2.544   6.749
 8864SOL    HW227492   1.263   2.476   6.849
 8865SOL     OW27493   2.667   2.446   6.303
 8865SOL    HW127494   2.653   2.514   6.231
 8865SOL    HW227495   2.751   2.468   6.353
 8866SOL     OW27496   3.018   6.209   4.582
 8866SOL    HW127497   2.929   6.226   4.541
 8866SOL    HW227498   3.068   6.296   4.591
 8867SOL     OW27499   6.560   2.954   3.413
 8867SOL    HW127500   6.577   2.968   3.510
 8867SOL    HW227501   6.488   2.886   3.400
 8868SOL     OW27502   4.343   4.194   6.862
 8868SOL    HW127503   4.328   4.119   6.798
 8868SOL    HW227504   4.313   4.166   6.954
 8869SOL     OW27505   5.190   2.589   3.809
 8869SOL    HW127506   5.256   2.517   3.828
 8869SOL    HW227507   5.121   2.591   3.881
 8870SOL     OW27508   4.280   1.089   0.675
 8870SOL    HW127509   4.296   1.161   0.743
 8870SOL    HW227510   4.283   1.000   0.720
 8871SOL     OW27511   2.364   2.053   3.484
 8871SOL    HW127512   2.329   2.068   3.391
 8871SOL    HW227513   2.462   2.034   3.478
 8872SOL     OW27514   1.388   3.727   4.150
 8872SOL    HW127515   1.390   3.797   4.078
 8872SOL    HW227516   1.379   3.772   4.239
 8873SOL     OW27517   0.476   5.181   4.486
 8873SOL    HW127518   0.555   5.196   4.545
 8873SOL    HW227519   0.508   5.167   4.392
 8874SOL     OW27520   3.127   0.551   0.953
 8874SOL    HW127521   3.038   0.554   0.909
 8874SOL    HW227522   3.125   0.486   1.028
 8875SOL     OW27523   1.772   2.584   4.362
 8875SOL    HW127524   1.685   2.541   4.389
 8875SOL    HW227525   1.813   2.627   4.442
 8876SOL     OW27526   0.763   0.600   4.942
 8876SOL    HW127527   0.756   0.528   4.873
 8876SOL    HW227528   0.786   0.687   4.898
 8877SOL     OW27529   2.930   0.520   4.650
 8877SOL    HW127530   2.955   0.613   4.678
 8877SOL    HW227531   2.901   0.468   4.730
 8878SOL     OW27532   6.807   4.269   6.571
 8878SOL    HW127533   6.736   4.201   6.556
 8878SOL    HW227534   6.816   4.327   6.490
 8879SOL     OW27535   5.514   6.560   6.242
 8879SOL    HW127536   5.548   6.591   6.331
 8879SOL    HW227537   5.588   6.562   6.175
 8880SOL     OW27538   6.813   4.956   4.938
 8880SOL    HW127539   6.776   4.875   4.982
 8880SOL    HW227540   6.738   5.014   4.905
 8881SOL     OW27541   6.479   1.388   1.130
 8881SOL    HW127542   6.485   1.419   1.035
 8881SOL    HW227543   6.500   1.464   1.192
 8882SOL     OW27544   5.421   1.827   6.480
 8882SOL    HW127545   5.367   1.909   6.501
 8882SOL    HW227546   5.513   1.837   6.518
 8883SOL     OW27547   6.583   0.940   5.543
 8883SOL    HW127548   6.555   0.855   5.586
 8883SOL    HW227549   6.511   1.009   5.555
 8884SOL     OW27550   6.412   0.629   6.125
 8884SOL    HW127551   6.420   0.728   6.131
 8884SOL    HW227552   6.351   0.605   6.050
 8885SOL     OW27553   5.428   3.462   1.899
 8885SOL    HW127554   5.433   3.398   1.822
 8885SOL    HW227555   5.349   3.439   1.956
 8886SOL     OW27556   3.285   6.874   6.009
 8886SOL    HW127557   3.299   6.812   5.932
 8886SOL    HW227558   3.326   6.835   6.091
 8887SOL     OW27559   2.911   1.560   0.972
 8887SOL    HW127560   2.870   1.497   0.906
 8887SOL    HW227561   2.840   1.616   1.014
 8888SOL     OW27562   3.383   1.711   2.276
 8888SOL    HW127563   3.465   1.661   2.248
 8888SOL    HW227564   3.353   1.678   2.365
 8889SOL     OW27565   3.831   6.461   4.632
 8889SOL    HW127566   3.782   6.488   4.549
 8889SOL    HW227567   3.765   6.433   4.702
 8890SOL     OW27568   1.440   5.252   4.621
 8890SOL    HW127569   1.534   5.217   4.624
 8890SOL    HW227570   1.385   5.204   4.690
 8891SOL     OW27571   4.767   2.901   6.437
 8891SOL    HW127572   4.723   2.978   6.392
 8891SOL    HW227573   4.783   2.828   6.370
 8892SOL     OW27574   2.066   6.850   2.831
 8892SOL    HW127575   2.156   6.892   2.843
 8892SOL    HW227576   2.071   6.753   2.856
 8893SOL     OW27577   0.489   1.479   1.210
 8893SOL    HW127578   0.434   1.558   1.185
 8893SOL    HW227579   0.471   1.454   1.305
 8894SOL     OW27580   3.984   3.099   6.696
 8894SOL    HW127581   4.021   3.129   6.609
 8894SOL    HW227582   4.059   3.084   6.761
 8895SOL     OW27583   0.678   6.815   2.061
 8895SOL    HW127584   0.598   6.837   2.005
 8895SOL    HW227585   0.736   6.896   2.069
 8896SOL     OW27586   1.754   4.111   5.105
 8896SOL    HW127587   1.798   4.198   5.084
 8896SOL    HW227588   1.790   4.040   5.044
 8897SOL     OW27589   1.279   2.232   1.525
 8897SOL    HW127590   1.290   2.187   1.614
 8897SOL    HW227591   1.361   2.215   1.469
 8898SOL     OW27592   5.483   3.850   4.287
 8898SOL    HW127593   5.483   3.894   4.377
 8898SOL    HW227594   5.399   3.873   4.238
 8899SOL     OW27595   1.339   4.559   0.378
 8899SOL    HW127596   1.430   4.585   0.408
 8899SOL    HW227597   1.343   4.471   0.330
 8900SOL     OW27598   5.448   2.053   3.525
 8900SOL    HW127599   5.518   2.110   3.568
 8900SOL    HW227600   5.491   1.995   3.455
 8901SOL     OW27601   1.698   0.434   2.699
 8901SOL    HW127602   1.729   0.473   2.613
 8901SOL    HW227603   1.598   0.440   2.704
 8902SOL     OW27604   1.386   5.372   6.766
 8902SOL    HW127605   1.359   5.342   6.675
 8902SOL    HW227606   1.371   5.297   6.831
 8903SOL     OW27607   2.083   1.752   3.442
 8903SOL    HW127608   2.087   1.835   3.497
 8903SOL    HW227609   2.024   1.685   3.487
 8904SOL     OW27610   0.590   6.228   3.486
 8904SOL    HW127611   0.522   6.293   3.520
 8904SOL    HW227612   0.664   6.278   3.440
 8905SOL     OW27613   2.509   3.724   5.337
 8905SOL    HW127614   2.443   3.789   5.301
 8905SOL    HW227615   2.463   3.639   5.363
 8906SOL     OW27616   6.250   6.480   5.601
 8906SOL    HW127617   6.213   6.479   5.694
 8906SOL    HW227618   6.184   6.439   5.538
 8907SOL     OW27619   3.129   2.681   5.704
 8907SOL    HW127620   3.210   2.623   5.710
 8907SOL    HW227621   3.147   2.769   5.747
 8908SOL     OW27622   1.068   2.428   1.697
 8908SOL    HW127623   0.969   2.416   1.698
 8908SOL    HW227624   1.108   2.365   1.630
 8909SOL     OW27625   2.100   0.726   6.742
 8909SOL    HW127626   2.068   0.746   6.835
 8909SOL    HW227627   2.029   0.749   6.676
 8910SOL     OW27628   3.161   3.710   6.692
 8910SOL    HW127629   3.104   3.739   6.769
 8910SOL    HW227630   3.215   3.787   6.660
 8911SOL     OW27631   4.068   2.207   4.158
 8911SOL    HW127632   4.134   2.227   4.084
 8911SOL    HW227633   3.986   2.166   4.119
 8912SOL     OW27634   4.649   2.470   6.290
 8912SOL    HW127635   4.684   2.456   6.383
 8912SOL    HW227636   4.639   2.568   6.272
 8913SOL     OW27637   5.247   4.581   1.344
 8913SOL    HW127638   5.297   4.646   1.400
 8913SOL    HW227639   5.180   4.532   1.400
 8914SOL     OW27640   3.437   1.617   4.736
 8914SOL    HW127641   3.455   1.715   4.740
 8914SOL    HW227642   3.442   1.585   4.641
 8915SOL     OW27643   1.782   3.918   2.166
 8915SOL    HW127644   1.717   3.987   2.198
 8915SOL    HW227645   1.779   3.839   2.228
 8916SOL     OW27646   6.700   3.417   2.735
 8916SOL    HW127647   6.606   3.399   2.708
 8916SOL    HW227648   6.745   3.474   2.665
 8917SOL     OW27649   6.081   6.206   6.893
 8917SOL    HW127650   6.079   6.286   6.834
 8917SOL    HW227651   6.063   6.233   6.987
 8918SOL     OW27652   5.499   5.157   6.395
 8918SOL    HW127653   5.558   5.108   6.458
 8918SOL    HW227654   5.427   5.204   6.446
 8919SOL     OW27655   2.817   5.342   1.094
 8919SOL    HW127656   2.846   5.253   1.131
 8919SOL    HW227657   2.816   5.410   1.167
 8920SOL     OW27658   5.858   6.019   5.151
 8920SOL    HW127659   5.951   6.000   5.183
 8920SOL    HW227660   5.799   5.940   5.170
 8921SOL     OW27661   1.588   0.325   3.814
 8921SOL    HW127662   1.569   0.413   3.773
 8921SOL    HW227663   1.554   0.252   3.754
 8922SOL     OW27664   0.441   4.100   0.306
 8922SOL    HW127665   0.349   4.120   0.340
 8922SOL    HW227666   0.481   4.183   0.268
 8923SOL     OW27667   2.295   4.226   6.341
 8923SOL    HW127668   2.244   4.276   6.270
 8923SOL    HW227669   2.231   4.181   6.403
 8924SOL     OW27670   2.624   5.336   5.751
 8924SOL    HW127671   2.655   5.428   5.776
 8924SOL    HW227672   2.697   5.289   5.701
 8925SOL     OW27673   0.258   0.095   2.094
 8925SOL    HW127674   0.161   0.107   2.115
 8925SOL    HW227675   0.271   0.092   1.995
 8926SOL     OW27676   5.205   2.592   0.872
 8926SOL    HW127677   5.133   2.523   0.886
 8926SOL    HW227678   5.290   2.546   0.845
 8927SOL     OW27679   2.284   2.558   4.751
 8927SOL    HW127680   2.379   2.547   4.779
 8927SOL    HW227681   2.226   2.569   4.832
 8928SOL     OW27682   0.713   6.581   5.645
 8928SOL    HW127683   0.769   6.579   5.563
 8928SOL    HW227684   0.738   6.661   5.700
 8929SOL     OW27685   6.242   3.867   3.539
 8929SOL    HW127686   6.331   3.823   3.549
 8929SOL    HW227687   6.218   3.873   3.442
 8930SOL     OW27688   1.208   5.099   4.713
 8930SOL    HW127689   1.178   5.004   4.728
 8930SOL    HW227690   1.187   5.126   4.619
 8931SOL     OW27691   4.615   1.226   0.530
 8931SOL    HW127692   4.686   1.273   0.477
 8931SOL    HW227693   4.537   1.287   0.543
 8932SOL     OW27694   0.166   0.152   6.542
 8932SOL    HW127695   0.197   0.149   6.447
 8932SOL    HW227696   0.066   0.153   6.545
 8933SOL     OW27697   1.721   0.523   4.893
 8933SOL    HW127698   1.805   0.481   4.860
 8933SOL    HW227699   1.738   0.566   4.982
 8934SOL     OW27700   3.223   5.920   2.635
 8934SOL    HW127701   3.189   6.011   2.613
 8934SOL    HW227702   3.292   5.927   2.707
 8935SOL     OW27703   5.047   2.751   3.104
 8935SOL    HW127704   5.141   2.722   3.084
 8935SOL    HW227705   4.992   2.748   3.021
 8936SOL     OW27706   0.870   5.670   2.178
 8936SOL    HW127707   0.833   5.579   2.200
 8936SOL    HW227708   0.795   5.732   2.156
 8937SOL     OW27709   5.977   7.007   4.111
 8937SOL    HW127710   6.037   0.015   4.186
 8937SOL    HW227711   5.885   0.020   4.126
 8938SOL     OW27712   6.260   1.019   0.759
 8938SOL    HW127713   6.320   0.941   0.739
 8938SOL    HW227714   6.315   1.098   0.783
 8939SOL     OW27715   0.499   2.906   3.675
 8939SOL    HW127716   0.439   2.938   3.602
 8939SOL    HW227717   0.455   2.921   3.764
 8940SOL     OW27718   6.553   2.786   1.257
 8940SOL    HW127719   6.458   2.790   1.226
 8940SOL    HW227720   6.577   2.691   1.279
 8941SOL     OW27721   4.500   2.715   1.328
 8941SOL    HW127722   4.486   2.766   1.243
 8941SOL    HW227723   4.598   2.696   1.339
 8942SOL     OW27724   5.869   4.679   4.289
 8942SOL    HW127725   5.927   4.621   4.346
 8942SOL    HW227726   5.821   4.623   4.221
 8943SOL     OW27727   5.129   3.931   6.881
 8943SOL    HW127728   5.131   4.031   6.883
 8943SOL    HW227729   5.222   3.895   6.894
 8944SOL     OW27730   5.355   5.804   4.628
 8944SOL    HW127731   5.350   5.763   4.719
 8944SOL    HW227732   5.402   5.742   4.566
 8945SOL     OW27733   5.906   4.056   5.430
 8945SOL    HW127734   5.883   3.980   5.492
 8945SOL    HW227735   6.005   4.069   5.429
 8946SOL     OW27736   5.531   0.889   5.042
 8946SOL    HW127737   5.448   0.888   4.987
 8946SOL    HW227738   5.595   0.820   5.007
 8947SOL     OW27739   2.057   5.249   6.936
 8947SOL    HW127740   2.019   5.272   0.004
 8947SOL    HW227741   2.144   5.202   6.948
 8948SOL     OW27742   6.969   0.393   2.921
 8948SOL    HW127743   6.888   0.441   2.953
 8948SOL    HW227744   6.953   0.360   2.828
 8949SOL     OW27745   3.550   6.236   0.651
 8949SOL    HW127746   3.600   6.314   0.613
 8949SOL    HW227747   3.514   6.261   0.741
 8950SOL     OW27748   5.059   4.432   1.101
 8950SOL    HW127749   4.989   4.495   1.135
 8950SOL    HW227750   5.084   4.458   1.008
 8951SOL     OW27751   1.946   1.894   4.666
 8951SOL    HW127752   2.031   1.843   4.674
 8951SOL    HW227753   1.949   1.975   4.725
 8952SOL     OW27754   2.197   4.298   3.892
 8952SOL    HW127755   2.154   4.309   3.982
 8952SOL    HW227756   2.247   4.382   3.869
 8953SOL     OW27757   1.194   4.843   2.031
 8953SOL    HW127758   1.150   4.931   2.013
 8953SOL    HW227759   1.168   4.810   2.121
 8954SOL     OW27760   1.939   5.146   5.297
 8954SOL    HW127761   1.859   5.187   5.253
 8954SOL    HW227762   1.944   5.177   5.392
 8955SOL     OW27763   5.820   2.640   4.184
 8955SOL    HW127764   5.914   2.645   4.220
 8955SOL    HW227765   5.759   2.688   4.247
 8956SOL     OW27766   0.929   5.761   6.319
 8956SOL    HW127767   0.902   5.665   6.321
 8956SOL    HW227768   0.853   5.816   6.285
 8957SOL     OW27769   0.696   6.261   3.140
 8957SOL    HW127770   0.609   6.302   3.168
 8957SOL    HW227771   0.687   6.161   3.139
 8958SOL     OW27772   1.602   3.891   5.524
 8958SOL    HW127773   1.658   3.966   5.489
 8958SOL    HW227774   1.657   3.808   5.530
 8959SOL     OW27775   0.463   3.126   2.820
 8959SOL    HW127776   0.424   3.159   2.906
 8959SOL    HW227777   0.389   3.100   2.757
 8960SOL     OW27778   4.993   4.305   3.541
 8960SOL    HW127779   4.994   4.401   3.569
 8960SOL    HW227780   5.059   4.291   3.468
 8961SOL     OW27781   2.680   6.814   5.524
 8961SOL    HW127782   2.601   6.753   5.519
 8961SOL    HW227783   2.672   6.871   5.606
 8962SOL     OW27784   0.477   5.765   1.921
 8962SOL    HW127785   0.381   5.783   1.941
 8962SOL    HW227786   0.490   5.758   1.822
 8963SOL     OW27787   4.294   6.385   4.453
 8963SOL    HW127788   4.207   6.368   4.499
 8963SOL    HW227789   4.327   6.476   4.478
 8964SOL     OW27790   0.635   3.310   4.238
 8964SOL    HW127791   0.673   3.306   4.146
 8964SOL    HW227792   0.544   3.351   4.235
 8965SOL     OW27793   4.084   5.285   0.623
 8965SOL    HW127794   4.083   5.237   0.535
 8965SOL    HW227795   4.156   5.355   0.622
 8966SOL     OW27796   5.125   4.895   6.190
 8966SOL    HW127797   5.163   4.841   6.265
 8966SOL    HW227798   5.193   4.961   6.159
 8967SOL     OW27799   2.895   0.242   3.922
 8967SOL    HW127800   2.948   0.260   4.006
 8967SOL    HW227801   2.847   0.155   3.931
 8968SOL     OW27802   3.641   5.200   1.817
 8968SOL    HW127803   3.584   5.121   1.796
 8968SOL    HW227804   3.715   5.207   1.750
 8969SOL     OW27805   0.206   1.387   2.646
 8969SOL    HW127806   0.278   1.321   2.624
 8969SOL    HW227807   0.212   1.413   2.742
 8970SOL     OW27808   1.817   0.707   5.108
 8970SOL    HW127809   1.860   0.667   5.189
 8970SOL    HW227810   1.747   0.773   5.137
 8971SOL     OW27811   4.543   5.467   0.647
 8971SOL    HW127812   4.545   5.367   0.642
 8971SOL    HW227813   4.520   5.505   0.557
 8972SOL     OW27814   6.448   4.504   0.496
 8972SOL    HW127815   6.372   4.440   0.494
 8972SOL    HW227816   6.468   4.534   0.402
 8973SOL     OW27817   1.173   3.049   2.857
 8973SOL    HW127818   1.209   3.140   2.836
 8973SOL    HW227819   1.229   2.980   2.811
 8974SOL     OW27820   2.257   4.282   4.830
 8974SOL    HW127821   2.303   4.229   4.901
 8974SOL    HW227822   2.207   4.220   4.770
 8975SOL     OW27823   0.405   6.541   5.852
 8975SOL    HW127824   0.436   6.485   5.929
 8975SOL    HW227825   0.372   6.483   5.779
 8976SOL     OW27826   6.595   6.841   1.598
 8976SOL    HW127827   6.608   6.746   1.569
 8976SOL    HW227828   6.670   6.897   1.562
 8977SOL     OW27829   6.834   5.062   5.894
 8977SOL    HW127830   6.861   5.139   5.953
 8977SOL    HW227831   6.863   5.081   5.800
 8978SOL     OW27832   5.630   5.773   6.423
 8978SOL    HW127833   5.701   5.821   6.475
 8978SOL    HW227834   5.671   5.697   6.374
 8979SOL     OW27835   1.175   5.035   5.807
 8979SOL    HW127836   1.202   5.110   5.868
 8979SOL    HW227837   1.225   4.952   5.833
 8980SOL     OW27838   3.734   0.530   5.315
 8980SOL    HW127839   3.687   0.546   5.401
 8980SOL    HW227840   3.720   0.435   5.286
 8981SOL     OW27841   3.737   2.889   0.283
 8981SOL    HW127842   3.827   2.884   0.241
 8981SOL    HW227843   3.727   2.976   0.330
 8982SOL     OW27844   0.807   1.578   1.474
 8982SOL    HW127845   0.871   1.502   1.465
 8982SOL    HW227846   0.765   1.597   1.385
 8983SOL     OW27847   1.022   7.000   2.177
 8983SOL    HW127848   1.118   0.005   2.191
 8983SOL    HW227849   0.976   6.992   2.266
 8984SOL     OW27850   6.333   0.477   3.720
 8984SOL    HW127851   6.318   0.530   3.804
 8984SOL    HW227852   6.431   0.462   3.708
 8985SOL     OW27853   4.609   2.942   0.648
 8985SOL    HW127854   4.633   2.866   0.709
 8985SOL    HW227855   4.510   2.950   0.643
 8986SOL     OW27856   0.028   5.440   0.074
 8986SOL    HW127857   6.963   5.433   0.123
 8986SOL    HW227858   0.099   5.391   0.124
 8987SOL     OW27859   2.163   0.966   1.571
 8987SOL    HW127860   2.168   0.874   1.611
 8987SOL    HW227861   2.114   1.027   1.633
 8988SOL     OW27862   1.460   5.540   1.923
 8988SOL    HW127863   1.470   5.620   1.982
 8988SOL    HW227864   1.549   5.514   1.885
 8989SOL     OW27865   5.057   1.639   1.772
 8989SOL    HW127866   5.086   1.556   1.725
 8989SOL    HW227867   4.975   1.620   1.825
 8990SOL     OW27868   3.831   0.379   1.669
 8990SOL    HW127869   3.732   0.371   1.679
 8990SOL    HW227870   3.873   0.288   1.669
 8991SOL     OW27871   2.179   2.481   0.285
 8991SOL    HW127872   2.137   2.434   0.363
 8991SOL    HW227873   2.168   2.580   0.296
 8992SOL     OW27874   0.178   3.918   0.470
 8992SOL    HW127875   0.087   3.886   0.443
 8992SOL    HW227876   0.247   3.880   0.409
 8993SOL     OW27877   5.955   3.520   4.308
 8993SOL    HW127878   5.893   3.444   4.289
 8993SOL    HW227879   6.041   3.484   4.345
 8994SOL     OW27880   0.643   5.290   3.279
 8994SOL    HW127881   0.661   5.374   3.330
 8994SOL    HW227882   0.729   5.253   3.243
 8995SOL     OW27883   1.856   3.883   4.955
 8995SOL    HW127884   1.796   3.884   4.874
 8995SOL    HW227885   1.950   3.868   4.926
 8996SOL     OW27886   0.791   4.014   2.175
 8996SOL    HW127887   0.714   4.032   2.236
 8996SOL    HW227888   0.875   4.006   2.228
 8997SOL     OW27889   5.042   1.484   5.353
 8997SOL    HW127890   5.070   1.438   5.269
 8997SOL    HW227891   4.980   1.425   5.404
 8998SOL     OW27892   1.430   3.028   6.553
 8998SOL    HW127893   1.351   3.013   6.493
 8998SOL    HW227894   1.505   3.067   6.500
 8999SOL     OW27895   6.463   1.208   4.058
 8999SOL    HW127896   6.399   1.135   4.038
 8999SOL    HW227897   6.461   1.228   4.156
 9000SOL     OW27898   3.390   3.745   0.567
 9000SOL    HW127899   3.306   3.744   0.621
 9000SOL    HW227900   3.409   3.839   0.537
 9001SOL     OW27901   1.582   4.924   3.230
 9001SOL    HW127902   1.659   4.955   3.287
 9001SOL    HW227903   1.600   4.947   3.135
 9002SOL     OW27904   5.353   4.716   5.396
 9002SOL    HW127905   5.293   4.703   5.475
 9002SOL    HW227906   5.431   4.653   5.403
 9003SOL     OW27907   5.720   2.476   6.430
 9003SOL    HW127908   5.811   2.456   6.467
 9003SOL    HW227909   5.730   2.531   6.347
 9004SOL     OW27910   4.477   6.536   1.188
 9004SOL    HW127911   4.447   6.606   1.253
 9004SOL    HW227912   4.558   6.569   1.139
 9005SOL     OW27913   4.856   1.713   2.877
 9005SOL    HW127914   4.804   1.748   2.954
 9005SOL    HW227915   4.866   1.614   2.885
 9006SOL     OW27916   0.936   5.602   1.258
 9006SOL    HW127917   0.974   5.674   1.316
 9006SOL    HW227918   0.931   5.634   1.164
 9007SOL     OW27919   2.481   7.015   4.198
 9007SOL    HW127920   2.488   6.974   4.289
 9007SOL    HW227921   2.479   0.093   4.207
 9008SOL     OW27922   6.463   4.244   2.169
 9008SOL    HW127923   6.500   4.221   2.258
 9008SOL    HW227924   6.532   4.229   2.098
 9009SOL     OW27925   3.346   6.549   0.820
 9009SOL    HW127926   3.372   6.461   0.859
 9009SOL    HW227927   3.252   6.571   0.846
 9010SOL     OW27928   1.030   6.298   5.171
 9010SOL    HW127929   0.956   6.233   5.153
 9010SOL    HW227930   1.062   6.287   5.265
 9011SOL     OW27931   4.669   2.271   1.287
 9011SOL    HW127932   4.670   2.233   1.380
 9011SOL    HW227933   4.604   2.219   1.231
 9012SOL     OW27934   6.976   5.422   1.644
 9012SOL    HW127935   0.042   5.398   1.687
 9012SOL    HW227936   6.911   5.450   1.715
 9013SOL     OW27937   5.927   5.696   3.420
 9013SOL    HW127938   5.865   5.765   3.458
 9013SOL    HW227939   6.021   5.731   3.424
 9014SOL     OW27940   3.257   0.881   1.238
 9014SOL    HW127941   3.163   0.854   1.259
 9014SOL    HW227942   3.320   0.806   1.262
 9015SOL     OW27943   0.358   0.970   5.652
 9015SOL    HW127944   0.378   1.029   5.730
 9015SOL    HW227945   0.267   0.990   5.616
 9016SOL     OW27946   6.183   6.003   6.200
 9016SOL    HW127947   6.221   5.921   6.243
 9016SOL    HW227948   6.154   5.981   6.107
 9017SOL     OW27949   6.745   2.748   3.314
 9017SOL    HW127950   6.698   2.833   3.337
 9017SOL    HW227951   6.784   2.756   3.222
 9018SOL     OW27952   3.637   2.448   5.387
 9018SOL    HW127953   3.665   2.385   5.315
 9018SOL    HW227954   3.551   2.492   5.361
 9019SOL     OW27955   2.423   6.884   0.920
 9019SOL    HW127956   2.498   6.934   0.875
 9019SOL    HW227957   2.461   6.813   0.979
 9020SOL     OW27958   0.475   4.896   3.126
 9020SOL    HW127959   0.543   4.828   3.151
 9020SOL    HW227960   0.520   4.984   3.110
 9021SOL     OW27961   6.841   5.565   5.028
 9021SOL    HW127962   6.820   5.647   4.975
 9021SOL    HW227963   6.885   5.591   5.114
 9022SOL     OW27964   3.283   0.840   0.303
 9022SOL    HW127965   3.259   0.798   0.391
 9022SOL    HW227966   3.377   0.875   0.308
 9023SOL     OW27967   3.355   3.380   3.435
 9023SOL    HW127968   3.347   3.333   3.523
 9023SOL    HW227969   3.265   3.409   3.404
 9024SOL     OW27970   1.924   6.759   0.293
 9024SOL    HW127971   2.018   6.751   0.325
 9024SOL    HW227972   1.901   6.856   0.284
 9025SOL     OW27973   6.235   4.615   0.876
 9025SOL    HW127974   6.284   4.528   0.876
 9025SOL    HW227975   6.159   4.610   0.940
 9026SOL     OW27976   3.249   2.805   5.145
 9026SOL    HW127977   3.221   2.810   5.241
 9026SOL    HW227978   3.227   2.714   5.109
 9027SOL     OW27979   1.756   2.960   3.695
 9027SOL    HW127980   1.665   2.966   3.653
 9027SOL    HW227981   1.746   2.961   3.795
 9028SOL     OW27982   2.974   4.908   4.928
 9028SOL    HW127983   2.885   4.865   4.917
 9028SOL    HW227984   3.014   4.879   5.015
 9029SOL     OW27985   5.139   6.039   3.184
 9029SOL    HW127986   5.165   6.120   3.132
 9029SOL    HW227987   5.041   6.022   3.172
 9030SOL     OW27988   2.812   1.024   2.092
 9030SOL    HW127989   2.759   1.025   2.007
 9030SOL    HW227990   2.874   0.946   2.091
 9031SOL     OW27991   2.701   6.392   6.304
 9031SOL    HW127992   2.724   6.339   6.386
 9031SOL    HW227993   2.605   6.420   6.308
 9032SOL     OW27994   2.111   1.681   1.834
 9032SOL    HW127995   2.100   1.778   1.812
 9032SOL    HW227996   2.182   1.670   1.904
 9033SOL     OW27997   1.579   4.098   2.574
 9033SOL    HW127998   1.576   4.006   2.612
 9033SOL    HW227999   1.670   4.138   2.589
 9034SOL     OW28000   3.258   6.247   6.101
 9034SOL    HW128001   3.282   6.155   6.132
 9034SOL    HW228002   3.161   6.249   6.074
 9035SOL     OW28003   6.958   1.352   4.371
 9035SOL    HW128004   6.915   1.264   4.393
 9035SOL    HW228005   6.916   1.424   4.426
 9036SOL     OW28006   1.243   2.111   5.567
 9036SOL    HW128007   1.192   2.068   5.641
 9036SOL    HW228008   1.329   2.062   5.553
 9037SOL     OW28009   2.079   4.148   6.500
 9037SOL    HW128010   2.003   4.186   6.447
 9037SOL    HW228011   2.097   4.208   6.578
 9038SOL     OW28012   4.746   6.121   5.447
 9038SOL    HW128013   4.790   6.187   5.386
 9038SOL    HW228014   4.743   6.159   5.539
 9039SOL     OW28015   2.087   5.595   5.898
 9039SOL    HW128016   2.107   5.683   5.853
 9039SOL    HW228017   2.064   5.527   5.829
 9040SOL     OW28018   1.978   1.664   2.689
 9040SOL    HW128019   1.895   1.610   2.679
 9040SOL    HW228020   2.029   1.665   2.603
 9041SOL     OW28021   2.139   3.097   0.346
 9041SOL    HW128022   2.209   3.045   0.298
 9041SOL    HW228023   2.134   3.189   0.309
 9042SOL     OW28024   2.723   4.698   4.090
 9042SOL    HW128025   2.814   4.733   4.111
 9042SOL    HW228026   2.681   4.661   4.172
 9043SOL     OW28027   0.212   2.154   5.730
 9043SOL    HW128028   0.272   2.075   5.720
 9043SOL    HW228029   0.253   2.218   5.796
 9044SOL     OW28030   6.074   6.225   0.343
 9044SOL    HW128031   6.137   6.233   0.421
 9044SOL    HW228032   6.001   6.292   0.353
 9045SOL     OW28033   2.989   6.836   3.704
 9045SOL    HW128034   3.055   6.811   3.633
 9045SOL    HW228035   3.035   6.892   3.774
 9046SOL     OW28036   3.319   4.014   4.667
 9046SOL    HW128037   3.348   4.082   4.734
 9046SOL    HW228038   3.231   3.975   4.695
 9047SOL     OW28039   1.184   4.670   4.563
 9047SOL    HW128040   1.132   4.744   4.606
 9047SOL    HW228041   1.191   4.593   4.626
 9048SOL     OW28042   0.501   3.525   4.522
 9048SOL    HW128043   0.518   3.609   4.573
 9048SOL    HW228044   0.447   3.546   4.441
 9049SOL     OW28045   5.020   5.291   6.630
 9049SOL    HW128046   5.119   5.293   6.641
 9049SOL    HW228047   4.989   5.197   6.619
 9050SOL     OW28048   6.981   5.262   6.019
 9050SOL    HW128049   0.031   5.277   6.087
 9050SOL    HW228050   7.021   5.254   5.928
 9051SOL     OW28051   5.302   6.254   6.652
 9051SOL    HW128052   5.396   6.270   6.683
 9051SOL    HW228053   5.260   6.342   6.627
 9052SOL     OW28054   2.189   5.303   4.868
 9052SOL    HW128055   2.161   5.352   4.951
 9052SOL    HW228056   2.113   5.303   4.803
 9053SOL     OW28057   2.833   2.292   3.923
 9053SOL    HW128058   2.891   2.342   3.987
 9053SOL    HW228059   2.801   2.207   3.967
 9054SOL     OW28060   2.910   0.446   1.159
 9054SOL    HW128061   2.959   0.455   1.246
 9054SOL    HW228062   2.900   0.350   1.135
 9055SOL     OW28063   1.223   2.995   3.990
 9055SOL    HW128064   1.314   2.998   3.949
 9055SOL    HW228065   1.184   2.904   3.979
 9056SOL     OW28066   5.464   0.266   3.134
 9056SOL    HW128067   5.464   0.335   3.061
 9056SOL    HW228068   5.389   0.202   3.118
 9057SOL     OW28069   5.435   5.472   6.065
 9057SOL    HW128070   5.378   5.480   6.147
 9057SOL    HW228071   5.472   5.380   6.059
 9058SOL     OW28072   1.472   3.011   4.768
 9058SOL    HW128073   1.463   2.926   4.820
 9058SOL    HW228074   1.381   3.043   4.742
 9059SOL     OW28075   0.109   1.808   2.838
 9059SOL    HW128076   0.046   1.777   2.767
 9059SOL    HW228077   0.057   1.839   2.917
 9060SOL     OW28078   0.520   4.074   1.294
 9060SOL    HW128079   0.550   3.979   1.291
 9060SOL    HW228080   0.600   4.134   1.288
 9061SOL     OW28081   5.399   4.880   1.952
 9061SOL    HW128082   5.322   4.865   1.890
 9061SOL    HW228083   5.465   4.941   1.909
 9062SOL     OW28084   0.659   5.503   3.585
 9062SOL    HW128085   0.561   5.521   3.597
 9062SOL    HW228086   0.686   5.528   3.492
 9063SOL     OW28087   3.819   0.967   2.371
 9063SOL    HW128088   3.724   0.949   2.343
 9063SOL    HW228089   3.819   1.040   2.440
 9064SOL     OW28090   0.641   4.796   3.448
 9064SOL    HW128091   0.653   4.745   3.363
 9064SOL    HW228092   0.618   4.732   3.522
 9065SOL     OW28093   2.325   5.056   5.781
 9065SOL    HW128094   2.367   4.971   5.751
 9065SOL    HW228095   2.342   5.070   5.878
 9066SOL     OW28096   5.439   5.050   5.467
 9066SOL    HW128097   5.379   5.043   5.387
 9066SOL    HW228098   5.425   4.970   5.526
 9067SOL     OW28099   0.108   0.482   4.472
 9067SOL    HW128100   0.168   0.461   4.395
 9067SOL    HW228101   0.154   0.546   4.534
 9068SOL     OW28102   4.775   6.637   4.616
 9068SOL    HW128103   4.771   6.551   4.566
 9068SOL    HW228104   4.861   6.642   4.666
 9069SOL     OW28105   4.889   1.842   2.042
 9069SOL    HW128106   4.799   1.877   2.013
 9069SOL    HW228107   4.880   1.746   2.069
 9070SOL     OW28108   1.642   1.815   5.717
 9070SOL    HW128109   1.690   1.811   5.805
 9070SOL    HW228110   1.687   1.882   5.658
 9071SOL     OW28111   5.226   1.529   5.543
 9071SOL    HW128112   5.163   1.531   5.466
 9071SOL    HW228113   5.177   1.549   5.628
 9072SOL     OW28114   4.836   1.086   3.123
 9072SOL    HW128115   4.928   1.051   3.138
 9072SOL    HW228116   4.827   1.176   3.167
 9073SOL     OW28117   4.379   0.851   6.516
 9073SOL    HW128118   4.447   0.840   6.588
 9073SOL    HW228119   4.426   0.872   6.430
 9074SOL     OW28120   1.619   0.055   1.798
 9074SOL    HW128121   1.644   0.131   1.859
 9074SOL    HW228122   1.701   0.003   1.775
 9075SOL     OW28123   6.467   0.211   1.464
 9075SOL    HW128124   6.554   0.255   1.487
 9075SOL    HW228125   6.414   0.272   1.405
 9076SOL     OW28126   6.801   0.316   2.166
 9076SOL    HW128127   6.710   0.318   2.207
 9076SOL    HW228128   6.826   0.408   2.136
 9077SOL     OW28129   6.477   1.389   6.193
 9077SOL    HW128130   6.382   1.399   6.222
 9077SOL    HW228131   6.487   1.426   6.100
 9078SOL     OW28132   5.559   5.839   6.742
 9078SOL    HW128133   5.616   5.868   6.818
 9078SOL    HW228134   5.470   5.885   6.748
 9079SOL     OW28135   1.109   0.406   6.449
 9079SOL    HW128136   1.175   0.454   6.506
 9079SOL    HW228137   1.028   0.382   6.503
 9080SOL     OW28138   6.282   3.676   1.071
 9080SOL    HW128139   6.338   3.617   1.013
 9080SOL    HW228140   6.187   3.643   1.070
 9081SOL     OW28141   3.923   2.018   0.593
 9081SOL    HW128142   3.849   2.044   0.655
 9081SOL    HW228143   3.886   1.960   0.520
 9082SOL     OW28144   2.940   5.700   5.737
 9082SOL    HW128145   2.999   5.646   5.678
 9082SOL    HW228146   2.973   5.794   5.741
 9083SOL     OW28147   4.776   4.834   6.858
 9083SOL    HW128148   4.742   4.750   6.816
 9083SOL    HW228149   4.700   4.899   6.868
 9084SOL     OW28150   1.013   2.749   5.653
 9084SOL    HW128151   0.947   2.798   5.596
 9084SOL    HW228152   1.034   2.804   5.734
 9085SOL     OW28153   2.443   5.263   6.850
 9085SOL    HW128154   2.347   5.252   6.875
 9085SOL    HW228155   2.473   5.355   6.873
 9086SOL     OW28156   6.765   4.136   0.447
 9086SOL    HW128157   6.837   4.071   0.472
 9086SOL    HW228158   6.702   4.146   0.524
 9087SOL     OW28159   5.817   1.322   1.579
 9087SOL    HW128160   5.908   1.335   1.541
 9087SOL    HW228161   5.748   1.347   1.511
 9088SOL     OW28162   6.481   0.482   0.608
 9088SOL    HW128163   6.463   0.467   0.511
 9088SOL    HW228164   6.415   0.431   0.663
 9089SOL     OW28165   4.490   5.994   4.043
 9089SOL    HW128166   4.445   5.955   3.963
 9089SOL    HW228167   4.570   6.046   4.013
 9090SOL     OW28168   5.779   6.304   4.756
 9090SOL    HW128169   5.773   6.353   4.843
 9090SOL    HW228170   5.791   6.370   4.682
 9091SOL     OW28171   2.687   1.779   0.967
 9091SOL    HW128172   2.595   1.759   0.931
 9091SOL    HW228173   2.741   1.825   0.897
 9092SOL     OW28174   1.404   6.482   5.716
 9092SOL    HW128175   1.481   6.531   5.757
 9092SOL    HW228176   1.370   6.533   5.637
 9093SOL     OW28177   1.412   5.278   0.661
 9093SOL    HW128178   1.414   5.248   0.566
 9093SOL    HW228179   1.436   5.374   0.667
 9094SOL     OW28180   0.038   5.974   1.955
 9094SOL    HW128181   0.041   6.057   2.010
 9094SOL    HW228182   0.104   5.980   1.880
 9095SOL     OW28183   4.024   3.608   6.474
 9095SOL    HW128184   4.062   3.697   6.451
 9095SOL    HW228185   3.952   3.584   6.409
 9096SOL     OW28186   6.002   2.572   2.853
 9096SOL    HW128187   5.907   2.543   2.865
 9096SOL    HW228188   6.005   2.671   2.838
 9097SOL     OW28189   1.204   3.786   6.676
 9097SOL    HW128190   1.183   3.880   6.703
 9097SOL    HW228191   1.299   3.765   6.700
 9098SOL     OW28192   3.604   4.070   2.077
 9098SOL    HW128193   3.650   3.993   2.121
 9098SOL    HW228194   3.578   4.046   1.984
 9099SOL     OW28195   2.595   3.396   1.439
 9099SOL    HW128196   2.612   3.414   1.536
 9099SOL    HW228197   2.577   3.299   1.425
 9100SOL     OW28198   0.367   3.097   0.883
 9100SOL    HW128199   0.276   3.065   0.859
 9100SOL    HW228200   0.405   3.151   0.808
 9101SOL     OW28201   1.555   2.524   2.448
 9101SOL    HW128202   1.476   2.531   2.509
 9101SOL    HW228203   1.636   2.499   2.501
 9102SOL     OW28204   3.896   5.515   1.569
 9102SOL    HW128205   3.878   5.612   1.588
 9102SOL    HW228206   3.928   5.470   1.653
 9103SOL     OW28207   6.684   3.872   0.675
 9103SOL    HW128208   6.615   3.929   0.630
 9103SOL    HW228209   6.640   3.791   0.713
 9104SOL     OW28210   4.613   6.216   1.393
 9104SOL    HW128211   4.695   6.193   1.445
 9104SOL    HW228212   4.567   6.132   1.363
 9105SOL     OW28213   1.709   0.891   6.350
 9105SOL    HW128214   1.610   0.889   6.362
 9105SOL    HW228215   1.752   0.922   6.435
 9106SOL     OW28216   5.812   5.244   6.887
 9106SOL    HW128217   5.804   5.148   6.861
 9106SOL    HW228218   5.807   5.253   6.987
 9107SOL     OW28219   3.687   6.971   0.616
 9107SOL    HW128220   3.617   6.900   0.615
 9107SOL    HW228221   3.743   6.963   0.533
 9108SOL     OW28222   4.728   4.451   5.593
 9108SOL    HW128223   4.731   4.514   5.670
 9108SOL    HW228224   4.754   4.500   5.509
 9109SOL     OW28225   2.584   2.491   3.493
 9109SOL    HW128226   2.541   2.459   3.408
 9109SOL    HW228227   2.661   2.432   3.516
 9110SOL     OW28228   1.963   4.857   3.761
 9110SOL    HW128229   2.022   4.839   3.840
 9110SOL    HW228230   1.927   4.950   3.767
 9111SOL     OW28231   3.944   4.210   1.411
 9111SOL    HW128232   4.014   4.168   1.353
 9111SOL    HW228233   3.868   4.147   1.424
 9112SOL     OW28234   1.011   4.506   2.487
 9112SOL    HW128235   0.945   4.461   2.547
 9112SOL    HW228236   0.967   4.582   2.440
 9113SOL     OW28237   5.119   0.664   0.523
 9113SOL    HW128238   5.195   0.643   0.461
 9113SOL    HW228239   5.034   0.670   0.470
 9114SOL     OW28240   2.315   4.344   2.171
 9114SOL    HW128241   2.338   4.248   2.155
 9114SOL    HW228242   2.217   4.358   2.155
 9115SOL     OW28243   1.386   4.951   4.084
 9115SOL    HW128244   1.408   4.859   4.052
 9115SOL    HW228245   1.424   5.018   4.021
 9116SOL     OW28246   6.284   1.741   6.900
 9116SOL    HW128247   6.344   1.770   6.825
 9116SOL    HW228248   6.324   1.771   6.987
 9117SOL     OW28249   6.164   2.739   6.147
 9117SOL    HW128250   6.259   2.749   6.176
 9117SOL    HW228251   6.104   2.783   6.215
 9118SOL     OW28252   6.157   0.014   0.944
 9118SOL    HW128253   6.232   6.988   0.899
 9118SOL    HW228254   6.130   0.093   0.889
 9119SOL     OW28255   5.760   0.743   1.892
 9119SOL    HW128256   5.828   0.796   1.841
 9119SOL    HW228257   5.791   0.648   1.900
 9120SOL     OW28258   5.801   1.928   5.812
 9120SOL    HW128259   5.781   1.845   5.863
 9120SOL    HW228260   5.740   2.001   5.842
 9121SOL     OW28261   0.535   2.924   5.169
 9121SOL    HW128262   0.629   2.953   5.183
 9121SOL    HW228263   0.511   2.853   5.236
 9122SOL     OW28264   1.648   2.994   2.508
 9122SOL    HW128265   1.718   2.943   2.558
 9122SOL    HW228266   1.581   3.030   2.573
 9123SOL     OW28267   2.769   6.451   5.273
 9123SOL    HW128268   2.680   6.476   5.310
 9123SOL    HW228269   2.759   6.370   5.215
 9124SOL     OW28270   6.549   5.868   5.343
 9124SOL    HW128271   6.602   5.944   5.305
 9124SOL    HW228272   6.502   5.820   5.270
 9125SOL     OW28273   4.716   4.167   3.472
 9125SOL    HW128274   4.668   4.225   3.406
 9125SOL    HW228275   4.808   4.201   3.487
 9126SOL     OW28276   6.376   0.957   1.446
 9126SOL    HW128277   6.397   1.055   1.456
 9126SOL    HW228278   6.403   0.927   1.355
 9127SOL     OW28279   5.821   0.010   6.112
 9127SOL    HW128280   5.723   0.018   6.093
 9127SOL    HW228281   5.847   0.078   6.181
 9128SOL     OW28282   4.145   1.302   5.246
 9128SOL    HW128283   4.199   1.344   5.173
 9128SOL    HW228284   4.068   1.251   5.206
 9129SOL     OW28285   1.763   3.120   6.804
 9129SOL    HW128286   1.841   3.066   6.833
 9129SOL    HW228287   1.697   3.128   6.879
 9130SOL     OW28288   0.003   4.365   6.940
 9130SOL    HW128289   6.927   4.377   6.920
 9130SOL    HW228290   0.027   4.416   0.001
 9131SOL     OW28291   0.259   4.584   5.091
 9131SOL    HW128292   0.259   4.603   5.189
 9131SOL    HW228293   0.205   4.502   5.073
 9132SOL     OW28294   6.752   4.354   3.994
 9132SOL    HW128295   6.790   4.443   4.020
 9132SOL    HW228296   6.803   4.317   3.917
 9133SOL     OW28297   2.437   4.638   0.516
 9133SOL    HW128298   2.494   4.556   0.510
 9133SOL    HW228299   2.427   4.666   0.611
 9134SOL     OW28300   3.698   6.271   0.363
 9134SOL    HW128301   3.749   6.198   0.318
 9134SOL    HW228302   3.601   6.248   0.366
 9135SOL     OW28303   0.162   6.866   2.037
 9135SOL    HW128304   0.202   6.945   2.083
 9135SOL    HW228305   0.064   6.882   2.022
 9136SOL     OW28306   5.279   5.097   6.030
 9136SOL    HW128307   5.367   5.139   6.052
 9136SOL    HW228308   5.228   5.157   5.968
 9137SOL     OW28309   5.269   1.177   0.891
 9137SOL    HW128310   5.337   1.207   0.824
 9137SOL    HW228311   5.275   1.078   0.903
 9138SOL     OW28312   6.069   5.257   6.081
 9138SOL    HW128313   6.131   5.180   6.070
 9138SOL    HW228314   6.105   5.319   6.150
 9139SOL     OW28315   2.833   1.415   5.745
 9139SOL    HW128316   2.919   1.464   5.728
 9139SOL    HW228317   2.756   1.478   5.735
 9140SOL     OW28318   6.678   2.329   3.014
 9140SOL    HW128319   6.589   2.316   2.969
 9140SOL    HW228320   6.665   2.374   3.102
 9141SOL     OW28321   5.170   6.783   6.673
 9141SOL    HW128322   5.244   6.828   6.623
 9141SOL    HW228323   5.189   6.685   6.679
 9142SOL     OW28324   0.269   2.885   5.108
 9142SOL    HW128325   0.360   2.848   5.129
 9142SOL    HW228326   0.207   2.811   5.087
 9143SOL     OW28327   4.654   3.833   7.007
 9143SOL    HW128328   4.637   3.904   0.054
 9143SOL    HW228329   4.708   3.871   6.932
 9144SOL     OW28330   2.122   6.260   6.651
 9144SOL    HW128331   2.172   6.346   6.639
 9144SOL    HW228332   2.111   6.242   6.749
 9145SOL     OW28333   0.226   5.358   0.703
 9145SOL    HW128334   0.230   5.305   0.788
 9145SOL    HW228335   0.255   5.452   0.722
 9146SOL     OW28336   4.914   2.293   1.188
 9146SOL    HW128337   4.976   2.320   1.262
 9146SOL    HW228338   4.829   2.259   1.227
 9147SOL     OW28339   5.492   6.494   4.278
 9147SOL    HW128340   5.440   6.465   4.358
 9147SOL    HW228341   5.562   6.560   4.305
 9148SOL     OW28342   6.049   6.604   2.046
 9148SOL    HW128343   6.071   6.555   1.962
 9148SOL    HW228344   5.949   6.603   2.059
 9149SOL     OW28345   4.872   2.801   3.990
 9149SOL    HW128346   4.882   2.893   3.953
 9149SOL    HW228347   4.869   2.734   3.915
 9150SOL     OW28348   3.933   6.136   3.343
 9150SOL    HW128349   3.983   6.171   3.263
 9150SOL    HW228350   3.890   6.049   3.319
 9151SOL     OW28351   1.452   3.851   2.298
 9151SOL    HW128352   1.488   3.941   2.324
 9151SOL    HW228353   1.526   3.784   2.298
 9152SOL     OW28354   2.294   6.050   4.044
 9152SOL    HW128355   2.211   6.030   3.993
 9152SOL    HW228356   2.278   6.128   4.104
 9153SOL     OW28357   1.793   3.022   0.393
 9153SOL    HW128358   1.765   2.976   0.478
 9153SOL    HW228359   1.835   2.955   0.332
 9154SOL     OW28360   2.663   5.692   6.548
 9154SOL    HW128361   2.579   5.687   6.495
 9154SOL    HW228362   2.716   5.773   6.521
 9155SOL     OW28363   2.418   3.502   0.340
 9155SOL    HW128364   2.493   3.565   0.319
 9155SOL    HW228365   2.418   3.427   0.274
 9156SOL     OW28366   3.261   3.205   1.593
 9156SOL    HW128367   3.302   3.115   1.578
 9156SOL    HW228368   3.315   3.274   1.544
 9157SOL     OW28369   5.837   4.955   5.185
 9157SOL    HW128370   5.789   4.983   5.268
 9157SOL    HW228371   5.898   4.878   5.205
 9158SOL     OW28372   6.454   3.290   4.381
 9158SOL    HW128373   6.443   3.296   4.480
 9158SOL    HW228374   6.551   3.290   4.358
 9159SOL     OW28375   7.000   5.983   3.237
 9159SOL    HW128376   0.027   6.040   3.302
 9159SOL    HW228377   0.000   5.887   3.254
 9160SOL     OW28378   6.732   6.979   4.962
 9160SOL    HW128379   6.794   6.951   5.035
 9160SOL    HW228380   6.782   6.985   4.876
 9161SOL     OW28381   4.897   3.884   4.588
 9161SOL    HW128382   4.937   3.827   4.659
 9161SOL    HW228383   4.938   3.860   4.500
 9162SOL     OW28384   5.051   2.433   3.352
 9162SOL    HW128385   5.106   2.498   3.298
 9162SOL    HW228386   4.992   2.380   3.291
 9163SOL     OW28387   2.151   3.381   3.700
 9163SOL    HW128388   2.142   3.426   3.789
 9163SOL    HW228389   2.227   3.316   3.703
 9164SOL     OW28390   2.731   0.781   6.723
 9164SOL    HW128391   2.632   0.768   6.727
 9164SOL    HW228392   2.760   0.837   6.800
 9165SOL     OW28393   6.187   1.347   6.500
 9165SOL    HW128394   6.264   1.373   6.558
 9165SOL    HW228395   6.205   1.375   6.406
 9166SOL     OW28396   4.747   6.483   1.056
 9166SOL    HW128397   4.807   6.540   0.999
 9166SOL    HW228398   4.794   6.461   1.141
 9167SOL     OW28399   1.623   3.368   6.164
 9167SOL    HW128400   1.721   3.380   6.182
 9167SOL    HW228401   1.572   3.375   6.250
 9168SOL     OW28402   1.623   6.370   5.528
 9168SOL    HW128403   1.596   6.389   5.433
 9168SOL    HW228404   1.616   6.453   5.582
 9169SOL     OW28405   6.649   0.972   4.812
 9169SOL    HW128406   6.723   1.037   4.791
 9169SOL    HW228407   6.689   0.882   4.829
 9170SOL     OW28408   0.149   5.192   6.789
 9170SOL    HW128409   0.081   5.186   6.862
 9170SOL    HW228410   0.224   5.251   6.818
 9171SOL     OW28411   3.339   5.603   0.357
 9171SOL    HW128412   3.386   5.546   0.424
 9171SOL    HW228413   3.303   5.546   0.283
 9172SOL     OW28414   3.473   0.778   4.858
 9172SOL    HW128415   3.533   0.701   4.882
 9172SOL    HW228416   3.525   0.863   4.863
 9173SOL     OW28417   5.581   4.412   4.711
 9173SOL    HW128418   5.667   4.370   4.741
 9173SOL    HW228419   5.553   4.481   4.778
 9174SOL     OW28420   6.187   4.093   0.456
 9174SOL    HW128421   6.200   4.058   0.548
 9174SOL    HW228422   6.204   4.020   0.390
 9175SOL     OW28423   1.773   6.373   4.696
 9175SOL    HW128424   1.691   6.339   4.649
 9175SOL    HW228425   1.821   6.297   4.739
 9176SOL     OW28426   2.652   1.160   5.984
 9176SOL    HW128427   2.692   1.251   5.999
 9176SOL    HW228428   2.716   1.105   5.929
 9177SOL     OW28429   1.548   5.239   4.235
 9177SOL    HW128430   1.587   5.331   4.243
 9177SOL    HW228431   1.453   5.240   4.263
 9178SOL     OW28432   2.199   5.334   0.816
 9178SOL    HW128433   2.214   5.244   0.856
 9178SOL    HW228434   2.283   5.388   0.823
 9179SOL     OW28435   2.369   5.778   4.057
 9179SOL    HW128436   2.342   5.868   4.023
 9179SOL    HW228437   2.417   5.789   4.144
 9180SOL     OW28438   6.158   2.268   3.480
 9180SOL    HW128439   6.138   2.275   3.578
 9180SOL    HW228440   6.177   2.173   3.456
 9181SOL     OW28441   4.488   2.300   3.221
 9181SOL    HW128442   4.458   2.363   3.150
 9181SOL    HW228443   4.538   2.351   3.292
 9182SOL     OW28444   2.885   0.073   2.589
 9182SOL    HW128445   2.808   0.087   2.651
 9182SOL    HW228446   2.958   0.137   2.612
 9183SOL     OW28447   5.456   6.098   0.411
 9183SOL    HW128448   5.511   6.049   0.479
 9183SOL    HW228449   5.386   6.038   0.374
 9184SOL     OW28450   4.982   1.558   0.260
 9184SOL    HW128451   4.936   1.627   0.205
 9184SOL    HW228452   5.068   1.595   0.295
 9185SOL     OW28453   4.315   6.906   4.630
 9185SOL    HW128454   4.352   6.981   4.684
 9185SOL    HW228455   4.228   6.876   4.670
 9186SOL     OW28456   5.767   0.924   3.782
 9186SOL    HW128457   5.787   0.854   3.713
 9186SOL    HW228458   5.852   0.953   3.826
 9187SOL     OW28459   2.650   0.386   1.501
 9187SOL    HW128460   2.620   0.411   1.593
 9187SOL    HW228461   2.702   0.301   1.505
 9188SOL     OW28462   2.208   6.710   2.275
 9188SOL    HW128463   2.117   6.739   2.306
 9188SOL    HW228464   2.229   6.753   2.187
 9189SOL     OW28465   5.443   6.121   2.238
 9189SOL    HW128466   5.493   6.202   2.269
 9189SOL    HW228467   5.490   6.039   2.269
 9190SOL     OW28468   1.186   4.961   0.400
 9190SOL    HW128469   1.123   5.011   0.341
 9190SOL    HW228470   1.252   4.911   0.345
 9191SOL     OW28471   5.994   0.684   5.910
 9191SOL    HW128472   5.910   0.663   5.960
 9191SOL    HW228473   5.995   0.781   5.887
 9192SOL     OW28474   0.830   3.934   5.483
 9192SOL    HW128475   0.839   3.921   5.385
 9192SOL    HW228476   0.879   3.860   5.531
 9193SOL     OW28477   4.886   4.547   0.213
 9193SOL    HW128478   4.979   4.516   0.194
 9193SOL    HW228479   4.827   4.526   0.134
 9194SOL     OW28480   3.276   0.919   3.301
 9194SOL    HW128481   3.322   0.966   3.377
 9194SOL    HW228482   3.250   0.985   3.231
 9195SOL     OW28483   1.523   2.046   4.291
 9195SOL    HW128484   1.543   1.957   4.332
 9195SOL    HW228485   1.586   2.063   4.215
 9196SOL     OW28486   3.762   0.423   4.601
 9196SOL    HW128487   3.840   0.485   4.606
 9196SOL    HW228488   3.750   0.393   4.506
 9197SOL     OW28489   1.269   4.217   1.467
 9197SOL    HW128490   1.189   4.277   1.471
 9197SOL    HW228491   1.346   4.266   1.425
 9198SOL     OW28492   6.399   5.381   5.459
 9198SOL    HW128493   6.370   5.298   5.507
 9198SOL    HW228494   6.385   5.368   5.360
 9199SOL     OW28495   1.004   3.707   6.270
 9199SOL    HW128496   1.005   3.717   6.171
 9199SOL    HW228497   1.081   3.650   6.298
 9200SOL     OW28498   2.959   0.404   0.733
 9200SOL    HW128499   3.001   0.407   0.643
 9200SOL    HW228500   2.998   0.328   0.786
 9201SOL     OW28501   0.595   2.906   0.620
 9201SOL    HW128502   0.600   2.924   0.718
 9201SOL    HW228503   0.657   2.831   0.597
 9202SOL     OW28504   2.310   0.074   3.326
 9202SOL    HW128505   2.282   7.014   3.275
 9202SOL    HW228506   2.286   0.063   3.422
 9203SOL     OW28507   0.446   5.308   6.557
 9203SOL    HW128508   0.421   5.231   6.499
 9203SOL    HW228509   0.542   5.332   6.542
 9204SOL     OW28510   4.420   2.658   6.923
 9204SOL    HW128511   4.384   2.691   7.010
 9204SOL    HW228512   4.441   2.736   6.863
 9205SOL     OW28513   6.054   4.240   2.646
 9205SOL    HW128514   5.996   4.158   2.651
 9205SOL    HW228515   6.051   4.276   2.552
 9206SOL     OW28516   3.970   5.439   1.273
 9206SOL    HW128517   4.034   5.515   1.268
 9206SOL    HW228518   3.907   5.454   1.349
 9207SOL     OW28519   4.271   4.928   0.320
 9207SOL    HW128520   4.227   4.892   0.237
 9207SOL    HW228521   4.366   4.897   0.322
 9208SOL     OW28522   5.848   4.339   4.341
 9208SOL    HW128523   5.903   4.263   4.305
 9208SOL    HW228524   5.761   4.303   4.376
 9209SOL     OW28525   2.886   0.696   0.092
 9209SOL    HW128526   2.983   0.723   0.093
 9209SOL    HW228527   2.871   0.629   0.020
 9210SOL     OW28528   6.685   1.277   2.626
 9210SOL    HW128529   6.609   1.223   2.663
 9210SOL    HW228530   6.720   1.233   2.543
 9211SOL     OW28531   6.748   2.895   4.347
 9211SOL    HW128532   6.835   2.901   4.299
 9211SOL    HW228533   6.729   2.799   4.370
 9212SOL     OW28534   4.018   5.370   4.403
 9212SOL    HW128535   4.084   5.332   4.338
 9212SOL    HW228536   3.964   5.442   4.358
 9213SOL     OW28537   5.502   3.090   5.220
 9213SOL    HW128538   5.417   3.068   5.269
 9213SOL    HW228539   5.484   3.088   5.122
 9214SOL     OW28540   0.526   5.831   5.603
 9214SOL    HW128541   0.444   5.774   5.597
 9214SOL    HW228542   0.540   5.878   5.516
 9215SOL     OW28543   1.297   2.687   0.263
 9215SOL    HW128544   1.207   2.730   0.274
 9215SOL    HW228545   1.302   2.605   0.320
 9216SOL     OW28546   2.777   0.372   3.033
 9216SOL    HW128547   2.859   0.314   3.033
 9216SOL    HW228548   2.804   0.467   3.047
 9217SOL     OW28549   0.068   0.874   5.743
 9217SOL    HW128550   0.031   0.958   5.781
 9217SOL    HW228551   0.157   0.855   5.784
 9218SOL     OW28552   3.939   6.199   0.680
 9218SOL    HW128553   3.841   6.216   0.669
 9218SOL    HW228554   3.958   6.103   0.660
 9219SOL     OW28555   0.484   2.665   0.027
 9219SOL    HW128556   0.385   2.668   0.008
 9219SOL    HW228557   0.532   2.639   6.965
 9220SOL     OW28558   2.774   6.338   1.348
 9220SOL    HW128559   2.728   6.376   1.429
 9220SOL    HW228560   2.844   6.273   1.377
 9221SOL     OW28561   3.130   0.692   4.138
 9221SOL    HW128562   3.091   0.617   4.193
 9221SOL    HW228563   3.080   0.776   4.158
 9222SOL     OW28564   2.822   0.053   6.863
 9222SOL    HW128565   2.873   0.110   6.928
 9222SOL    HW228566   2.740   0.017   6.908
 9223SOL     OW28567   1.390   1.671   4.941
 9223SOL    HW128568   1.365   1.614   5.019
 9223SOL    HW228569   1.436   1.616   4.872
 9224SOL     OW28570   2.950   5.183   5.003
 9224SOL    HW128571   2.869   5.187   5.061
 9224SOL    HW228572   2.954   5.095   4.956
 9225SOL     OW28573   3.740   6.901   6.034
 9225SOL    HW128574   3.705   6.970   5.970
 9225SOL    HW228575   3.746   6.813   5.987
 9226SOL     OW28576   5.453   6.664   1.740
 9226SOL    HW128577   5.491   6.701   1.825
 9226SOL    HW228578   5.418   6.739   1.683
 9227SOL     OW28579   0.935   5.361   2.816
 9227SOL    HW128580   1.031   5.383   2.800
 9227SOL    HW228581   0.918   5.265   2.791
 9228SOL     OW28582   1.338   0.743   5.979
 9228SOL    HW128583   1.241   0.740   6.004
 9228SOL    HW228584   1.346   0.770   5.883
 9229SOL     OW28585   1.548   5.840   4.541
 9229SOL    HW128586   1.585   5.859   4.450
 9229SOL    HW228587   1.603   5.770   4.585
 9230SOL     OW28588   6.074   0.278   2.558
 9230SOL    HW128589   6.166   0.277   2.598
 9230SOL    HW228590   6.080   0.265   2.460
 9231SOL     OW28591   2.084   3.931   4.170
 9231SOL    HW128592   2.138   3.915   4.253
 9231SOL    HW228593   1.999   3.879   4.175
 9232SOL     OW28594   3.269   5.402   0.778
 9232SOL    HW128595   3.205   5.402   0.855
 9232SOL    HW228596   3.221   5.374   0.695
 9233SOL     OW28597   5.744   4.893   1.479
 9233SOL    HW128598   5.830   4.943   1.467
 9233SOL    HW228599   5.738   4.859   1.573
 9234SOL     OW28600   3.319   5.360   4.295
 9234SOL    HW128601   3.292   5.296   4.222
 9234SOL    HW228602   3.245   5.425   4.311
 9235SOL     OW28603   1.532   2.203   3.471
 9235SOL    HW128604   1.599   2.206   3.397
 9235SOL    HW228605   1.579   2.198   3.559
 9236SOL     OW28606   3.569   4.139   5.373
 9236SOL    HW128607   3.514   4.063   5.339
 9236SOL    HW228608   3.529   4.225   5.342
 9237SOL     OW28609   2.090   4.435   5.009
 9237SOL    HW128610   2.146   4.393   4.938
 9237SOL    HW228611   2.114   4.532   5.017
 9238SOL     OW28612   4.320   2.381   6.009
 9238SOL    HW128613   4.363   2.315   6.071
 9238SOL    HW228614   4.374   2.390   5.926
 9239SOL     OW28615   0.312   4.070   1.062
 9239SOL    HW128616   0.314   3.988   1.004
 9239SOL    HW228617   0.384   4.063   1.131
 9240SOL     OW28618   5.528   1.251   0.427
 9240SOL    HW128619   5.598   1.181   0.437
 9240SOL    HW228620   5.559   1.336   0.470
 9241SOL     OW28621   6.971   5.528   5.714
 9241SOL    HW128622   6.951   5.561   5.807
 9241SOL    HW228623   6.990   5.606   5.654
 9242SOL     OW28624   6.483   5.571   0.405
 9242SOL    HW128625   6.531   5.594   0.320
 9242SOL    HW228626   6.388   5.601   0.399
 9243SOL     OW28627   6.125   5.859   2.990
 9243SOL    HW128628   6.086   5.896   3.075
 9243SOL    HW228629   6.082   5.771   2.971
 9244SOL     OW28630   4.439   5.337   5.980
 9244SOL    HW128631   4.526   5.348   6.027
 9244SOL    HW228632   4.380   5.276   6.032
 9245SOL     OW28633   1.342   5.448   2.553
 9245SOL    HW128634   1.295   5.457   2.641
 9245SOL    HW228635   1.342   5.351   2.526
 9246SOL     OW28636   5.792   4.949   3.396
 9246SOL    HW128637   5.729   4.924   3.322
 9246SOL    HW228638   5.881   4.907   3.380
 9247SOL     OW28639   0.438   6.791   3.280
 9247SOL    HW128640   0.461   6.845   3.199
 9247SOL    HW228641   0.457   6.845   3.362
 9248SOL     OW28642   2.168   2.847   6.092
 9248SOL    HW128643   2.262   2.824   6.067
 9248SOL    HW228644   2.107   2.830   6.015
 9249SOL     OW28645   5.640   2.657   5.616
 9249SOL    HW128646   5.569   2.660   5.546
 9249SOL    HW228647   5.683   2.566   5.617
 9250SOL     OW28648   5.351   3.832   4.959
 9250SOL    HW128649   5.297   3.915   4.974
 9250SOL    HW228650   5.327   3.792   4.870
 9251SOL     OW28651   3.703   2.121   3.549
 9251SOL    HW128652   3.646   2.131   3.468
 9251SOL    HW228653   3.799   2.135   3.525
 9252SOL     OW28654   6.679   0.637   4.237
 9252SOL    HW128655   6.747   0.564   4.244
 9252SOL    HW228656   6.705   0.700   4.165
 9253SOL     OW28657   4.471   5.846   5.884
 9253SOL    HW128658   4.547   5.849   5.819
 9253SOL    HW228659   4.501   5.798   5.967
 9254SOL     OW28660   6.194   3.528   1.648
 9254SOL    HW128661   6.108   3.526   1.596
 9254SOL    HW228662   6.254   3.598   1.609
 9255SOL     OW28663   5.004   2.700   0.009
 9255SOL    HW128664   4.917   2.665   0.043
 9255SOL    HW228665   4.988   2.775   6.968
 9256SOL     OW28666   3.870   4.851   3.491
 9256SOL    HW128667   3.882   4.886   3.584
 9256SOL    HW228668   3.933   4.775   3.476
 9257SOL     OW28669   0.760   4.162   2.457
 9257SOL    HW128670   0.764   4.072   2.501
 9257SOL    HW228671   0.852   4.191   2.431
 9258SOL     OW28672   3.819   3.198   3.853
 9258SOL    HW128673   3.804   3.181   3.755
 9258SOL    HW228674   3.911   3.169   3.878
 9259SOL     OW28675   1.375   2.215   0.722
 9259SOL    HW128676   1.366   2.140   0.787
 9259SOL    HW228677   1.315   2.290   0.750
 9260SOL     OW28678   5.032   1.919   5.435
 9260SOL    HW128679   4.986   2.004   5.461
 9260SOL    HW228680   5.100   1.895   5.504
 9261SOL     OW28681   4.329   6.977   6.303
 9261SOL    HW128682   4.298   6.979   6.208
 9261SOL    HW228683   4.312   0.044   6.346
 9262SOL     OW28684   6.292   2.656   5.543
 9262SOL    HW128685   6.194   2.675   5.554
 9262SOL    HW228686   6.303   2.568   5.496
 9263SOL     OW28687   6.008   3.796   1.266
 9263SOL    HW128688   6.042   3.779   1.173
 9263SOL    HW228689   6.001   3.895   1.281
 9264SOL     OW28690   6.254   3.908   0.238
 9264SOL    HW128691   6.222   3.988   0.187
 9264SOL    HW228692   6.342   3.878   0.201
 9265SOL     OW28693   3.514   1.235   0.214
 9265SOL    HW128694   3.567   1.247   0.130
 9265SOL    HW228695   3.565   1.272   0.291
 9266SOL     OW28696   2.640   6.586   3.095
 9266SOL    HW128697   2.556   6.532   3.091
 9266SOL    HW228698   2.719   6.526   3.091
 9267SOL     OW28699   0.292   3.979   5.613
 9267SOL    HW128700   0.385   3.976   5.576
 9267SOL    HW228701   0.226   3.959   5.541
 9268SOL     OW28702   0.746   6.320   2.355
 9268SOL    HW128703   0.740   6.412   2.394
 9268SOL    HW228704   0.793   6.260   2.420
 9269SOL     OW28705   3.113   2.308   6.721
 9269SOL    HW128706   3.203   2.322   6.763
 9269SOL    HW228707   3.110   2.358   6.634
 9270SOL     OW28708   5.053   6.245   5.712
 9270SOL    HW128709   5.026   6.156   5.675
 9270SOL    HW228710   5.068   6.309   5.637
 9271SOL     OW28711   1.347   6.158   1.182
 9271SOL    HW128712   1.324   6.126   1.090
 9271SOL    HW228713   1.415   6.231   1.176
 9272SOL     OW28714   3.190   4.695   6.286
 9272SOL    HW128715   3.142   4.667   6.369
 9272SOL    HW228716   3.278   4.647   6.280
 9273SOL     OW28717   5.092   5.939   3.907
 9273SOL    HW128718   5.023   5.868   3.923
 9273SOL    HW228719   5.179   5.897   3.884
 9274SOL     OW28720   5.929   1.918   6.634
 9274SOL    HW128721   6.015   1.951   6.672
 9274SOL    HW228722   5.863   1.904   6.707
 9275SOL     OW28723   0.804   1.310   0.130
 9275SOL    HW128724   0.708   1.333   0.114
 9275SOL    HW228725   0.859   1.393   0.127
 9276SOL     OW28726   2.180   5.029   4.571
 9276SOL    HW128727   2.257   4.994   4.518
 9276SOL    HW228728   2.210   5.051   4.663
 9277SOL     OW28729   4.384   3.957   0.010
 9277SOL    HW128730   4.454   3.891   7.008
 9277SOL    HW228731   4.369   3.955   0.109
 9278SOL     OW28732   1.848   1.270   4.020
 9278SOL    HW128733   1.802   1.214   4.089
 9278SOL    HW228734   1.943   1.240   4.010
 9279SOL     OW28735   4.689   0.668   1.600
 9279SOL    HW128736   4.619   0.724   1.645
 9279SOL    HW228737   4.664   0.656   1.504
 9280SOL     OW28738   1.877   0.405   3.787
 9280SOL    HW128739   1.787   0.362   3.791
 9280SOL    HW228740   1.874   0.483   3.724
 9281SOL     OW28741   3.170   3.741   0.713
 9281SOL    HW128742   3.102   3.813   0.729
 9281SOL    HW228743   3.199   3.702   0.800
 9282SOL     OW28744   5.063   2.295   4.154
 9282SOL    HW128745   5.019   2.340   4.077
 9282SOL    HW228746   5.049   2.196   4.148
 9283SOL     OW28747   6.243   1.093   2.383
 9283SOL    HW128748   6.204   1.174   2.340
 9283SOL    HW228749   6.324   1.064   2.332
 9284SOL     OW28750   4.206   4.790   0.080
 9284SOL    HW128751   4.157   4.714   0.039
 9284SOL    HW228752   4.302   4.786   0.053
 9285SOL     OW28753   4.946   2.985   0.181
 9285SOL    HW128754   4.909   2.892   0.183
 9285SOL    HW228755   4.902   3.038   0.109
 9286SOL     OW28756   6.035   0.095   5.447
 9286SOL    HW128757   6.097   0.031   5.401
 9286SOL    HW228758   5.948   0.050   5.466
 9287SOL     OW28759   3.294   5.611   1.133
 9287SOL    HW128760   3.342   5.656   1.208
 9287SOL    HW228761   3.347   5.531   1.104
 9288SOL     OW28762   3.439   0.963   5.606
 9288SOL    HW128763   3.399   1.049   5.574
 9288SOL    HW228764   3.429   0.894   5.535
 9289SOL     OW28765   3.852   1.859   2.557
 9289SOL    HW128766   3.852   1.770   2.602
 9289SOL    HW228767   3.798   1.854   2.473
 9290SOL     OW28768   4.284   1.487   4.834
 9290SOL    HW128769   4.287   1.408   4.772
 9290SOL    HW228770   4.190   1.515   4.848
 9291SOL     OW28771   2.391   0.598   5.715
 9291SOL    HW128772   2.449   0.517   5.725
 9291SOL    HW228773   2.436   0.677   5.755
 9292SOL     OW28774   6.362   3.358   5.872
 9292SOL    HW128775   6.328   3.267   5.847
 9292SOL    HW228776   6.384   3.360   5.969
 9293SOL     OW28777   6.398   3.990   0.897
 9293SOL    HW128778   6.462   4.066   0.890
 9293SOL    HW228779   6.398   3.955   0.991
 9294SOL     OW28780   3.670   6.388   5.738
 9294SOL    HW128781   3.765   6.356   5.746
 9294SOL    HW228782   3.609   6.317   5.772
 9295SOL     OW28783   5.007   1.800   3.259
 9295SOL    HW128784   5.035   1.723   3.317
 9295SOL    HW228785   5.042   1.786   3.166
 9296SOL     OW28786   6.874   6.599   6.125
 9296SOL    HW128787   6.956   6.542   6.123
 9296SOL    HW228788   6.822   6.585   6.040
 9297SOL     OW28789   0.237   0.289   1.052
 9297SOL    HW128790   0.294   0.212   1.024
 9297SOL    HW228791   0.273   0.373   1.013
 9298SOL     OW28792   1.568   6.302   5.896
 9298SOL    HW128793   1.628   6.262   5.826
 9298SOL    HW228794   1.485   6.337   5.852
 9299SOL     OW28795   1.002   3.450   4.480
 9299SOL    HW128796   1.001   3.408   4.571
 9299SOL    HW228797   0.994   3.550   4.490
 9300SOL     OW28798   6.498   4.841   4.579
 9300SOL    HW128799   6.575   4.880   4.528
 9300SOL    HW228800   6.467   4.908   4.647
 9301SOL     OW28801   4.743   4.564   3.022
 9301SOL    HW128802   4.712   4.651   3.060
 9301SOL    HW228803   4.709   4.489   3.079
 9302SOL     OW28804   2.124   2.864   4.023
 9302SOL    HW128805   2.037   2.832   3.986
 9302SOL    HW228806   2.135   2.830   4.116
 9303SOL     OW28807   3.623   5.825   0.591
 9303SOL    HW128808   3.582   5.917   0.592
 9303SOL    HW228809   3.593   5.774   0.671
 9304SOL     OW28810   4.486   4.002   0.888
 9304SOL    HW128811   4.553   3.970   0.956
 9304SOL    HW228812   4.485   4.102   0.886
 9305SOL     OW28813   4.802   1.494   1.377
 9305SOL    HW128814   4.825   1.406   1.334
 9305SOL    HW228815   4.883   1.552   1.377
 9306SOL     OW28816   0.400   5.036   4.986
 9306SOL    HW128817   0.447   5.080   4.908
 9306SOL    HW228818   0.394   4.938   4.970
 9307SOL     OW28819   0.920   3.197   1.266
 9307SOL    HW128820   0.891   3.225   1.357
 9307SOL    HW228821   1.020   3.197   1.261
 9308SOL     OW28822   0.801   4.167   1.383
 9308SOL    HW128823   0.826   4.200   1.474
 9308SOL    HW228824   0.846   4.079   1.366
 9309SOL     OW28825   3.749   5.290   5.560
 9309SOL    HW128826   3.783   5.361   5.621
 9309SOL    HW228827   3.799   5.293   5.473
 9310SOL     OW28828   4.487   5.892   6.265
 9310SOL    HW128829   4.524   5.824   6.327
 9310SOL    HW228830   4.387   5.887   6.266
 9311SOL     OW28831   6.334   4.308   1.191
 9311SOL    HW128832   6.427   4.341   1.174
 9311SOL    HW228833   6.338   4.220   1.239
 9312SOL     OW28834   1.982   4.351   0.736
 9312SOL    HW128835   1.991   4.371   0.833
 9312SOL    HW228836   2.010   4.256   0.718
 9313SOL     OW28837   0.436   0.796   1.258
 9313SOL    HW128838   0.348   0.834   1.289
 9313SOL    HW228839   0.429   0.769   1.163
 9314SOL     OW28840   4.517   5.048   6.727
 9314SOL    HW128841   4.550   5.070   6.635
 9314SOL    HW228842   4.419   5.034   6.725
 9315SOL     OW28843   6.381   0.630   4.976
 9315SOL    HW128844   6.418   0.685   4.901
 9315SOL    HW228845   6.386   0.533   4.952
 9316SOL     OW28846   4.530   5.750   5.142
 9316SOL    HW128847   4.582   5.701   5.213
 9316SOL    HW228848   4.580   5.834   5.117
 9317SOL     OW28849   6.429   6.209   2.878
 9317SOL    HW128850   6.373   6.127   2.876
 9317SOL    HW228851   6.399   6.273   2.807
 9318SOL     OW28852   6.822   1.217   4.748
 9318SOL    HW128853   6.740   1.272   4.730
 9318SOL    HW228854   6.895   1.275   4.783
 9319SOL     OW28855   0.505   2.655   6.024
 9319SOL    HW128856   0.600   2.683   6.016
 9319SOL    HW228857   0.500   2.555   6.025
 9320SOL     OW28858   4.531   1.822   6.126
 9320SOL    HW128859   4.479   1.820   6.211
 9320SOL    HW228860   4.568   1.732   6.107
 9321SOL     OW28861   6.335   6.860   2.457
 9321SOL    HW128862   6.387   6.916   2.392
 9321SOL    HW228863   6.347   6.896   2.549
 9322SOL     OW28864   0.070   6.414   5.977
 9322SOL    HW128865   0.148   6.475   5.962
 9322SOL    HW228866   0.084   6.362   6.061
 9323SOL     OW28867   1.556   0.408   5.590
 9323SOL    HW128868   1.543   0.507   5.578
 9323SOL    HW228869   1.510   0.379   5.674
 9324SOL     OW28870   1.399   5.322   0.230
 9324SOL    HW128871   1.493   5.297   0.204
 9324SOL    HW228872   1.368   5.263   0.304
 9325SOL     OW28873   4.902   1.910   0.951
 9325SOL    HW128874   4.931   2.001   0.921
 9325SOL    HW228875   4.975   1.868   1.006
 9326SOL     OW28876   2.903   6.750   1.138
 9326SOL    HW128877   2.872   6.830   1.189
 9326SOL    HW228878   2.933   6.680   1.202
 9327SOL     OW28879   5.254   6.569   2.981
 9327SOL    HW128880   5.246   6.486   3.037
 9327SOL    HW228881   5.211   6.645   3.028
 9328SOL     OW28882   4.217   1.346   6.230
 9328SOL    HW128883   4.120   1.340   6.255
 9328SOL    HW228884   4.258   1.255   6.235
 9329SOL     OW28885   0.217   3.799   2.571
 9329SOL    HW128886   0.167   3.811   2.486
 9329SOL    HW228887   0.153   3.780   2.645
 9330SOL     OW28888   0.182   5.844   0.347
 9330SOL    HW128889   0.281   5.844   0.341
 9330SOL    HW228890   0.153   5.795   0.429
 9331SOL     OW28891   0.558   1.152   6.083
 9331SOL    HW128892   0.572   1.199   6.170
 9331SOL    HW228893   0.647   1.125   6.045
 9332SOL     OW28894   3.462   4.150   3.016
 9332SOL    HW128895   3.381   4.147   2.957
 9332SOL    HW228896   3.449   4.218   3.088
 9333SOL     OW28897   5.354   3.857   1.512
 9333SOL    HW128898   5.429   3.824   1.456
 9333SOL    HW228899   5.267   3.837   1.468
 9334SOL     OW28900   3.730   6.803   3.462
 9334SOL    HW128901   3.787   6.750   3.399
 9334SOL    HW228902   3.706   6.746   3.541
 9335SOL     OW28903   1.342   1.115   6.442
 9335SOL    HW128904   1.252   1.115   6.486
 9335SOL    HW228905   1.357   1.026   6.398
 9336SOL     OW28906   3.510   6.177   6.510
 9336SOL    HW128907   3.470   6.269   6.505
 9336SOL    HW228908   3.439   6.109   6.490
 9337SOL     OW28909   5.009   0.459   2.812
 9337SOL    HW128910   4.920   0.459   2.857
 9337SOL    HW228911   5.003   0.510   2.726
 9338SOL     OW28912   4.562   0.648   2.008
 9338SOL    HW128913   4.475   0.611   2.040
 9338SOL    HW228914   4.556   0.665   1.909
 9339SOL     OW28915   5.791   7.007   0.376
 9339SOL    HW128916   5.853   6.928   0.376
 9339SOL    HW228917   5.741   7.010   0.289
 9340SOL     OW28918   5.241   3.738   5.353
 9340SOL    HW128919   5.296   3.666   5.394
 9340SOL    HW228920   5.300   3.816   5.330
 9341SOL     OW28921   1.362   5.766   6.732
 9341SOL    HW128922   1.366   5.686   6.672
 9341SOL    HW228923   1.336   5.737   6.824
 9342SOL     OW28924   2.340   0.907   4.557
 9342SOL    HW128925   2.391   0.848   4.495
 9342SOL    HW228926   2.369   0.890   4.652
 9343SOL     OW28927   6.220   4.518   3.724
 9343SOL    HW128928   6.207   4.611   3.760
 9343SOL    HW228929   6.251   4.459   3.798
 9344SOL     OW28930   4.500   5.681   1.568
 9344SOL    HW128931   4.527   5.611   1.634
 9344SOL    HW228932   4.432   5.642   1.505
 9345SOL     OW28933   6.127   2.793   1.995
 9345SOL    HW128934   6.118   2.815   1.898
 9345SOL    HW228935   6.211   2.742   2.010
 9346SOL     OW28936   6.053   0.734   0.758
 9346SOL    HW128937   6.079   0.735   0.854
 9346SOL    HW228938   6.132   0.761   0.702
 9347SOL     OW28939   1.955   5.462   1.289
 9347SOL    HW128940   1.905   5.502   1.213
 9347SOL    HW228941   1.921   5.369   1.306
 9348SOL     OW28942   4.467   5.342   1.312
 9348SOL    HW128943   4.503   5.322   1.404
 9348SOL    HW228944   4.488   5.267   1.250
 9349SOL     OW28945   0.744   0.084   2.355
 9349SOL    HW128946   0.823   0.025   2.375
 9349SOL    HW228947   0.757   0.173   2.400
 9350SOL     OW28948   0.724   2.195   5.880
 9350SOL    HW128949   0.741   2.100   5.857
 9350SOL    HW228950   0.742   2.253   5.800
 9351SOL     OW28951   3.314   1.454   6.762
 9351SOL    HW128952   3.329   1.390   6.687
 9351SOL    HW228953   3.399   1.464   6.814
 9352SOL     OW28954   2.636   3.692   0.065
 9352SOL    HW128955   2.598   3.608   0.026
 9352SOL    HW228956   2.726   3.673   0.104
 9353SOL     OW28957   0.902   4.961   1.607
 9353SOL    HW128958   0.883   4.879   1.554
 9353SOL    HW228959   0.842   4.965   1.687
 9354SOL     OW28960   6.889   2.781   6.459
 9354SOL    HW128961   6.965   2.837   6.426
 9354SOL    HW228962   6.899   2.688   6.424
 9355SOL     OW28963   0.995   2.303   4.555
 9355SOL    HW128964   1.053   2.245   4.613
 9355SOL    HW228965   0.899   2.278   4.568
 9356SOL     OW28966   4.048   6.643   1.103
 9356SOL    HW128967   4.121   6.610   1.043
 9356SOL    HW228968   4.024   6.737   1.078
 9357SOL     OW28969   1.218   2.201   6.720
 9357SOL    HW128970   1.304   2.228   6.762
 9357SOL    HW228971   1.236   2.142   6.642
 9358SOL     OW28972   0.368   4.159   2.262
 9358SOL    HW128973   0.360   4.096   2.339
 9358SOL    HW228974   0.436   4.229   2.284
 9359SOL     OW28975   2.035   5.984   6.325
 9359SOL    HW128976   1.997   5.898   6.359
 9359SOL    HW228977   2.118   6.006   6.376
 9360SOL     OW28978   1.705   6.834   6.672
 9360SOL    HW128979   1.618   6.882   6.667
 9360SOL    HW228980   1.693   6.747   6.721
 9361SOL     OW28981   1.714   6.464   4.012
 9361SOL    HW128982   1.660   6.527   4.068
 9361SOL    HW228983   1.657   6.387   3.983
 9362SOL     OW28984   1.881   0.945   2.090
 9362SOL    HW128985   1.827   0.885   2.149
 9362SOL    HW228986   1.977   0.918   2.092
 9363SOL     OW28987   2.955   5.523   2.373
 9363SOL    HW128988   2.922   5.437   2.332
 9363SOL    HW228989   3.042   5.548   2.331
 9364SOL     OW28990   2.504   2.540   1.864
 9364SOL    HW128991   2.527   2.494   1.950
 9364SOL    HW228992   2.441   2.616   1.883
 9365SOL     OW28993   2.874   2.036   4.405
 9365SOL    HW128994   2.912   1.968   4.342
 9365SOL    HW228995   2.921   2.028   4.493
 9366SOL     OW28996   3.398   5.641   0.687
 9366SOL    HW128997   3.359   5.705   0.621
 9366SOL    HW228998   3.326   5.581   0.723
 9367SOL     OW28999   5.134   6.926   1.215
 9367SOL    HW129000   5.038   6.943   1.240
 9367SOL    HW229001   5.147   6.829   1.197
 9368SOL     OW29002   4.003   0.278   2.619
 9368SOL    HW129003   4.054   0.314   2.697
 9368SOL    HW229004   3.990   0.180   2.631
 9369SOL     OW29005   1.183   5.711   6.271
 9369SOL    HW129006   1.089   5.730   6.298
 9369SOL    HW229007   1.229   5.796   6.246
 9370SOL     OW29008   4.225   1.466   4.510
 9370SOL    HW129009   4.260   1.392   4.567
 9370SOL    HW229010   4.127   1.478   4.527
 9371SOL     OW29011   3.743   5.810   1.179
 9371SOL    HW129012   3.645   5.821   1.198
 9371SOL    HW229013   3.756   5.771   1.088
 9372SOL     OW29014   4.510   6.655   1.649
 9372SOL    HW129015   4.546   6.627   1.738
 9372SOL    HW229016   4.537   6.589   1.579
 9373SOL     OW29017   5.937   2.223   6.903
 9373SOL    HW129018   5.891   2.230   6.814
 9373SOL    HW229019   5.917   2.133   6.943
 9374SOL     OW29020   0.550   4.888   5.677
 9374SOL    HW129021   0.509   4.980   5.674
 9374SOL    HW229022   0.629   4.885   5.616
 9375SOL     OW29023   6.776   1.820   6.844
 9375SOL    HW129024   6.861   1.846   6.891
 9375SOL    HW229025   6.762   1.881   6.766
 9376SOL     OW29026   2.107   3.529   2.254
 9376SOL    HW129027   2.177   3.583   2.207
 9376SOL    HW229028   2.070   3.460   2.191
 9377SOL     OW29029   1.937   5.192   2.315
 9377SOL    HW129030   2.036   5.180   2.318
 9377SOL    HW229031   1.896   5.151   2.396
 9378SOL     OW29032   3.680   1.135   4.001
 9378SOL    HW129033   3.742   1.063   3.969
 9378SOL    HW229034   3.636   1.179   3.922
 9379SOL     OW29035   3.665   6.362   4.840
 9379SOL    HW129036   3.645   6.269   4.808
 9379SOL    HW229037   3.585   6.399   4.886
 9380SOL     OW29038   4.310   5.539   6.252
 9380SOL    HW129039   4.338   5.613   6.190
 9380SOL    HW229040   4.230   5.493   6.215
 9381SOL     OW29041   5.350   1.478   4.599
 9381SOL    HW129042   5.342   1.396   4.542
 9381SOL    HW229043   5.287   1.470   4.676
 9382SOL     OW29044   3.405   0.661   4.192
 9382SOL    HW129045   3.307   0.676   4.200
 9382SOL    HW229046   3.422   0.581   4.135
 9383SOL     OW29047   4.800   3.894   3.452
 9383SOL    HW129048   4.807   3.823   3.522
 9383SOL    HW229049   4.770   3.980   3.494
 9384SOL     OW29050   1.728   7.015   2.278
 9384SOL    HW129051   1.718   0.091   2.296
 9384SOL    HW229052   1.639   6.970   2.283
 9385SOL     OW29053   4.140   1.666   3.684
 9385SOL    HW129054   4.070   1.725   3.726
 9385SOL    HW229055   4.230   1.705   3.700
 9386SOL     OW29056   4.291   5.654   5.179
 9386SOL    HW129057   4.382   5.693   5.165
 9386SOL    HW229058   4.229   5.686   5.107
 9387SOL     OW29059   3.603   2.255   0.054
 9387SOL    HW129060   3.617   2.325   7.006
 9387SOL    HW229061   3.611   2.165   0.012
 9388SOL     OW29062   2.107   6.947   4.149
 9388SOL    HW129063   2.024   6.997   4.126
 9388SOL    HW229064   2.156   6.921   4.066
 9389SOL     OW29065   3.778   5.093   2.207
 9389SOL    HW129066   3.805   5.096   2.303
 9389SOL    HW229067   3.811   5.009   2.164
 9390SOL     OW29068   5.071   4.576   5.560
 9390SOL    HW129069   5.032   4.509   5.497
 9390SOL    HW229070   5.065   4.667   5.520
 9391SOL     OW29071   0.995   6.260   4.511
 9391SOL    HW129072   1.059   6.270   4.435
 9391SOL    HW229073   0.952   6.170   4.506
 9392SOL     OW29074   5.041   3.666   2.557
 9392SOL    HW129075   5.051   3.737   2.627
 9392SOL    HW229076   4.965   3.689   2.497
 9393SOL     OW29077   2.984   6.253   6.307
 9393SOL    HW129078   2.908   6.316   6.293
 9393SOL    HW229079   2.983   6.183   6.235
 9394SOL     OW29080   5.097   0.234   1.409
 9394SOL    HW129081   5.092   0.215   1.311
 9394SOL    HW229082   5.040   0.313   1.431
 9395SOL     OW29083   3.259   1.637   0.662
 9395SOL    HW129084   3.218   1.605   0.576
 9395SOL    HW229085   3.215   1.589   0.739
 9396SOL     OW29086   1.576   6.238   6.793
 9396SOL    HW129087   1.595   6.167   6.725
 9396SOL    HW229088   1.661   6.286   6.815
 9397SOL     OW29089   3.881   0.241   6.278
 9397SOL    HW129090   3.906   0.332   6.309
 9397SOL    HW229091   3.822   0.248   6.198
 9398SOL     OW29092   6.921   1.513   6.752
 9398SOL    HW129093   6.995   1.579   6.739
 9398SOL    HW229094   6.833   1.557   6.734
 9399SOL     OW29095   1.900   2.756   3.933
 9399SOL    HW129096   1.836   2.829   3.957
 9399SOL    HW229097   1.895   2.684   4.003
 9400SOL     OW29098   5.407   0.844   0.358
 9400SOL    HW129099   5.485   0.857   0.297
 9400SOL    HW229100   5.411   0.753   0.399
 9401SOL     OW29101   0.738   1.790   2.997
 9401SOL    HW129102   0.692   1.875   2.970
 9401SOL    HW229103   0.837   1.806   2.999
 9402SOL     OW29104   1.081   5.491   3.444
 9402SOL    HW129105   1.016   5.482   3.519
 9402SOL    HW229106   1.031   5.497   3.357
 9403SOL     OW29107   6.369   1.856   2.132
 9403SOL    HW129108   6.454   1.899   2.099
 9403SOL    HW229109   6.392   1.774   2.184
 9404SOL     OW29110   2.170   3.422   1.087
 9404SOL    HW129111   2.216   3.346   1.040
 9404SOL    HW229112   2.212   3.508   1.060
 9405SOL     OW29113   0.264   4.635   5.359
 9405SOL    HW129114   0.186   4.688   5.326
 9405SOL    HW229115   0.308   4.683   5.435
 9406SOL     OW29116   0.190   2.769   6.819
 9406SOL    HW129117   0.182   2.818   6.732
 9406SOL    HW229118   0.191   2.835   6.895
 9407SOL     OW29119   1.994   5.064   4.959
 9407SOL    HW129120   2.021   5.160   4.950
 9407SOL    HW229121   2.050   5.020   5.030
 9408SOL     OW29122   6.685   4.633   4.840
 9408SOL    HW129123   6.612   4.586   4.790
 9408SOL    HW229124   6.748   4.565   4.877
 9409SOL     OW29125   6.600   4.932   2.379
 9409SOL    HW129126   6.652   4.967   2.301
 9409SOL    HW229127   6.638   4.844   2.407
 9410SOL     OW29128   4.051   0.550   1.737
 9410SOL    HW129129   4.007   0.474   1.784
 9410SOL    HW229130   4.003   0.569   1.651
 9411SOL     OW29131   3.765   3.102   3.593
 9411SOL    HW129132   3.712   3.169   3.542
 9411SOL    HW229133   3.832   3.059   3.533
 9412SOL     OW29134   6.801   0.194   1.055
 9412SOL    HW129135   6.799   0.203   1.155
 9412SOL    HW229136   6.850   0.111   1.029
 9413SOL     OW29137   4.056   5.170   3.761
 9413SOL    HW129138   4.147   5.194   3.726
 9413SOL    HW229139   3.992   5.244   3.740
 9414SOL     OW29140   1.848   2.120   4.833
 9414SOL    HW129141   1.895   2.197   4.877
 9414SOL    HW229142   1.808   2.061   4.903
 9415SOL     OW29143   3.841   0.486   2.220
 9415SOL    HW129144   3.802   0.416   2.280
 9415SOL    HW229145   3.884   0.557   2.275
 9416SOL     OW29146   6.816   5.478   5.943
 9416SOL    HW129147   6.874   5.416   5.996
 9416SOL    HW229148   6.722   5.444   5.943
 9417SOL     OW29149   3.375   6.092   1.427
 9417SOL    HW129150   3.415   6.002   1.445
 9417SOL    HW229151   3.354   6.137   1.514
 9418SOL     OW29152   3.206   2.139   4.636
 9418SOL    HW129153   3.165   2.052   4.662
 9418SOL    HW229154   3.295   2.122   4.593
 9419SOL     OW29155   2.929   2.942   6.969
 9419SOL    HW129156   2.988   2.988   6.903
 9419SOL    HW229157   2.958   2.966   0.040
 9420SOL     OW29158   5.387   3.253   6.839
 9420SOL    HW129159   5.460   3.186   6.845
 9420SOL    HW229160   5.311   3.225   6.897
 9421SOL     OW29161   3.466   6.611   5.672
 9421SOL    HW129162   3.502   6.526   5.711
 9421SOL    HW229163   3.531   6.685   5.689
 9422SOL     OW29164   2.265   6.060   4.556
 9422SOL    HW129165   2.203   6.056   4.478
 9422SOL    HW229166   2.214   6.044   4.640
 9423SOL     OW29167   4.136   5.680   3.133
 9423SOL    HW129168   4.193   5.756   3.101
 9423SOL    HW229169   4.187   5.595   3.130
 9424SOL     OW29170   5.328   0.659   4.326
 9424SOL    HW129171   5.403   0.645   4.262
 9424SOL    HW229172   5.345   0.742   4.380
 9425SOL     OW29173   6.755   4.956   0.651
 9425SOL    HW129174   6.817   4.887   0.688
 9425SOL    HW229175   6.805   5.041   0.634
 9426SOL     OW29176   6.925   2.529   6.284
 9426SOL    HW129177   6.943   2.442   6.330
 9426SOL    HW229178   6.872   2.512   6.202
 9427SOL     OW29179   3.388   6.003   2.841
 9427SOL    HW129180   3.436   6.088   2.860
 9427SOL    HW229181   3.315   5.990   2.909
 9428SOL     OW29182   6.404   0.289   6.333
 9428SOL    HW129183   6.365   0.379   6.350
 9428SOL    HW229184   6.395   0.267   6.236
 9429SOL     OW29185   1.810   2.291   4.406
 9429SOL    HW129186   1.765   2.335   4.484
 9429SOL    HW229187   1.872   2.356   4.362
 9430SOL     OW29188   0.610   2.113   4.351
 9430SOL    HW129189   0.543   2.185   4.369
 9430SOL    HW229190   0.683   2.117   4.420
 9431SOL     OW29191   0.443   4.752   6.529
 9431SOL    HW129192   0.383   4.673   6.543
 9431SOL    HW229193   0.454   4.769   6.431
 9432SOL     OW29194   7.003   1.427   3.094
 9432SOL    HW129195   6.964   1.461   3.179
 9432SOL    HW229196   6.970   1.484   3.018
 9433SOL     OW29197   3.965   6.275   2.866
 9433SOL    HW129198   3.871   6.308   2.861
 9433SOL    HW229199   4.014   6.303   2.783
 9434SOL     OW29200   5.126   5.239   4.006
 9434SOL    HW129201   5.139   5.256   3.909
 9434SOL    HW229202   5.096   5.323   4.051
 9435SOL     OW29203   0.414   3.213   1.375
 9435SOL    HW129204   0.471   3.263   1.440
 9435SOL    HW229205   0.326   3.260   1.365
 9436SOL     OW29206   0.916   0.563   3.579
 9436SOL    HW129207   0.911   0.649   3.529
 9436SOL    HW229208   0.964   0.577   3.665
 9437SOL     OW29209   6.743   5.210   4.619
 9437SOL    HW129210   6.830   5.200   4.571
 9437SOL    HW229211   6.738   5.301   4.659
 9438SOL     OW29212   2.903   6.089   1.702
 9438SOL    HW129213   2.864   6.115   1.791
 9438SOL    HW229214   2.886   5.992   1.686
 9439SOL     OW29215   1.537   2.802   0.268
 9439SOL    HW129216   1.501   2.887   0.227
 9439SOL    HW229217   1.462   2.737   0.279
 9440SOL     OW29218   2.699   5.310   2.758
 9440SOL    HW129219   2.653   5.389   2.719
 9440SOL    HW229220   2.633   5.237   2.774
 9441SOL     OW29221   6.603   6.339   4.517
 9441SOL    HW129222   6.625   6.267   4.583
 9441SOL    HW229223   6.504   6.343   4.504
 9442SOL     OW29224   4.653   3.999   0.205
 9442SOL    HW129225   4.677   3.922   0.264
 9442SOL    HW229226   4.593   4.061   0.256
 9443SOL     OW29227   2.146   4.315   3.034
 9443SOL    HW129228   2.176   4.304   2.940
 9443SOL    HW229229   2.209   4.268   3.095
 9444SOL     OW29230   1.203   4.181   0.164
 9444SOL    HW129231   1.169   4.215   0.251
 9444SOL    HW229232   1.303   4.185   0.163
 9445SOL     OW29233   0.321   1.757   3.892
 9445SOL    HW129234   0.401   1.728   3.944
 9445SOL    HW229235   0.309   1.856   3.904
 9446SOL     OW29236   6.564   4.995   3.112
 9446SOL    HW129237   6.602   5.022   3.200
 9446SOL    HW229238   6.527   4.903   3.118
 9447SOL     OW29239   5.733   5.309   2.250
 9447SOL    HW129240   5.726   5.334   2.154
 9447SOL    HW229241   5.827   5.318   2.281
 9448SOL     OW29242   5.567   0.182   5.847
 9448SOL    HW129243   5.573   0.280   5.866
 9448SOL    HW229244   5.476   0.160   5.812
 9449SOL     OW29245   6.175   7.020   1.877
 9449SOL    HW129246   6.237   7.003   1.800
 9449SOL    HW229247   6.083   0.015   1.842
 9450SOL     OW29248   1.849   6.180   4.289
 9450SOL    HW129249   1.868   6.263   4.238
 9450SOL    HW229250   1.913   6.172   4.365
 9451SOL     OW29251   3.792   6.241   6.657
 9451SOL    HW129252   3.866   6.191   6.613
 9451SOL    HW229253   3.737   6.288   6.588
 9452SOL     OW29254   7.019   4.265   0.840
 9452SOL    HW129255   6.989   4.360   0.830
 9452SOL    HW229256   6.942   4.208   0.868
 9453SOL     OW29257   3.846   5.770   3.422
 9453SOL    HW129258   3.933   5.760   3.470
 9453SOL    HW229259   3.774   5.724   3.473
 9454SOL     OW29260   5.135   4.191   0.286
 9454SOL    HW129261   5.069   4.212   0.359
 9454SOL    HW229262   5.207   4.132   0.322
 9455SOL     OW29263   3.037   2.157   2.181
 9455SOL    HW129264   2.947   2.133   2.217
 9455SOL    HW229265   3.028   2.233   2.116
 9456SOL     OW29266   6.584   2.866   2.224
 9456SOL    HW129267   6.509   2.923   2.192
 9456SOL    HW229268   6.547   2.781   2.262
 9457SOL     OW29269   0.152   5.134   3.798
 9457SOL    HW129270   0.176   5.211   3.739
 9457SOL    HW229271   0.184   5.153   3.891
 9458SOL     OW29272   6.113   3.513   6.569
 9458SOL    HW129273   6.201   3.560   6.578
 9458SOL    HW229274   6.046   3.576   6.529
 9459SOL     OW29275   4.977   5.034   4.839
 9459SOL    HW129276   4.983   5.063   4.934
 9459SOL    HW229277   4.885   5.051   4.804
 9460SOL     OW29278   1.053   2.256   2.915
 9460SOL    HW129279   1.145   2.219   2.922
 9460SOL    HW229280   0.987   2.184   2.939
 9461SOL     OW29281   1.252   2.398   2.508
 9461SOL    HW129282   1.174   2.360   2.559
 9461SOL    HW229283   1.219   2.465   2.442
 9462SOL     OW29284   1.662   1.653   4.575
 9462SOL    HW129285   1.690   1.707   4.654
 9462SOL    HW229286   1.744   1.617   4.530
 9463SOL     OW29287   5.616   5.760   0.766
 9463SOL    HW129288   5.694   5.702   0.741
 9463SOL    HW229289   5.539   5.702   0.794
 9464SOL     OW29290   0.835   1.004   1.331
 9464SOL    HW129291   0.744   0.987   1.368
 9464SOL    HW229292   0.899   1.016   1.407
 9465SOL     OW29293   6.756   3.943   1.356
 9465SOL    HW129294   6.844   3.982   1.327
 9465SOL    HW229295   6.695   4.017   1.384
 9466SOL     OW29296   3.979   5.267   6.771
 9466SOL    HW129297   3.931   5.194   6.722
 9466SOL    HW229298   4.043   5.227   6.836
 9467SOL     OW29299   2.500   3.169   1.233
 9467SOL    HW129300   2.511   3.128   1.143
 9467SOL    HW229301   2.556   3.119   1.299
 9468SOL     OW29302   6.466   2.597   0.547
 9468SOL    HW129303   6.483   2.607   0.645
 9468SOL    HW229304   6.467   2.500   0.522
 9469SOL     OW29305   0.566   6.524   1.443
 9469SOL    HW129306   0.629   6.463   1.492
 9469SOL    HW229307   0.515   6.471   1.375
 9470SOL     OW29308   3.909   4.218   1.010
 9470SOL    HW129309   3.939   4.190   0.919
 9470SOL    HW229310   3.941   4.152   1.077
 9471SOL     OW29311   6.304   2.589   5.008
 9471SOL    HW129312   6.291   2.495   4.977
 9471SOL    HW229313   6.257   2.652   4.945
 9472SOL     OW29314   1.879   3.293   6.206
 9472SOL    HW129315   1.897   3.196   6.193
 9472SOL    HW229316   1.965   3.344   6.204
 9473SOL     OW29317   3.051   4.523   0.650
 9473SOL    HW129318   2.990   4.600   0.665
 9473SOL    HW229319   3.062   4.506   0.552
 9474SOL     OW29320   5.453   3.292   1.678
 9474SOL    HW129321   5.536   3.312   1.626
 9474SOL    HW229322   5.462   3.203   1.724
 9475SOL     OW29323   4.591   3.564   5.983
 9475SOL    HW129324   4.516   3.534   6.041
 9475SOL    HW229325   4.573   3.539   5.888
 9476SOL     OW29326   3.305   3.957   5.876
 9476SOL    HW129327   3.370   3.892   5.916
 9476SOL    HW229328   3.250   3.998   5.949
 9477SOL     OW29329   1.873   3.974   1.197
 9477SOL    HW129330   1.915   3.885   1.182
 9477SOL    HW229331   1.848   3.984   1.293
 9478SOL     OW29332   5.395   2.500   0.282
 9478SOL    HW129333   5.384   2.404   0.308
 9478SOL    HW229334   5.306   2.544   0.274
 9479SOL     OW29335   3.877   0.778   1.488
 9479SOL    HW129336   3.912   0.685   1.475
 9479SOL    HW229337   3.782   0.782   1.458
 9480SOL     OW29338   6.164   6.959   6.744
 9480SOL    HW129339   6.176   0.032   6.714
 9480SOL    HW229340   6.199   6.897   6.674
 9481SOL     OW29341   4.216   1.840   2.906
 9481SOL    HW129342   4.209   1.920   2.966
 9481SOL    HW229343   4.171   1.860   2.819
 9482SOL     OW29344   6.050   0.252   0.806
 9482SOL    HW129345   6.002   0.325   0.854
 9482SOL    HW229346   5.984   0.191   0.763
 9483SOL     OW29347   0.255   1.061   0.932
 9483SOL    HW129348   0.337   1.076   0.987
 9483SOL    HW229349   0.234   0.964   0.930
 9484SOL     OW29350   3.224   5.885   4.884
 9484SOL    HW129351   3.241   5.877   4.786
 9484SOL    HW229352   3.159   5.959   4.900
 9485SOL     OW29353   6.664   1.413   0.035
 9485SOL    HW129354   6.618   1.460   6.982
 9485SOL    HW229355   6.745   1.365   7.021
 9486SOL     OW29356   4.675   5.767   0.151
 9486SOL    HW129357   4.773   5.758   0.130
 9486SOL    HW229358   4.622   5.710   0.088
 9487SOL     OW29359   3.479   3.158   3.902
 9487SOL    HW129360   3.515   3.075   3.860
 9487SOL    HW229361   3.502   3.159   3.999
 9488SOL     OW29362   1.339   1.785   0.791
 9488SOL    HW129363   1.311   1.700   0.836
 9488SOL    HW229364   1.432   1.808   0.818
 9489SOL     OW29365   4.705   4.453   0.412
 9489SOL    HW129366   4.745   4.367   0.446
 9489SOL    HW229367   4.773   4.501   0.357
 9490SOL     OW29368   5.656   3.727   3.504
 9490SOL    HW129369   5.690   3.753   3.594
 9490SOL    HW229370   5.599   3.645   3.512
 9491SOL     OW29371   4.942   6.400   2.978
 9491SOL    HW129372   4.928   6.498   2.991
 9491SOL    HW229373   4.853   6.354   2.971
 9492SOL     OW29374   4.871   2.580   4.588
 9492SOL    HW129375   4.898   2.527   4.508
 9492SOL    HW229376   4.796   2.534   4.635
 9493SOL     OW29377   4.504   6.409   3.155
 9493SOL    HW129378   4.498   6.392   3.254
 9493SOL    HW229379   4.414   6.432   3.120
 9494SOL     OW29380   5.560   2.282   1.820
 9494SOL    HW129381   5.605   2.211   1.875
 9494SOL    HW229382   5.504   2.239   1.750
 9495SOL     OW29383   1.120   0.600   2.669
 9495SOL    HW129384   1.161   0.617   2.759
 9495SOL    HW229385   1.154   0.667   2.603
 9496SOL     OW29386   4.095   1.959   2.672
 9496SOL    HW129387   4.009   1.920   2.640
 9496SOL    HW229388   4.138   2.011   2.598
 9497SOL     OW29389   5.672   4.969   4.367
 9497SOL    HW129390   5.740   4.989   4.296
 9497SOL    HW229391   5.713   4.910   4.436
 9498SOL     OW29392   6.411   5.138   3.799
 9498SOL    HW129393   6.452   5.064   3.746
 9498SOL    HW229394   6.477   5.170   3.867
 9499SOL     OW29395   5.878   6.025   5.542
 9499SOL    HW129396   5.808   5.954   5.551
 9499SOL    HW229397   5.968   5.986   5.564
 9500SOL     OW29398   4.457   1.027   0.955
 9500SOL    HW129399   4.431   1.120   0.927
 9500SOL    HW229400   4.412   0.961   0.895
 9501SOL     OW29401   1.550   2.790   4.877
 9501SOL    HW129402   1.520   2.720   4.942
 9501SOL    HW229403   1.566   2.748   4.788
 9502SOL     OW29404   5.623   4.726   5.285
 9502SOL    HW129405   5.636   4.810   5.232
 9502SOL    HW229406   5.593   4.652   5.225
 9503SOL     OW29407   0.284   2.530   6.541
 9503SOL    HW129408   0.266   2.484   6.627
 9503SOL    HW229409   0.379   2.513   6.513
 9504SOL     OW29410   6.203   5.171   1.885
 9504SOL    HW129411   6.191   5.269   1.874
 9504SOL    HW229412   6.229   5.150   1.980
 9505SOL     OW29413   4.329   4.914   5.139
 9505SOL    HW129414   4.327   4.953   5.047
 9505SOL    HW229415   4.353   4.985   5.205
 9506SOL     OW29416   3.377   1.753   1.353
 9506SOL    HW129417   3.451   1.693   1.383
 9506SOL    HW229418   3.412   1.819   1.287
 9507SOL     OW29419   5.672   6.966   2.193
 9507SOL    HW129420   5.602   0.008   2.160
 9507SOL    HW229421   5.734   7.014   2.256
 9508SOL     OW29422   4.841   1.431   2.930
 9508SOL    HW129423   4.791   1.359   2.884
 9508SOL    HW229424   4.939   1.419   2.914
 9509SOL     OW29425   6.763   0.010   2.517
 9509SOL    HW129426   6.694   6.999   2.453
 9509SOL    HW229427   6.756   6.981   2.603
 9510SOL     OW29428   0.756   2.821   3.586
 9510SOL    HW129429   0.668   2.843   3.627
 9510SOL    HW229430   0.743   2.792   3.491
 9511SOL     OW29431   1.234   1.146   0.634
 9511SOL    HW129432   1.308   1.087   0.667
 9511SOL    HW229433   1.147   1.115   0.671
 9512SOL     OW29434   6.676   2.270   1.214
 9512SOL    HW129435   6.736   2.198   1.248
 9512SOL    HW229436   6.581   2.248   1.237
 9513SOL     OW29437   3.964   5.321   0.185
 9513SOL    HW129438   3.905   5.332   0.265
 9513SOL    HW229439   4.033   5.393   0.184
 9514SOL     OW29440   3.308   3.213   6.644
 9514SOL    HW129441   3.327   3.297   6.694
 9514SOL    HW229442   3.215   3.183   6.664
 9515SOL     OW29443   2.442   5.103   4.090
 9515SOL    HW129444   2.350   5.133   4.064
 9515SOL    HW229445   2.495   5.083   4.008
 9516SOL     OW29446   6.451   3.767   6.945
 9516SOL    HW129447   6.516   3.808   6.882
 9516SOL    HW229448   6.471   3.797   0.017
 9517SOL     OW29449   1.245   4.835   0.875
 9517SOL    HW129450   1.191   4.804   0.954
 9517SOL    HW229451   1.292   4.757   0.834
 9518SOL     OW29452   2.027   1.233   0.360
 9518SOL    HW129453   1.940   1.243   0.409
 9518SOL    HW229454   2.102   1.227   0.426
 9519SOL     OW29455   1.162   3.001   5.541
 9519SOL    HW129456   1.246   2.947   5.546
 9519SOL    HW229457   1.084   2.942   5.562
 9520SOL     OW29458   2.119   6.571   2.721
 9520SOL    HW129459   2.178   6.593   2.643
 9520SOL    HW229460   2.032   6.534   2.687
 9521SOL     OW29461   5.243   5.484   4.238
 9521SOL    HW129462   5.204   5.533   4.160
 9521SOL    HW229463   5.327   5.438   4.210
 9522SOL     OW29464   3.851   5.877   0.878
 9522SOL    HW129465   3.908   5.916   0.950
 9522SOL    HW229466   3.879   5.915   0.789
 9523SOL     OW29467   3.279   5.186   4.727
 9523SOL    HW129468   3.298   5.127   4.805
 9523SOL    HW229469   3.180   5.189   4.710
 9524SOL     OW29470   4.107   3.657   1.043
 9524SOL    HW129471   4.170   3.722   1.085
 9524SOL    HW229472   4.101   3.575   1.099
 9525SOL     OW29473   2.696   0.752   6.269
 9525SOL    HW129474   2.642   0.834   6.249
 9525SOL    HW229475   2.653   0.673   6.225
 9526SOL     OW29476   4.958   5.320   2.687
 9526SOL    HW129477   5.043   5.339   2.638
 9526SOL    HW229478   4.908   5.405   2.703
 9527SOL     OW29479   0.429   1.363   1.958
 9527SOL    HW129480   0.402   1.319   2.044
 9527SOL    HW229481   0.375   1.446   1.945
 9528SOL     OW29482   6.935   0.563   2.150
 9528SOL    HW129483   6.945   0.529   2.244
 9528SOL    HW229484   7.012   0.622   2.128
 9529SOL     OW29485   0.751   2.850   5.975
 9529SOL    HW129486   0.820   2.910   6.014
 9529SOL    HW229487   0.675   2.905   5.938
 9530SOL     OW29488   1.264   2.757   3.393
 9530SOL    HW129489   1.283   2.771   3.295
 9530SOL    HW229490   1.330   2.693   3.431
 9531SOL     OW29491   3.365   0.272   3.154
 9531SOL    HW129492   3.392   0.314   3.241
 9531SOL    HW229493   3.335   0.343   3.090
 9532SOL     OW29494   2.011   0.054   1.801
 9532SOL    HW129495   1.964   0.043   1.888
 9532SOL    HW229496   2.083   0.123   1.810
 9533SOL     OW29497   1.708   1.171   6.149
 9533SOL    HW129498   1.717   1.197   6.245
 9533SOL    HW229499   1.783   1.210   6.097
 9534SOL     OW29500   5.526   2.384   5.008
 9534SOL    HW129501   5.495   2.311   4.947
 9534SOL    HW229502   5.447   2.433   5.045
 9535SOL     OW29503   2.601   1.111   5.336
 9535SOL    HW129504   2.536   1.171   5.289
 9535SOL    HW229505   2.648   1.162   5.408
 9536SOL     OW29506   1.343   5.963   5.688
 9536SOL    HW129507   1.382   6.052   5.666
 9536SOL    HW229508   1.382   5.894   5.627
 9537SOL     OW29509   2.979   0.229   1.692
 9537SOL    HW129510   2.942   0.172   1.619
 9537SOL    HW229511   3.051   0.288   1.656
 9538SOL     OW29512   6.750   2.421   4.437
 9538SOL    HW129513   6.685   2.497   4.432
 9538SOL    HW229514   6.718   2.345   4.381
 9539SOL     OW29515   0.734   6.032   0.265
 9539SOL    HW129516   0.828   6.006   0.242
 9539SOL    HW229517   0.673   6.009   0.189
 9540SOL     OW29518   4.561   4.810   4.248
 9540SOL    HW129519   4.500   4.748   4.298
 9540SOL    HW229520   4.554   4.792   4.150
 9541SOL     OW29521   1.921   2.495   4.159
 9541SOL    HW129522   1.865   2.538   4.230
 9541SOL    HW229523   2.005   2.461   4.199
 9542SOL     OW29524   4.931   3.517   4.394
 9542SOL    HW129525   4.860   3.543   4.329
 9542SOL    HW229526   5.013   3.571   4.377
 9543SOL     OW29527   5.561   1.413   2.943
 9543SOL    HW129528   5.612   1.472   2.882
 9543SOL    HW229529   5.522   1.337   2.891
 9544SOL     OW29530   4.557   1.496   2.718
 9544SOL    HW129531   4.509   1.544   2.792
 9544SOL    HW229532   4.614   1.560   2.667
 9545SOL     OW29533   6.900   0.960   3.469
 9545SOL    HW129534   6.997   0.984   3.471
 9545SOL    HW229535   6.888   0.863   3.493
 9546SOL     OW29536   2.458   5.320   0.641
 9546SOL    HW129537   2.427   5.233   0.680
 9546SOL    HW229538   2.547   5.343   0.679
 9547SOL     OW29539   0.723   6.554   3.806
 9547SOL    HW129540   0.689   6.464   3.778
 9547SOL    HW229541   0.648   6.606   3.847
 9548SOL     OW29542   4.886   5.784   3.988
 9548SOL    HW129543   4.799   5.810   4.031
 9548SOL    HW229544   4.868   5.722   3.912
 9549SOL     OW29545   2.501   6.085   0.823
 9549SOL    HW129546   2.410   6.126   0.821
 9549SOL    HW229547   2.504   6.010   0.888
 9550SOL     OW29548   1.313   1.420   0.057
 9550SOL    HW129549   1.268   1.496   0.104
 9550SOL    HW229550   1.411   1.437   0.052
 9551SOL     OW29551   1.063   6.509   4.597
 9551SOL    HW129552   1.067   6.409   4.598
 9551SOL    HW229553   1.155   6.547   4.604
 9552SOL     OW29554   1.826   5.860   3.096
 9552SOL    HW129555   1.863   5.916   3.171
 9552SOL    HW229556   1.882   5.873   3.014
 9553SOL     OW29557   5.639   4.033   5.752
 9553SOL    HW129558   5.700   3.967   5.708
 9553SOL    HW229559   5.545   4.017   5.722
 9554SOL     OW29560   2.244   1.341   1.996
 9554SOL    HW129561   2.339   1.310   2.000
 9554SOL    HW229562   2.241   1.441   1.998
 9555SOL     OW29563   0.063   2.314   0.695
 9555SOL    HW129564   7.010   2.324   0.629
 9555SOL    HW229565   0.150   2.315   0.647
 9556SOL     OW29566   2.077   1.949   1.403
 9556SOL    HW129567   2.105   1.878   1.466
 9556SOL    HW229568   2.100   1.922   1.309
 9557SOL     OW29569   5.341   0.709   2.284
 9557SOL    HW129570   5.348   0.799   2.326
 9557SOL    HW229571   5.399   0.705   2.203
 9558SOL     OW29572   6.225   4.790   2.466
 9558SOL    HW129573   6.205   4.877   2.421
 9558SOL    HW229574   6.141   4.753   2.506
 9559SOL     OW29575   6.942   2.903   1.883
 9559SOL    HW129576   6.955   2.999   1.907
 9559SOL    HW229577   6.852   2.872   1.914
 9560SOL     OW29578   3.244   1.760   3.727
 9560SOL    HW129579   3.180   1.815   3.781
 9560SOL    HW229580   3.238   1.664   3.755
 9561SOL     OW29581   4.434   6.374   0.606
 9561SOL    HW129582   4.459   6.410   0.695
 9561SOL    HW229583   4.446   6.274   0.605
 9562SOL     OW29584   5.208   5.040   2.576
 9562SOL    HW129585   5.170   4.949   2.556
 9562SOL    HW229586   5.258   5.036   2.662
 9563SOL     OW29587   6.444   5.998   6.982
 9563SOL    HW129588   6.349   5.996   6.950
 9563SOL    HW229589   6.494   6.068   6.931
 9564SOL     OW29590   2.766   6.751   6.999
 9564SOL    HW129591   2.705   6.829   6.990
 9564SOL    HW229592   2.833   6.769   0.049
 9565SOL     OW29593   3.664   6.086   4.800
 9565SOL    HW129594   3.629   6.009   4.746
 9565SOL    HW229595   3.751   6.117   4.761
 9566SOL     OW29596   2.778   4.468   5.372
 9566SOL    HW129597   2.817   4.449   5.462
 9566SOL    HW229598   2.851   4.479   5.305
 9567SOL     OW29599   6.110   5.471   5.753
 9567SOL    HW129600   6.064   5.445   5.668
 9567SOL    HW229601   6.184   5.535   5.733
 9568SOL     OW29602   4.803   3.741   6.297
 9568SOL    HW129603   4.739   3.767   6.224
 9568SOL    HW229604   4.804   3.641   6.305
 9569SOL     OW29605   6.513   0.874   0.445
 9569SOL    HW129606   6.572   0.812   0.393
 9569SOL    HW229607   6.428   0.891   0.395
 9570SOL     OW29608   0.852   0.917   0.338
 9570SOL    HW129609   0.801   0.987   0.388
 9570SOL    HW229610   0.849   0.938   0.240
 9571SOL     OW29611   2.066   3.669   0.454
 9571SOL    HW129612   2.119   3.644   0.534
 9571SOL    HW229613   2.128   3.702   0.382
 9572SOL     OW29614   1.423   4.559   1.118
 9572SOL    HW129615   1.330   4.543   1.085
 9572SOL    HW229616   1.445   4.657   1.112
 9573SOL     OW29617   1.610   1.860   0.876
 9573SOL    HW129618   1.669   1.825   0.804
 9573SOL    HW229619   1.651   1.839   0.965
 9574SOL     OW29620   2.854   1.962   5.640
 9574SOL    HW129621   2.785   1.972   5.711
 9574SOL    HW229622   2.857   1.867   5.609
 9575SOL     OW29623   5.820   0.935   2.349
 9575SOL    HW129624   5.743   0.875   2.373
 9575SOL    HW229625   5.898   0.879   2.322
 9576SOL     OW29626   3.303   1.682   5.504
 9576SOL    HW129627   3.321   1.729   5.417
 9576SOL    HW229628   3.272   1.749   5.571
 9577SOL     OW29629   1.075   6.527   3.094
 9577SOL    HW129630   0.980   6.508   3.118
 9577SOL    HW229631   1.136   6.473   3.152
 9578SOL     OW29632   6.138   3.282   2.151
 9578SOL    HW129633   6.160   3.379   2.149
 9578SOL    HW229634   6.195   3.236   2.219
 9579SOL     OW29635   1.077   6.521   2.491
 9579SOL    HW129636   1.176   6.535   2.486
 9579SOL    HW229637   1.044   6.480   2.406
 9580SOL     OW29638   4.297   3.372   5.749
 9580SOL    HW129639   4.234   3.444   5.778
 9580SOL    HW229640   4.327   3.390   5.656
 9581SOL     OW29641   1.103   4.601   5.644
 9581SOL    HW129642   1.190   4.553   5.657
 9581SOL    HW229643   1.050   4.555   5.572
 9582SOL     OW29644   4.020   4.867   4.690
 9582SOL    HW129645   4.089   4.820   4.745
 9582SOL    HW229646   4.065   4.922   4.620
 9583SOL     OW29647   1.790   4.183   1.504
 9583SOL    HW129648   1.736   4.266   1.519
 9583SOL    HW229649   1.859   4.175   1.576
 9584SOL     OW29650   5.833   6.078   6.107
 9584SOL    HW129651   5.748   6.065   6.158
 9584SOL    HW229652   5.893   6.139   6.158
 9585SOL     OW29653   5.843   0.297   4.407
 9585SOL    HW129654   5.756   0.256   4.381
 9585SOL    HW229655   5.862   0.376   4.349
 9586SOL     OW29656   5.621   3.246   3.139
 9586SOL    HW129657   5.687   3.174   3.116
 9586SOL    HW229658   5.623   3.262   3.238
 9587SOL     OW29659   4.917   6.886   2.491
 9587SOL    HW129660   4.916   6.931   2.401
 9587SOL    HW229661   4.958   6.795   2.481
 9588SOL     OW29662   0.453   0.624   1.791
 9588SOL    HW129663   0.523   0.637   1.721
 9588SOL    HW229664   0.437   0.711   1.838
 9589SOL     OW29665   2.692   1.546   6.505
 9589SOL    HW129666   2.599   1.516   6.485
 9589SOL    HW229667   2.694   1.594   6.592
 9590SOL     OW29668   6.435   4.167   4.376
 9590SOL    HW129669   6.473   4.256   4.402
 9590SOL    HW229670   6.505   4.114   4.329
 9591SOL     OW29671   1.525   4.987   1.783
 9591SOL    HW129672   1.526   5.061   1.851
 9591SOL    HW229673   1.496   4.902   1.827
 9592SOL     OW29674   4.743   5.044   1.908
 9592SOL    HW129675   4.666   5.103   1.929
 9592SOL    HW229676   4.716   4.976   1.841
 9593SOL     OW29677   0.724   3.035   4.165
 9593SOL    HW129678   0.724   2.987   4.253
 9593SOL    HW229679   0.780   3.117   4.172
 9594SOL     OW29680   6.072   7.013   2.176
 9594SOL    HW129681   6.157   7.001   2.229
 9594SOL    HW229682   6.079   6.962   2.091
 9595SOL     OW29683   1.060   5.310   3.780
 9595SOL    HW129684   1.149   5.267   3.794
 9595SOL    HW229685   1.015   5.269   3.701
 9596SOL     OW29686   5.545   6.175   4.741
 9596SOL    HW129687   5.624   6.237   4.739
 9596SOL    HW229688   5.513   6.164   4.835
 9597SOL     OW29689   2.000   3.782   0.923
 9597SOL    HW129690   2.002   3.757   1.020
 9597SOL    HW229691   1.921   3.738   0.879
 9598SOL     OW29692   0.024   5.266   5.757
 9598SOL    HW129693   6.999   5.211   5.688
 9598SOL    HW229694   0.023   5.363   5.730
 9599SOL     OW29695   4.772   1.851   4.822
 9599SOL    HW129696   4.856   1.886   4.781
 9599SOL    HW229697   4.694   1.906   4.791
 9600SOL     OW29698   0.980   6.918   7.010
 9600SOL    HW129699   1.013   6.855   6.940
 9600SOL    HW229700   0.972   7.010   6.971
 9601SOL     OW29701   0.528   5.178   5.658
 9601SOL    HW129702   0.464   5.249   5.688
 9601SOL    HW229703   0.552   5.193   5.562
 9602SOL     OW29704   1.015   5.648   0.599
 9602SOL    HW129705   0.981   5.554   0.610
 9602SOL    HW229706   1.023   5.692   0.688
 9603SOL     OW29707   1.683   5.697   3.820
 9603SOL    HW129708   1.783   5.709   3.825
 9603SOL    HW229709   1.638   5.781   3.850
 9604SOL     OW29710   6.222   1.159   6.752
 9604SOL    HW129711   6.240   1.203   6.664
 9604SOL    HW229712   6.288   1.191   6.819
 9605SOL     OW29713   1.834   6.241   6.634
 9605SOL    HW129714   1.831   6.188   6.549
 9605SOL    HW229715   1.929   6.267   6.653
 9606SOL     OW29716   6.219   6.604   4.187
 9606SOL    HW129717   6.208   6.678   4.254
 9606SOL    HW229718   6.188   6.636   4.097
 9607SOL     OW29719   0.797   2.349   1.719
 9607SOL    HW129720   0.777   2.273   1.780
 9607SOL    HW229721   0.792   2.317   1.624
 9608SOL     OW29722   0.023   6.692   2.297
 9608SOL    HW129723   6.967   6.725   2.242
 9608SOL    HW229724   0.108   6.705   2.245
 9609SOL     OW29725   1.610   3.390   4.395
 9609SOL    HW129726   1.619   3.318   4.463
 9609SOL    HW229727   1.654   3.362   4.310
 9610SOL     OW29728   2.988   1.814   6.666
 9610SOL    HW129729   2.975   1.875   6.588
 9610SOL    HW229730   3.038   1.732   6.637
 9611SOL     OW29731   6.650   0.010   1.388
 9611SOL    HW129732   6.587   0.083   1.411
 9611SOL    HW229733   6.735   0.021   1.441
 9612SOL     OW29734   5.661   2.676   1.602
 9612SOL    HW129735   5.669   2.615   1.681
 9612SOL    HW229736   5.566   2.676   1.570
 9613SOL     OW29737   5.779   6.287   5.437
 9613SOL    HW129738   5.708   6.328   5.494
 9613SOL    HW229739   5.805   6.199   5.474
 9614SOL     OW29740   3.706   3.184   2.419
 9614SOL    HW129741   3.712   3.107   2.482
 9614SOL    HW229742   3.662   3.154   2.334
 9615SOL     OW29743   0.910   6.536   3.595
 9615SOL    HW129744   0.861   6.531   3.682
 9615SOL    HW229745   0.885   6.458   3.538
 9616SOL     OW29746   3.204   3.394   0.748
 9616SOL    HW129747   3.116   3.439   0.733
 9616SOL    HW229748   3.189   3.310   0.802
 9617SOL     OW29749   0.768   4.433   3.507
 9617SOL    HW129750   0.818   4.410   3.424
 9617SOL    HW229751   0.675   4.462   3.483
 9618SOL     OW29752   4.430   5.827   6.603
 9618SOL    HW129753   4.486   5.798   6.525
 9618SOL    HW229754   4.345   5.869   6.570
 9619SOL     OW29755   2.673   6.725   0.463
 9619SOL    HW129756   2.712   6.726   0.555
 9619SOL    HW229757   2.682   6.816   0.422
 9620SOL     OW29758   3.350   1.450   6.294
 9620SOL    HW129759   3.349   1.522   6.224
 9620SOL    HW229760   3.353   1.360   6.249
 9621SOL     OW29761   1.348   1.306   1.052
 9621SOL    HW129762   1.344   1.282   1.149
 9621SOL    HW229763   1.431   1.358   1.034
 9622SOL     OW29764   6.471   0.503   5.574
 9622SOL    HW129765   6.527   0.500   5.491
 9622SOL    HW229766   6.409   0.424   5.574
 9623SOL     OW29767   4.032   6.115   6.551
 9623SOL    HW129768   4.083   6.182   6.606
 9623SOL    HW229769   4.082   6.029   6.548
 9624SOL     OW29770   3.963   5.303   4.650
 9624SOL    HW129771   3.977   5.322   4.553
 9624SOL    HW229772   3.932   5.386   4.696
 9625SOL     OW29773   4.618   3.819   6.092
 9625SOL    HW129774   4.546   3.862   6.038
 9625SOL    HW229775   4.640   3.729   6.054
 9626SOL     OW29776   2.369   3.557   6.444
 9626SOL    HW129777   2.284   3.598   6.479
 9626SOL    HW229778   2.371   3.564   6.344
 9627SOL     OW29779   0.776   5.193   6.935
 9627SOL    HW129780   0.793   5.229   0.005
 9627SOL    HW229781   0.681   5.210   6.909
 9628SOL     OW29782   6.138   2.018   6.775
 9628SOL    HW129783   6.225   2.067   6.780
 9628SOL    HW229784   6.104   2.002   6.868
 9629SOL     OW29785   6.203   5.780   3.441
 9629SOL    HW129786   6.240   5.688   3.430
 9629SOL    HW229787   6.188   5.799   3.538
 9630SOL     OW29788   5.861   6.507   6.278
 9630SOL    HW129789   5.853   6.603   6.252
 9630SOL    HW229790   5.860   6.450   6.196
 9631SOL     OW29791   4.301   1.002   0.025
 9631SOL    HW129792   4.396   1.029   0.042
 9631SOL    HW229793   4.299   0.909   7.011
 9632SOL     OW29794   3.516   6.088   1.977
 9632SOL    HW129795   3.601   6.045   2.009
 9632SOL    HW229796   3.445   6.076   2.045
 9633SOL     OW29797   3.379   3.143   2.392
 9633SOL    HW129798   3.405   3.130   2.297
 9633SOL    HW229799   3.384   3.055   2.441
 9634SOL     OW29800   5.269   4.081   2.858
 9634SOL    HW129801   5.292   4.059   2.953
 9634SOL    HW229802   5.308   4.170   2.833
 9635SOL     OW29803   0.366   4.818   4.066
 9635SOL    HW129804   0.345   4.722   4.043
 9635SOL    HW229805   0.413   4.822   4.154
 9636SOL     OW29806   4.802   3.002   4.646
 9636SOL    HW129807   4.857   3.045   4.717
 9636SOL    HW229808   4.788   3.066   4.571
 9637SOL     OW29809   2.468   2.805   0.298
 9637SOL    HW129810   2.487   2.725   0.240
 9637SOL    HW229811   2.393   2.783   0.360
 9638SOL     OW29812   6.281   4.992   5.671
 9638SOL    HW129813   6.350   4.935   5.625
 9638SOL    HW229814   6.194   4.982   5.623
 9639SOL     OW29815   3.740   1.547   3.024
 9639SOL    HW129816   3.733   1.470   3.087
 9639SOL    HW229817   3.833   1.552   2.988
 9640SOL     OW29818   4.615   0.297   3.186
 9640SOL    HW129819   4.614   0.211   3.237
 9640SOL    HW229820   4.637   0.279   3.090
 9641SOL     OW29821   5.945   3.726   3.176
 9641SOL    HW129822   5.860   3.693   3.217
 9641SOL    HW229823   5.990   3.650   3.128
 9642SOL     OW29824   1.182   0.295   3.968
 9642SOL    HW129825   1.189   0.245   4.054
 9642SOL    HW229826   1.197   0.232   3.891
 9643SOL     OW29827   4.816   4.714   3.914
 9643SOL    HW129828   4.825   4.796   3.970
 9643SOL    HW229829   4.891   4.651   3.935
 9644SOL     OW29830   1.164   5.930   4.942
 9644SOL    HW129831   1.253   5.921   4.897
 9644SOL    HW229832   1.105   5.989   4.887
 9645SOL     OW29833   0.490   5.244   6.835
 9645SOL    HW129834   0.500   5.330   6.885
 9645SOL    HW229835   0.495   5.263   6.737
 9646SOL     OW29836   3.599   5.749   5.874
 9646SOL    HW129837   3.554   5.822   5.925
 9646SOL    HW229838   3.584   5.762   5.776
 9647SOL     OW29839   6.149   6.917   3.310
 9647SOL    HW129840   6.079   6.851   3.282
 9647SOL    HW229841   6.156   6.917   3.410
 9648SOL     OW29842   4.118   2.074   1.698
 9648SOL    HW129843   4.138   2.148   1.762
 9648SOL    HW229844   4.165   2.091   1.611
 9649SOL     OW29845   1.632   5.154   6.916
 9649SOL    HW129846   1.535   5.139   6.935
 9649SOL    HW229847   1.672   5.210   6.989
 9650SOL     OW29848   6.971   5.315   5.136
 9650SOL    HW129849   6.951   5.407   5.102
 9650SOL    HW229850   0.013   5.269   5.074
 9651SOL     OW29851   4.027   1.523   0.258
 9651SOL    HW129852   4.073   1.536   0.170
 9651SOL    HW229853   4.035   1.607   0.312
 9652SOL     OW29854   6.893   3.572   0.136
 9652SOL    HW129855   6.793   3.575   0.148
 9652SOL    HW229856   6.917   3.495   0.078
 9653SOL     OW29857   3.990   4.333   6.201
 9653SOL    HW129858   4.034   4.243   6.197
 9653SOL    HW229859   3.894   4.322   6.227
 9654SOL     OW29860   3.814   3.650   3.495
 9654SOL    HW129861   3.718   3.630   3.518
 9654SOL    HW229862   3.820   3.671   3.397
 9655SOL     OW29863   4.378   1.178   1.799
 9655SOL    HW129864   4.315   1.117   1.751
 9655SOL    HW229865   4.367   1.272   1.765
 9656SOL     OW29866   5.778   3.771   0.884
 9656SOL    HW129867   5.764   3.772   0.785
 9656SOL    HW229868   5.830   3.689   0.910
 9657SOL     OW29869   5.590   3.290   3.402
 9657SOL    HW129870   5.549   3.366   3.452
 9657SOL    HW229871   5.669   3.255   3.453
 9658SOL     OW29872   5.343   2.205   2.037
 9658SOL    HW129873   5.352   2.291   1.988
 9658SOL    HW229874   5.312   2.223   2.131
 9659SOL     OW29875   2.613   2.899   0.671
 9659SOL    HW129876   2.514   2.901   0.661
 9659SOL    HW229877   2.651   2.986   0.639
 9660SOL     OW29878   0.568   5.704   1.669
 9660SOL    HW129879   0.661   5.740   1.678
 9660SOL    HW229880   0.568   5.628   1.604
 9661SOL     OW29881   5.449   4.976   0.826
 9661SOL    HW129882   5.498   4.901   0.871
 9661SOL    HW229883   5.355   4.947   0.806
 9662SOL     OW29884   5.687   5.017   6.007
 9662SOL    HW129885   5.695   4.923   6.042
 9662SOL    HW229886   5.777   5.049   5.979
 9663SOL     OW29887   0.620   5.083   3.485
 9663SOL    HW129888   0.646   5.112   3.392
 9663SOL    HW229889   0.579   4.992   3.481
 9664SOL     OW29890   5.071   3.814   2.797
 9664SOL    HW129891   5.077   3.895   2.856
 9664SOL    HW229892   5.115   3.736   2.842
 9665SOL     OW29893   5.826   5.922   6.565
 9665SOL    HW129894   5.811   5.888   6.658
 9665SOL    HW229895   5.778   6.010   6.554
 9666SOL     OW29896   5.406   3.519   6.937
 9666SOL    HW129897   5.423   3.433   6.888
 9666SOL    HW229898   5.324   3.509   6.994
 9667SOL     OW29899   6.212   6.229   6.545
 9667SOL    HW129900   6.113   6.216   6.543
 9667SOL    HW229901   6.257   6.140   6.557
 9668SOL     OW29902   0.203   0.007   5.752
 9668SOL    HW129903   0.166   0.013   5.844
 9668SOL    HW229904   0.244   6.938   5.738
 9669SOL     OW29905   4.257   0.165   0.307
 9669SOL    HW129906   4.332   0.218   0.346
 9669SOL    HW229907   4.171   0.192   0.349
 9670SOL     OW29908   0.237   6.939   6.634
 9670SOL    HW129909   0.233   6.889   6.547
 9670SOL    HW229910   0.202   0.010   6.620
 9671SOL     OW29911   1.539   5.548   6.612
 9671SOL    HW129912   1.523   5.475   6.678
 9671SOL    HW229913   1.455   5.567   6.561
 9672SOL     OW29914   0.731   3.508   4.776
 9672SOL    HW129915   0.738   3.427   4.834
 9672SOL    HW229916   0.717   3.480   4.681
 9673SOL     OW29917   2.394   3.905   1.086
 9673SOL    HW129918   2.450   3.924   1.166
 9673SOL    HW229919   2.338   3.824   1.104
 9674SOL     OW29920   2.644   6.280   4.193
 9674SOL    HW129921   2.680   6.187   4.179
 9674SOL    HW229922   2.699   6.345   4.140
 9675SOL     OW29923   4.735   3.965   1.328
 9675SOL    HW129924   4.785   4.035   1.379
 9675SOL    HW229925   4.787   3.879   1.332
 9676SOL     OW29926   0.924   2.907   6.311
 9676SOL    HW129927   0.841   2.878   6.360
 9676SOL    HW229928   0.989   2.831   6.308
 9677SOL     OW29929   6.551   5.476   0.666
 9677SOL    HW129930   6.477   5.446   0.726
 9677SOL    HW229931   6.518   5.484   0.572
 9678SOL     OW29932   3.696   3.277   4.913
 9678SOL    HW129933   3.692   3.375   4.934
 9678SOL    HW229934   3.755   3.232   4.979
 9679SOL     OW29935   2.110   1.518   4.906
 9679SOL    HW129936   2.178   1.458   4.948
 9679SOL    HW229937   2.031   1.528   4.967
 9680SOL     OW29938   4.601   5.710   3.017
 9680SOL    HW129939   4.658   5.671   2.944
 9680SOL    HW229940   4.516   5.657   3.025
 9681SOL     OW29941   1.720   1.766   2.330
 9681SOL    HW129942   1.667   1.705   2.388
 9681SOL    HW229943   1.663   1.845   2.304
 9682SOL     OW29944   5.265   5.359   4.981
 9682SOL    HW129945   5.264   5.444   5.034
 9682SOL    HW229946   5.177   5.313   4.992
 9683SOL     OW29947   2.524   6.076   1.949
 9683SOL    HW129948   2.487   6.029   1.869
 9683SOL    HW229949   2.449   6.110   2.006
 9684SOL     OW29950   1.046   4.048   5.759
 9684SOL    HW129951   1.045   3.948   5.749
 9684SOL    HW229952   0.975   4.088   5.700
 9685SOL     OW29953   3.879   4.653   1.462
 9685SOL    HW129954   3.945   4.589   1.421
 9685SOL    HW229955   3.841   4.712   1.391
 9686SOL     OW29956   0.048   1.931   6.036
 9686SOL    HW129957   0.045   1.832   6.025
 9686SOL    HW229958   7.013   1.974   5.966
 9687SOL     OW29959   5.518   0.669   2.039
 9687SOL    HW129960   5.468   0.618   1.968
 9687SOL    HW229961   5.599   0.711   1.999
 9688SOL     OW29962   0.286   4.433   1.353
 9688SOL    HW129963   0.226   4.471   1.424
 9688SOL    HW229964   0.366   4.391   1.396
 9689SOL     OW29965   1.155   6.510   0.688
 9689SOL    HW129966   1.070   6.534   0.736
 9689SOL    HW229967   1.134   6.481   0.595
 9690SOL     OW29968   6.214   5.313   5.265
 9690SOL    HW129969   6.208   5.224   5.221
 9690SOL    HW229970   6.188   5.384   5.200
 9691SOL     OW29971   3.087   3.925   1.594
 9691SOL    HW129972   2.999   3.882   1.572
 9691SOL    HW229973   3.073   3.999   1.659
 9692SOL     OW29974   5.166   4.914   0.783
 9692SOL    HW129975   5.083   4.935   0.835
 9692SOL    HW229976   5.152   4.829   0.733
 9693SOL     OW29977   5.212   3.817   4.152
 9693SOL    HW129978   5.167   3.738   4.110
 9693SOL    HW229979   5.224   3.889   4.083
 9694SOL     OW29980   3.621   6.637   2.385
 9694SOL    HW129981   3.523   6.655   2.393
 9694SOL    HW229982   3.673   6.712   2.426
 9695SOL     OW29983   0.946   2.641   3.599
 9695SOL    HW129984   0.887   2.721   3.603
 9695SOL    HW229985   0.891   2.560   3.579
 9696SOL     OW29986   5.723   1.945   2.428
 9696SOL    HW129987   5.635   1.986   2.451
 9696SOL    HW229988   5.775   1.929   2.512
 9697SOL     OW29989   0.608   6.108   0.551
 9697SOL    HW129990   0.670   6.107   0.473
 9697SOL    HW229991   0.565   6.198   0.558
 9698SOL     OW29992   5.885   3.308   0.339
 9698SOL    HW129993   5.872   3.404   0.364
 9698SOL    HW229994   5.798   3.269   0.309
 9699SOL     OW29995   1.320   5.460   1.094
 9699SOL    HW129996   1.286   5.552   1.113
 9699SOL    HW229997   1.252   5.393   1.123
 9700SOL     OW29998   5.648   0.150   4.992
 9700SOL    HW129999   5.631   0.241   5.030
 9700SOL    HW230000   5.734   0.114   5.028
 9701SOL     OW30001   4.454   3.329   6.364
 9701SOL    HW130002   4.450   3.394   6.440
 9701SOL    HW230003   4.379   3.347   6.301
 9702SOL     OW30004   3.900   2.702   1.335
 9702SOL    HW130005   3.865   2.662   1.250
 9702SOL    HW230006   3.970   2.643   1.373
 9703SOL     OW30007   6.666   4.031   4.918
 9703SOL    HW130008   6.720   4.079   4.988
 9703SOL    HW230009   6.647   4.093   4.842
 9704SOL     OW30010   2.295   4.122   3.153
 9704SOL    HW130011   2.323   4.055   3.085
 9704SOL    HW230012   2.279   4.077   3.240
 9705SOL     OW30013   6.486   3.413   5.599
 9705SOL    HW130014   6.435   3.479   5.544
 9705SOL    HW230015   6.459   3.423   5.695
 9706SOL     OW30016   1.522   1.934   2.244
 9706SOL    HW130017   1.437   1.970   2.281
 9706SOL    HW230018   1.583   2.010   2.221
 9707SOL     OW30019   6.437   4.958   2.584
 9707SOL    HW130020   6.362   4.898   2.558
 9707SOL    HW230021   6.498   4.970   2.506
 9708SOL     OW30022   2.304   0.438   2.362
 9708SOL    HW130023   2.385   0.467   2.413
 9708SOL    HW230024   2.222   0.470   2.409
 9709SOL     OW30025   5.809   2.062   2.202
 9709SOL    HW130026   5.799   2.029   2.296
 9709SOL    HW230027   5.835   2.158   2.202
 9710SOL     OW30028   6.162   5.939   4.268
 9710SOL    HW130029   6.216   5.867   4.226
 9710SOL    HW230030   6.126   6.000   4.197
 9711SOL     OW30031   4.243   0.110   0.046
 9711SOL    HW130032   4.310   0.055   7.018
 9711SOL    HW230033   4.269   0.117   0.142
 9712SOL     OW30034   5.594   2.116   6.922
 9712SOL    HW130035   5.587   2.120   6.822
 9712SOL    HW230036   5.512   2.155   6.963
 9713SOL     OW30037   0.928   6.734   3.871
 9713SOL    HW130038   1.011   6.701   3.825
 9713SOL    HW230039   0.857   6.663   3.866
 9714SOL     OW30040   2.710   4.803   4.902
 9714SOL    HW130041   2.647   4.819   4.978
 9714SOL    HW230042   2.735   4.707   4.899
 9715SOL     OW30043   6.537   3.847   0.164
 9715SOL    HW130044   6.544   3.804   0.254
 9715SOL    HW230045   6.596   3.928   0.161
 9716SOL     OW30046   3.047   5.019   6.993
 9716SOL    HW130047   2.979   5.025   6.920
 9716SOL    HW230048   3.028   4.939   0.028
 9717SOL     OW30049   4.466   0.957   5.205
 9717SOL    HW130050   4.391   1.003   5.253
 9717SOL    HW230051   4.479   0.999   5.115
 9718SOL     OW30052   3.053   2.053   0.216
 9718SOL    HW130053   3.046   2.153   0.215
 9718SOL    HW230054   3.149   2.026   0.224
 9719SOL     OW30055   4.803   6.258   5.212
 9719SOL    HW130056   4.814   6.353   5.239
 9719SOL    HW230057   4.706   6.238   5.197
 9720SOL     OW30058   2.115   3.671   3.182
 9720SOL    HW130059   2.055   3.593   3.199
 9720SOL    HW230060   2.157   3.662   3.092
 9721SOL     OW30061   0.806   1.573   0.897
 9721SOL    HW130062   0.842   1.509   0.830
 9721SOL    HW230063   0.722   1.615   0.862
 9722SOL     OW30064   3.893   3.164   5.051
 9722SOL    HW130065   3.863   3.070   5.036
 9722SOL    HW230066   3.967   3.166   5.117
 9723SOL     OW30067   6.257   5.715   4.154
 9723SOL    HW130068   6.240   5.677   4.063
 9723SOL    HW230069   6.243   5.644   4.223
 9724SOL     OW30070   0.717   5.364   0.179
 9724SOL    HW130071   0.693   5.398   0.270
 9724SOL    HW230072   0.754   5.440   0.124
 9725SOL     OW30073   3.406   5.446   5.611
 9725SOL    HW130074   3.366   5.355   5.604
 9725SOL    HW230075   3.452   5.455   5.700
 9726SOL     OW30076   6.133   1.123   4.283
 9726SOL    HW130077   6.209   1.059   4.298
 9726SOL    HW230078   6.052   1.089   4.331
 9727SOL     OW30079   1.139   1.286   6.813
 9727SOL    HW130080   1.040   1.290   6.833
 9727SOL    HW230081   1.186   1.242   6.889
 9728SOL     OW30082   5.303   0.194   6.075
 9728SOL    HW130083   5.280   0.248   6.156
 9728SOL    HW230084   5.385   0.140   6.094
 9729SOL     OW30085   0.359   5.238   3.237
 9729SOL    HW130086   0.453   5.267   3.259
 9729SOL    HW230087   0.336   5.156   3.290
 9730SOL     OW30088   0.046   4.462   3.405
 9730SOL    HW130089   0.051   4.366   3.433
 9730SOL    HW230090   0.054   4.468   3.305
 9731SOL     OW30091   5.180   3.767   2.326
 9731SOL    HW130092   5.195   3.730   2.418
 9731SOL    HW230093   5.100   3.723   2.285
 9732SOL     OW30094   1.241   3.243   2.283
 9732SOL    HW130095   1.153   3.203   2.259
 9732SOL    HW230096   1.308   3.170   2.299
 9733SOL     OW30097   6.301   5.253   2.492
 9733SOL    HW130098   6.230   5.207   2.440
 9733SOL    HW230099   6.332   5.334   2.442
 9734SOL     OW30100   5.860   6.640   5.484
 9734SOL    HW130101   5.896   6.676   5.570
 9734SOL    HW230102   5.765   6.667   5.474
 9735SOL     OW30103   1.490   2.315   2.305
 9735SOL    HW130104   1.581   2.274   2.295
 9735SOL    HW230105   1.496   2.391   2.370
 9736SOL     OW30106   4.839   2.306   5.238
 9736SOL    HW130107   4.793   2.395   5.234
 9736SOL    HW230108   4.809   2.249   5.161
 9737SOL     OW30109   5.931   2.232   2.622
 9737SOL    HW130110   5.968   2.307   2.676
 9737SOL    HW230111   5.832   2.243   2.612
 9738SOL     OW30112   1.569   5.725   2.393
 9738SOL    HW130113   1.649   5.783   2.383
 9738SOL    HW230114   1.566   5.687   2.486
 9739SOL     OW30115   5.761   6.965   0.091
 9739SOL    HW130116   5.766   6.865   0.088
 9739SOL    HW230117   5.829   7.004   0.030
 9740SOL     OW30118   0.204   1.036   1.927
 9740SOL    HW130119   0.161   0.946   1.913
 9740SOL    HW230120   0.282   1.046   1.865
 9741SOL     OW30121   3.092   1.224   4.670
 9741SOL    HW130122   3.166   1.157   4.674
 9741SOL    HW230123   3.005   1.176   4.655
 9742SOL     OW30124   3.978   2.319   5.819
 9742SOL    HW130125   4.047   2.254   5.852
 9742SOL    HW230126   3.913   2.338   5.892
 9743SOL     OW30127   6.172   3.452   3.975
 9743SOL    HW130128   6.168   3.357   4.007
 9743SOL    HW230129   6.214   3.509   4.045
 9744SOL     OW30130   2.030   0.219   3.985
 9744SOL    HW130131   1.974   0.272   3.921
 9744SOL    HW230132   1.970   0.173   4.051
 9745SOL     OW30133   6.521   0.724   5.690
 9745SOL    HW130134   6.621   0.714   5.693
 9745SOL    HW230135   6.481   0.640   5.654
 9746SOL     OW30136   4.266   5.160   6.109
 9746SOL    HW130137   4.187   5.102   6.129
 9746SOL    HW230138   4.340   5.140   6.173
 9747SOL     OW30139   2.213   2.681   2.927
 9747SOL    HW130140   2.230   2.690   2.829
 9747SOL    HW230141   2.297   2.650   2.973
 9748SOL     OW30142   1.273   0.667   3.407
 9748SOL    HW130143   1.202   0.647   3.339
 9748SOL    HW230144   1.239   0.734   3.472
 9749SOL     OW30145   6.531   1.514   2.032
 9749SOL    HW130146   6.440   1.542   2.001
 9749SOL    HW230147   6.595   1.590   2.022
 9750SOL     OW30148   6.472   4.756   3.800
 9750SOL    HW130149   6.469   4.676   3.740
 9750SOL    HW230150   6.477   4.839   3.745
 9751SOL     OW30151   2.691   1.017   1.837
 9751SOL    HW130152   2.728   0.927   1.816
 9751SOL    HW230153   2.679   1.069   1.752
 9752SOL     OW30154   3.691   3.256   0.071
 9752SOL    HW130155   3.605   3.277   0.024
 9752SOL    HW230156   3.731   3.173   0.032
 9753SOL     OW30157   6.475   5.806   4.869
 9753SOL    HW130158   6.415   5.810   4.789
 9753SOL    HW230159   6.488   5.899   4.905
 9754SOL     OW30160   3.635   0.825   1.376
 9754SOL    HW130161   3.603   0.794   1.286
 9754SOL    HW230162   3.557   0.838   1.437
 9755SOL     OW30163   3.408   4.291   6.463
 9755SOL    HW130164   3.366   4.241   6.387
 9755SOL    HW230165   3.507   4.276   6.463
 9756SOL     OW30166   5.896   0.867   6.271
 9756SOL    HW130167   5.810   0.817   6.268
 9756SOL    HW230168   5.908   0.918   6.186
 9757SOL     OW30169   4.871   3.736   3.694
 9757SOL    HW130170   4.957   3.785   3.676
 9757SOL    HW230171   4.891   3.640   3.715
 9758SOL     OW30172   1.817   0.639   0.992
 9758SOL    HW130173   1.717   0.638   0.987
 9758SOL    HW230174   1.853   0.701   0.923
 9759SOL     OW30175   1.121   1.180   0.401
 9759SOL    HW130176   1.158   1.257   0.349
 9759SOL    HW230177   1.165   1.175   0.490
 9760SOL     OW30178   4.465   2.347   0.384
 9760SOL    HW130179   4.463   2.277   0.313
 9760SOL    HW230180   4.525   2.317   0.458
 9761SOL     OW30181   1.698   1.795   1.685
 9761SOL    HW130182   1.711   1.827   1.591
 9761SOL    HW230183   1.727   1.699   1.692
 9762SOL     OW30184   2.482   1.823   5.707
 9762SOL    HW130185   2.504   1.818   5.610
 9762SOL    HW230186   2.383   1.826   5.719
 9763SOL     OW30187   6.170   1.619   0.942
 9763SOL    HW130188   6.237   1.667   0.999
 9763SOL    HW230189   6.081   1.620   0.988
 9764SOL     OW30190   5.416   1.902   2.143
 9764SOL    HW130191   5.418   2.001   2.137
 9764SOL    HW230192   5.329   1.868   2.107
 9765SOL     OW30193   6.629   1.103   1.295
 9765SOL    HW130194   6.603   1.127   1.388
 9765SOL    HW230195   6.729   1.105   1.287
 9766SOL     OW30196   2.070   0.976   4.523
 9766SOL    HW130197   1.992   0.916   4.538
 9766SOL    HW230198   2.153   0.933   4.560
 9767SOL     OW30199   2.149   3.390   5.594
 9767SOL    HW130200   2.089   3.323   5.549
 9767SOL    HW230201   2.107   3.421   5.679
 9768SOL     OW30202   6.311   2.435   0.803
 9768SOL    HW130203   6.384   2.448   0.870
 9768SOL    HW230204   6.226   2.473   0.838
 9769SOL     OW30205   2.986   1.939   4.942
 9769SOL    HW130206   3.019   2.023   4.900
 9769SOL    HW230207   2.913   1.960   5.007
 9770SOL     OW30208   3.067   2.411   6.464
 9770SOL    HW130209   3.103   2.490   6.415
 9770SOL    HW230210   3.026   2.347   6.399
 9771SOL     OW30211   2.733   6.223   2.885
 9771SOL    HW130212   2.819   6.172   2.890
 9771SOL    HW230213   2.718   6.273   2.970
 9772SOL     OW30214   1.066   6.432   1.522
 9772SOL    HW130215   1.019   6.363   1.577
 9772SOL    HW230216   1.143   6.390   1.474
 9773SOL     OW30217   4.730   5.582   2.092
 9773SOL    HW130218   4.825   5.550   2.086
 9773SOL    HW230219   4.689   5.547   2.176
 9774SOL     OW30220   0.543   5.803   4.450
 9774SOL    HW130221   0.618   5.746   4.418
 9774SOL    HW230222   0.456   5.770   4.412
 9775SOL     OW30223   2.200   0.725   3.998
 9775SOL    HW130224   2.105   0.735   3.969
 9775SOL    HW230225   2.260   0.734   3.919
 9776SOL     OW30226   1.607   6.011   6.622
 9776SOL    HW130227   1.644   6.023   6.530
 9776SOL    HW230228   1.590   5.914   6.639
 9777SOL     OW30229   5.027   0.137   6.098
 9777SOL    HW130230   5.123   0.108   6.097
 9777SOL    HW230231   5.019   0.226   6.143
 9778SOL     OW30232   0.392   2.277   4.391
 9778SOL    HW130233   0.394   2.366   4.346
 9778SOL    HW230234   0.309   2.269   4.447
 9779SOL     OW30235   1.149   1.548   3.934
 9779SOL    HW130236   1.122   1.554   4.030
 9779SOL    HW230237   1.245   1.575   3.924
 9780SOL     OW30238   2.153   2.151   1.195
 9780SOL    HW130239   2.109   2.158   1.285
 9780SOL    HW230240   2.168   2.055   1.172
 9781SOL     OW30241   1.958   3.265   3.912
 9781SOL    HW130242   1.989   3.267   4.007
 9781SOL    HW230243   2.034   3.240   3.852
 9782SOL     OW30244   0.121   2.429   1.307
 9782SOL    HW130245   0.206   2.392   1.345
 9782SOL    HW230246   0.142   2.484   1.226
 9783SOL     OW30247   3.401   1.611   3.073
 9783SOL    HW130248   3.392   1.544   3.146
 9783SOL    HW230249   3.494   1.648   3.072
 9784SOL     OW30250   1.884   1.624   0.476
 9784SOL    HW130251   1.939   1.569   0.412
 9784SOL    HW230252   1.787   1.609   0.458
 9785SOL     OW30253   6.953   1.934   4.382
 9785SOL    HW130254   6.997   1.844   4.380
 9785SOL    HW230255   7.011   2.001   4.336
 9786SOL     OW30256   2.438   4.822   1.303
 9786SOL    HW130257   2.396   4.792   1.217
 9786SOL    HW230258   2.492   4.747   1.341
 9787SOL     OW30259   3.562   3.020   3.025
 9787SOL    HW130260   3.518   3.104   3.058
 9787SOL    HW230261   3.510   2.983   2.948
 9788SOL     OW30262   6.841   6.433   1.638
 9788SOL    HW130263   6.894   6.503   1.589
 9788SOL    HW230264   6.759   6.410   1.585
 9789SOL     OW30265   3.416   0.278   6.793
 9789SOL    HW130266   3.328   0.279   6.839
 9789SOL    HW230267   3.412   0.216   6.714
 9790SOL     OW30268   0.000   4.356   4.627
 9790SOL    HW130269   0.054   4.328   4.548
 9790SOL    HW230270   6.951   4.420   4.599
 9791SOL     OW30271   0.955   6.343   1.007
 9791SOL    HW130272   0.928   6.322   1.101
 9791SOL    HW230273   1.053   6.330   0.996
 9792SOL     OW30274   4.136   5.651   1.223
 9792SOL    HW130275   4.168   5.694   1.139
 9792SOL    HW230276   4.106   5.722   1.287
 9793SOL     OW30277   4.631   1.509   2.315
 9793SOL    HW130278   4.583   1.463   2.390
 9793SOL    HW230279   4.614   1.460   2.230
 9794SOL     OW30280   4.656   4.380   4.927
 9794SOL    HW130281   4.606   4.368   5.013
 9794SOL    HW230282   4.597   4.428   4.861
 9795SOL     OW30283   0.972   3.815   3.444
 9795SOL    HW130284   1.029   3.897   3.436
 9795SOL    HW230285   0.876   3.841   3.445
 9796SOL     OW30286   3.264   3.721   3.539
 9796SOL    HW130287   3.362   3.730   3.556
 9796SOL    HW230288   3.214   3.792   3.589
 9797SOL     OW30289   2.959   6.810   6.647
 9797SOL    HW130290   2.978   6.902   6.612
 9797SOL    HW230291   2.994   6.742   6.583
 9798SOL     OW30292   1.255   3.135   0.502
 9798SOL    HW130293   1.344   3.095   0.483
 9798SOL    HW230294   1.211   3.086   0.577
 9799SOL     OW30295   2.811   6.669   6.253
 9799SOL    HW130296   2.899   6.659   6.206
 9799SOL    HW230297   2.813   6.616   6.337
 9800SOL     OW30298   5.992   3.432   4.649
 9800SOL    HW130299   5.936   3.504   4.608
 9800SOL    HW230300   6.081   3.471   4.676
 9801SOL     OW30301   5.811   5.341   6.111
 9801SOL    HW130302   5.897   5.292   6.098
 9801SOL    HW230303   5.738   5.275   6.131
 9802SOL     OW30304   4.428   4.922   1.214
 9802SOL    HW130305   4.454   5.016   1.192
 9802SOL    HW230306   4.498   4.881   1.272
 9803SOL     OW30307   0.930   4.082   6.351
 9803SOL    HW130308   0.850   4.099   6.294
 9803SOL    HW230309   0.928   3.988   6.386
 9804SOL     OW30310   6.442   5.837   2.565
 9804SOL    HW130311   6.458   5.744   2.530
 9804SOL    HW230312   6.525   5.872   2.607
 9805SOL     OW30313   0.409   6.691   3.673
 9805SOL    HW130314   0.315   6.685   3.707
 9805SOL    HW230315   0.471   6.712   3.749
 9806SOL     OW30316   3.202   2.336   6.193
 9806SOL    HW130317   3.257   2.400   6.140
 9806SOL    HW230318   3.106   2.362   6.187
 9807SOL     OW30319   2.920   3.727   1.889
 9807SOL    HW130320   2.923   3.639   1.936
 9807SOL    HW230321   2.859   3.721   1.809
 9808SOL     OW30322   4.445   6.631   3.620
 9808SOL    HW130323   4.399   6.712   3.584
 9808SOL    HW230324   4.534   6.656   3.658
 9809SOL     OW30325   0.034   2.606   0.814
 9809SOL    HW130326   6.965   2.647   0.811
 9809SOL    HW230327   0.030   2.513   0.779
 9810SOL     OW30328   2.022   1.625   6.487
 9810SOL    HW130329   2.061   1.708   6.448
 9810SOL    HW230330   2.069   1.602   6.572
 9811SOL     OW30331   6.262   3.992   4.044
 9811SOL    HW130332   6.222   4.025   3.959
 9811SOL    HW230333   6.356   4.023   4.052
 9812SOL     OW30334   2.417   6.700   4.671
 9812SOL    HW130335   2.485   6.628   4.678
 9812SOL    HW230336   2.350   6.677   4.600
 9813SOL     OW30337   4.891   2.159   0.789
 9813SOL    HW130338   4.939   2.232   0.836
 9813SOL    HW230339   4.792   2.177   0.791
 9814SOL     OW30340   5.853   1.697   0.369
 9814SOL    HW130341   5.800   1.643   0.303
 9814SOL    HW230342   5.852   1.652   0.458
 9815SOL     OW30343   4.440   2.506   4.320
 9815SOL    HW130344   4.449   2.502   4.221
 9815SOL    HW230345   4.365   2.447   4.349
 9816SOL     OW30346   1.543   0.607   0.944
 9816SOL    HW130347   1.539   0.628   0.846
 9816SOL    HW230348   1.467   0.545   0.967
 9817SOL     OW30349   0.626   0.134   3.630
 9817SOL    HW130350   0.667   0.222   3.654
 9817SOL    HW230351   0.547   0.117   3.689
 9818SOL     OW30352   6.362   2.414   4.693
 9818SOL    HW130353   6.446   2.393   4.743
 9818SOL    HW230354   6.296   2.339   4.707
 9819SOL     OW30355   3.685   1.794   3.585
 9819SOL    HW130356   3.753   1.775   3.514
 9819SOL    HW230357   3.726   1.849   3.657
 9820SOL     OW30358   3.817   4.471   5.983
 9820SOL    HW130359   3.859   4.505   6.067
 9820SOL    HW230360   3.886   4.422   5.929
 9821SOL     OW30361   5.054   5.897   6.851
 9821SOL    HW130362   5.146   5.907   6.814
 9821SOL    HW230363   4.997   5.847   6.786
 9822SOL     OW30364   0.724   0.015   2.673
 9822SOL    HW130365   0.710   0.072   2.591
 9822SOL    HW230366   0.820   7.011   2.679
 9823SOL     OW30367   3.387   0.946   2.587
 9823SOL    HW130368   3.447   0.933   2.667
 9823SOL    HW230369   3.365   0.857   2.547
 9824SOL     OW30370   1.108   4.396   5.252
 9824SOL    HW130371   1.059   4.482   5.262
 9824SOL    HW230372   1.119   4.353   5.342
 9825SOL     OW30373   3.616   5.119   5.708
 9825SOL    HW130374   3.606   5.035   5.654
 9825SOL    HW230375   3.670   5.186   5.656
 9826SOL     OW30376   4.486   6.486   5.838
 9826SOL    HW130377   4.426   6.515   5.764
 9826SOL    HW230378   4.467   6.540   5.920
 9827SOL     OW30379   1.840   4.339   4.990
 9827SOL    HW130380   1.931   4.351   5.029
 9827SOL    HW230381   1.791   4.426   4.993
 9828SOL     OW30382   3.987   2.337   6.910
 9828SOL    HW130383   4.066   2.299   6.960
 9828SOL    HW230384   4.012   2.424   6.869
 9829SOL     OW30385   2.954   6.306   0.449
 9829SOL    HW130386   2.871   6.358   0.431
 9829SOL    HW230387   3.029   6.343   0.394
 9830SOL     OW30388   5.434   1.228   0.695
 9830SOL    HW130389   5.409   1.279   0.613
 9830SOL    HW230390   5.492   1.150   0.669
 9831SOL     OW30391   1.244   6.245   1.438
 9831SOL    HW130392   1.241   6.241   1.338
 9831SOL    HW230393   1.336   6.222   1.470
 9832SOL     OW30394   4.447   5.411   2.038
 9832SOL    HW130395   4.489   5.474   2.104
 9832SOL    HW230396   4.397   5.340   2.086
 9833SOL     OW30397   3.647   3.920   4.882
 9833SOL    HW130398   3.614   4.013   4.864
 9833SOL    HW230399   3.593   3.879   4.956
 9834SOL     OW30400   2.253   3.994   5.804
 9834SOL    HW130401   2.274   4.043   5.720
 9834SOL    HW230402   2.279   3.898   5.794
 9835SOL     OW30403   4.974   1.524   4.600
 9835SOL    HW130404   5.020   1.582   4.532
 9835SOL    HW230405   5.038   1.502   4.674
 9836SOL     OW30406   5.667   3.639   3.215
 9836SOL    HW130407   5.574   3.654   3.182
 9836SOL    HW230408   5.671   3.663   3.313
 9837SOL     OW30409   2.167   0.359   4.187
 9837SOL    HW130410   2.098   0.348   4.115
 9837SOL    HW230411   2.188   0.270   4.227
 9838SOL     OW30412   0.997   6.501   5.968
 9838SOL    HW130413   1.083   6.453   5.983
 9838SOL    HW230414   0.996   6.539   5.875
 9839SOL     OW30415   6.725   1.701   1.969
 9839SOL    HW130416   6.775   1.705   1.883
 9839SOL    HW230417   6.769   1.761   2.036
 9840SOL     OW30418   0.415   0.803   0.730
 9840SOL    HW130419   0.347   0.731   0.728
 9840SOL    HW230420   0.373   0.889   0.760
 9841SOL     OW30421   1.293   3.906   4.860
 9841SOL    HW130422   1.363   3.969   4.825
 9841SOL    HW230423   1.319   3.812   4.837
 9842SOL     OW30424   3.546   3.297   3.175
 9842SOL    HW130425   3.588   3.285   3.265
 9842SOL    HW230426   3.613   3.332   3.111
 9843SOL     OW30427   6.319   2.050   1.095
 9843SOL    HW130428   6.378   2.006   1.028
 9843SOL    HW230429   6.268   1.980   1.146
 9844SOL     OW30430   4.310   6.676   2.802
 9844SOL    HW130431   4.215   6.708   2.802
 9844SOL    HW230432   4.333   6.640   2.712
 9845SOL     OW30433   2.771   1.844   4.801
 9845SOL    HW130434   2.856   1.841   4.853
 9845SOL    HW230435   2.749   1.753   4.768
 9846SOL     OW30436   3.224   4.099   3.241
 9846SOL    HW130437   3.232   4.118   3.143
 9846SOL    HW230438   3.166   4.019   3.255
 9847SOL     OW30439   2.852   3.055   6.127
 9847SOL    HW130440   2.809   3.070   6.216
 9847SOL    HW230441   2.782   3.057   6.056
 9848SOL     OW30442   4.503   2.633   6.551
 9848SOL    HW130443   4.563   2.670   6.480
 9848SOL    HW230444   4.467   2.544   6.521
 9849SOL     OW30445   6.170   0.759   6.876
 9849SOL    HW130446   6.249   0.746   6.937
 9849SOL    HW230447   6.195   0.821   6.803
 9850SOL     OW30448   4.148   6.294   2.653
 9850SOL    HW130449   4.164   6.207   2.606
 9850SOL    HW230450   4.143   6.368   2.586
 9851SOL     OW30451   4.332   1.867   5.170
 9851SOL    HW130452   4.420   1.819   5.173
 9851SOL    HW230453   4.263   1.808   5.128
 9852SOL     OW30454   4.458   1.911   3.403
 9852SOL    HW130455   4.547   1.874   3.427
 9852SOL    HW230456   4.413   1.947   3.485
 9853SOL     OW30457   5.407   3.894   2.192
 9853SOL    HW130458   5.350   3.845   2.257
 9853SOL    HW230459   5.363   3.981   2.167
 9854SOL     OW30460   5.936   5.296   4.810
 9854SOL    HW130461   6.024   5.337   4.836
 9854SOL    HW230462   5.946   5.197   4.806
 9855SOL     OW30463   0.711   4.701   1.322
 9855SOL    HW130464   0.679   4.656   1.405
 9855SOL    HW230465   0.766   4.637   1.269
 9856SOL     OW30466   4.021   4.149   0.751
 9856SOL    HW130467   4.018   4.099   0.665
 9856SOL    HW230468   4.061   4.239   0.736
 9857SOL     OW30469   5.255   1.682   2.655
 9857SOL    HW130470   5.296   1.630   2.730
 9857SOL    HW230471   5.293   1.775   2.654
 9858SOL     OW30472   5.117   0.573   1.715
 9858SOL    HW130473   5.128   0.661   1.669
 9858SOL    HW230474   5.055   0.515   1.663
 9859SOL     OW30475   6.217   0.405   1.255
 9859SOL    HW130476   6.224   0.309   1.227
 9859SOL    HW230477   6.132   0.444   1.219
 9860SOL     OW30478   0.146   1.039   1.344
 9860SOL    HW130479   0.142   0.952   1.296
 9860SOL    HW230480   0.209   1.101   1.296
 9861SOL     OW30481   3.358   6.216   4.602
 9861SOL    HW130482   3.415   6.229   4.521
 9861SOL    HW230483   3.290   6.289   4.607
 9862SOL     OW30484   2.515   3.433   1.103
 9862SOL    HW130485   2.546   3.508   1.161
 9862SOL    HW230486   2.491   3.355   1.160
 9863SOL     OW30487   3.188   6.947   2.879
 9863SOL    HW130488   3.164   6.922   2.785
 9863SOL    HW230489   3.207   0.023   2.883
 9864SOL     OW30490   4.399   5.944   3.791
 9864SOL    HW130491   4.332   5.893   3.736
 9864SOL    HW230492   4.487   5.945   3.744
 9865SOL     OW30493   0.497   0.444   3.515
 9865SOL    HW130494   0.564   0.373   3.494
 9865SOL    HW230495   0.459   0.479   3.430
 9866SOL     OW30496   4.945   4.321   4.610
 9866SOL    HW130497   4.975   4.334   4.704
 9866SOL    HW230498   4.964   4.404   4.558
 9867SOL     OW30499   3.965   0.784   0.245
 9867SOL    HW130500   3.950   0.720   0.320
 9867SOL    HW230501   4.052   0.764   0.201
 9868SOL     OW30502   0.765   4.497   0.060
 9868SOL    HW130503   0.850   4.454   0.029
 9868SOL    HW230504   0.787   4.576   0.118
 9869SOL     OW30505   1.774   4.009   3.602
 9869SOL    HW130506   1.750   3.917   3.572
 9869SOL    HW230507   1.871   4.012   3.625
 9870SOL     OW30508   4.769   5.942   2.509
 9870SOL    HW130509   4.818   5.859   2.537
 9870SOL    HW230510   4.829   5.997   2.451
 9871SOL     OW30511   1.568   0.337   6.038
 9871SOL    HW130512   1.640   0.300   6.098
 9871SOL    HW230513   1.583   0.435   6.025
 9872SOL     OW30514   2.589   5.088   3.066
 9872SOL    HW130515   2.551   5.119   2.979
 9872SOL    HW230516   2.688   5.101   3.066
 9873SOL     OW30517   2.317   2.779   0.893
 9873SOL    HW130518   2.352   2.868   0.922
 9873SOL    HW230519   2.339   2.765   0.796
 9874SOL     OW30520   0.810   2.077   3.884
 9874SOL    HW130521   0.778   2.063   3.978
 9874SOL    HW230522   0.868   2.001   3.857
 9875SOL     OW30523   0.898   0.621   1.964
 9875SOL    HW130524   0.957   0.701   1.973
 9875SOL    HW230525   0.828   0.623   2.035
 9876SOL     OW30526   6.848   0.845   2.323
 9876SOL    HW130527   6.773   0.787   2.353
 9876SOL    HW230528   6.837   0.868   2.227
 9877SOL     OW30529   2.306   6.320   2.728
 9877SOL    HW130530   2.397   6.308   2.688
 9877SOL    HW230531   2.265   6.403   2.692
 9878SOL     OW30532   1.886   5.604   6.097
 9878SOL    HW130533   1.909   5.544   6.174
 9878SOL    HW230534   1.957   5.598   6.027
 9879SOL     OW30535   5.135   5.238   4.379
 9879SOL    HW130536   5.205   5.172   4.406
 9879SOL    HW230537   5.180   5.322   4.347
 9880SOL     OW30538   1.842   3.023   5.174
 9880SOL    HW130539   1.846   3.091   5.100
 9880SOL    HW230540   1.935   3.005   5.208
 9881SOL     OW30541   1.455   2.687   5.131
 9881SOL    HW130542   1.536   2.743   5.144
 9881SOL    HW230543   1.446   2.622   5.207
 9882SOL     OW30544   1.250   2.102   3.622
 9882SOL    HW130545   1.327   2.142   3.670
 9882SOL    HW230546   1.165   2.147   3.650
 9883SOL     OW30547   0.896   5.939   1.160
 9883SOL    HW130548   0.978   5.932   1.217
 9883SOL    HW230549   0.816   5.910   1.213
 9884SOL     OW30550   4.122   1.585   3.407
 9884SOL    HW130551   4.191   1.642   3.363
 9884SOL    HW230552   4.097   1.625   3.496
 9885SOL     OW30553   0.119   3.974   5.375
 9885SOL    HW130554   0.020   3.958   5.376
 9885SOL    HW230555   0.140   4.051   5.316
 9886SOL     OW30556   0.760   5.115   2.802
 9886SOL    HW130557   0.717   5.152   2.884
 9886SOL    HW230558   0.729   5.166   2.722
 9887SOL     OW30559   3.889   1.420   6.506
 9887SOL    HW130560   3.964   1.460   6.558
 9887SOL    HW230561   3.802   1.440   6.552
 9888SOL     OW30562   0.270   4.272   0.893
 9888SOL    HW130563   0.279   4.185   0.941
 9888SOL    HW230564   0.174   4.286   0.866
 9889SOL     OW30565   6.750   5.289   0.859
 9889SOL    HW130566   6.667   5.234   0.857
 9889SOL    HW230567   6.808   5.264   0.781
 9890SOL     OW30568   2.034   2.103   0.374
 9890SOL    HW130569   1.990   2.096   0.285
 9890SOL    HW230570   2.129   2.073   0.367
 9891SOL     OW30571   6.241   2.542   0.387
 9891SOL    HW130572   6.311   2.582   0.446
 9891SOL    HW230573   6.236   2.594   0.302
 9892SOL     OW30574   6.646   5.816   6.969
 9892SOL    HW130575   6.723   5.877   6.983
 9892SOL    HW230576   6.561   5.869   6.967
 9893SOL     OW30577   1.795   0.369   1.063
 9893SOL    HW130578   1.811   0.465   1.041
 9893SOL    HW230579   1.882   0.319   1.057
 9894SOL     OW30580   2.265   2.384   1.519
 9894SOL    HW130581   2.190   2.319   1.526
 9894SOL    HW230582   2.340   2.344   1.466
 9895SOL     OW30583   5.241   3.377   5.271
 9895SOL    HW130584   5.338   3.358   5.254
 9895SOL    HW230585   5.225   3.475   5.266
 9896SOL     OW30586   6.130   0.065   6.402
 9896SOL    HW130587   6.182   0.056   6.318
 9896SOL    HW230588   6.182   0.120   6.468
 9897SOL     OW30589   5.214   5.696   2.934
 9897SOL    HW130590   5.242   5.703   3.030
 9897SOL    HW230591   5.218   5.601   2.905
 9898SOL     OW30592   2.230   6.096   6.457
 9898SOL    HW130593   2.329   6.106   6.441
 9898SOL    HW230594   2.200   6.167   6.521
 9899SOL     OW30595   6.837   5.728   0.354
 9899SOL    HW130596   6.851   5.825   0.334
 9899SOL    HW230597   6.796   5.718   0.445
 9900SOL     OW30598   1.595   3.628   3.771
 9900SOL    HW130599   1.692   3.612   3.789
 9900SOL    HW230600   1.540   3.585   3.843
 9901SOL     OW30601   3.048   1.872   5.937
 9901SOL    HW130602   2.953   1.871   5.905
 9901SOL    HW230603   3.068   1.786   5.984
 9902SOL     OW30604   2.770   5.009   0.220
 9902SOL    HW130605   2.744   5.036   0.128
 9902SOL    HW230606   2.779   4.909   0.224
 9903SOL     OW30607   5.021   1.323   2.156
 9903SOL    HW130608   5.018   1.310   2.057
 9903SOL    HW230609   5.075   1.250   2.197
 9904SOL     OW30610   1.447   3.052   6.816
 9904SOL    HW130611   1.495   2.978   6.863
 9904SOL    HW230612   1.441   3.032   6.718
 9905SOL     OW30613   3.480   0.589   6.748
 9905SOL    HW130614   3.494   0.647   6.668
 9905SOL    HW230615   3.529   0.502   6.736
 9906SOL     OW30616   3.410   3.128   1.905
 9906SOL    HW130617   3.477   3.159   1.837
 9906SOL    HW230618   3.318   3.141   1.869
 9907SOL     OW30619   6.670   1.049   0.278
 9907SOL    HW130620   6.637   0.986   0.349
 9907SOL    HW230621   6.647   1.143   0.304
 9908SOL     OW30622   5.191   1.599   3.386
 9908SOL    HW130623   5.135   1.532   3.434
 9908SOL    HW230624   5.259   1.637   3.450
 9909SOL     OW30625   3.860   6.894   4.216
 9909SOL    HW130626   3.879   6.988   4.246
 9909SOL    HW230627   3.839   6.894   4.118
 9910SOL     OW30628   0.737   3.577   1.896
 9910SOL    HW130629   0.700   3.647   1.835
 9910SOL    HW230630   0.747   3.616   1.988
 9911SOL     OW30631   3.120   6.890   2.204
 9911SOL    HW130632   3.180   6.965   2.233
 9911SOL    HW230633   3.176   6.812   2.176
 9912SOL     OW30634   3.849   1.581   1.783
 9912SOL    HW130635   3.863   1.584   1.882
 9912SOL    HW230636   3.879   1.493   1.748
 9913SOL     OW30637   6.404   4.218   0.306
 9913SOL    HW130638   6.330   4.179   0.362
 9913SOL    HW230639   6.365   4.267   0.229
 9914SOL     OW30640   6.262   3.225   4.886
 9914SOL    HW130641   6.272   3.150   4.952
 9914SOL    HW230642   6.167   3.257   4.886
 9915SOL     OW30643   4.562   0.650   3.393
 9915SOL    HW130644   4.559   0.750   3.393
 9915SOL    HW230645   4.627   0.619   3.325
 9916SOL     OW30646   2.152   3.038   3.439
 9916SOL    HW130647   2.055   3.060   3.442
 9916SOL    HW230648   2.184   3.014   3.530
 9917SOL     OW30649   5.944   3.321   6.834
 9917SOL    HW130650   5.850   3.335   6.864
 9917SOL    HW230651   5.977   3.403   6.786
 9918SOL     OW30652   3.332   1.376   2.937
 9918SOL    HW130653   3.240   1.348   2.963
 9918SOL    HW230654   3.368   1.441   3.004
 9919SOL     OW30655   5.690   5.545   1.259
 9919SOL    HW130656   5.775   5.508   1.224
 9919SOL    HW230657   5.618   5.538   1.190
 9920SOL     OW30658   4.381   1.768   1.842
 9920SOL    HW130659   4.418   1.766   1.750
 9920SOL    HW230660   4.300   1.826   1.845
 9921SOL     OW30661   4.556   5.688   6.083
 9921SOL    HW130662   4.528   5.768   6.136
 9921SOL    HW230663   4.640   5.650   6.122
 9922SOL     OW30664   1.411   5.130   0.423
 9922SOL    HW130665   1.481   5.063   0.400
 9922SOL    HW230666   1.327   5.082   0.450
 9923SOL     OW30667   5.172   4.518   6.672
 9923SOL    HW130668   5.153   4.537   6.768
 9923SOL    HW230669   5.098   4.463   6.633
 9924SOL     OW30670   6.944   2.082   4.640
 9924SOL    HW130671   6.955   2.041   4.549
 9924SOL    HW230672   6.999   2.032   4.706
 9925SOL     OW30673   6.702   4.135   4.322
 9925SOL    HW130674   6.740   4.227   4.328
 9925SOL    HW230675   6.774   4.070   4.298
 9926SOL     OW30676   2.697   3.145   0.694
 9926SOL    HW130677   2.666   3.222   0.638
 9926SOL    HW230678   2.663   3.155   0.787
 9927SOL     OW30679   6.842   6.885   1.240
 9927SOL    HW130680   6.785   6.946   1.294
 9927SOL    HW230681   6.929   6.871   1.286
 9928SOL     OW30682   4.779   5.835   1.938
 9928SOL    HW130683   4.796   5.911   2.001
 9928SOL    HW230684   4.760   5.752   1.990
 9929SOL     OW30685   2.027   5.251   5.592
 9929SOL    HW130686   2.023   5.166   5.644
 9929SOL    HW230687   2.014   5.328   5.654
 9930SOL     OW30688   6.131   0.213   5.104
 9930SOL    HW130689   6.172   0.255   5.186
 9930SOL    HW230690   6.188   0.136   5.075
 9931SOL     OW30691   1.221   4.521   4.773
 9931SOL    HW130692   1.204   4.428   4.806
 9931SOL    HW230693   1.137   4.574   4.780
 9932SOL     OW30694   2.265   5.102   0.014
 9932SOL    HW130695   2.343   5.078   0.071
 9932SOL    HW230696   2.187   5.043   0.037
 9933SOL     OW30697   1.642   4.743   2.915
 9933SOL    HW130698   1.666   4.748   2.818
 9933SOL    HW230699   1.651   4.649   2.947
 9934SOL     OW30700   6.194   1.498   5.523
 9934SOL    HW130701   6.117   1.458   5.473
 9934SOL    HW230702   6.169   1.508   5.619
 9935SOL     OW30703   3.201   0.422   0.225
 9935SOL    HW130704   3.104   0.395   0.224
 9935SOL    HW230705   3.256   0.344   0.254
 9936SOL     OW30706   6.583   5.164   5.439
 9936SOL    HW130707   6.552   5.088   5.496
 9936SOL    HW230708   6.572   5.140   5.343
 9937SOL     OW30709   6.653   2.082   5.778
 9937SOL    HW130710   6.556   2.104   5.776
 9937SOL    HW230711   6.694   2.118   5.862
 9938SOL     OW30712   6.578   5.388   3.486
 9938SOL    HW130713   6.530   5.451   3.425
 9938SOL    HW230714   6.677   5.399   3.474
 9939SOL     OW30715   3.521   2.287   0.284
 9939SOL    HW130716   3.547   2.255   0.193
 9939SOL    HW230717   3.530   2.387   0.288
 9940SOL     OW30718   0.815   0.713   1.070
 9940SOL    HW130719   0.855   0.798   1.036
 9940SOL    HW230720   0.850   0.637   1.015
 9941SOL     OW30721   3.225   3.834   5.158
 9941SOL    HW130722   3.132   3.819   5.125
 9941SOL    HW230723   3.282   3.865   5.082
 9942SOL     OW30724   1.890   5.117   2.623
 9942SOL    HW130725   1.947   5.180   2.674
 9942SOL    HW230726   1.939   5.031   2.609
 9943SOL     OW30727   0.247   5.901   5.390
 9943SOL    HW130728   0.255   5.825   5.455
 9943SOL    HW230729   0.220   5.984   5.440
 9944SOL     OW30730   2.124   4.365   6.709
 9944SOL    HW130731   2.115   4.419   6.793
 9944SOL    HW230732   2.212   4.317   6.710
 9945SOL     OW30733   6.216   5.563   6.953
 9945SOL    HW130734   6.228   5.464   6.952
 9945SOL    HW230735   6.232   5.599   6.861
 9946SOL     OW30736   5.305   1.241   4.481
 9946SOL    HW130737   5.239   1.209   4.413
 9946SOL    HW230738   5.290   1.193   4.567
 9947SOL     OW30739   0.987   3.672   5.976
 9947SOL    HW130740   0.979   3.590   5.919
 9947SOL    HW230741   1.022   3.747   5.921
 9948SOL     OW30742   4.602   4.343   3.905
 9948SOL    HW130743   4.537   4.372   3.976
 9948SOL    HW230744   4.680   4.297   3.948
 9949SOL     OW30745   5.035   5.115   3.161
 9949SOL    HW130746   5.069   5.021   3.166
 9949SOL    HW230747   5.057   5.153   3.071
 9950SOL     OW30748   6.087   5.909   5.326
 9950SOL    HW130749   6.057   5.823   5.366
 9950SOL    HW230750   6.166   5.944   5.378
 9951SOL     OW30751   6.297   1.709   4.119
 9951SOL    HW130752   6.248   1.638   4.069
 9951SOL    HW230753   6.232   1.777   4.153
 9952SOL     OW30754   6.675   3.833   1.065
 9952SOL    HW130755   6.642   3.743   1.095
 9952SOL    HW230756   6.618   3.904   1.105
 9953SOL     OW30757   6.182   2.536   3.947
 9953SOL    HW130758   6.147   2.478   4.021
 9953SOL    HW230759   6.171   2.632   3.972
 9954SOL     OW30760   5.806   6.479   5.802
 9954SOL    HW130761   5.727   6.434   5.761
 9954SOL    HW230762   5.873   6.410   5.829
 9955SOL     OW30763   6.707   3.651   4.839
 9955SOL    HW130764   6.648   3.725   4.872
 9955SOL    HW230765   6.741   3.598   4.917
 9956SOL     OW30766   2.458   0.001   1.770
 9956SOL    HW130767   2.467   6.930   1.807
 9956SOL    HW230768   2.462   0.067   1.845
 9957SOL     OW30769   5.412   5.389   2.625
 9957SOL    HW130770   5.450   5.302   2.593
 9957SOL    HW230771   5.330   5.411   2.572
 9958SOL     OW30772   3.081   5.277   0.482
 9958SOL    HW130773   3.123   5.209   0.542
 9958SOL    HW230774   3.095   5.369   0.519
 9959SOL     OW30775   4.077   3.657   5.612
 9959SOL    HW130776   4.172   3.687   5.624
 9959SOL    HW230777   4.059   3.645   5.514
 9960SOL     OW30778   6.910   0.068   1.818
 9960SOL    HW130779   6.847   0.143   1.836
 9960SOL    HW230780   6.924   0.015   1.901
 9961SOL     OW30781   1.923   6.497   4.468
 9961SOL    HW130782   1.988   6.459   4.534
 9961SOL    HW230783   1.832   6.499   4.509
 9962SOL     OW30784   6.483   6.725   3.360
 9962SOL    HW130785   6.522   6.786   3.292
 9962SOL    HW230786   6.484   6.769   3.449
 9963SOL     OW30787   3.091   3.080   6.767
 9963SOL    HW130788   3.055   3.038   6.683
 9963SOL    HW230789   3.040   3.163   6.788
 9964SOL     OW30790   4.366   5.273   4.686
 9964SOL    HW130791   4.293   5.252   4.751
 9964SOL    HW230792   4.351   5.223   4.601
 9965SOL     OW30793   4.144   6.500   6.527
 9965SOL    HW130794   4.045   6.502   6.538
 9965SOL    HW230795   4.187   6.563   6.592
 9966SOL     OW30796   1.120   5.108   1.666
 9966SOL    HW130797   1.195   5.070   1.612
 9966SOL    HW230798   1.045   5.042   1.670
 9967SOL     OW30799   6.995   5.378   2.715
 9967SOL    HW130800   6.948   5.462   2.689
 9967SOL    HW230801   6.928   5.311   2.748
 9968SOL     OW30802   3.382   3.819   2.000
 9968SOL    HW130803   3.317   3.797   1.927
 9968SOL    HW230804   3.474   3.797   1.970
 9969SOL     OW30805   2.170   3.828   2.691
 9969SOL    HW130806   2.102   3.901   2.680
 9969SOL    HW230807   2.135   3.744   2.650
 9970SOL     OW30808   5.428   4.396   1.710
 9970SOL    HW130809   5.445   4.383   1.613
 9970SOL    HW230810   5.338   4.438   1.723
 9971SOL     OW30811   1.677   4.780   0.675
 9971SOL    HW130812   1.622   4.732   0.743
 9971SOL    HW230813   1.657   4.878   0.681
 9972SOL     OW30814   6.160   4.564   1.505
 9972SOL    HW130815   6.088   4.530   1.566
 9972SOL    HW230816   6.249   4.528   1.535
 9973SOL     OW30817   5.701   2.123   3.600
 9973SOL    HW130818   5.773   2.082   3.544
 9973SOL    HW230819   5.675   2.058   3.672
 9974SOL     OW30820   0.582   2.126   2.674
 9974SOL    HW130821   0.543   2.051   2.620
 9974SOL    HW230822   0.558   2.114   2.771
 9975SOL     OW30823   6.364   2.870   0.262
 9975SOL    HW130824   6.423   2.801   0.306
 9975SOL    HW230825   6.280   2.881   0.315
 9976SOL     OW30826   1.352   5.974   5.325
 9976SOL    HW130827   1.296   6.050   5.358
 9976SOL    HW230828   1.374   5.987   5.229
 9977SOL     OW30829   5.909   5.697   5.688
 9977SOL    HW130830   5.863   5.635   5.751
 9977SOL    HW230831   5.951   5.644   5.614
 9978SOL     OW30832   0.823   2.830   5.007
 9978SOL    HW130833   0.873   2.744   5.006
 9978SOL    HW230834   0.757   2.830   4.932
 9979SOL     OW30835   6.048   4.467   5.103
 9979SOL    HW130836   5.971   4.478   5.039
 9979SOL    HW230837   6.063   4.369   5.119
 9980SOL     OW30838   2.733   6.942   0.318
 9980SOL    HW130839   2.695   0.003   0.276
 9980SOL    HW230840   2.804   6.905   0.258
 9981SOL     OW30841   2.679   1.578   3.079
 9981SOL    HW130842   2.712   1.561   2.987
 9981SOL    HW230843   2.582   1.600   3.077
 9982SOL     OW30844   6.335   5.527   3.426
 9982SOL    HW130845   6.364   5.478   3.508
 9982SOL    HW230846   6.310   5.461   3.355
 9983SOL     OW30847   6.879   1.600   2.913
 9983SOL    HW130848   6.924   1.607   2.824
 9983SOL    HW230849   6.790   1.555   2.901
 9984SOL     OW30850   2.744   2.398   6.807
 9984SOL    HW130851   2.733   2.394   6.906
 9984SOL    HW230852   2.769   2.307   6.772
 9985SOL     OW30853   2.158   0.735   1.713
 9985SOL    HW130854   2.156   0.732   1.813
 9985SOL    HW230855   2.088   0.673   1.677
 9986SOL     OW30856   5.953   4.588   5.417
 9986SOL    HW130857   5.887   4.612   5.488
 9986SOL    HW230858   5.928   4.500   5.377
 9987SOL     OW30859   5.617   3.233   5.941
 9987SOL    HW130860   5.527   3.217   5.980
 9987SOL    HW230861   5.651   3.150   5.898
 9988SOL     OW30862   0.019   0.063   4.945
 9988SOL    HW130863   0.040   6.997   4.900
 9988SOL    HW230864   0.097   0.125   4.936
 9989SOL     OW30865   6.986   3.298   3.644
 9989SOL    HW130866   6.937   3.313   3.730
 9989SOL    HW230867   0.014   3.212   3.648
 9990SOL     OW30868   1.581   5.313   3.520
 9990SOL    HW130869   1.611   5.408   3.530
 9990SOL    HW230870   1.489   5.303   3.557
 9991SOL     OW30871   3.036   2.192   4.844
 9991SOL    HW130872   3.079   2.234   4.924
 9991SOL    HW230873   3.095   2.201   4.765
 9992SOL     OW30874   6.014   5.000   6.502
 9992SOL    HW130875   6.013   4.957   6.412
 9992SOL    HW230876   6.024   5.099   6.492
 9993SOL     OW30877   2.596   1.402   1.421
 9993SOL    HW130878   2.664   1.328   1.421
 9993SOL    HW230879   2.630   1.480   1.473
 9994SOL     OW30880   6.118   4.493   3.188
 9994SOL    HW130881   6.199   4.488   3.246
 9994SOL    HW230882   6.120   4.579   3.137
 9995SOL     OW30883   4.669   1.744   3.774
 9995SOL    HW130884   4.674   1.646   3.755
 9995SOL    HW230885   4.695   1.795   3.693
 9996SOL     OW30886   2.721   4.137   6.977
 9996SOL    HW130887   2.774   4.122   0.038
 9996SOL    HW230888   2.700   4.235   6.969
 9997SOL     OW30889   3.135   1.537   5.985
 9997SOL    HW130890   3.085   1.464   6.032
 9997SOL    HW230891   3.208   1.570   6.045
 9998SOL     OW30892   6.187   5.373   4.860
 9998SOL    HW130893   6.167   5.437   4.786
 9998SOL    HW230894   6.279   5.337   4.849
 9999SOL     OW30895   6.042   2.777   5.658
 9999SOL    HW130896   6.068   2.802   5.751
 9999SOL    HW230897   5.975   2.844   5.624
10000SOL     OW30898   6.883   2.942   0.048
10000SOL    HW130899   6.980   2.925   0.067
10000SOL    HW230900   6.867   3.041   0.044
10001SOL     OW30901   4.448   0.955   2.276
10001SOL    HW130902   4.414   0.907   2.195
10001SOL    HW230903   4.385   1.029   2.300
10002SOL     OW30904   1.427   6.283   2.132
10002SOL    HW130905   1.389   6.274   2.224
10002SOL    HW230906   1.420   6.195   2.085
10003SOL     OW30907   3.220   2.143   3.868
10003SOL    HW130908   3.317   2.127   3.846
10003SOL    HW230909   3.209   2.148   3.967
10004SOL     OW30910   6.828   2.292   3.427
10004SOL    HW130911   6.825   2.254   3.519
10004SOL    HW230912   6.863   2.385   3.430
10005SOL     OW30913   5.284   0.494   2.933
10005SOL    HW130914   5.286   0.521   3.029
10005SOL    HW230915   5.192   0.463   2.908
10006SOL     OW30916   3.870   0.146   4.240
10006SOL    HW130917   3.895   0.212   4.311
10006SOL    HW230918   3.861   0.193   4.152
10007SOL     OW30919   0.481   3.785   5.278
10007SOL    HW130920   0.513   3.690   5.277
10007SOL    HW230921   0.382   3.788   5.261
10008SOL     OW30922   3.572   0.434   4.278
10008SOL    HW130923   3.505   0.508   4.284
10008SOL    HW230924   3.634   0.451   4.202
10009SOL     OW30925   1.851   4.074   1.820
10009SOL    HW130926   1.811   4.163   1.842
10009SOL    HW230927   1.789   4.001   1.848
10010SOL     OW30928   2.364   0.860   6.949
10010SOL    HW130929   2.279   0.815   6.977
10010SOL    HW230930   2.393   0.924   7.020
10011SOL     OW30931   6.922   0.396   5.011
10011SOL    HW130932   6.935   0.310   5.060
10011SOL    HW230933   6.831   0.399   4.972
10012SOL     OW30934   6.136   1.210   3.410
10012SOL    HW130935   6.098   1.278   3.474
10012SOL    HW230936   6.062   1.174   3.354
10013SOL     OW30937   0.176   0.781   2.820
10013SOL    HW130938   0.169   0.789   2.919
10013SOL    HW230939   0.167   0.685   2.794
10014SOL     OW30940   1.365   3.938   6.429
10014SOL    HW130941   1.281   3.972   6.386
10014SOL    HW230942   1.384   3.991   6.511
10015SOL     OW30943   1.930   5.184   0.227
10015SOL    HW130944   1.990   5.258   0.259
10015SOL    HW230945   1.931   5.110   0.295
10016SOL     OW30946   1.719   1.154   6.668
10016SOL    HW130947   1.741   1.101   6.587
10016SOL    HW230948   1.791   1.222   6.684
10017SOL     OW30949   2.641   2.165   4.484
10017SOL    HW130950   2.622   2.119   4.571
10017SOL    HW230951   2.724   2.126   4.443
10018SOL     OW30952   5.569   0.129   6.164
10018SOL    HW130953   5.602   0.158   6.074
10018SOL    HW230954   5.589   0.199   6.232
10019SOL     OW30955   1.334   1.346   2.709
10019SOL    HW130956   1.328   1.286   2.629
10019SOL    HW230957   1.406   1.314   2.770
10020SOL     OW30958   1.503   2.643   1.471
10020SOL    HW130959   1.430   2.631   1.538
10020SOL    HW230960   1.581   2.688   1.514
10021SOL     OW30961   0.094   3.488   0.606
10021SOL    HW130962   0.058   3.511   0.515
10021SOL    HW230963   0.054   3.550   0.674
10022SOL     OW30964   1.706   1.368   6.383
10022SOL    HW130965   1.758   1.348   6.466
10022SOL    HW230966   1.608   1.373   6.406
10023SOL     OW30967   6.242   3.928   0.688
10023SOL    HW130968   6.251   3.839   0.642
10023SOL    HW230969   6.316   3.937   0.756
10024SOL     OW30970   1.324   5.262   3.722
10024SOL    HW130971   1.362   5.351   3.748
10024SOL    HW230972   1.300   5.263   3.625
10025SOL     OW30973   2.207   0.401   1.122
10025SOL    HW130974   2.291   0.450   1.144
10025SOL    HW230975   2.129   0.447   1.165
10026SOL     OW30976   5.771   0.283   3.537
10026SOL    HW130977   5.684   0.245   3.505
10026SOL    HW230978   5.837   0.282   3.463
10027SOL     OW30979   5.804   3.647   4.575
10027SOL    HW130980   5.838   3.706   4.502
10027SOL    HW230981   5.707   3.625   4.559
10028SOL     OW30982   2.011   0.791   0.557
10028SOL    HW130983   1.917   0.824   0.558
10028SOL    HW230984   2.039   0.767   0.650
10029SOL     OW30985   5.785   1.748   3.316
10029SOL    HW130986   5.882   1.767   3.327
10029SOL    HW230987   5.761   1.665   3.367
10030SOL     OW30988   1.950   0.693   3.919
10030SOL    HW130989   1.919   0.707   3.825
10030SOL    HW230990   1.872   0.699   3.981
10031SOL     OW30991   5.114   4.873   3.075
10031SOL    HW130992   5.082   4.854   2.982
10031SOL    HW230993   5.213   4.886   3.073
10032SOL     OW30994   2.720   1.672   5.477
10032SOL    HW130995   2.686   1.578   5.487
10032SOL    HW230996   2.816   1.676   5.506
10033SOL     OW30997   5.801   2.987   4.408
10033SOL    HW130998   5.763   3.078   4.398
10033SOL    HW230999   5.727   2.920   4.415
10034SOL     OW31000   3.972   0.166   5.450
10034SOL    HW131001   3.898   0.164   5.517
10034SOL    HW231002   3.947   0.112   5.369
10035SOL     OW31003   0.044   4.904   1.317
10035SOL    HW131004   6.994   4.838   1.337
10035SOL    HW231005   0.052   4.916   1.218
10036SOL     OW31006   6.935   1.591   0.064
10036SOL    HW131007   6.932   1.509   0.007
10036SOL    HW231008   7.008   1.651   0.032
10037SOL     OW31009   0.201   0.516   6.431
10037SOL    HW131010   0.200   0.468   6.343
10037SOL    HW231011   0.291   0.507   6.473
10038SOL     OW31012   6.569   6.681   1.146
10038SOL    HW131013   6.523   6.769   1.159
10038SOL    HW231014   6.589   6.668   1.049
10039SOL     OW31015   2.909   0.876   3.916
10039SOL    HW131016   2.957   0.939   3.855
10039SOL    HW231017   2.941   0.783   3.899
10040SOL     OW31018   6.763   3.338   0.638
10040SOL    HW131019   6.780   3.334   0.737
10040SOL    HW231020   6.807   3.259   0.594
10041SOL     OW31021   3.355   6.917   0.338
10041SOL    HW131022   3.409   6.833   0.345
10041SOL    HW231023   3.297   6.926   0.419
10042SOL     OW31024   0.004   2.298   2.687
10042SOL    HW131025   0.031   2.365   2.619
10042SOL    HW231026   0.046   2.210   2.665
10043SOL     OW31027   0.147   1.606   5.709
10043SOL    HW131028   0.219   1.540   5.688
10043SOL    HW231029   0.070   1.558   5.752
10044SOL     OW31030   2.956   2.322   5.470
10044SOL    HW131031   3.054   2.306   5.477
10044SOL    HW231032   2.923   2.365   5.554
10045SOL     OW31033   4.107   1.044   0.194
10045SOL    HW131034   4.069   0.953   0.207
10045SOL    HW231035   4.173   1.042   0.119
10046SOL     OW31036   1.412   5.318   1.612
10046SOL    HW131037   1.335   5.333   1.551
10046SOL    HW231038   1.379   5.308   1.706
10047SOL     OW31039   0.549   2.986   0.018
10047SOL    HW131040   0.532   3.029   6.952
10047SOL    HW231041   0.510   2.894   0.018
10048SOL     OW31042   5.907   6.602   2.438
10048SOL    HW131043   5.812   6.625   2.415
10048SOL    HW231044   5.969   6.665   2.391
10049SOL     OW31045   0.015   1.375   5.227
10049SOL    HW131046   6.985   1.454   5.195
10049SOL    HW231047   0.113   1.394   5.218
10050SOL     OW31048   5.700   3.172   5.552
10050SOL    HW131049   5.741   3.121   5.476
10050SOL    HW231050   5.725   3.128   5.638
10051SOL     OW31051   0.781   4.472   4.054
10051SOL    HW131052   0.862   4.416   4.038
10051SOL    HW231053   0.803   4.568   4.039
10052SOL     OW31054   1.687   0.242   3.490
10052SOL    HW131055   1.716   0.326   3.535
10052SOL    HW231056   1.594   0.220   3.518
10053SOL     OW31057   4.696   5.570   4.731
10053SOL    HW131058   4.776   5.536   4.682
10053SOL    HW231059   4.627   5.497   4.738
10054SOL     OW31060   5.881   3.933   4.562
10054SOL    HW131061   5.980   3.925   4.573
10054SOL    HW231062   5.835   3.893   4.642
10055SOL     OW31063   0.065   1.745   6.704
10055SOL    HW131064   0.074   1.840   6.733
10055SOL    HW231065   0.115   1.686   6.768
10056SOL     OW31066   6.262   3.021   3.669
10056SOL    HW131067   6.285   2.935   3.625
10056SOL    HW231068   6.293   3.098   3.613
10057SOL     OW31069   5.746   4.547   6.156
10057SOL    HW131070   5.661   4.519   6.200
10057SOL    HW231071   5.725   4.596   6.071
10058SOL     OW31072   6.580   3.746   5.395
10058SOL    HW131073   6.551   3.840   5.413
10058SOL    HW231074   6.677   3.735   5.417
10059SOL     OW31075   0.394   0.790   6.587
10059SOL    HW131076   0.329   0.761   6.516
10059SOL    HW231077   0.367   0.749   6.675
10060SOL     OW31078   2.488   2.216   2.611
10060SOL    HW131079   2.557   2.287   2.629
10060SOL    HW231080   2.506   2.137   2.670
10061SOL     OW31081   3.923   6.968   2.960
10061SOL    HW131082   3.850   6.915   3.003
10061SOL    HW231083   3.950   0.021   3.020
10062SOL     OW31084   6.458   0.293   3.958
10062SOL    HW131085   6.396   0.251   4.025
10062SOL    HW231086   6.478   0.387   3.986
10063SOL     OW31087   1.592   3.289   5.148
10063SOL    HW131088   1.653   3.366   5.166
10063SOL    HW231089   1.644   3.216   5.102
10064SOL     OW31090   2.944   6.331   0.812
10064SOL    HW131091   2.993   6.418   0.811
10064SOL    HW231092   2.845   6.348   0.816
10065SOL     OW31093   0.964   1.400   1.918
10065SOL    HW131094   0.881   1.426   1.868
10065SOL    HW231095   1.008   1.323   1.872
10066SOL     OW31096   6.324   3.429   3.739
10066SOL    HW131097   6.289   3.495   3.672
10066SOL    HW231098   6.262   3.427   3.817
10067SOL     OW31099   6.504   2.098   4.781
10067SOL    HW131100   6.491   2.194   4.807
10067SOL    HW231101   6.556   2.051   4.852
10068SOL     OW31102   1.953   2.613   2.545
10068SOL    HW131103   1.949   2.654   2.454
10068SOL    HW231104   1.886   2.657   2.605
10069SOL     OW31105   2.447   5.217   1.513
10069SOL    HW131106   2.387   5.283   1.468
10069SOL    HW231107   2.492   5.161   1.444
10070SOL     OW31108   3.852   5.695   5.298
10070SOL    HW131109   3.860   5.777   5.243
10070SOL    HW231110   3.766   5.649   5.278
10071SOL     OW31111   5.944   0.247   3.332
10071SOL    HW131112   6.041   0.265   3.318
10071SOL    HW231113   5.897   0.249   3.244
10072SOL     OW31114   6.593   1.998   2.048
10072SOL    HW131115   6.689   1.970   2.050
10072SOL    HW231116   6.580   2.068   1.977
10073SOL     OW31117   6.550   4.451   4.668
10073SOL    HW131118   6.577   4.360   4.698
10073SOL    HW231119   6.547   4.454   4.568
10074SOL     OW31120   1.211   4.541   0.622
10074SOL    HW131121   1.243   4.553   0.527
10074SOL    HW231122   1.134   4.602   0.639
10075SOL     OW31123   1.409   3.347   1.795
10075SOL    HW131124   1.354   3.422   1.757
10075SOL    HW231125   1.397   3.345   1.894
10076SOL     OW31126   5.091   5.608   4.003
10076SOL    HW131127   5.096   5.573   3.910
10076SOL    HW231128   5.013   5.669   4.012
10077SOL     OW31129   5.788   3.155   6.329
10077SOL    HW131130   5.745   3.244   6.338
10077SOL    HW231131   5.870   3.162   6.273
10078SOL     OW31132   6.476   6.470   4.931
10078SOL    HW131133   6.418   6.390   4.946
10078SOL    HW231134   6.568   6.439   4.907
10079SOL     OW31135   5.023   2.453   2.923
10079SOL    HW131136   4.945   2.461   2.985
10079SOL    HW231137   4.990   2.441   2.829
10080SOL     OW31138   5.111   0.502   6.396
10080SOL    HW131139   5.095   0.530   6.491
10080SOL    HW231140   5.208   0.485   6.382
10081SOL     OW31141   2.207   3.132   1.232
10081SOL    HW131142   2.305   3.134   1.213
10081SOL    HW231143   2.157   3.113   1.148
10082SOL     OW31144   1.014   4.263   1.110
10082SOL    HW131145   1.089   4.207   1.147
10082SOL    HW231146   0.958   4.207   1.050
10083SOL     OW31147   3.222   4.980   3.796
10083SOL    HW131148   3.148   4.944   3.738
10083SOL    HW231149   3.228   4.926   3.880
10084SOL     OW31150   1.020   0.745   4.476
10084SOL    HW131151   1.111   0.783   4.493
10084SOL    HW231152   1.003   0.746   4.377
10085SOL     OW31153   4.712   6.953   0.303
10085SOL    HW131154   4.637   7.015   0.326
10085SOL    HW231155   4.744   6.907   0.386
10086SOL     OW31156   0.084   6.518   2.532
10086SOL    HW131157   0.033   6.438   2.562
10086SOL    HW231158   0.049   6.549   2.443
10087SOL     OW31159   1.690   6.709   5.031
10087SOL    HW131160   1.730   6.718   5.122
10087SOL    HW231161   1.619   6.638   5.032
10088SOL     OW31162   0.436   2.367   6.955
10088SOL    HW131163   0.351   2.418   6.968
10088SOL    HW231164   0.504   2.424   6.909
10089SOL     OW31165   3.869   1.833   1.996
10089SOL    HW131166   3.780   1.846   1.952
10089SOL    HW231167   3.860   1.772   2.074
10090SOL     OW31168   2.485   6.053   2.581
10090SOL    HW131169   2.409   6.017   2.635
10090SOL    HW231170   2.499   6.149   2.604
10091SOL     OW31171   6.872   3.953   5.350
10091SOL    HW131172   6.872   3.860   5.387
10091SOL    HW231173   6.865   4.019   5.425
10092SOL     OW31174   0.696   1.821   4.195
10092SOL    HW131175   0.678   1.729   4.230
10092SOL    HW231176   0.657   1.889   4.258
10093SOL     OW31177   5.310   4.606   5.684
10093SOL    HW131178   5.214   4.596   5.656
10093SOL    HW231179   5.344   4.696   5.655
10094SOL     OW31180   3.522   1.295   0.765
10094SOL    HW131181   3.571   1.230   0.706
10094SOL    HW231182   3.543   1.276   0.860
10095SOL     OW31183   4.885   3.079   5.464
10095SOL    HW131184   4.828   3.114   5.539
10095SOL    HW231185   4.978   3.115   5.472
10096SOL     OW31186   5.402   1.938   2.704
10096SOL    HW131187   5.338   2.016   2.706
10096SOL    HW231188   5.442   1.931   2.613
10097SOL     OW31189   1.133   2.017   6.469
10097SOL    HW131190   1.133   1.992   6.372
10097SOL    HW231191   1.226   2.037   6.499
10098SOL     OW31192   3.277   5.421   3.870
10098SOL    HW131193   3.338   5.386   3.941
10098SOL    HW231194   3.235   5.506   3.901
10099SOL     OW31195   6.822   4.706   1.328
10099SOL    HW131196   6.855   4.628   1.275
10099SOL    HW231197   6.769   4.767   1.270
10100SOL     OW31198   4.472   5.369   4.340
10100SOL    HW131199   4.508   5.329   4.256
10100SOL    HW231200   4.471   5.301   4.413
10101SOL     OW31201   0.872   1.961   1.522
10101SOL    HW131202   0.944   1.955   1.591
10101SOL    HW231203   0.798   1.898   1.545
10102SOL     OW31204   6.702   6.165   3.014
10102SOL    HW131205   6.622   6.165   2.953
10102SOL    HW231206   6.701   6.248   3.070
10103SOL     OW31207   6.571   6.207   6.191
10103SOL    HW131208   6.488   6.249   6.154
10103SOL    HW231209   6.569   6.108   6.175
10104SOL     OW31210   2.449   0.244   4.314
10104SOL    HW131211   2.355   0.220   4.340
10104SOL    HW231212   2.507   0.243   4.396
10105SOL     OW31213   2.976   0.781   6.280
10105SOL    HW131214   3.008   0.874   6.298
10105SOL    HW231215   2.876   0.782   6.270
10106SOL     OW31216   5.365   5.417   1.297
10106SOL    HW131217   5.316   5.504   1.306
10106SOL    HW231218   5.402   5.409   1.205
10107SOL     OW31219   4.991   4.371   6.557
10107SOL    HW131220   4.939   4.399   6.476
10107SOL    HW231221   5.050   4.294   6.534
10108SOL     OW31222   1.920   2.901   0.134
10108SOL    HW131223   1.824   2.918   0.112
10108SOL    HW231224   1.978   2.957   0.074
10109SOL     OW31225   1.532   2.200   1.149
10109SOL    HW131226   1.471   2.274   1.121
10109SOL    HW231227   1.613   2.199   1.091
10110SOL     OW31228   4.974   6.296   2.710
10110SOL    HW131229   4.909   6.361   2.671
10110SOL    HW231230   4.978   6.308   2.809
10111SOL     OW31231   1.321   2.334   2.088
10111SOL    HW131232   1.374   2.348   2.171
10111SOL    HW231233   1.377   2.355   2.008
10112SOL     OW31234   6.999   2.094   3.239
10112SOL    HW131235   6.956   2.159   3.303
10112SOL    HW231236   6.937   2.077   3.163
10113SOL     OW31237   6.886   0.741   5.935
10113SOL    HW131238   6.933   0.827   5.918
10113SOL    HW231239   6.830   0.717   5.856
10114SOL     OW31240   4.848   1.795   1.645
10114SOL    HW131241   4.809   1.705   1.630
10114SOL    HW231242   4.948   1.789   1.647
10115SOL     OW31243   3.720   3.104   6.208
10115SOL    HW131244   3.644   3.043   6.185
10115SOL    HW231245   3.698   3.155   6.291
10116SOL     OW31246   6.644   1.044   4.252
10116SOL    HW131247   6.695   1.020   4.170
10116SOL    HW231248   6.708   1.063   4.327
10117SOL     OW31249   6.070   4.266   3.667
10117SOL    HW131250   5.998   4.234   3.607
10117SOL    HW231251   6.134   4.322   3.615
10118SOL     OW31252   4.427   6.143   4.462
10118SOL    HW131253   4.376   6.099   4.536
10118SOL    HW231254   4.394   6.236   4.448
10119SOL     OW31255   6.880   5.093   5.627
10119SOL    HW131256   6.784   5.076   5.604
10119SOL    HW231257   6.937   5.083   5.546
10120SOL     OW31258   2.104   3.175   2.305
10120SOL    HW131259   2.087   3.232   2.386
10120SOL    HW231260   2.146   3.230   2.233
10121SOL     OW31261   5.996   4.076   1.227
10121SOL    HW131262   5.941   4.155   1.256
10121SOL    HW231263   6.093   4.103   1.223
10122SOL     OW31264   0.885   0.238   3.844
10122SOL    HW131265   0.979   0.270   3.828
10122SOL    HW231266   0.820   0.300   3.801
10123SOL     OW31267   6.502   5.394   6.790
10123SOL    HW131268   6.479   5.480   6.744
10123SOL    HW231269   6.490   5.404   6.889
10124SOL     OW31270   1.545   5.223   2.797
10124SOL    HW131271   1.610   5.252   2.867
10124SOL    HW231272   1.567   5.268   2.710
10125SOL     OW31273   2.107   1.327   5.165
10125SOL    HW131274   2.079   1.240   5.206
10125SOL    HW231275   2.103   1.399   5.235
10126SOL     OW31276   6.689   6.335   6.553
10126SOL    HW131277   6.700   6.432   6.574
10126SOL    HW231278   6.597   6.318   6.519
10127SOL     OW31279   2.411   6.491   6.317
10127SOL    HW131280   2.413   6.583   6.355
10127SOL    HW231281   2.331   6.480   6.259
10128SOL     OW31282   2.859   1.980   6.847
10128SOL    HW131283   2.849   2.062   6.791
10128SOL    HW231284   2.922   1.917   6.802
10129SOL     OW31285   6.114   1.645   4.844
10129SOL    HW131286   6.078   1.711   4.779
10129SOL    HW231287   6.043   1.578   4.867
10130SOL     OW31288   1.392   1.626   2.969
10130SOL    HW131289   1.410   1.693   2.897
10130SOL    HW231290   1.416   1.665   3.058
10131SOL     OW31291   1.187   6.471   4.083
10131SOL    HW131292   1.246   6.454   4.004
10131SOL    HW231293   1.217   6.554   4.130
10132SOL     OW31294   6.763   0.739   1.591
10132SOL    HW131295   6.792   0.828   1.626
10132SOL    HW231296   6.708   0.693   1.661
10133SOL     OW31297   5.840   6.430   7.018
10133SOL    HW131298   5.925   6.405   0.044
10133SOL    HW231299   5.762   6.399   0.049
10134SOL     OW31300   6.279   6.763   2.007
10134SOL    HW131301   6.195   6.714   2.028
10134SOL    HW231302   6.280   6.787   1.910
10135SOL     OW31303   6.356   0.146   2.569
10135SOL    HW131304   6.381   0.223   2.628
10135SOL    HW231305   6.391   0.061   2.609
10136SOL     OW31306   5.056   1.952   2.288
10136SOL    HW131307   5.067   1.860   2.326
10136SOL    HW231308   5.076   1.951   2.190
10137SOL     OW31309   6.313   5.629   5.409
10137SOL    HW131310   6.361   5.669   5.331
10137SOL    HW231311   6.355   5.541   5.432
10138SOL     OW31312   0.856   2.059   0.337
10138SOL    HW131313   0.935   2.056   0.276
10138SOL    HW231314   0.885   2.034   0.430
10139SOL     OW31315   3.510   3.129   6.469
10139SOL    HW131316   3.444   3.148   6.541
10139SOL    HW231317   3.599   3.105   6.509
10140SOL     OW31318   0.854   6.579   5.413
10140SOL    HW131319   0.899   6.500   5.372
10140SOL    HW231320   0.922   6.651   5.430
10141SOL     OW31321   1.918   2.927   4.579
10141SOL    HW131322   1.940   2.830   4.591
10141SOL    HW231323   1.861   2.958   4.655
10142SOL     OW31324   3.997   6.466   3.757
10142SOL    HW131325   4.034   6.496   3.845
10142SOL    HW231326   3.996   6.366   3.753
10143SOL     OW31327   4.860   3.300   6.880
10143SOL    HW131328   4.902   3.382   6.918
10143SOL    HW231329   4.828   3.241   6.954
10144SOL     OW31330   3.961   6.737   6.279
10144SOL    HW131331   4.016   6.654   6.277
10144SOL    HW231332   3.988   6.793   6.357
10145SOL     OW31333   5.224   6.439   6.282
10145SOL    HW131334   5.311   6.483   6.260
10145SOL    HW231335   5.230   6.341   6.259
10146SOL     OW31336   0.283   2.772   4.434
10146SOL    HW131337   0.343   2.806   4.361
10146SOL    HW231338   0.338   2.749   4.514
10147SOL     OW31339   4.928   5.174   5.651
10147SOL    HW131340   4.852   5.109   5.661
10147SOL    HW231341   4.902   5.247   5.588
10148SOL     OW31342   0.833   4.163   0.904
10148SOL    HW131343   0.892   4.237   0.875
10148SOL    HW231344   0.768   4.196   0.973
10149SOL     OW31345   3.473   4.502   0.377
10149SOL    HW131346   3.408   4.499   0.301
10149SOL    HW231347   3.560   4.462   0.348
10150SOL     OW31348   4.071   4.428   1.056
10150SOL    HW131349   4.006   4.355   1.035
10150SOL    HW231350   4.035   4.515   1.022
10151SOL     OW31351   6.000   6.775   5.708
10151SOL    HW131352   6.087   6.788   5.661
10151SOL    HW231353   5.988   6.847   5.776
10152SOL     OW31354   4.298   6.642   2.517
10152SOL    HW131355   4.227   6.603   2.458
10152SOL    HW231356   4.320   6.734   2.486
10153SOL     OW31357   4.645   4.489   2.562
10153SOL    HW131358   4.613   4.505   2.655
10153SOL    HW231359   4.568   4.493   2.498
10154SOL     OW31360   5.231   5.445   5.621
10154SOL    HW131361   5.172   5.525   5.616
10154SOL    HW231362   5.275   5.431   5.532
10155SOL     OW31363   4.371   1.783   4.861
10155SOL    HW131364   4.410   1.729   4.786
10155SOL    HW231365   4.309   1.726   4.915
10156SOL     OW31366   5.178   2.506   0.522
10156SOL    HW131367   5.104   2.548   0.575
10156SOL    HW231368   5.232   2.578   0.478
10157SOL     OW31369   0.266   3.600   1.308
10157SOL    HW131370   0.361   3.592   1.277
10157SOL    HW231371   0.220   3.513   1.294
10158SOL     OW31372   6.039   5.096   0.088
10158SOL    HW131373   5.965   5.155   0.054
10158SOL    HW231374   6.074   5.133   0.174
10159SOL     OW31375   3.214   2.912   1.996
10159SOL    HW131376   3.216   3.003   1.955
10159SOL    HW231377   3.197   2.844   1.925
10160SOL     OW31378   1.224   4.911   2.917
10160SOL    HW131379   1.184   4.889   2.828
10160SOL    HW231380   1.284   4.837   2.946
10161SOL     OW31381   5.092   3.244   5.477
10161SOL    HW131382   5.151   3.265   5.399
10161SOL    HW231383   5.057   3.328   5.517
10162SOL     OW31384   1.664   3.271   2.362
10162SOL    HW131385   1.674   3.360   2.405
10162SOL    HW231386   1.715   3.202   2.414
10163SOL     OW31387   2.156   6.127   5.685
10163SOL    HW131388   2.237   6.139   5.627
10163SOL    HW231389   2.119   6.217   5.709
10164SOL     OW31390   1.311   2.771   3.126
10164SOL    HW131391   1.342   2.756   3.031
10164SOL    HW231392   1.211   2.765   3.129
10165SOL     OW31393   6.895   3.971   4.224
10165SOL    HW131394   6.918   3.879   4.191
10165SOL    HW231395   6.957   3.996   4.298
10166SOL     OW31396   2.608   0.828   1.614
10166SOL    HW131397   2.563   0.881   1.542
10166SOL    HW231398   2.542   0.807   1.686
10167SOL     OW31399   2.497   1.000   6.526
10167SOL    HW131400   2.594   0.976   6.515
10167SOL    HW231401   2.440   0.928   6.487
10168SOL     OW31402   6.597   0.707   6.489
10168SOL    HW131403   6.574   0.730   6.583
10168SOL    HW231404   6.696   0.714   6.476
10169SOL     OW31405   5.585   3.150   3.685
10169SOL    HW131406   5.611   3.192   3.772
10169SOL    HW231407   5.667   3.136   3.629
10170SOL     OW31408   5.528   5.569   6.705
10170SOL    HW131409   5.618   5.525   6.696
10170SOL    HW231410   5.541   5.667   6.719
10171SOL     OW31411   2.331   3.583   6.179
10171SOL    HW131412   2.393   3.514   6.143
10171SOL    HW231413   2.331   3.663   6.120
10172SOL     OW31414   5.668   0.568   3.072
10172SOL    HW131415   5.679   0.471   3.050
10172SOL    HW231416   5.706   0.624   2.999
10173SOL     OW31417   3.357   4.076   5.050
10173SOL    HW131418   3.340   4.106   5.144
10173SOL    HW231419   3.418   4.140   5.004
10174SOL     OW31420   4.194   5.363   2.970
10174SOL    HW131421   4.196   5.264   2.954
10174SOL    HW231422   4.122   5.404   2.913
10175SOL     OW31423   0.445   1.090   3.438
10175SOL    HW131424   0.505   1.023   3.483
10175SOL    HW231425   0.402   1.048   3.359
10176SOL     OW31426   6.618   1.249   5.804
10176SOL    HW131427   6.546   1.266   5.737
10176SOL    HW231428   6.707   1.253   5.757
10177SOL     OW31429   2.550   0.917   3.650
10177SOL    HW131430   2.531   0.956   3.560
10177SOL    HW231431   2.522   0.981   3.722
10178SOL     OW31432   0.949   2.070   0.606
10178SOL    HW131433   1.041   2.033   0.617
10178SOL    HW231434   0.882   2.003   0.636
10179SOL     OW31435   0.107   4.604   0.960
10179SOL    HW131436   0.176   4.631   0.892
10179SOL    HW231437   0.038   4.547   0.915
10180SOL     OW31438   4.523   6.693   5.421
10180SOL    HW131439   4.425   6.710   5.411
10180SOL    HW231440   4.550   6.619   5.359
10181SOL     OW31441   6.118   3.308   2.532
10181SOL    HW131442   6.180   3.272   2.463
10181SOL    HW231443   6.055   3.374   2.490
10182SOL     OW31444   5.038   2.118   0.533
10182SOL    HW131445   4.997   2.159   0.615
10182SOL    HW231446   5.127   2.079   0.557
10183SOL     OW31447   5.767   1.532   6.327
10183SOL    HW131448   5.752   1.466   6.400
10183SOL    HW231449   5.805   1.617   6.364
10184SOL     OW31450   5.729   1.842   5.561
10184SOL    HW131451   5.733   1.903   5.641
10184SOL    HW231452   5.673   1.762   5.583
10185SOL     OW31453   3.698   5.573   2.093
10185SOL    HW131454   3.659   5.586   2.184
10185SOL    HW231455   3.699   5.475   2.072
10186SOL     OW31456   3.412   3.570   5.754
10186SOL    HW131457   3.363   3.487   5.780
10186SOL    HW231458   3.348   3.636   5.714
10187SOL     OW31459   1.964   4.498   6.486
10187SOL    HW131460   1.876   4.451   6.484
10187SOL    HW231461   2.021   4.459   6.559
10188SOL     OW31462   3.510   0.557   6.450
10188SOL    HW131463   3.427   0.613   6.452
10188SOL    HW231464   3.486   0.464   6.423
10189SOL     OW31465   1.292   1.885   6.196
10189SOL    HW131466   1.334   1.878   6.106
10189SOL    HW231467   1.285   1.982   6.222
10190SOL     OW31468   4.257   5.711   1.703
10190SOL    HW131469   4.232   5.764   1.622
10190SOL    HW231470   4.315   5.635   1.676
10191SOL     OW31471   5.683   6.617   6.509
10191SOL    HW131472   5.774   6.612   6.467
10191SOL    HW231473   5.655   6.712   6.518
10192SOL     OW31474   1.920   1.840   4.290
10192SOL    HW131475   1.977   1.844   4.208
10192SOL    HW231476   1.932   1.923   4.344
10193SOL     OW31477   3.373   3.543   3.782
10193SOL    HW131478   3.376   3.451   3.742
10193SOL    HW231479   3.383   3.536   3.881
10194SOL     OW31480   2.720   0.539   3.491
10194SOL    HW131481   2.767   0.539   3.579
10194SOL    HW231482   2.743   0.622   3.441
10195SOL     OW31483   3.927   6.244   2.308
10195SOL    HW131484   3.935   6.145   2.310
10195SOL    HW231485   3.836   6.271   2.340
10196SOL     OW31486   5.946   2.084   3.804
10196SOL    HW131487   5.994   2.017   3.861
10196SOL    HW231488   5.999   2.169   3.801
10197SOL     OW31489   5.747   0.181   1.494
10197SOL    HW131490   5.718   0.086   1.481
10197SOL    HW231491   5.684   0.226   1.558
10198SOL     OW31492   2.650   6.970   0.783
10198SOL    HW131493   2.628   0.004   0.703
10198SOL    HW231494   2.704   6.891   0.754
10199SOL     OW31495   0.967   1.095   0.665
10199SOL    HW131496   0.884   1.083   0.720
10199SOL    HW231497   0.964   1.035   0.586
10200SOL     OW31498   5.176   4.104   4.569
10200SOL    HW131499   5.095   4.083   4.516
10200SOL    HW231500   5.154   4.100   4.667
10201SOL     OW31501   1.640   4.975   2.620
10201SOL    HW131502   1.711   5.037   2.586
10201SOL    HW231503   1.592   5.019   2.696
10202SOL     OW31504   0.685   3.363   2.203
10202SOL    HW131505   0.716   3.451   2.166
10202SOL    HW231506   0.762   3.300   2.206
10203SOL     OW31507   1.679   3.668   2.349
10203SOL    HW131508   1.740   3.635   2.277
10203SOL    HW231509   1.686   3.608   2.429
10204SOL     OW31510   3.078   4.776   5.130
10204SOL    HW131511   3.159   4.719   5.145
10204SOL    HW231512   3.001   4.718   5.104
10205SOL     OW31513   4.700   1.578   3.372
10205SOL    HW131514   4.677   1.612   3.281
10205SOL    HW231515   4.765   1.502   3.363
10206SOL     OW31516   5.134   7.004   6.834
10206SOL    HW131517   5.172   6.994   6.926
10206SOL    HW231518   5.121   6.913   6.794
10207SOL     OW31519   4.540   1.224   3.105
10207SOL    HW131520   4.630   1.247   3.069
10207SOL    HW231521   4.485   1.181   3.034
10208SOL     OW31522   5.828   4.023   5.172
10208SOL    HW131523   5.845   4.036   5.270
10208SOL    HW231524   5.889   3.952   5.137
10209SOL     OW31525   5.832   0.461   6.363
10209SOL    HW131526   5.809   0.509   6.449
10209SOL    HW231527   5.886   0.521   6.305
10210SOL     OW31528   4.935   5.632   1.746
10210SOL    HW131529   4.902   5.721   1.717
10210SOL    HW231530   4.899   5.561   1.685
10211SOL     OW31531   4.411   5.462   5.495
10211SOL    HW131532   4.347   5.404   5.545
10211SOL    HW231533   4.419   5.430   5.401
10212SOL     OW31534   6.899   0.553   5.310
10212SOL    HW131535   6.928   0.631   5.365
10212SOL    HW231536   6.931   0.566   5.216
10213SOL     OW31537   6.312   1.158   2.891
10213SOL    HW131538   6.400   1.110   2.890
10213SOL    HW231539   6.271   1.149   2.982
10214SOL     OW31540   6.916   0.509   1.885
10214SOL    HW131541   6.968   0.576   1.832
10214SOL    HW231542   6.922   0.531   1.982
10215SOL     OW31543   4.098   3.992   7.009
10215SOL    HW131544   4.195   3.976   0.006
10215SOL    HW231545   4.060   3.912   6.962
10216SOL     OW31546   5.153   7.015   1.563
10216SOL    HW131547   5.213   0.041   1.628
10216SOL    HW231548   5.096   0.061   1.516
10217SOL     OW31549   2.581   1.975   5.091
10217SOL    HW131550   2.591   1.876   5.080
10217SOL    HW231551   2.668   2.015   5.119
10218SOL     OW31552   2.475   1.772   0.560
10218SOL    HW131553   2.493   1.870   0.562
10218SOL    HW231554   2.399   1.753   0.499
10219SOL     OW31555   1.046   3.535   0.640
10219SOL    HW131556   0.965   3.475   0.638
10219SOL    HW231557   1.120   3.492   0.589
10220SOL     OW31558   4.220   2.023   1.243
10220SOL    HW131559   4.223   1.923   1.248
10220SOL    HW231560   4.229   2.062   1.334
10221SOL     OW31561   2.799   0.094   5.103
10221SOL    HW131562   2.790   0.157   5.026
10221SOL    HW231563   2.737   0.017   5.091
10222SOL     OW31564   1.662   5.375   5.859
10222SOL    HW131565   1.583   5.435   5.849
10222SOL    HW231566   1.665   5.338   5.952
10223SOL     OW31567   0.275   4.706   0.770
10223SOL    HW131568   0.358   4.723   0.823
10223SOL    HW231569   0.281   4.752   0.682
10224SOL     OW31570   1.539   0.170   4.045
10224SOL    HW131571   1.548   0.221   3.960
10224SOL    HW231572   1.565   0.074   4.029
10225SOL     OW31573   6.408   6.302   4.057
10225SOL    HW131574   6.312   6.322   4.076
10225SOL    HW231575   6.456   6.388   4.038
10226SOL     OW31576   1.345   1.405   0.672
10226SOL    HW131577   1.287   1.462   0.614
10226SOL    HW231578   1.317   1.310   0.664
10227SOL     OW31579   5.666   4.807   6.663
10227SOL    HW131580   5.612   4.784   6.744
10227SOL    HW231581   5.716   4.726   6.632
10228SOL     OW31582   0.841   5.787   3.095
10228SOL    HW131583   0.939   5.797   3.112
10228SOL    HW231584   0.826   5.724   3.019
10229SOL     OW31585   1.355   0.013   2.769
10229SOL    HW131586   1.405   0.037   2.686
10229SOL    HW231587   1.387   0.071   2.844
10230SOL     OW31588   6.704   0.722   3.214
10230SOL    HW131589   6.697   0.626   3.238
10230SOL    HW231590   6.749   0.732   3.125
10231SOL     OW31591   4.867   0.267   5.230
10231SOL    HW131592   4.948   0.209   5.243
10231SOL    HW231593   4.789   0.210   5.205
10232SOL     OW31594   3.355   2.091   4.916
10232SOL    HW131595   3.339   2.156   4.842
10232SOL    HW231596   3.316   2.126   5.001
10233SOL     OW31597   4.846   1.487   5.774
10233SOL    HW131598   4.807   1.571   5.735
10233SOL    HW231599   4.775   1.416   5.778
10234SOL     OW31600   4.964   6.217   1.749
10234SOL    HW131601   5.039   6.216   1.814
10234SOL    HW231602   4.900   6.290   1.773
10235SOL     OW31603   5.756   1.421   6.607
10235SOL    HW131604   5.848   1.416   6.644
10235SOL    HW231605   5.722   1.515   6.612
10236SOL     OW31606   2.288   5.450   2.178
10236SOL    HW131607   2.284   5.505   2.094
10236SOL    HW231608   2.381   5.449   2.213
10237SOL     OW31609   6.302   3.031   2.632
10237SOL    HW131610   6.343   2.946   2.600
10237SOL    HW231611   6.239   3.011   2.707
10238SOL     OW31612   4.871   4.731   4.821
10238SOL    HW131613   4.796   4.797   4.813
10238SOL    HW231614   4.939   4.766   4.886
10239SOL     OW31615   0.146   4.343   4.387
10239SOL    HW131616   0.241   4.311   4.391
10239SOL    HW231617   0.139   4.417   4.321
10240SOL     OW31618   0.039   4.443   4.009
10240SOL    HW131619   0.034   4.447   4.109
10240SOL    HW231620   0.027   4.348   3.979
10241SOL     OW31621   2.260   0.816   2.230
10241SOL    HW131622   2.242   0.910   2.201
10241SOL    HW231623   2.351   0.811   2.271
10242SOL     OW31624   6.868   0.053   5.981
10242SOL    HW131625   6.860   6.994   6.039
10242SOL    HW231626   6.834   0.133   6.031
10243SOL     OW31627   1.205   5.557   1.854
10243SOL    HW131628   1.189   5.642   1.804
10243SOL    HW231629   1.300   5.553   1.884
10244SOL     OW31630   2.460   6.414   0.269
10244SOL    HW131631   2.416   6.502   0.255
10244SOL    HW231632   2.398   6.340   0.242
10245SOL     OW31633   2.477   2.237   6.955
10245SOL    HW131634   2.534   2.296   7.011
10245SOL    HW231635   2.382   2.268   6.960
10246SOL     OW31636   3.241   4.047   4.398
10246SOL    HW131637   3.318   4.041   4.334
10246SOL    HW231638   3.274   4.078   4.487
10247SOL     OW31639   0.722   4.505   5.172
10247SOL    HW131640   0.693   4.493   5.267
10247SOL    HW231641   0.777   4.427   5.144
10248SOL     OW31642   3.805   0.157   2.201
10248SOL    HW131643   3.795   0.153   2.102
10248SOL    HW231644   3.896   0.126   2.227
10249SOL     OW31645   4.971   1.095   6.515
10249SOL    HW131646   5.028   1.177   6.523
10249SOL    HW231647   4.934   1.071   6.605
10250SOL     OW31648   6.346   0.717   0.058
10250SOL    HW131649   6.321   0.783   0.130
10250SOL    HW231650   6.400   0.643   0.098
10251SOL     OW31651   2.662   3.931   0.188
10251SOL    HW131652   2.687   3.852   0.132
10251SOL    HW231653   2.653   3.902   0.283
10252SOL     OW31654   6.711   4.965   1.900
10252SOL    HW131655   6.801   4.939   1.934
10252SOL    HW231656   6.689   4.909   1.820
10253SOL     OW31657   3.885   5.506   6.794
10253SOL    HW131658   3.920   5.413   6.777
10253SOL    HW231659   3.815   5.528   6.727
10254SOL     OW31660   2.286   2.507   5.176
10254SOL    HW131661   2.347   2.579   5.145
10254SOL    HW231662   2.328   2.418   5.158
10255SOL     OW31663   3.210   5.806   2.383
10255SOL    HW131664   3.135   5.872   2.381
10255SOL    HW231665   3.239   5.791   2.477
10256SOL     OW31666   6.094   0.232   6.622
10256SOL    HW131667   6.105   0.312   6.563
10256SOL    HW231668   5.998   0.223   6.650
10257SOL     OW31669   1.180   6.146   5.828
10257SOL    HW131670   1.094   6.153   5.778
10257SOL    HW231671   1.230   6.065   5.797
10258SOL     OW31672   3.878   0.408   3.155
10258SOL    HW131673   3.932   0.483   3.193
10258SOL    HW231674   3.812   0.377   3.223
10259SOL     OW31675   0.084   4.025   2.982
10259SOL    HW131676   0.039   4.098   3.034
10259SOL    HW231677   0.043   3.937   3.007
10260SOL     OW31678   1.155   0.167   1.843
10260SOL    HW131679   1.180   0.079   1.883
10260SOL    HW231680   1.086   0.211   1.900
10261SOL     OW31681   1.169   5.834   2.535
10261SOL    HW131682   1.256   5.785   2.532
10261SOL    HW231683   1.150   5.863   2.629
10262SOL     OW31684   1.446   4.539   4.966
10262SOL    HW131685   1.412   4.493   5.048
10262SOL    HW231686   1.371   4.549   4.901
10263SOL     OW31687   6.230   1.776   5.902
10263SOL    HW131688   6.183   1.810   5.821
10263SOL    HW231689   6.178   1.802   5.984
10264SOL     OW31690   0.270   0.781   5.909
10264SOL    HW131691   0.259   0.684   5.886
10264SOL    HW231692   0.339   0.791   5.980
10265SOL     OW31693   3.822   1.337   2.385
10265SOL    HW131694   3.755   1.377   2.323
10265SOL    HW231695   3.791   1.350   2.480
10266SOL     OW31696   3.017   4.390   6.533
10266SOL    HW131697   2.978   4.385   6.625
10266SOL    HW231698   3.099   4.447   6.535
10267SOL     OW31699   6.722   2.033   6.188
10267SOL    HW131700   6.720   1.943   6.144
10267SOL    HW231701   6.705   2.103   6.119
10268SOL     OW31702   5.780   5.759   1.648
10268SOL    HW131703   5.720   5.693   1.603
10268SOL    HW231704   5.787   5.842   1.592
10269SOL     OW31705   2.760   2.821   6.337
10269SOL    HW131706   2.724   2.753   6.401
10269SOL    HW231707   2.855   2.799   6.314
10270SOL     OW31708   1.691   5.813   0.798
10270SOL    HW131709   1.623   5.801   0.870
10270SOL    HW231710   1.778   5.840   0.838
10271SOL     OW31711   4.517   4.508   1.362
10271SOL    HW131712   4.520   4.411   1.338
10271SOL    HW231713   4.425   4.531   1.396
10272SOL     OW31714   0.821   0.917   5.654
10272SOL    HW131715   0.762   0.973   5.713
10272SOL    HW231716   0.777   0.829   5.637
10273SOL     OW31717   3.972   5.598   4.704
10273SOL    HW131718   3.914   5.611   4.785
10273SOL    HW231719   3.914   5.589   4.623
10274SOL     OW31720   1.248   5.405   5.892
10274SOL    HW131721   1.256   5.435   5.987
10274SOL    HW231722   1.269   5.481   5.830
10275SOL     OW31723   1.375   6.498   2.595
10275SOL    HW131724   1.351   6.517   2.690
10275SOL    HW231725   1.418   6.579   2.555
10276SOL     OW31726   6.205   5.569   6.032
10276SOL    HW131727   6.181   5.517   6.114
10276SOL    HW231728   6.179   5.516   5.951
10277SOL     OW31729   2.346   6.323   4.549
10277SOL    HW131730   2.394   6.359   4.630
10277SOL    HW231731   2.335   6.224   4.558
10278SOL     OW31732   6.258   0.343   5.636
10278SOL    HW131733   6.231   0.246   5.631
10278SOL    HW231734   6.177   0.400   5.619
10279SOL     OW31735   3.198   6.766   4.123
10279SOL    HW131736   3.253   6.753   4.040
10279SOL    HW231737   3.258   6.771   4.203
10280SOL     OW31738   1.902   3.871   0.107
10280SOL    HW131739   1.866   3.862   0.200
10280SOL    HW231740   1.947   3.959   0.097
10281SOL     OW31741   4.204   0.536   3.792
10281SOL    HW131742   4.158   0.620   3.819
10281SOL    HW231743   4.147   0.485   3.727
10282SOL     OW31744   0.977   1.740   4.424
10282SOL    HW131745   0.927   1.664   4.466
10282SOL    HW231746   1.064   1.753   4.473
10283SOL     OW31747   1.314   3.859   6.992
10283SOL    HW131748   1.368   3.876   0.052
10283SOL    HW231749   1.217   3.858   7.015
10284SOL     OW31750   5.759   3.041   5.303
10284SOL    HW131751   5.797   2.963   5.254
10284SOL    HW231752   5.665   3.057   5.271
10285SOL     OW31753   5.834   0.056   0.753
10285SOL    HW131754   5.783   0.117   0.692
10285SOL    HW231755   5.840   6.987   0.712
10286SOL     OW31756   3.856   0.376   3.585
10286SOL    HW131757   3.822   0.318   3.511
10286SOL    HW231758   3.952   0.355   3.603
10287SOL     OW31759   2.005   6.464   1.731
10287SOL    HW131760   1.946   6.388   1.703
10287SOL    HW231761   2.042   6.445   1.822
10288SOL     OW31762   6.045   6.397   3.831
10288SOL    HW131763   6.074   6.376   3.924
10288SOL    HW231764   5.969   6.463   3.834
10289SOL     OW31765   3.448   1.006   1.823
10289SOL    HW131766   3.396   1.084   1.789
10289SOL    HW231767   3.544   1.015   1.795
10290SOL     OW31768   4.185   3.564   2.620
10290SOL    HW131769   4.162   3.485   2.677
10290SOL    HW231770   4.174   3.540   2.523
10291SOL     OW31771   3.346   0.576   5.220
10291SOL    HW131772   3.396   0.604   5.301
10291SOL    HW231773   3.257   0.622   5.218
10292SOL     OW31774   0.522   1.207   4.388
10292SOL    HW131775   0.522   1.194   4.487
10292SOL    HW231776   0.609   1.177   4.350
10293SOL     OW31777   2.261   5.939   3.535
10293SOL    HW131778   2.277   5.889   3.620
10293SOL    HW231779   2.240   6.034   3.556
10294SOL     OW31780   5.626   1.266   3.212
10294SOL    HW131781   5.590   1.314   3.131
10294SOL    HW231782   5.718   1.232   3.192
10295SOL     OW31783   0.441   5.551   6.286
10295SOL    HW131784   0.377   5.601   6.227
10295SOL    HW231785   0.495   5.488   6.231
10296SOL     OW31786   6.790   2.943   0.600
10296SOL    HW131787   6.883   2.928   0.565
10296SOL    HW231788   6.745   3.014   0.546
10297SOL     OW31789   1.555   5.379   5.041
10297SOL    HW131790   1.563   5.479   5.041
10297SOL    HW231791   1.460   5.353   5.052
10298SOL     OW31792   4.996   3.491   3.737
10298SOL    HW131793   4.947   3.423   3.682
10298SOL    HW231794   5.083   3.513   3.693
10299SOL     OW31795   4.961   4.302   3.106
10299SOL    HW131796   4.997   4.390   3.138
10299SOL    HW231797   4.952   4.305   3.007
10300SOL     OW31798   1.107   4.853   2.676
10300SOL    HW131799   1.034   4.903   2.629
10300SOL    HW231800   1.181   4.834   2.612
10301SOL     OW31801   5.056   1.583   1.386
10301SOL    HW131802   5.092   1.673   1.410
10301SOL    HW231803   5.131   1.519   1.376
10302SOL     OW31804   1.429   5.898   3.145
10302SOL    HW131805   1.482   5.962   3.201
10302SOL    HW231806   1.360   5.948   3.094
10303SOL     OW31807   3.376   3.398   1.462
10303SOL    HW131808   3.387   3.432   1.369
10303SOL    HW231809   3.447   3.438   1.520
10304SOL     OW31810   0.014   6.790   2.628
10304SOL    HW131811   0.025   6.716   2.563
10304SOL    HW231812   6.948   6.780   2.676
10305SOL     OW31813   1.528   5.499   1.342
10305SOL    HW131814   1.597   5.454   1.399
10305SOL    HW231815   1.459   5.432   1.313
10306SOL     OW31816   4.245   6.040   0.142
10306SOL    HW131817   4.247   5.963   0.078
10306SOL    HW231818   4.321   6.101   0.122
10307SOL     OW31819   2.103   1.683   5.844
10307SOL    HW131820   2.125   1.648   5.753
10307SOL    HW231821   2.119   1.611   5.912
10308SOL     OW31822   3.309   5.886   3.430
10308SOL    HW131823   3.249   5.863   3.353
10308SOL    HW231824   3.346   5.802   3.469
10309SOL     OW31825   0.180   6.335   3.291
10309SOL    HW131826   0.097   6.323   3.237
10309SOL    HW231827   0.216   6.427   3.278
10310SOL     OW31828   3.641   4.118   3.281
10310SOL    HW131829   3.611   4.078   3.194
10310SOL    HW231830   3.741   4.116   3.285
10311SOL     OW31831   6.611   5.307   0.366
10311SOL    HW131832   6.533   5.368   0.354
10311SOL    HW231833   6.591   5.218   0.327
10312SOL     OW31834   2.254   4.437   0.854
10312SOL    HW131835   2.318   4.397   0.788
10312SOL    HW231836   2.211   4.364   0.907
10313SOL     OW31837   5.249   0.113   3.031
10313SOL    HW131838   5.214   0.030   3.074
10313SOL    HW231839   5.186   0.143   2.960
10314SOL     OW31840   6.702   6.128   0.930
10314SOL    HW131841   6.696   6.066   0.852
10314SOL    HW231842   6.771   6.198   0.911
10315SOL     OW31843   6.234   5.146   4.624
10315SOL    HW131844   6.160   5.211   4.604
10315SOL    HW231845   6.262   5.101   4.539
10316SOL     OW31846   6.904   4.525   3.664
10316SOL    HW131847   6.885   4.623   3.658
10316SOL    HW231848   7.002   4.510   3.663
10317SOL     OW31849   4.024   4.892   0.425
10317SOL    HW131850   3.968   4.919   0.347
10317SOL    HW231851   4.121   4.893   0.399
10318SOL     OW31852   6.016   5.192   2.100
10318SOL    HW131853   6.040   5.278   2.055
10318SOL    HW231854   5.919   5.172   2.085
10319SOL     OW31855   5.759   6.166   2.941
10319SOL    HW131856   5.846   6.159   2.892
10319SOL    HW231857   5.744   6.261   2.969
10320SOL     OW31858   6.687   6.375   1.238
10320SOL    HW131859   6.706   6.285   1.278
10320SOL    HW231860   6.629   6.363   1.157
10321SOL     OW31861   4.315   5.601   3.966
10321SOL    HW131862   4.310   5.632   4.060
10321SOL    HW231863   4.410   5.583   3.941
10322SOL     OW31864   6.096   3.178   0.235
10322SOL    HW131865   6.099   3.170   0.136
10322SOL    HW231866   6.005   3.207   0.264
10323SOL     OW31867   5.150   2.794   5.440
10323SOL    HW131868   5.052   2.793   5.418
10323SOL    HW231869   5.196   2.865   5.387
10324SOL     OW31870   3.191   3.021   3.395
10324SOL    HW131871   3.131   2.962   3.342
10324SOL    HW231872   3.142   3.104   3.422
10325SOL     OW31873   0.330   3.212   3.037
10325SOL    HW131874   0.271   3.134   3.057
10325SOL    HW231875   0.281   3.297   3.058
10326SOL     OW31876   5.484   2.173   0.533
10326SOL    HW131877   5.448   2.110   0.464
10326SOL    HW231878   5.576   2.202   0.507
10327SOL     OW31879   0.152   0.754   3.137
10327SOL    HW131880   0.202   0.686   3.083
10327SOL    HW231881   0.056   0.752   3.112
10328SOL     OW31882   6.251   2.381   1.848
10328SOL    HW131883   6.289   2.361   1.938
10328SOL    HW231884   6.284   2.314   1.782
10329SOL     OW31885   3.413   6.652   2.916
10329SOL    HW131886   3.414   6.555   2.891
10329SOL    HW231887   3.346   6.700   2.859
10330SOL     OW31888   3.899   5.051   1.326
10330SOL    HW131889   3.845   4.968   1.310
10330SOL    HW231890   3.991   5.039   1.286
10331SOL     OW31891   6.029   0.668   3.349
10331SOL    HW131892   6.073   0.669   3.259
10331SOL    HW231893   6.078   0.606   3.410
10332SOL     OW31894   0.002   2.664   5.945
10332SOL    HW131895   6.932   2.693   5.972
10332SOL    HW231896   0.070   2.713   6.001
10333SOL     OW31897   4.927   4.658   4.517
10333SOL    HW131898   4.844   4.628   4.563
10333SOL    HW231899   4.995   4.685   4.586
10334SOL     OW31900   1.556   4.757   4.290
10334SOL    HW131901   1.636   4.811   4.264
10334SOL    HW231902   1.490   4.816   4.337
10335SOL     OW31903   1.880   5.294   1.612
10335SOL    HW131904   1.919   5.229   1.677
10335SOL    HW231905   1.941   5.372   1.601
10336SOL     OW31906   3.845   6.672   2.593
10336SOL    HW131907   3.768   6.724   2.630
10336SOL    HW231908   3.847   6.682   2.494
10337SOL     OW31909   0.876   4.899   4.916
10337SOL    HW131910   0.856   4.815   4.967
10337SOL    HW231911   0.908   4.969   4.979
10338SOL     OW31912   2.949   6.031   2.927
10338SOL    HW131913   2.900   5.944   2.925
10338SOL    HW231914   3.036   6.021   2.878
10339SOL     OW31915   2.848   5.711   1.157
10339SOL    HW131916   2.856   5.808   1.183
10339SOL    HW231917   2.923   5.660   1.199
10340SOL     OW31918   2.311   0.365   0.527
10340SOL    HW131919   2.293   0.320   0.439
10340SOL    HW231920   2.225   0.381   0.575
10341SOL     OW31921   1.781   1.360   2.179
10341SOL    HW131922   1.868   1.343   2.224
10341SOL    HW231923   1.792   1.433   2.111
10342SOL     OW31924   2.107   6.568   5.086
10342SOL    HW131925   2.132   6.557   5.183
10342SOL    HW231926   2.118   6.664   5.060
10343SOL     OW31927   2.237   3.347   5.198
10343SOL    HW131928   2.201   3.435   5.164
10343SOL    HW231929   2.230   3.278   5.126
10344SOL     OW31930   3.781   4.895   5.338
10344SOL    HW131931   3.729   4.893   5.253
10344SOL    HW231932   3.879   4.903   5.317
10345SOL     OW31933   2.073   1.146   6.667
10345SOL    HW131934   2.049   1.161   6.763
10345SOL    HW231935   2.170   1.122   6.661
10346SOL     OW31936   5.290   5.863   0.023
10346SOL    HW131937   5.210   5.857   6.984
10346SOL    HW231938   5.347   5.941   7.018
10347SOL     OW31939   5.568   1.801   1.917
10347SOL    HW131940   5.622   1.788   2.000
10347SOL    HW231941   5.479   1.758   1.927
10348SOL     OW31942   0.731   6.096   5.559
10348SOL    HW131943   0.688   6.182   5.533
10348SOL    HW231944   0.683   6.020   5.515
10349SOL     OW31945   0.091   1.792   0.430
10349SOL    HW131946   0.038   1.782   0.514
10349SOL    HW231947   0.060   1.874   0.381
10350SOL     OW31948   2.077   4.757   5.109
10350SOL    HW131949   2.063   4.698   5.188
10350SOL    HW231950   2.091   4.851   5.140
10351SOL     OW31951   4.909   4.448   4.902
10351SOL    HW131952   4.818   4.407   4.903
10351SOL    HW231953   4.909   4.527   4.841
10352SOL     OW31954   5.385   1.950   0.376
10352SOL    HW131955   5.338   1.870   0.413
10352SOL    HW231956   5.444   1.923   0.300
10353SOL     OW31957   6.870   2.768   3.758
10353SOL    HW131958   6.855   2.866   3.769
10353SOL    HW231959   6.944   2.753   3.692
10354SOL     OW31960   0.443   3.277   0.693
10354SOL    HW131961   0.519   3.221   0.660
10354SOL    HW231962   0.419   3.344   0.622
10355SOL     OW31963   1.028   1.527   1.050
10355SOL    HW131964   1.022   1.433   1.015
10355SOL    HW231965   0.949   1.579   1.021
10356SOL     OW31966   6.224   3.599   6.112
10356SOL    HW131967   6.186   3.636   6.027
10356SOL    HW231968   6.280   3.519   6.091
10357SOL     OW31969   1.246   2.751   5.960
10357SOL    HW131970   1.335   2.786   5.932
10357SOL    HW231971   1.174   2.815   5.931
10358SOL     OW31972   0.816   2.461   2.583
10358SOL    HW131973   0.742   2.468   2.649
10358SOL    HW231974   0.790   2.396   2.511
10359SOL     OW31975   6.079   1.824   2.463
10359SOL    HW131976   6.084   1.725   2.446
10359SOL    HW231977   5.996   1.844   2.516
10360SOL     OW31978   5.974   4.107   1.917
10360SOL    HW131979   5.983   4.178   1.847
10360SOL    HW231980   5.997   4.018   1.877
10361SOL     OW31981   0.698   1.740   1.907
10361SOL    HW131982   0.725   1.655   1.861
10361SOL    HW231983   0.759   1.814   1.879
10362SOL     OW31984   1.095   5.089   2.013
10362SOL    HW131985   1.094   5.133   2.103
10362SOL    HW231986   1.176   5.119   1.962
10363SOL     OW31987   5.144   4.638   6.902
10363SOL    HW131988   5.154   4.661   6.999
10363SOL    HW231989   5.173   4.716   6.846
10364SOL     OW31990   6.036   4.449   2.362
10364SOL    HW131991   6.113   4.400   2.321
10364SOL    HW231992   5.970   4.473   2.291
10365SOL     OW31993   5.756   5.877   0.443
10365SOL    HW131994   5.846   5.912   0.418
10365SOL    HW231995   5.703   5.949   0.486
10366SOL     OW31996   2.562   6.044   3.539
10366SOL    HW131997   2.480   6.004   3.581
10366SOL    HW231998   2.634   6.054   3.608
10367SOL     OW31999   5.610   1.410   1.389
10367SOL    HW132000   5.578   1.456   1.472
10367SOL    HW232001   5.606   1.474   1.312
10368SOL     OW32002   2.136   5.911   2.291
10368SOL    HW132003   2.215   5.850   2.283
10368SOL    HW232004   2.117   5.954   2.203
10369SOL     OW32005   3.489   0.103   6.514
10369SOL    HW132006   3.443   0.017   6.537
10369SOL    HW232007   3.581   0.103   6.552
10370SOL     OW32008   1.043   0.852   5.286
10370SOL    HW132009   1.039   0.769   5.341
10370SOL    HW232010   1.014   0.930   5.342
10371SOL     OW32011   3.618   5.531   2.775
10371SOL    HW132012   3.606   5.599   2.847
10371SOL    HW232013   3.712   5.535   2.741
10372SOL     OW32014   2.920   6.782   1.801
10372SOL    HW132015   2.860   6.702   1.793
10372SOL    HW232016   3.002   6.768   1.746
10373SOL     OW32017   0.684   1.953   5.735
10373SOL    HW132018   0.710   1.999   5.650
10373SOL    HW232019   0.763   1.904   5.772
10374SOL     OW32020   3.552   5.867   4.651
10374SOL    HW132021   3.580   5.916   4.569
10374SOL    HW232022   3.459   5.895   4.678
10375SOL     OW32023   2.284   3.851   6.962
10375SOL    HW132024   2.380   3.878   6.974
10375SOL    HW232025   2.240   3.913   6.897
10376SOL     OW32026   1.977   4.516   2.966
10376SOL    HW132027   2.032   4.439   2.996
10376SOL    HW232028   1.889   4.515   3.012
10377SOL     OW32029   1.205   0.644   2.917
10377SOL    HW132030   1.211   0.583   2.996
10377SOL    HW232031   1.239   0.735   2.943
10378SOL     OW32032   6.952   4.779   3.941
10378SOL    HW132033   6.921   4.701   3.994
10378SOL    HW232034   6.969   4.751   3.847
10379SOL     OW32035   1.838   6.112   4.800
10379SOL    HW132036   1.931   6.077   4.812
10379SOL    HW232037   1.786   6.097   4.884
10380SOL     OW32038   2.208   2.913   4.710
10380SOL    HW132039   2.245   2.855   4.637
10380SOL    HW232040   2.182   3.002   4.673
10381SOL     OW32041   4.830   4.680   2.174
10381SOL    HW132042   4.875   4.748   2.118
10381SOL    HW232043   4.898   4.622   2.219
10382SOL     OW32044   3.430   5.398   1.401
10382SOL    HW132045   3.393   5.386   1.494
10382SOL    HW232046   3.380   5.339   1.338
10383SOL     OW32047   2.410   4.313   0.652
10383SOL    HW132048   2.503   4.320   0.687
10383SOL    HW232049   2.411   4.324   0.553
10384SOL     OW32050   5.969   6.563   1.514
10384SOL    HW132051   5.983   6.465   1.500
10384SOL    HW232052   6.014   6.614   1.440
10385SOL     OW32053   4.632   4.626   6.739
10385SOL    HW132054   4.645   4.538   6.785
10385SOL    HW232055   4.538   4.658   6.754
10386SOL     OW32056   7.008   1.298   0.208
10386SOL    HW132057   6.997   1.368   0.138
10386SOL    HW232058   6.999   1.340   0.299
10387SOL     OW32059   4.871   3.050   2.223
10387SOL    HW132060   4.818   3.042   2.138
10387SOL    HW232061   4.923   2.966   2.238
10388SOL     OW32062   2.958   0.810   5.978
10388SOL    HW132063   3.057   0.804   5.967
10388SOL    HW232064   2.936   0.815   6.075
10389SOL     OW32065   1.041   3.241   0.792
10389SOL    HW132066   1.064   3.305   0.866
10389SOL    HW232067   0.984   3.288   0.724
10390SOL     OW32068   3.235   2.384   1.373
10390SOL    HW132069   3.227   2.460   1.309
10390SOL    HW232070   3.230   2.418   1.467
10391SOL     OW32071   5.716   6.656   4.382
10391SOL    HW132072   5.756   6.669   4.292
10391SOL    HW232073   5.788   6.653   4.451
10392SOL     OW32074   6.729   4.936   3.992
10392SOL    HW132075   6.795   4.862   3.979
10392SOL    HW232076   6.645   4.900   4.032
10393SOL     OW32077   1.703   4.260   3.725
10393SOL    HW132078   1.739   4.176   3.685
10393SOL    HW232079   1.779   4.319   3.754
10394SOL     OW32080   2.461   5.794   4.325
10394SOL    HW132081   2.517   5.859   4.377
10394SOL    HW232082   2.383   5.765   4.379
10395SOL     OW32083   0.223   6.879   0.347
10395SOL    HW132084   0.226   6.907   0.443
10395SOL    HW232085   0.170   6.946   0.294
10396SOL     OW32086   2.993   1.491   4.797
10396SOL    HW132087   2.980   1.575   4.743
10396SOL    HW232088   2.918   1.428   4.778
10397SOL     OW32089   3.155   2.105   2.415
10397SOL    HW132090   3.249   2.096   2.383
10397SOL    HW232091   3.093   2.101   2.337
10398SOL     OW32092   0.101   2.703   2.078
10398SOL    HW132093   0.172   2.692   2.008
10398SOL    HW232094   0.039   2.778   2.051
10399SOL     OW32095   6.352   2.746   1.631
10399SOL    HW132096   6.281   2.784   1.691
10399SOL    HW232097   6.408   2.819   1.595
10400SOL     OW32098   4.337   6.712   0.451
10400SOL    HW132099   4.351   6.613   0.457
10400SOL    HW232100   4.345   6.742   0.356
10401SOL     OW32101   6.413   0.901   4.340
10401SOL    HW132102   6.423   0.802   4.349
10401SOL    HW232103   6.502   0.945   4.353
10402SOL     OW32104   6.591   2.638   4.450
10402SOL    HW132105   6.590   2.649   4.549
10402SOL    HW232106   6.541   2.714   4.408
10403SOL     OW32107   2.832   0.885   3.587
10403SOL    HW132108   2.820   0.849   3.494
10403SOL    HW232109   2.745   0.882   3.635
10404SOL     OW32110   0.126   6.968   6.032
10404SOL    HW132111   0.158   6.876   6.008
10404SOL    HW232112   0.035   6.961   6.074
10405SOL     OW32113   0.756   1.371   5.711
10405SOL    HW132114   0.689   1.442   5.689
10405SOL    HW232115   0.715   1.281   5.694
10406SOL     OW32116   3.252   5.069   1.553
10406SOL    HW132117   3.286   5.021   1.634
10406SOL    HW232118   3.214   5.157   1.579
10407SOL     OW32119   3.381   6.406   6.357
10407SOL    HW132120   3.329   6.453   6.428
10407SOL    HW232121   3.319   6.352   6.301
10408SOL     OW32122   5.122   1.137   0.151
10408SOL    HW132123   5.156   1.108   0.061
10408SOL    HW232124   5.192   1.120   0.220
10409SOL     OW32125   6.389   4.729   0.644
10409SOL    HW132126   6.394   4.645   0.590
10409SOL    HW232127   6.354   4.707   0.735
10410SOL     OW32128   5.545   1.811   0.172
10410SOL    HW132129   5.520   1.790   0.077
10410SOL    HW232130   5.535   1.729   0.228
10411SOL     OW32131   2.907   5.417   3.071
10411SOL    HW132132   2.928   5.395   2.975
10411SOL    HW232133   2.887   5.333   3.121
10412SOL     OW32134   6.144   1.043   0.482
10412SOL    HW132135   6.232   1.073   0.444
10412SOL    HW232136   6.150   1.042   0.582
10413SOL     OW32137   0.263   1.788   1.552
10413SOL    HW132138   0.311   1.764   1.636
10413SOL    HW232139   0.320   1.764   1.473
10414SOL     OW32140   4.769   3.684   5.710
10414SOL    HW132141   4.722   3.695   5.798
10414SOL    HW232142   4.702   3.676   5.637
10415SOL     OW32143   0.732   5.594   6.109
10415SOL    HW132144   0.650   5.635   6.069
10415SOL    HW232145   0.786   5.549   6.038
10416SOL     OW32146   6.032   2.397   4.125
10416SOL    HW132147   6.056   2.467   4.192
10416SOL    HW232148   5.946   2.353   4.151
10417SOL     OW32149   3.131   4.980   4.421
10417SOL    HW132150   3.038   5.008   4.397
10417SOL    HW232151   3.135   4.963   4.520
10418SOL     OW32152   0.322   4.380   5.823
10418SOL    HW132153   0.412   4.382   5.866
10418SOL    HW232154   0.275   4.467   5.838
10419SOL     OW32155   0.760   0.449   0.122
10419SOL    HW132156   0.670   0.415   0.097
10419SOL    HW232157   0.787   0.410   0.211
10420SOL     OW32158   0.259   3.169   2.607
10420SOL    HW132159   0.291   3.264   2.604
10420SOL    HW232160   0.298   3.118   2.531
10421SOL     OW32161   1.657   1.276   3.198
10421SOL    HW132162   1.624   1.183   3.184
10421SOL    HW232163   1.585   1.331   3.240
10422SOL     OW32164   6.651   2.393   5.407
10422SOL    HW132165   6.744   2.427   5.394
10422SOL    HW232166   6.653   2.295   5.426
10423SOL     OW32167   4.709   4.857   4.474
10423SOL    HW132168   4.647   4.842   4.397
10423SOL    HW232169   4.801   4.824   4.450
10424SOL     OW32170   5.060   1.951   6.619
10424SOL    HW132171   4.986   1.915   6.563
10424SOL    HW232172   5.122   2.005   6.561
10425SOL     OW32173   1.729   0.146   2.687
10425SOL    HW132174   1.732   0.243   2.711
10425SOL    HW232175   1.822   0.109   2.688
10426SOL     OW32176   6.526   4.067   0.578
10426SOL    HW132177   6.476   4.042   0.495
10426SOL    HW232178   6.497   4.158   0.608
10427SOL     OW32179   4.286   2.001   0.253
10427SOL    HW132180   4.254   2.013   0.347
10427SOL    HW232181   4.245   1.918   0.214
10428SOL     OW32182   3.790   0.628   4.342
10428SOL    HW132183   3.750   0.690   4.274
10428SOL    HW232184   3.786   0.670   4.433
10429SOL     OW32185   6.743   5.624   1.542
10429SOL    HW132186   6.812   5.552   1.537
10429SOL    HW232187   6.786   5.708   1.574
10430SOL     OW32188   4.654   6.953   2.973
10430SOL    HW132189   4.713   0.012   2.976
10430SOL    HW232190   4.676   6.894   3.051
10431SOL     OW32191   3.140   0.191   5.408
10431SOL    HW132192   3.090   0.236   5.483
10431SOL    HW232193   3.094   0.105   5.385
10432SOL     OW32194   6.395   0.726   3.852
10432SOL    HW132195   6.325   0.796   3.852
10432SOL    HW232196   6.468   0.752   3.789
10433SOL     OW32197   1.977   6.694   1.601
10433SOL    HW132198   2.052   6.745   1.642
10433SOL    HW232199   1.964   6.608   1.649
10434SOL     OW32200   3.473   6.857   3.528
10434SOL    HW132201   3.552   6.858   3.468
10434SOL    HW232202   3.410   6.931   3.501
10435SOL     OW32203   6.392   6.651   5.137
10435SOL    HW132204   6.400   6.577   5.070
10435SOL    HW232205   6.375   6.613   5.228
10436SOL     OW32206   0.754   4.879   4.407
10436SOL    HW132207   0.847   4.865   4.374
10436SOL    HW232208   0.755   4.898   4.505
10437SOL     OW32209   6.340   5.223   5.805
10437SOL    HW132210   6.251   5.267   5.797
10437SOL    HW232211   6.339   5.136   5.755
10438SOL     OW32212   5.155   6.448   0.308
10438SOL    HW132213   5.144   6.535   0.260
10438SOL    HW232214   5.072   6.427   0.360
10439SOL     OW32215   3.676   0.599   5.557
10439SOL    HW132216   3.753   0.661   5.576
10439SOL    HW232217   3.592   0.638   5.595
10440SOL     OW32218   0.675   6.908   1.109
10440SOL    HW132219   0.613   6.876   1.038
10440SOL    HW232220   0.682   6.840   1.182
10441SOL     OW32221   5.277   1.441   6.492
10441SOL    HW132222   5.269   1.379   6.414
10441SOL    HW232223   5.216   1.519   6.479
10442SOL     OW32224   3.494   5.449   5.913
10442SOL    HW132225   3.574   5.488   5.959
10442SOL    HW232226   3.461   5.369   5.963
10443SOL     OW32227   5.615   3.870   4.691
10443SOL    HW132228   5.576   3.779   4.708
10443SOL    HW232229   5.554   3.922   4.631
10444SOL     OW32230   3.668   5.385   4.954
10444SOL    HW132231   3.598   5.336   4.903
10444SOL    HW232232   3.744   5.323   4.975
10445SOL     OW32233   6.944   4.988   4.686
10445SOL    HW132234   6.890   5.011   4.767
10445SOL    HW232235   6.898   5.024   4.605
10446SOL     OW32236   0.555   4.090   6.658
10446SOL    HW132237   0.494   4.159   6.621
10446SOL    HW232238   0.564   4.102   6.757
10447SOL     OW32239   6.801   1.880   1.124
10447SOL    HW132240   6.840   1.797   1.165
10447SOL    HW232241   6.800   1.953   1.192
10448SOL     OW32242   3.930   3.430   1.227
10448SOL    HW132243   4.004   3.420   1.161
10448SOL    HW232244   3.943   3.366   1.302
10449SOL     OW32245   2.621   5.443   4.825
10449SOL    HW132246   2.635   5.512   4.754
10449SOL    HW232247   2.613   5.353   4.782
10450SOL     OW32248   6.967   2.597   6.829
10450SOL    HW132249   6.951   2.545   6.913
10450SOL    HW232250   7.015   2.682   6.852
10451SOL     OW32251   2.731   4.669   2.906
10451SOL    HW132252   2.763   4.660   3.000
10451SOL    HW232253   2.651   4.611   2.891
10452SOL     OW32254   0.427   3.707   3.855
10452SOL    HW132255   0.521   3.706   3.820
10452SOL    HW232256   0.425   3.666   3.947
10453SOL     OW32257   5.805   6.021   1.537
10453SOL    HW132258   5.798   6.115   1.504
10453SOL    HW232259   5.818   6.021   1.636
10454SOL     OW32260   5.101   2.926   1.731
10454SOL    HW132261   5.181   2.895   1.680
10454SOL    HW232262   5.024   2.936   1.669
10455SOL     OW32263   0.428   5.290   3.879
10455SOL    HW132264   0.508   5.284   3.820
10455SOL    HW232265   0.411   5.200   3.921
10456SOL     OW32266   3.198   5.930   1.289
10456SOL    HW132267   3.266   6.002   1.303
10456SOL    HW232268   3.202   5.900   1.193
10457SOL     OW32269   3.758   4.054   3.626
10457SOL    HW132270   3.681   4.112   3.652
10457SOL    HW232271   3.759   4.043   3.527
10458SOL     OW32272   0.859   0.040   0.596
10458SOL    HW132273   0.776   0.084   0.632
10458SOL    HW232274   0.940   0.084   0.636
10459SOL     OW32275   5.529   5.461   1.910
10459SOL    HW132276   5.527   5.402   1.991
10459SOL    HW232277   5.603   5.432   1.850
10460SOL     OW32278   2.597   5.745   1.988
10460SOL    HW132279   2.537   5.824   2.002
10460SOL    HW232280   2.692   5.772   2.003
10461SOL     OW32281   1.942   6.941   6.824
10461SOL    HW132282   1.983   6.982   6.743
10461SOL    HW232283   1.889   6.860   6.797
10462SOL     OW32284   5.900   0.451   0.433
10462SOL    HW132285   5.834   0.395   0.483
10462SOL    HW232286   5.973   0.479   0.495
10463SOL     OW32287   3.000   4.538   6.907
10463SOL    HW132288   2.963   4.480   6.834
10463SOL    HW232289   2.959   4.629   6.901
10464SOL     OW32290   4.584   0.344   1.299
10464SOL    HW132291   4.539   0.296   1.223
10464SOL    HW232292   4.521   0.349   1.377
10465SOL     OW32293   0.255   5.634   5.866
10465SOL    HW132294   0.310   5.705   5.910
10465SOL    HW232295   0.279   5.545   5.904
10466SOL     OW32296   4.977   5.336   4.905
10466SOL    HW132297   4.959   5.355   4.809
10466SOL    HW232298   4.929   5.402   4.962
10467SOL     OW32299   2.450   1.723   5.185
10467SOL    HW132300   2.488   1.791   5.248
10467SOL    HW232301   2.355   1.705   5.208
10468SOL     OW32302   3.460   6.264   4.347
10468SOL    HW132303   3.360   6.263   4.335
10468SOL    HW232304   3.495   6.355   4.327
10469SOL     OW32305   1.975   4.105   0.657
10469SOL    HW132306   2.063   4.088   0.612
10469SOL    HW232307   1.913   4.029   0.638
10470SOL     OW32308   2.256   1.729   3.777
10470SOL    HW132309   2.217   1.780   3.701
10470SOL    HW232310   2.212   1.640   3.784
10471SOL     OW32311   2.851   3.796   1.493
10471SOL    HW132312   2.849   3.784   1.394
10471SOL    HW232313   2.803   3.881   1.517
10472SOL     OW32314   4.013   6.816   2.359
10472SOL    HW132315   4.037   6.873   2.437
10472SOL    HW232316   4.066   6.843   2.279
10473SOL     OW32317   5.762   6.213   6.805
10473SOL    HW132318   5.783   6.130   6.856
10473SOL    HW232319   5.845   6.267   6.792
10474SOL     OW32320   3.959   1.075   4.239
10474SOL    HW132321   4.048   1.067   4.283
10474SOL    HW232322   3.972   1.087   4.140
10475SOL     OW32323   4.069   6.756   1.367
10475SOL    HW132324   4.139   6.745   1.437
10475SOL    HW232325   4.089   6.695   1.290
10476SOL     OW32326   6.228   5.044   6.105
10476SOL    HW132327   6.250   4.979   6.032
10476SOL    HW232328   6.298   5.040   6.176
10477SOL     OW32329   5.762   4.025   4.876
10477SOL    HW132330   5.773   3.995   4.970
10477SOL    HW232331   5.711   3.956   4.824
10478SOL     OW32332   0.495   6.229   1.055
10478SOL    HW132333   0.466   6.238   0.959
10478SOL    HW232334   0.590   6.199   1.058
10479SOL     OW32335   1.998   3.837   2.395
10479SOL    HW132336   1.948   3.894   2.330
10479SOL    HW232337   2.017   3.748   2.354
10480SOL     OW32338   5.266   6.984   2.346
10480SOL    HW132339   5.268   0.062   2.346
10480SOL    HW232340   5.337   6.949   2.408
10481SOL     OW32341   2.293   0.929   5.375
10481SOL    HW132342   2.206   0.979   5.373
10481SOL    HW232343   2.344   0.955   5.457
10482SOL     OW32344   0.701   6.052   4.902
10482SOL    HW132345   0.658   6.125   4.850
10482SOL    HW232346   0.653   5.966   4.886
10483SOL     OW32347   6.552   5.907   6.430
10483SOL    HW132348   6.561   5.953   6.341
10483SOL    HW232349   6.464   5.931   6.471
10484SOL     OW32350   0.599   0.917   1.438
10484SOL    HW132351   0.549   0.872   1.364
10484SOL    HW232352   0.611   0.854   1.514
10485SOL     OW32353   3.093   3.503   3.428
10485SOL    HW132354   3.017   3.556   3.392
10485SOL    HW232355   3.148   3.560   3.489
10486SOL     OW32356   6.401   6.328   5.271
10486SOL    HW132357   6.319   6.359   5.222
10486SOL    HW232358   6.424   6.395   5.342
10487SOL     OW32359   4.617   2.185   1.880
10487SOL    HW132360   4.666   2.251   1.936
10487SOL    HW232361   4.683   2.136   1.823
10488SOL     OW32362   0.143   2.149   5.471
10488SOL    HW132363   0.044   2.137   5.473
10488SOL    HW232364   0.176   2.169   5.564
10489SOL     OW32365   5.628   4.743   3.953
10489SOL    HW132366   5.654   4.693   4.036
10489SOL    HW232367   5.686   4.712   3.877
10490SOL     OW32368   5.961   6.859   6.912
10490SOL    HW132369   6.014   6.811   6.982
10490SOL    HW232370   6.023   6.893   6.841
10491SOL     OW32371   1.155   2.783   6.530
10491SOL    HW132372   1.071   2.807   6.579
10491SOL    HW232373   1.183   2.860   6.472
10492SOL     OW32374   4.459   0.766   0.564
10492SOL    HW132375   4.439   0.705   0.487
10492SOL    HW232376   4.551   0.803   0.554
10493SOL     OW32377   4.219   5.537   0.649
10493SOL    HW132378   4.140   5.584   0.610
10493SOL    HW232379   4.299   5.596   0.642
10494SOL     OW32380   0.857   4.326   6.026
10494SOL    HW132381   0.845   4.235   5.986
10494SOL    HW232382   0.940   4.368   5.988
10495SOL     OW32383   0.811   6.154   6.345
10495SOL    HW132384   0.764   6.240   6.323
10495SOL    HW232385   0.810   6.140   6.443
10496SOL     OW32386   0.189   3.687   5.361
10496SOL    HW132387   0.166   3.594   5.336
10496SOL    HW232388   0.169   3.749   5.285
10497SOL     OW32389   2.429   6.954   1.374
10497SOL    HW132390   2.433   6.854   1.381
10497SOL    HW232391   2.355   6.980   1.313
10498SOL     OW32392   4.358   5.768   0.604
10498SOL    HW132393   4.395   5.822   0.680
10498SOL    HW232394   4.434   5.734   0.548
10499SOL     OW32395   5.768   5.226   1.987
10499SOL    HW132396   5.777   5.302   1.923
10499SOL    HW232397   5.715   5.152   1.945
10500SOL     OW32398   6.609   4.315   5.646
10500SOL    HW132399   6.701   4.343   5.619
10500SOL    HW232400   6.546   4.391   5.632
10501SOL     OW32401   2.500   5.627   2.839
10501SOL    HW132402   2.578   5.611   2.900
10501SOL    HW232403   2.529   5.682   2.761
10502SOL     OW32404   3.079   3.841   2.472
10502SOL    HW132405   3.011   3.781   2.512
10502SOL    HW232406   3.110   3.805   2.384
10503SOL     OW32407   6.300   2.798   6.510
10503SOL    HW132408   6.202   2.792   6.527
10503SOL    HW232409   6.325   2.738   6.434
10504SOL     OW32410   1.515   2.524   6.139
10504SOL    HW132411   1.597   2.578   6.155
10504SOL    HW232412   1.530   2.462   6.062
10505SOL     OW32413   6.111   6.315   1.491
10505SOL    HW132414   6.198   6.336   1.445
10505SOL    HW232415   6.120   6.229   1.541
10506SOL     OW32416   1.067   2.571   0.541
10506SOL    HW132417   0.971   2.559   0.517
10506SOL    HW232418   1.123   2.509   0.486
10507SOL     OW32419   1.593   4.856   6.381
10507SOL    HW132420   1.636   4.775   6.341
10507SOL    HW232421   1.657   4.900   6.444
10508SOL     OW32422   1.145   5.260   4.927
10508SOL    HW132423   1.100   5.323   4.862
10508SOL    HW232424   1.159   5.172   4.882
10509SOL     OW32425   5.485   2.879   3.374
10509SOL    HW132426   5.407   2.816   3.364
10509SOL    HW232427   5.555   2.855   3.308
10510SOL     OW32428   4.436   5.630   4.551
10510SOL    HW132429   4.404   5.568   4.480
10510SOL    HW232430   4.381   5.617   4.634
10511SOL     OW32431   3.719   1.814   2.316
10511SOL    HW132432   3.648   1.765   2.366
10511SOL    HW232433   3.682   1.901   2.281
10512SOL     OW32434   4.333   0.977   4.790
10512SOL    HW132435   4.269   0.960   4.715
10512SOL    HW232436   4.401   0.903   4.793
10513SOL     OW32437   5.181   3.252   1.593
10513SOL    HW132438   5.268   3.252   1.642
10513SOL    HW232439   5.198   3.235   1.496
10514SOL     OW32440   0.912   2.822   1.457
10514SOL    HW132441   0.885   2.780   1.543
10514SOL    HW232442   0.970   2.759   1.406
10515SOL     OW32443   2.168   2.878   4.972
10515SOL    HW132444   2.253   2.912   5.012
10515SOL    HW232445   2.176   2.877   4.872
10516SOL     OW32446   3.550   2.429   0.764
10516SOL    HW132447   3.581   2.342   0.800
10516SOL    HW232448   3.551   2.498   0.837
10517SOL     OW32449   0.931   3.360   3.541
10517SOL    HW132450   0.878   3.395   3.618
10517SOL    HW232451   1.028   3.361   3.564
10518SOL     OW32452   0.700   5.273   2.588
10518SOL    HW132453   0.759   5.353   2.576
10518SOL    HW232454   0.610   5.293   2.548
10519SOL     OW32455   2.732   6.361   1.039
10519SOL    HW132456   2.709   6.263   1.039
10519SOL    HW232457   2.704   6.401   1.126
10520SOL     OW32458   0.015   1.780   5.526
10520SOL    HW132459   0.088   1.797   5.460
10520SOL    HW232460   0.049   1.722   5.600
10521SOL     OW32461   6.443   3.135   1.093
10521SOL    HW132462   6.510   3.062   1.097
10521SOL    HW232463   6.477   3.215   1.141
10522SOL     OW32464   5.095   2.657   3.542
10522SOL    HW132465   5.141   2.633   3.627
10522SOL    HW232466   5.078   2.574   3.489
10523SOL     OW32467   6.936   4.809   3.636
10523SOL    HW132468   6.941   4.909   3.647
10523SOL    HW232469   6.996   4.781   3.561
10524SOL     OW32470   6.146   6.706   3.952
10524SOL    HW132471   6.080   6.776   3.925
10524SOL    HW232472   6.190   6.668   3.870
10525SOL     OW32473   4.618   1.414   5.076
10525SOL    HW132474   4.665   1.365   5.004
10525SOL    HW232475   4.616   1.512   5.054
10526SOL     OW32476   0.876   5.095   0.747
10526SOL    HW132477   0.970   5.098   0.781
10526SOL    HW232478   0.848   5.186   0.718
10527SOL     OW32479   0.802   0.705   4.649
10527SOL    HW132480   0.765   0.660   4.567
10527SOL    HW232481   0.902   0.711   4.641
10528SOL     OW32482   1.202   4.112   6.316
10528SOL    HW132483   1.108   4.124   6.347
10528SOL    HW232484   1.253   4.196   6.333
10529SOL     OW32485   1.127   6.357   0.017
10529SOL    HW132486   1.088   6.307   6.961
10529SOL    HW232487   1.090   6.320   0.102
10530SOL     OW32488   0.516   6.381   0.549
10530SOL    HW132489   0.436   6.407   0.495
10530SOL    HW232490   0.576   6.460   0.561
10531SOL     OW32491   2.865   2.932   5.338
10531SOL    HW132492   2.767   2.948   5.336
10531SOL    HW232493   2.883   2.836   5.361
10532SOL     OW32494   5.713   6.160   6.529
10532SOL    HW132495   5.666   6.157   6.617
10532SOL    HW232496   5.797   6.212   6.538
10533SOL     OW32497   2.853   5.328   3.597
10533SOL    HW132498   2.934   5.309   3.653
10533SOL    HW232499   2.880   5.381   3.517
10534SOL     OW32500   1.410   6.214   2.707
10534SOL    HW132501   1.320   6.254   2.687
10534SOL    HW232502   1.399   6.139   2.771
10535SOL     OW32503   3.001   2.123   2.918
10535SOL    HW132504   3.015   2.173   2.833
10535SOL    HW232505   3.085   2.126   2.972
10536SOL     OW32506   5.490   1.733   3.923
10536SOL    HW132507   5.436   1.663   3.878
10536SOL    HW232508   5.454   1.749   4.015
10537SOL     OW32509   4.611   6.892   3.337
10537SOL    HW132510   4.599   6.825   3.264
10537SOL    HW232511   4.693   6.947   3.320
10538SOL     OW32512   6.454   2.838   2.518
10538SOL    HW132513   6.550   2.814   2.505
10538SOL    HW232514   6.396   2.772   2.471
10539SOL     OW32515   6.379   0.059   2.990
10539SOL    HW132516   6.399   0.058   3.088
10539SOL    HW232517   6.284   0.084   2.975
10540SOL     OW32518   2.690   3.627   5.871
10540SOL    HW132519   2.602   3.588   5.898
10540SOL    HW232520   2.705   3.611   5.774
10541SOL     OW32521   3.042   3.272   5.003
10541SOL    HW132522   3.053   3.240   5.097
10541SOL    HW232523   2.954   3.239   4.967
10542SOL     OW32524   5.480   6.800   4.314
10542SOL    HW132525   5.436   6.740   4.248
10542SOL    HW232526   5.551   6.750   4.363
10543SOL     OW32527   0.149   3.149   5.107
10543SOL    HW132528   0.197   3.080   5.162
10543SOL    HW232529   0.199   3.235   5.109
10544SOL     OW32530   1.335   0.916   3.688
10544SOL    HW132531   1.397   0.880   3.617
10544SOL    HW232532   1.267   0.976   3.645
10545SOL     OW32533   1.964   2.143   2.916
10545SOL    HW132534   1.873   2.179   2.936
10545SOL    HW232535   1.970   2.117   2.820
10546SOL     OW32536   3.153   6.738   0.953
10546SOL    HW132537   3.200   6.697   1.032
10546SOL    HW232538   3.062   6.699   0.944
10547SOL     OW32539   4.036   0.056   4.871
10547SOL    HW132540   3.960   0.063   4.936
10547SOL    HW232541   4.014   0.108   4.788
10548SOL     OW32542   1.130   4.778   4.113
10548SOL    HW132543   1.191   4.853   4.084
10548SOL    HW232544   1.179   4.719   4.177
10549SOL     OW32545   0.165   1.454   1.100
10549SOL    HW132546   0.207   1.538   1.065
10549SOL    HW232547   0.154   1.388   1.025
10550SOL     OW32548   3.522   6.177   3.521
10550SOL    HW132549   3.614   6.217   3.527
10550SOL    HW232550   3.491   6.152   3.613
10551SOL     OW32551   3.024   2.166   6.024
10551SOL    HW132552   3.097   2.212   6.074
10551SOL    HW232553   3.056   2.076   5.994
10552SOL     OW32554   3.314   0.493   4.489
10552SOL    HW132555   3.305   0.590   4.468
10552SOL    HW232556   3.389   0.479   4.554
10553SOL     OW32557   0.113   5.204   0.450
10553SOL    HW132558   0.162   5.257   0.519
10553SOL    HW232559   0.114   5.253   0.363
10554SOL     OW32560   5.912   4.943   2.802
10554SOL    HW132561   5.916   4.933   2.901
10554SOL    HW232562   5.841   4.882   2.765
10555SOL     OW32563   3.182   2.374   0.667
10555SOL    HW132564   3.274   2.386   0.630
10555SOL    HW232565   3.178   2.411   0.760
10556SOL     OW32566   1.965   1.994   3.144
10556SOL    HW132567   1.975   2.058   3.067
10556SOL    HW232568   2.005   2.035   3.226
10557SOL     OW32569   2.218   4.583   3.747
10557SOL    HW132570   2.267   4.524   3.683
10557SOL    HW232571   2.178   4.660   3.696
10558SOL     OW32572   2.668   5.693   6.033
10558SOL    HW132573   2.607   5.765   6.067
10558SOL    HW232574   2.707   5.643   6.111
10559SOL     OW32575   4.013   6.869   6.052
10559SOL    HW132576   3.928   6.921   6.054
10559SOL    HW232577   4.015   6.805   6.128
10560SOL     OW32578   5.113   6.465   1.918
10560SOL    HW132579   5.061   6.547   1.941
10560SOL    HW232580   5.160   6.478   1.831
10561SOL     OW32581   6.069   4.533   0.353
10561SOL    HW132582   6.073   4.629   0.379
10561SOL    HW232583   5.975   4.501   0.357
10562SOL     OW32584   3.241   6.238   1.937
10562SOL    HW132585   3.161   6.232   1.997
10562SOL    HW232586   3.309   6.298   1.979
10563SOL     OW32587   0.419   0.425   0.631
10563SOL    HW132588   0.430   0.497   0.563
10563SOL    HW232589   0.477   0.444   0.710
10564SOL     OW32590   5.483   5.545   3.916
10564SOL    HW132591   5.561   5.499   3.875
10564SOL    HW232592   5.513   5.597   3.997
10565SOL     OW32593   7.011   6.833   5.301
10565SOL    HW132594   0.085   6.859   5.314
10565SOL    HW232595   7.007   6.742   5.260
10566SOL     OW32596   2.822   2.598   0.196
10566SOL    HW132597   2.822   2.689   0.154
10566SOL    HW232598   2.780   2.603   0.287
10567SOL     OW32599   1.345   2.390   6.339
10567SOL    HW132600   1.418   2.322   6.341
10567SOL    HW232601   1.351   2.444   6.256
10568SOL     OW32602   5.373   2.430   5.815
10568SOL    HW132603   5.296   2.368   5.828
10568SOL    HW232604   5.339   2.522   5.794
10569SOL     OW32605   5.426   6.722   1.117
10569SOL    HW132606   5.387   6.647   1.064
10569SOL    HW232607   5.386   6.723   1.209
10570SOL     OW32608   0.696   5.032   4.123
10570SOL    HW132609   0.783   5.054   4.169
10570SOL    HW232610   0.648   4.961   4.175
10571SOL     OW32611   0.402   4.056   6.129
10571SOL    HW132612   0.356   4.087   6.046
10571SOL    HW232613   0.339   4.000   6.183
10572SOL     OW32614   6.321   4.080   1.337
10572SOL    HW132615   6.334   3.988   1.301
10572SOL    HW232616   6.262   4.077   1.418
10573SOL     OW32617   5.468   1.289   3.590
10573SOL    HW132618   5.551   1.282   3.535
10573SOL    HW232619   5.414   1.205   3.580
10574SOL     OW32620   0.730   1.556   3.713
10574SOL    HW132621   0.649   1.498   3.716
10574SOL    HW232622   0.768   1.565   3.805
10575SOL     OW32623   6.044   0.721   1.471
10575SOL    HW132624   6.137   0.689   1.492
10575SOL    HW232625   6.040   0.754   1.377
10576SOL     OW32626   2.589   4.732   3.801
10576SOL    HW132627   2.534   4.811   3.830
10576SOL    HW232628   2.648   4.704   3.876
10577SOL     OW32629   4.173   6.021   0.411
10577SOL    HW132630   4.074   6.031   0.417
10577SOL    HW232631   4.201   6.022   0.315
10578SOL     OW32632   0.002   2.582   3.896
10578SOL    HW132633   6.963   2.643   3.844
10578SOL    HW232634   6.970   2.529   3.961
10579SOL     OW32635   1.721   3.650   0.920
10579SOL    HW132636   1.667   3.636   0.837
10579SOL    HW232637   1.782   3.571   0.933
10580SOL     OW32638   6.549   6.853   6.201
10580SOL    HW132639   6.522   6.921   6.270
10580SOL    HW232640   6.630   6.805   6.231
10581SOL     OW32641   5.463   0.047   2.575
10581SOL    HW132642   5.408   0.130   2.571
10581SOL    HW232643   5.557   0.067   2.547
10582SOL     OW32644   5.800   4.276   6.332
10582SOL    HW132645   5.710   4.291   6.372
10582SOL    HW232646   5.859   4.355   6.350
10583SOL     OW32647   2.824   0.831   4.830
10583SOL    HW132648   2.766   0.831   4.911
10583SOL    HW232649   2.767   0.815   4.749
10584SOL     OW32650   0.190   0.110   5.489
10584SOL    HW132651   0.104   0.161   5.484
10584SOL    HW232652   0.212   0.092   5.585
10585SOL     OW32653   0.552   0.573   5.385
10585SOL    HW132654   0.568   0.613   5.295
10585SOL    HW232655   0.474   0.618   5.428
10586SOL     OW32656   4.429   4.564   5.358
10586SOL    HW132657   4.454   4.604   5.446
10586SOL    HW232658   4.360   4.493   5.373
10587SOL     OW32659   1.255   5.753   5.466
10587SOL    HW132660   1.289   5.844   5.444
10587SOL    HW232661   1.244   5.700   5.382
10588SOL     OW32662   1.272   4.625   4.313
10588SOL    HW132663   1.237   4.645   4.404
10588SOL    HW232664   1.304   4.530   4.310
10589SOL     OW32665   5.671   6.016   3.694
10589SOL    HW132666   5.578   6.046   3.670
10589SOL    HW232667   5.719   6.092   3.739
10590SOL     OW32668   0.578   5.491   2.975
10590SOL    HW132669   0.654   5.498   2.911
10590SOL    HW232670   0.525   5.576   2.974
10591SOL     OW32671   1.290   1.938   1.846
10591SOL    HW132672   1.275   1.972   1.939
10591SOL    HW232673   1.373   1.979   1.808
10592SOL     OW32674   5.927   2.151   5.458
10592SOL    HW132675   5.859   2.222   5.442
10592SOL    HW232676   5.962   2.118   5.370
10593SOL     OW32677   2.822   6.084   1.979
10593SOL    HW132678   2.852   5.990   1.996
10593SOL    HW232679   2.732   6.099   2.021
10594SOL     OW32680   3.029   0.273   3.664
10594SOL    HW132681   2.937   0.245   3.689
10594SOL    HW232682   3.079   0.194   3.627
10595SOL     OW32683   6.363   6.809   0.857
10595SOL    HW132684   6.332   6.742   0.926
10595SOL    HW232685   6.434   6.867   0.897
10596SOL     OW32686   5.177   2.285   6.662
10596SOL    HW132687   5.083   2.283   6.697
10596SOL    HW232688   5.236   2.328   6.730
10597SOL     OW32689   2.374   0.334   6.208
10597SOL    HW132690   2.443   0.263   6.200
10597SOL    HW232691   2.283   0.292   6.210
10598SOL     OW32692   2.569   2.099   6.084
10598SOL    HW132693   2.506   2.169   6.117
10598SOL    HW232694   2.552   2.083   5.986
10599SOL     OW32695   6.758   3.579   6.110
10599SOL    HW132696   6.851   3.602   6.137
10599SOL    HW232697   6.759   3.538   6.019
10600SOL     OW32698   2.849   1.845   1.187
10600SOL    HW132699   2.768   1.856   1.130
10600SOL    HW232700   2.826   1.865   1.282
10601SOL     OW32701   0.284   6.411   5.641
10601SOL    HW132702   0.275   6.484   5.573
10601SOL    HW232703   0.194   6.374   5.663
10602SOL     OW32704   0.325   0.177   0.682
10602SOL    HW132705   0.258   0.191   0.755
10602SOL    HW232706   0.375   0.261   0.666
10603SOL     OW32707   4.995   6.996   2.261
10603SOL    HW132708   5.002   0.043   2.189
10603SOL    HW232709   5.080   6.995   2.314
10604SOL     OW32710   6.366   0.070   4.611
10604SOL    HW132711   6.457   0.089   4.649
10604SOL    HW232712   6.372   7.012   4.551
10605SOL     OW32713   2.442   1.517   1.141
10605SOL    HW132714   2.525   1.462   1.139
10605SOL    HW232715   2.405   1.519   1.233
10606SOL     OW32716   6.674   0.946   0.948
10606SOL    HW132717   6.647   0.873   1.011
10606SOL    HW232718   6.633   0.929   0.858
10607SOL     OW32719   3.740   4.274   6.354
10607SOL    HW132720   3.792   4.191   6.371
10607SOL    HW232721   3.718   4.319   6.441
10608SOL     OW32722   6.044   3.520   2.990
10608SOL    HW132723   6.140   3.511   2.964
10608SOL    HW232724   5.986   3.505   2.910
10609SOL     OW32725   4.613   1.385   6.860
10609SOL    HW132726   4.669   1.312   6.822
10609SOL    HW232727   4.540   1.345   6.916
10610SOL     OW32728   0.929   1.003   4.325
10610SOL    HW132729   0.863   1.067   4.285
10610SOL    HW232730   1.005   0.990   4.262
10611SOL     OW32731   3.389   5.022   5.221
10611SOL    HW132732   3.444   5.090   5.269
10611SOL    HW232733   3.294   5.027   5.253
10612SOL     OW32734   5.730   1.485   3.418
10612SOL    HW132735   5.737   1.420   3.493
10612SOL    HW232736   5.675   1.444   3.344
10613SOL     OW32737   6.098   0.149   4.357
10613SOL    HW132738   6.014   0.101   4.381
10613SOL    HW232739   6.158   0.154   4.437
10614SOL     OW32740   4.636   0.582   6.491
10614SOL    HW132741   4.561   0.588   6.426
10614SOL    HW232742   4.704   0.517   6.456
10615SOL     OW32743   2.085   2.227   6.388
10615SOL    HW132744   2.040   2.223   6.299
10615SOL    HW232745   2.019   2.259   6.457
10616SOL     OW32746   2.439   6.712   6.719
10616SOL    HW132747   2.496   6.698   6.800
10616SOL    HW232748   2.383   6.631   6.704
10617SOL     OW32749   2.664   3.026   1.398
10617SOL    HW132750   2.654   2.928   1.414
10617SOL    HW232751   2.654   3.076   1.484
10618SOL     OW32752   0.531   5.398   5.232
10618SOL    HW132753   0.594   5.475   5.246
10618SOL    HW232754   0.470   5.418   5.156
10619SOL     OW32755   1.053   2.143   3.256
10619SOL    HW132756   1.092   2.231   3.282
10619SOL    HW232757   1.115   2.069   3.283
10620SOL     OW32758   2.860   0.526   6.900
10620SOL    HW132759   2.782   0.536   6.838
10620SOL    HW232760   2.945   0.546   6.850
10621SOL     OW32761   1.086   3.925   3.096
10621SOL    HW132762   1.099   3.957   3.189
10621SOL    HW232763   1.096   3.825   3.093
10622SOL     OW32764   4.470   3.425   0.340
10622SOL    HW132765   4.566   3.453   0.343
10622SOL    HW232766   4.430   3.434   0.431
10623SOL     OW32767   5.527   6.327   6.792
10623SOL    HW132768   5.623   6.301   6.787
10623SOL    HW232769   5.519   6.426   6.796
10624SOL     OW32770   0.278   2.333   5.014
10624SOL    HW132771   0.244   2.285   5.095
10624SOL    HW232772   0.355   2.392   5.041
10625SOL     OW32773   6.511   4.469   6.748
10625SOL    HW132774   6.414   4.464   6.769
10625SOL    HW232775   6.550   4.552   6.789
10626SOL     OW32776   4.785   3.576   1.098
10626SOL    HW132777   4.698   3.614   1.068
10626SOL    HW232778   4.837   3.544   1.018
10627SOL     OW32779   5.050   6.296   5.960
10627SOL    HW132780   5.047   6.265   5.865
10627SOL    HW232781   5.003   6.230   6.018
10628SOL     OW32782   4.859   0.839   1.099
10628SOL    HW132783   4.807   0.851   1.014
10628SOL    HW232784   4.931   0.908   1.105
10629SOL     OW32785   2.999   5.228   4.698
10629SOL    HW132786   2.937   5.152   4.717
10629SOL    HW232787   2.972   5.308   4.752
10630SOL     OW32788   4.330   0.217   2.873
10630SOL    HW132789   4.267   0.139   2.877
10630SOL    HW232790   4.291   0.288   2.814
10631SOL     OW32791   4.456   5.998   6.840
10631SOL    HW132792   4.467   5.943   6.922
10631SOL    HW232793   4.457   5.939   6.759
10632SOL     OW32794   4.766   5.429   3.144
10632SOL    HW132795   4.762   5.383   3.056
10632SOL    HW232796   4.861   5.432   3.175
10633SOL     OW32797   1.785   2.665   2.075
10633SOL    HW132798   1.719   2.740   2.083
10633SOL    HW232799   1.737   2.581   2.050
10634SOL     OW32800   0.076   4.346   6.662
10634SOL    HW132801   0.052   4.340   6.759
10634SOL    HW232802   0.056   4.259   6.618
10635SOL     OW32803   2.554   3.902   6.941
10635SOL    HW132804   2.614   3.982   6.948
10635SOL    HW232805   2.589   3.829   6.999
10636SOL     OW32806   6.566   2.232   6.441
10636SOL    HW132807   6.569   2.315   6.497
10636SOL    HW232808   6.641   2.235   6.374
10637SOL     OW32809   3.205   0.245   6.932
10637SOL    HW132810   3.185   0.148   6.920
10637SOL    HW232811   3.240   0.261   0.003
10638SOL     OW32812   6.962   5.078   1.976
10638SOL    HW132813   6.951   5.151   2.043
10638SOL    HW232814   6.960   5.116   1.884
10639SOL     OW32815   2.016   4.189   1.028
10639SOL    HW132816   2.079   4.117   0.998
10639SOL    HW232817   1.930   4.147   1.056
10640SOL     OW32818   4.265   0.137   3.131
10640SOL    HW132819   4.166   0.130   3.115
10640SOL    HW232820   4.309   0.177   3.050
10641SOL     OW32821   0.804   0.373   3.444
10641SOL    HW132822   0.856   0.292   3.421
10641SOL    HW232823   0.866   0.445   3.477
10642SOL     OW32824   5.544   2.156   6.487
10642SOL    HW132825   5.637   2.122   6.472
10642SOL    HW232826   5.548   2.251   6.517
10643SOL     OW32827   1.813   4.920   5.679
10643SOL    HW132828   1.900   4.960   5.708
10643SOL    HW232829   1.745   4.931   5.751
10644SOL     OW32830   0.637   2.512   2.791
10644SOL    HW132831   0.724   2.555   2.813
10644SOL    HW232832   0.563   2.578   2.804
10645SOL     OW32833   2.145   2.897   3.695
10645SOL    HW132834   2.053   2.858   3.700
10645SOL    HW232835   2.212   2.824   3.684
10646SOL     OW32836   5.287   1.091   3.874
10646SOL    HW132837   5.385   1.078   3.882
10646SOL    HW232838   5.239   1.027   3.934
10647SOL     OW32839   3.888   5.207   5.022
10647SOL    HW132840   3.863   5.144   4.948
10647SOL    HW232841   3.987   5.202   5.038
10648SOL     OW32842   5.896   5.621   5.137
10648SOL    HW132843   5.895   5.658   5.044
10648SOL    HW232844   5.804   5.593   5.163
10649SOL     OW32845   0.197   3.426   2.828
10649SOL    HW132846   0.220   3.450   2.922
10649SOL    HW232847   0.133   3.348   2.829
10650SOL     OW32848   6.964   0.833   4.180
10650SOL    HW132849   6.967   0.794   4.272
10650SOL    HW232850   6.871   0.827   4.144
10651SOL     OW32851   4.873   5.592   5.983
10651SOL    HW132852   4.969   5.616   5.966
10651SOL    HW232853   4.832   5.559   5.898
10652SOL     OW32854   1.866   6.881   6.467
10652SOL    HW132855   1.802   6.865   6.542
10652SOL    HW232856   1.817   6.887   6.380
10653SOL     OW32857   3.611   6.060   4.432
10653SOL    HW132858   3.571   6.132   4.375
10653SOL    HW232859   3.641   5.985   4.373
10654SOL     OW32860   5.686   1.166   4.520
10654SOL    HW132861   5.631   1.214   4.452
10654SOL    HW232862   5.783   1.167   4.492
10655SOL     OW32863   1.331   4.754   1.393
10655SOL    HW132864   1.323   4.837   1.449
10655SOL    HW232865   1.345   4.781   1.298
10656SOL     OW32866   6.445   1.217   1.468
10656SOL    HW132867   6.415   1.249   1.378
10656SOL    HW232868   6.390   1.262   1.539
10657SOL     OW32869   5.941   0.428   3.774
10657SOL    HW132870   5.978   0.521   3.773
10657SOL    HW232871   5.844   0.431   3.798
10658SOL     OW32872   6.459   3.828   4.884
10658SOL    HW132873   6.517   3.908   4.900
10658SOL    HW232874   6.471   3.762   4.959
10659SOL     OW32875   1.009   5.326   1.304
10659SOL    HW132876   0.936   5.268   1.267
10659SOL    HW232877   1.002   5.418   1.265
10660SOL     OW32878   6.768   3.450   5.520
10660SOL    HW132879   6.802   3.391   5.447
10660SOL    HW232880   6.678   3.419   5.549
10661SOL     OW32881   1.674   4.088   6.962
10661SOL    HW132882   1.624   4.162   6.917
10661SOL    HW232883   1.618   4.051   0.015
10662SOL     OW32884   2.705   1.369   3.463
10662SOL    HW132885   2.766   1.434   3.417
10662SOL    HW232886   2.759   1.310   3.523
10663SOL     OW32887   1.621   1.737   4.206
10663SOL    HW132888   1.713   1.772   4.186
10663SOL    HW232889   1.622   1.637   4.198
10664SOL     OW32890   1.298   5.323   4.351
10664SOL    HW132891   1.345   5.310   4.438
10664SOL    HW232892   1.305   5.419   4.323
10665SOL     OW32893   1.837   2.886   6.111
10665SOL    HW132894   1.901   2.872   6.036
10665SOL    HW232895   1.757   2.937   6.078
10666SOL     OW32896   3.770   3.454   2.277
10666SOL    HW132897   3.721   3.436   2.192
10666SOL    HW232898   3.829   3.534   2.267
10667SOL     OW32899   5.670   2.043   2.985
10667SOL    HW132900   5.690   1.945   2.988
10667SOL    HW232901   5.683   2.082   3.076
10668SOL     OW32902   3.269   2.112   5.290
10668SOL    HW132903   3.234   2.124   5.383
10668SOL    HW232904   3.218   2.171   5.227
10669SOL     OW32905   5.629   0.967   1.210
10669SOL    HW132906   5.626   0.998   1.115
10669SOL    HW232907   5.588   1.037   1.269
10670SOL     OW32908   5.107   3.606   3.970
10670SOL    HW132909   5.071   3.599   3.877
10670SOL    HW232910   5.111   3.515   4.011
10671SOL     OW32911   1.155   2.126   4.237
10671SOL    HW132912   1.224   2.089   4.174
10671SOL    HW232913   1.073   2.070   4.233
10672SOL     OW32914   5.886   3.572   1.800
10672SOL    HW132915   5.874   3.662   1.759
10672SOL    HW232916   5.933   3.511   1.736
10673SOL     OW32917   1.835   0.902   1.387
10673SOL    HW132918   1.816   0.883   1.484
10673SOL    HW232919   1.910   0.967   1.379
10674SOL     OW32920   3.794   3.033   4.469
10674SOL    HW132921   3.866   2.973   4.436
10674SOL    HW232922   3.786   3.024   4.569
10675SOL     OW32923   3.807   0.157   5.682
10675SOL    HW132924   3.748   0.238   5.677
10675SOL    HW232925   3.870   0.166   5.760
10676SOL     OW32926   1.132   6.192   5.437
10676SOL    HW132927   1.074   6.258   5.485
10676SOL    HW232928   1.223   6.191   5.479
10677SOL     OW32929   0.709   1.904   0.620
10677SOL    HW132930   0.630   1.964   0.628
10677SOL    HW232931   0.689   1.829   0.558
10678SOL     OW32932   3.882   5.419   3.748
10678SOL    HW132933   3.934   5.467   3.818
10678SOL    HW232934   3.934   5.419   3.662
10679SOL     OW32935   4.585   4.651   0.086
10679SOL    HW132936   4.557   4.744   0.110
10679SOL    HW232937   4.660   4.654   0.020
10680SOL     OW32938   3.620   1.745   4.314
10680SOL    HW132939   3.711   1.714   4.288
10680SOL    HW232940   3.565   1.760   4.231
10681SOL     OW32941   6.390   3.393   6.147
10681SOL    HW132942   6.468   3.433   6.195
10681SOL    HW232943   6.356   3.314   6.198
10682SOL     OW32944   6.357   3.170   5.504
10682SOL    HW132945   6.413   3.251   5.517
10682SOL    HW232946   6.267   3.196   5.470
10683SOL     OW32947   4.135   0.384   3.562
10683SOL    HW132948   4.153   0.289   3.586
10683SOL    HW232949   4.157   0.399   3.466
10684SOL     OW32950   5.246   4.608   0.914
10684SOL    HW132951   5.188   4.650   0.983
10684SOL    HW232952   5.328   4.663   0.901
10685SOL     OW32953   0.113   5.316   2.131
10685SOL    HW132954   0.018   5.298   2.157
10685SOL    HW232955   0.172   5.309   2.211
10686SOL     OW32956   2.301   4.276   0.195
10686SOL    HW132957   2.229   4.315   0.253
10686SOL    HW232958   2.291   4.313   0.102
10687SOL     OW32959   6.576   4.302   2.966
10687SOL    HW132960   6.669   4.320   2.934
10687SOL    HW232961   6.533   4.233   2.907
10688SOL     OW32962   5.367   1.189   1.956
10688SOL    HW132963   5.368   1.109   1.895
10688SOL    HW232964   5.415   1.166   2.041
10689SOL     OW32965   0.315   0.142   1.836
10689SOL    HW132966   0.251   0.139   1.760
10689SOL    HW232967   0.360   0.232   1.839
10690SOL     OW32968   6.575   5.693   3.532
10690SOL    HW132969   6.520   5.645   3.463
10690SOL    HW232970   6.612   5.626   3.597
10691SOL     OW32971   3.036   1.905   2.077
10691SOL    HW132972   3.131   1.881   2.057
10691SOL    HW232973   3.033   1.989   2.131
10692SOL     OW32974   2.881   0.441   5.033
10692SOL    HW132975   2.815   0.516   5.028
10692SOL    HW232976   2.972   0.475   5.008
10693SOL     OW32977   0.675   5.821   1.313
10693SOL    HW132978   0.595   5.874   1.344
10693SOL    HW232979   0.645   5.753   1.247
10694SOL     OW32980   4.985   6.229   6.236
10694SOL    HW132981   5.039   6.217   6.320
10694SOL    HW232982   4.969   6.327   6.221
10695SOL     OW32983   1.183   3.074   1.181
10695SOL    HW132984   1.166   3.080   1.083
10695SOL    HW232985   1.170   2.979   1.212
10696SOL     OW32986   6.413   4.097   5.117
10696SOL    HW132987   6.390   4.107   5.020
10696SOL    HW232988   6.512   4.095   5.128
10697SOL     OW32989   0.631   6.351   5.119
10697SOL    HW132990   0.674   6.428   5.071
10697SOL    HW232991   0.696   6.275   5.125
10698SOL     OW32992   4.855   4.324   6.789
10698SOL    HW132993   4.764   4.293   6.764
10698SOL    HW232994   4.905   4.349   6.707
10699SOL     OW32995   3.680   4.485   0.798
10699SOL    HW132996   3.585   4.510   0.780
10699SOL    HW232997   3.684   4.394   0.838
10700SOL     OW32998   5.916   6.769   0.390
10700SOL    HW132999   5.888   6.778   0.485
10700SOL    HW233000   6.015   6.755   0.384
10701SOL     OW33001   3.043   0.006   6.507
10701SOL    HW133002   3.022   0.096   6.544
10701SOL    HW233003   2.980   7.007   6.432
10702SOL     OW33004   5.168   3.180   2.797
10702SOL    HW133005   5.175   3.196   2.896
10702SOL    HW233006   5.165   3.081   2.780
10703SOL     OW33007   2.277   2.619   5.808
10703SOL    HW133008   2.223   2.581   5.883
10703SOL    HW233009   2.238   2.707   5.780
10704SOL     OW33010   6.538   5.595   2.472
10704SOL    HW133011   6.623   5.624   2.428
10704SOL    HW233012   6.559   5.536   2.550
10705SOL     OW33013   6.024   4.364   1.105
10705SOL    HW133014   5.957   4.322   1.166
10705SOL    HW233015   6.115   4.357   1.145
10706SOL     OW33016   4.680   6.912   1.872
10706SOL    HW133017   4.591   6.922   1.827
10706SOL    HW233018   4.752   6.947   1.812
10707SOL     OW33019   6.387   6.911   4.388
10707SOL    HW133020   6.457   6.914   4.317
10707SOL    HW233021   6.368   6.815   4.412
10708SOL     OW33022   4.857   1.577   2.165
10708SOL    HW133023   4.771   1.550   2.208
10708SOL    HW233024   4.927   1.508   2.185
10709SOL     OW33025   5.660   5.406   3.753
10709SOL    HW133026   5.754   5.402   3.786
10709SOL    HW233027   5.660   5.425   3.655
10710SOL     OW33028   5.670   0.542   3.549
10710SOL    HW133029   5.689   0.584   3.461
10710SOL    HW233030   5.717   0.454   3.555
10711SOL     OW33031   2.242   0.023   3.583
10711SOL    HW133032   2.284   0.041   3.672
10711SOL    HW233033   2.238   6.946   3.567
10712SOL     OW33034   4.388   0.501   3.182
10712SOL    HW133035   4.436   0.527   3.266
10712SOL    HW233036   4.436   0.424   3.140
10713SOL     OW33037   1.569   2.761   0.535
10713SOL    HW133038   1.534   2.788   0.445
10713SOL    HW233039   1.493   2.741   0.596
10714SOL     OW33040   4.349   3.110   5.322
10714SOL    HW133041   4.326   3.069   5.411
10714SOL    HW233042   4.342   3.209   5.329
10715SOL     OW33043   4.802   0.186   2.360
10715SOL    HW133044   4.787   0.285   2.355
10715SOL    HW233045   4.850   0.156   2.278
10716SOL     OW33046   6.584   2.554   3.190
10716SOL    HW133047   6.634   2.617   3.249
10716SOL    HW233048   6.511   2.510   3.243
10717SOL     OW33049   1.810   3.087   0.705
10717SOL    HW133050   1.743   3.086   0.780
10717SOL    HW233051   1.846   2.995   0.691
10718SOL     OW33052   1.280   4.359   6.550
10718SOL    HW133053   1.182   4.346   6.538
10718SOL    HW233054   1.325   4.269   6.550
10719SOL     OW33055   5.767   6.173   3.242
10719SOL    HW133056   5.762   6.189   3.143
10719SOL    HW233057   5.675   6.152   3.277
10720SOL     OW33058   5.847   5.060   4.144
10720SOL    HW133059   5.842   5.017   4.054
10720SOL    HW233060   5.828   5.158   4.136
10721SOL     OW33061   5.131   4.012   5.257
10721SOL    HW133062   5.209   4.024   5.318
10721SOL    HW233063   5.065   4.086   5.273
10722SOL     OW33064   6.170   4.108   0.061
10722SOL    HW133065   6.231   4.187   0.052
10722SOL    HW233066   6.076   4.138   0.049
10723SOL     OW33067   6.933   1.808   6.397
10723SOL    HW133068   6.992   1.887   6.377
10723SOL    HW233069   6.905   1.811   6.493
10724SOL     OW33070   0.226   6.576   6.228
10724SOL    HW133071   0.225   6.641   6.152
10724SOL    HW233072   0.300   6.510   6.214
10725SOL     OW33073   2.431   5.853   5.498
10725SOL    HW133074   2.399   5.948   5.497
10725SOL    HW233075   2.449   5.823   5.404
10726SOL     OW33076   4.620   0.249   4.123
10726SOL    HW133077   4.678   0.282   4.198
10726SOL    HW233078   4.534   0.216   4.160
10727SOL     OW33079   0.856   5.462   6.307
10727SOL    HW133080   0.897   5.387   6.254
10727SOL    HW233081   0.805   5.523   6.245
10728SOL     OW33082   0.998   4.769   6.953
10728SOL    HW133083   1.003   4.718   6.867
10728SOL    HW233084   0.914   4.823   6.956
10729SOL     OW33085   6.282   1.562   1.935
10729SOL    HW133086   6.194   1.606   1.918
10729SOL    HW233087   6.274   1.464   1.915
10730SOL     OW33088   3.336   6.948   0.830
10730SOL    HW133089   3.354   0.007   0.887
10730SOL    HW233090   3.276   6.885   0.879
10731SOL     OW33091   3.724   0.573   0.839
10731SOL    HW133092   3.674   0.638   0.782
10731SOL    HW233093   3.771   0.623   0.913
10732SOL     OW33094   0.847   4.721   5.916
10732SOL    HW133095   0.891   4.744   6.003
10732SOL    HW233096   0.882   4.780   5.844
10733SOL     OW33097   5.998   1.505   6.651
10733SOL    HW133098   6.073   1.457   6.605
10733SOL    HW233099   5.973   1.586   6.598
10734SOL     OW33100   1.597   1.518   0.753
10734SOL    HW133101   1.587   1.572   0.669
10734SOL    HW233102   1.522   1.452   0.759
10735SOL     OW33103   0.451   3.076   2.403
10735SOL    HW133104   0.522   3.136   2.438
10735SOL    HW233105   0.484   2.981   2.403
10736SOL     OW33106   2.056   0.532   3.260
10736SOL    HW133107   1.960   0.539   3.288
10736SOL    HW233108   2.071   0.588   3.179
10737SOL     OW33109   0.921   1.856   1.077
10737SOL    HW133110   0.912   1.953   1.097
10737SOL    HW233111   0.943   1.844   0.980
10738SOL     OW33112   3.070   6.190   2.661
10738SOL    HW133113   2.977   6.221   2.682
10738SOL    HW233114   3.136   6.251   2.705
10739SOL     OW33115   2.109   1.624   1.288
10739SOL    HW133116   2.138   1.665   1.374
10739SOL    HW233117   2.014   1.649   1.269
10740SOL     OW33118   6.886   4.509   5.575
10740SOL    HW133119   6.892   4.608   5.581
10740SOL    HW233120   6.929   4.467   5.655
10741SOL     OW33121   4.142   0.841   1.439
10741SOL    HW133122   4.046   0.849   1.465
10741SOL    HW233123   4.199   0.886   1.507
10742SOL     OW33124   6.572   6.975   0.962
10742SOL    HW133125   6.663   6.934   0.955
10742SOL    HW233126   6.544   6.977   1.058
10743SOL     OW33127   1.822   2.286   5.780
10743SOL    HW133128   1.885   2.208   5.780
10743SOL    HW233129   1.755   2.274   5.853
10744SOL     OW33130   3.750   1.780   0.485
10744SOL    HW133131   3.670   1.834   0.457
10744SOL    HW233132   3.741   1.756   0.582
10745SOL     OW33133   7.004   5.786   5.901
10745SOL    HW133134   6.964   5.754   5.986
10745SOL    HW233135   0.080   5.764   5.899
10746SOL     OW33136   1.058   4.217   0.430
10746SOL    HW133137   0.961   4.212   0.452
10746SOL    HW233138   1.106   4.139   0.471
10747SOL     OW33139   3.598   1.019   4.770
10747SOL    HW133140   3.688   0.981   4.748
10747SOL    HW233141   3.596   1.049   4.865
10748SOL     OW33142   5.511   0.490   1.416
10748SOL    HW133143   5.433   0.431   1.397
10748SOL    HW233144   5.528   0.549   1.337
10749SOL     OW33145   6.982   6.090   4.044
10749SOL    HW133146   0.048   6.101   4.091
10749SOL    HW233147   6.929   6.175   4.053
10750SOL     OW33148   3.669   6.881   4.871
10750SOL    HW133149   3.745   6.816   4.873
10750SOL    HW233150   3.691   6.956   4.808
10751SOL     OW33151   2.059   4.548   4.153
10751SOL    HW133152   2.114   4.626   4.124
10751SOL    HW233153   1.978   4.541   4.095
10752SOL     OW33154   6.288   4.580   5.170
10752SOL    HW133155   6.200   4.534   5.158
10752SOL    HW233156   6.350   4.520   5.221
10753SOL     OW33157   6.504   4.358   4.128
10753SOL    HW133158   6.463   4.268   4.112
10753SOL    HW233159   6.600   4.355   4.100
10754SOL     OW33160   1.010   0.190   3.363
10754SOL    HW133161   1.082   0.176   3.294
10754SOL    HW233162   0.985   0.103   3.404
10755SOL     OW33163   7.000   0.475   0.692
10755SOL    HW133164   0.028   0.396   0.654
10755SOL    HW233165   6.980   0.458   0.789
10756SOL     OW33166   6.719   5.395   5.680
10756SOL    HW133167   6.809   5.434   5.698
10756SOL    HW233168   6.680   5.359   5.765
10757SOL     OW33169   1.924   2.026   0.142
10757SOL    HW133170   1.934   1.928   0.123
10757SOL    HW233171   1.839   2.059   0.101
10758SOL     OW33172   0.662   6.051   4.219
10758SOL    HW133173   0.603   5.970   4.216
10758SOL    HW233174   0.757   6.024   4.202
10759SOL     OW33175   1.952   3.396   0.866
10759SOL    HW133176   2.008   3.399   0.949
10759SOL    HW233177   2.010   3.380   0.786
10760SOL     OW33178   6.044   0.936   3.329
10760SOL    HW133179   6.010   0.842   3.334
10760SOL    HW233180   6.116   0.948   3.397
10761SOL     OW33181   0.705   5.691   5.761
10761SOL    HW133182   0.787   5.742   5.787
10761SOL    HW233183   0.638   5.754   5.721
10762SOL     OW33184   3.026   0.903   5.092
10762SOL    HW133185   3.097   0.950   5.039
10762SOL    HW233186   2.945   0.889   5.035
10763SOL     OW33187   3.740   6.441   2.523
10763SOL    HW133188   3.773   6.505   2.592
10763SOL    HW233189   3.694   6.493   2.450
10764SOL     OW33190   5.274   2.075   5.099
10764SOL    HW133191   5.246   2.115   5.011
10764SOL    HW233192   5.280   2.147   5.168
10765SOL     OW33193   4.672   3.205   0.658
10765SOL    HW133194   4.652   3.107   0.662
10765SOL    HW233195   4.601   3.255   0.707
10766SOL     OW33196   4.328   4.762   0.642
10766SOL    HW133197   4.313   4.673   0.683
10766SOL    HW233198   4.282   4.833   0.696
10767SOL     OW33199   2.618   0.645   1.380
10767SOL    HW133200   2.636   0.690   1.467
10767SOL    HW233201   2.651   0.551   1.383
10768SOL     OW33202   5.534   5.091   1.529
10768SOL    HW133203   5.579   5.001   1.538
10768SOL    HW233204   5.551   5.127   1.437
10769SOL     OW33205   2.007   3.753   5.659
10769SOL    HW133206   2.069   3.783   5.587
10769SOL    HW233207   2.002   3.823   5.731
10770SOL     OW33208   4.894   6.350   4.025
10770SOL    HW133209   4.929   6.262   4.059
10770SOL    HW233210   4.941   6.374   3.940
10771SOL     OW33211   3.892   0.276   4.002
10771SOL    HW133212   3.920   0.238   3.914
10771SOL    HW233213   3.941   0.362   4.019
10772SOL     OW33214   6.041   6.562   4.827
10772SOL    HW133215   6.069   6.651   4.863
10772SOL    HW233216   6.089   6.544   4.742
10773SOL     OW33217   5.936   4.653   6.356
10773SOL    HW133218   5.966   4.749   6.350
10773SOL    HW233219   5.882   4.631   6.275
10774SOL     OW33220   1.921   1.035   5.103
10774SOL    HW133221   1.830   1.074   5.118
10774SOL    HW233222   1.927   0.998   5.010
10775SOL     OW33223   0.388   4.780   2.538
10775SOL    HW133224   0.468   4.817   2.586
10775SOL    HW233225   0.389   4.680   2.545
10776SOL     OW33226   0.831   0.948   6.839
10776SOL    HW133227   0.857   0.974   6.746
10776SOL    HW233228   0.765   0.873   6.835
10777SOL     OW33229   3.755   5.379   0.949
10777SOL    HW133230   3.722   5.303   0.893
10777SOL    HW233231   3.696   5.458   0.936
10778SOL     OW33232   4.935   0.069   4.229
10778SOL    HW133233   4.895   7.001   4.208
10778SOL    HW233234   5.034   0.064   4.222
10779SOL     OW33235   5.934   2.885   3.282
10779SOL    HW133236   6.030   2.858   3.270
10779SOL    HW233237   5.922   2.980   3.251
10780SOL     OW33238   1.608   0.698   4.433
10780SOL    HW133239   1.586   0.673   4.527
10780SOL    HW233240   1.646   0.619   4.385
10781SOL     OW33241   3.768   1.195   3.535
10781SOL    HW133242   3.844   1.254   3.508
10781SOL    HW233243   3.700   1.193   3.461
10782SOL     OW33244   0.138   0.984   3.456
10782SOL    HW133245   0.180   0.910   3.507
10782SOL    HW233246   0.180   0.990   3.365
10783SOL     OW33247   0.370   2.915   3.021
10783SOL    HW133248   0.286   2.967   3.040
10783SOL    HW233249   0.418   2.896   3.107
10784SOL     OW33250   3.319   1.107   4.171
10784SOL    HW133251   3.400   1.159   4.199
10784SOL    HW233252   3.254   1.170   4.128
10785SOL     OW33253   1.041   3.819   0.500
10785SOL    HW133254   1.050   3.728   0.541
10785SOL    HW233255   1.059   3.889   0.570
10786SOL     OW33256   5.966   5.136   2.556
10786SOL    HW133257   5.994   5.192   2.478
10786SOL    HW233258   5.931   5.048   2.523
10787SOL     OW33259   0.704   0.672   5.606
10787SOL    HW133260   0.725   0.605   5.677
10787SOL    HW233261   0.676   0.625   5.522
10788SOL     OW33262   0.756   3.759   0.623
10788SOL    HW133263   0.780   3.807   0.539
10788SOL    HW233264   0.819   3.786   0.696
10789SOL     OW33265   6.646   2.903   6.448
10789SOL    HW133266   6.743   2.881   6.460
10789SOL    HW233267   6.599   2.896   6.537
10790SOL     OW33268   0.774   6.760   1.741
10790SOL    HW133269   0.785   6.836   1.806
10790SOL    HW233270   0.722   6.792   1.662
10791SOL     OW33271   6.925   5.818   2.141
10791SOL    HW133272   6.964   5.881   2.074
10791SOL    HW233273   6.836   5.854   2.172
10792SOL     OW33274   3.024   3.098   5.215
10792SOL    HW133275   3.118   3.077   5.243
10792SOL    HW233276   2.960   3.050   5.275
10793SOL     OW33277   6.120   4.132   5.762
10793SOL    HW133278   6.152   4.226   5.771
10793SOL    HW233279   6.035   4.131   5.709
10794SOL     OW33280   4.110   3.704   4.338
10794SOL    HW133281   4.150   3.612   4.343
10794SOL    HW233282   4.084   3.723   4.243
10795SOL     OW33283   0.117   5.362   3.102
10795SOL    HW133284   0.181   5.335   3.174
10795SOL    HW233285   0.152   5.442   3.055
10796SOL     OW33286   6.638   0.200   5.288
10796SOL    HW133287   6.568   0.183   5.358
10796SOL    HW233288   6.700   0.122   5.282
10797SOL     OW33289   3.587   3.116   1.467
10797SOL    HW133290   3.586   3.183   1.393
10797SOL    HW233291   3.593   3.024   1.428
10798SOL     OW33292   2.596   1.529   0.427
10798SOL    HW133293   2.672   1.479   0.386
10798SOL    HW233294   2.575   1.490   0.517
10799SOL     OW33295   4.324   0.623   2.520
10799SOL    HW133296   4.359   0.710   2.556
10799SOL    HW233297   4.238   0.639   2.472
10800SOL     OW33298   1.034   6.189   6.205
10800SOL    HW133299   1.036   6.286   6.181
10800SOL    HW233300   0.955   6.171   6.262
10801SOL     OW33301   0.948   6.956   0.349
10801SOL    HW133302   0.910   6.866   0.367
10801SOL    HW233303   0.909   0.000   0.414
10802SOL     OW33304   0.428   6.738   2.871
10802SOL    HW133305   0.420   6.650   2.917
10802SOL    HW233306   0.338   6.769   2.839
10803SOL     OW33307   1.779   5.629   6.528
10803SOL    HW133308   1.688   5.630   6.569
10803SOL    HW233309   1.823   5.541   6.547
10804SOL     OW33310   6.918   2.544   3.400
10804SOL    HW133311   6.992   2.541   3.333
10804SOL    HW233312   6.837   2.585   3.359
10805SOL     OW33313   5.629   0.711   5.305
10805SOL    HW133314   5.610   0.809   5.297
10805SOL    HW233315   5.654   0.675   5.215
10806SOL     OW33316   3.992   4.927   6.818
10806SOL    HW133317   3.915   4.880   6.862
10806SOL    HW233318   3.960   4.974   6.736
10807SOL     OW33319   0.840   5.610   4.074
10807SOL    HW133320   0.796   5.608   4.164
10807SOL    HW233321   0.902   5.532   4.066
10808SOL     OW33322   0.226   2.761   6.103
10808SOL    HW133323   0.325   2.751   6.092
10808SOL    HW233324   0.196   2.710   6.183
10809SOL     OW33325   1.954   4.331   4.278
10809SOL    HW133326   1.936   4.341   4.376
10809SOL    HW233327   1.987   4.418   4.241
10810SOL     OW33328   6.869   0.346   3.581
10810SOL    HW133329   6.774   0.357   3.551
10810SOL    HW233330   6.929   0.404   3.526
10811SOL     OW33331   4.679   4.914   4.841
10811SOL    HW133332   4.607   4.921   4.773
10811SOL    HW233333   4.669   4.988   4.908
10812SOL     OW33334   6.796   3.699   6.511
10812SOL    HW133335   6.822   3.768   6.443
10812SOL    HW233336   6.729   3.636   6.471
10813SOL     OW33337   0.569   3.376   6.049
10813SOL    HW133338   0.616   3.366   5.961
10813SOL    HW233339   0.609   3.451   6.100
10814SOL     OW33340   2.582   0.058   0.557
10814SOL    HW133341   2.525   0.041   0.477
10814SOL    HW233342   2.554   0.144   0.600
10815SOL     OW33343   5.186   1.763   3.038
10815SOL    HW133344   5.191   1.670   3.001
10815SOL    HW233345   5.278   1.803   3.039
10816SOL     OW33346   3.238   2.914   3.068
10816SOL    HW133347   3.139   2.923   3.078
10816SOL    HW233348   3.283   3.000   3.092
10817SOL     OW33349   3.110   0.697   3.365
10817SOL    HW133350   3.149   0.625   3.422
10817SOL    HW233351   3.167   0.780   3.372
10818SOL     OW33352   5.047   4.871   5.465
10818SOL    HW133353   4.962   4.910   5.428
10818SOL    HW233354   5.055   4.895   5.562
10819SOL     OW33355   5.871   5.484   5.875
10819SOL    HW133356   5.860   5.439   5.964
10819SOL    HW233357   5.965   5.472   5.843
10820SOL     OW33358   0.395   5.622   4.692
10820SOL    HW133359   0.383   5.628   4.593
10820SOL    HW233360   0.434   5.533   4.716
10821SOL     OW33361   4.259   6.136   3.038
10821SOL    HW133362   4.233   6.214   3.095
10821SOL    HW233363   4.316   6.169   2.962
10822SOL     OW33364   5.486   1.870   0.907
10822SOL    HW133365   5.532   1.890   0.821
10822SOL    HW233366   5.530   1.791   0.951
10823SOL     OW33367   0.504   0.559   3.783
10823SOL    HW133368   0.455   0.540   3.698
10823SOL    HW233369   0.546   0.649   3.777
10824SOL     OW33370   1.114   1.868   2.473
10824SOL    HW133371   1.194   1.825   2.431
10824SOL    HW233372   1.051   1.899   2.402
10825SOL     OW33373   1.463   2.253   0.475
10825SOL    HW133374   1.514   2.176   0.437
10825SOL    HW233375   1.398   2.220   0.544
10826SOL     OW33376   1.000   2.275   2.629
10826SOL    HW133377   0.920   2.334   2.619
10826SOL    HW233378   1.018   2.260   2.726
10827SOL     OW33379   6.372   3.176   4.634
10827SOL    HW133380   6.465   3.148   4.659
10827SOL    HW233381   6.327   3.216   4.714
10828SOL     OW33382   6.847   4.016   6.851
10828SOL    HW133383   6.769   3.975   6.804
10828SOL    HW233384   6.895   3.946   6.903
10829SOL     OW33385   4.680   3.758   0.333
10829SOL    HW133386   4.727   3.670   0.338
10829SOL    HW233387   4.592   3.752   0.379
10830SOL     OW33388   5.103   1.722   3.781
10830SOL    HW133389   5.143   1.631   3.770
10830SOL    HW233390   5.174   1.791   3.766
10831SOL     OW33391   3.724   0.194   1.929
10831SOL    HW133392   3.795   0.261   1.951
10831SOL    HW233393   3.741   0.157   1.837
10832SOL     OW33394   6.487   3.384   6.490
10832SOL    HW133395   6.548   3.454   6.453
10832SOL    HW233396   6.514   3.294   6.453
10833SOL     OW33397   0.178   2.571   1.089
10833SOL    HW133398   0.129   2.590   1.004
10833SOL    HW233399   0.265   2.526   1.068
10834SOL     OW33400   6.559   0.958   0.697
10834SOL    HW133401   6.532   0.922   0.607
10834SOL    HW233402   6.549   1.058   0.696
10835SOL     OW33403   5.161   3.450   0.058
10835SOL    HW133404   5.107   3.411   0.133
10835SOL    HW233405   5.106   3.517   0.009
10836SOL     OW33406   1.253   0.968   2.694
10836SOL    HW133407   1.227   0.904   2.621
10836SOL    HW233408   1.311   1.040   2.656
10837SOL     OW33409   6.111   4.525   2.065
10837SOL    HW133410   6.124   4.624   2.068
10837SOL    HW233411   6.139   4.490   1.976
10838SOL     OW33412   5.385   6.461   3.627
10838SOL    HW133413   5.291   6.495   3.634
10838SOL    HW233414   5.385   6.361   3.632
10839SOL     OW33415   4.807   3.423   0.858
10839SOL    HW133416   4.896   3.398   0.899
10839SOL    HW233417   4.760   3.340   0.829
10840SOL     OW33418   3.406   0.708   2.459
10840SOL    HW133419   3.367   0.619   2.482
10840SOL    HW233420   3.501   0.696   2.428
10841SOL     OW33421   6.307   4.985   4.862
10841SOL    HW133422   6.303   5.021   4.768
10841SOL    HW233423   6.325   4.886   4.858
10842SOL     OW33424   4.342   2.811   1.537
10842SOL    HW133425   4.385   2.774   1.455
10842SOL    HW233426   4.248   2.776   1.545
10843SOL     OW33427   1.990   1.790   0.927
10843SOL    HW133428   2.051   1.851   0.876
10843SOL    HW233429   1.932   1.739   0.863
10844SOL     OW33430   6.952   5.269   4.061
10844SOL    HW133431   6.963   5.176   4.026
10844SOL    HW233432   0.004   5.327   4.026
10845SOL     OW33433   4.403   6.181   4.855
10845SOL    HW133434   4.390   6.157   4.951
10845SOL    HW233435   4.360   6.110   4.798
10846SOL     OW33436   5.775   6.659   6.866
10846SOL    HW133437   5.772   6.592   6.939
10846SOL    HW233438   5.846   6.727   6.886
10847SOL     OW33439   2.809   2.087   0.066
10847SOL    HW133440   2.845   2.041   7.006
10847SOL    HW233441   2.832   2.033   0.147
10848SOL     OW33442   0.689   3.802   1.022
10848SOL    HW133443   0.591   3.823   1.032
10848SOL    HW233444   0.699   3.722   0.962
10849SOL     OW33445   2.860   4.928   4.375
10849SOL    HW133446   2.785   4.952   4.314
10849SOL    HW233447   2.826   4.870   4.449
10850SOL     OW33448   3.979   6.207   6.969
10850SOL    HW133449   4.060   6.264   6.952
10850SOL    HW233450   3.938   6.181   6.882
10851SOL     OW33451   2.968   4.175   1.488
10851SOL    HW133452   2.920   4.254   1.450
10851SOL    HW233453   2.979   4.186   1.586
10852SOL     OW33454   2.277   1.431   7.003
10852SOL    HW133455   2.323   1.364   6.944
10852SOL    HW233456   2.342   1.466   0.049
10853SOL     OW33457   2.614   3.352   6.156
10853SOL    HW133458   2.609   3.273   6.096
10853SOL    HW233459   2.664   3.328   6.239
10854SOL     OW33460   4.978   5.157   5.092
10854SOL    HW133461   4.964   5.226   5.021
10854SOL    HW233462   4.916   5.175   5.168
10855SOL     OW33463   3.987   0.600   0.714
10855SOL    HW133464   3.931   0.529   0.755
10855SOL    HW233465   3.945   0.690   0.731
10856SOL     OW33466   6.945   0.572   6.458
10856SOL    HW133467   6.940   0.661   6.504
10856SOL    HW233468   0.019   0.543   6.451
10857SOL     OW33469   0.335   1.714   2.635
10857SOL    HW133470   0.371   1.807   2.644
10857SOL    HW233471   0.247   1.708   2.683
10858SOL     OW33472   1.747   6.512   1.226
10858SOL    HW133473   1.758   6.594   1.282
10858SOL    HW233474   1.707   6.537   1.138
10859SOL     OW33475   6.850   4.592   4.610
10859SOL    HW133476   6.778   4.608   4.678
10859SOL    HW233477   6.939   4.614   4.649
10860SOL     OW33478   0.072   4.071   3.730
10860SOL    HW133479   0.085   4.124   3.646
10860SOL    HW233480   0.153   4.015   3.747
10861SOL     OW33481   2.929   3.762   3.548
10861SOL    HW133482   2.986   3.729   3.623
10861SOL    HW233483   2.836   3.726   3.558
10862SOL     OW33484   2.111   1.080   5.848
10862SOL    HW133485   2.118   1.091   5.947
10862SOL    HW233486   2.147   1.162   5.802
10863SOL     OW33487   2.360   0.376   4.658
10863SOL    HW133488   2.327   0.282   4.655
10863SOL    HW233489   2.395   0.396   4.750
10864SOL     OW33490   2.909   6.497   1.543
10864SOL    HW133491   2.889   6.490   1.641
10864SOL    HW233492   2.852   6.569   1.503
10865SOL     OW33493   6.470   1.394   0.242
10865SOL    HW133494   6.539   1.383   0.171
10865SOL    HW233495   6.381   1.410   0.199
10866SOL     OW33496   5.384   4.899   0.059
10866SOL    HW133497   5.393   4.986   0.010
10866SOL    HW233498   5.340   4.832   7.021
10867SOL     OW33499   3.004   4.250   0.583
10867SOL    HW133500   3.000   4.191   0.664
10867SOL    HW233501   3.025   4.343   0.611
10868SOL     OW33502   5.271   1.918   3.712
10868SOL    HW133503   5.331   1.966   3.648
10868SOL    HW233504   5.277   1.961   3.802
10869NA      NA33505   6.469   2.716   5.344
10870NA      NA33506   4.391   4.674   5.151
10871NA      NA33507   1.606   3.249   1.689
10872NA      NA33508   4.987   3.840   5.375
10873NA      NA33509   4.259   2.238   4.860
10874NA      NA33510   3.733   4.640   1.686
10875NA      NA33511   6.634   5.404   5.462
10876NA      NA33512   3.447   3.282   4.569
10877NA      NA33513   4.838   6.291   6.787
10878NA      NA33514   3.350   6.590   5.463
10879NA      NA33515   6.335   5.143   2.694
10880NA      NA33516   2.389   0.480   3.779
10881NA      NA33517   3.810   5.257   1.186
10882NA      NA33518   3.696   3.402   2.503
   7.02172   7.02172   7.02172
