Generated by trjconv : CNT in water t= 552.00000
33518
    1C        C    1   2.845   2.771   4.749
    1C        C    2   2.898   2.720   4.870
    1C        C    3   2.841   2.767   4.989
    1C        C    4   2.850   2.775   4.262
    1C        C    5   2.897   2.723   4.385
    1C        C    6   2.842   2.768   4.507
    1C        C    7   3.014   2.641   4.626
    1C        C    8   2.897   2.720   4.628
    1C        C    9   3.079   2.607   4.748
    1C        C   10   3.015   2.642   4.869
    1C        C   11   3.183   2.493   4.980
    1C        C   12   3.063   2.566   4.977
    1C        C   13   2.853   2.774   3.774
    1C        C   14   2.903   2.724   3.897
    1C        C   15   2.852   2.775   4.018
    1C        C   16   3.013   2.638   4.140
    1C        C   17   2.904   2.727   4.140
    1C        C   18   3.078   2.609   4.262
    1C        C   19   3.014   2.644   4.383
    1C        C   20   3.207   2.558   4.505
    1C        C   21   3.074   2.603   4.504
    1C        C   22   3.276   2.535   4.626
    1C        C   23   3.210   2.553   4.749
    1C        C   24   3.411   2.481   4.865
    1C        C   25   3.270   2.501   4.867
    1C        C   26   3.490   2.472   4.980
    1C        C   27   2.855   2.771   3.284
    1C        C   28   2.907   2.725   3.407
    1C        C   29   2.855   2.772   3.529
    1C        C   30   3.019   2.641   3.652
    1C        C   31   2.904   2.724   3.652
    1C        C   32   3.075   2.599   3.775
    1C        C   33   3.013   2.635   3.896
    1C        C   34   3.207   2.549   4.020
    1C        C   35   3.075   2.601   4.018
    1C        C   36   3.278   2.536   4.141
    1C        C   37   3.210   2.558   4.263
    1C        C   38   3.417   2.511   4.384
    1C        C   39   3.278   2.537   4.384
    1C        C   40   3.488   2.507   4.506
    1C        C   41   3.415   2.506   4.626
    1C        C   42   3.630   2.478   4.744
    1C        C   43   3.488   2.482   4.745
    1C        C   44   3.707   2.482   4.862
    1C        C   45   3.629   2.478   4.978
    1C        C   46   2.841   2.753   2.795
    1C        C   47   2.898   2.716   2.919
    1C        C   48   2.849   2.767   3.041
    1C        C   49   3.024   2.643   3.163
    1C        C   50   2.907   2.723   3.162
    1C        C   51   3.083   2.605   3.286
    1C        C   52   3.020   2.640   3.408
    1C        C   53   3.208   2.544   3.529
    1C        C   54   3.081   2.606   3.531
    1C        C   55   3.275   2.525   3.652
    1C        C   56   3.208   2.552   3.774
    1C        C   57   3.414   2.511   3.894
    1C        C   58   3.274   2.529   3.897
    1C        C   59   3.486   2.504   4.016
    1C        C   60   3.417   2.509   4.139
    1C        C   61   3.628   2.503   4.258
    1C        C   62   3.487   2.503   4.261
    1C        C   63   3.699   2.507   4.380
    1C        C   64   3.630   2.503   4.503
    1C        C   65   3.835   2.550   4.622
    1C        C   66   3.702   2.502   4.625
    1C        C   67   3.907   2.564   4.742
    1C        C   68   3.842   2.523   4.860
    1C        C   69   4.053   2.582   4.980
    1C        C   70   3.922   2.533   4.975
    1C        C   71   2.829   2.737   2.308
    1C        C   72   2.882   2.691   2.431
    1C        C   73   2.836   2.748   2.552
    1C        C   74   3.012   2.627   2.674
    1C        C   75   2.892   2.701   2.674
    1C        C   76   3.072   2.593   2.797
    1C        C   77   3.011   2.630   2.919
    1C        C   78   3.206   2.541   3.040
    1C        C   79   3.078   2.602   3.040
    1C        C   80   3.277   2.521   3.161
    1C        C   81   3.212   2.547   3.284
    1C        C   82   3.415   2.495   3.403
    1C        C   83   3.276   2.524   3.407
    1C        C   84   3.483   2.494   3.526
    1C        C   85   3.416   2.506   3.650
    1C        C   86   3.626   2.501   3.770
    1C        C   87   3.485   2.497   3.773
    1C        C   88   3.697   2.514   3.892
    1C        C   89   3.627   2.508   4.015
    1C        C   90   3.833   2.556   4.135
    1C        C   91   3.698   2.513   4.137
    1C        C   92   3.901   2.577   4.257
    1C        C   93   3.834   2.547   4.378
    1C        C   94   4.026   2.639   4.501
    1C        C   95   3.902   2.573   4.499
    1C        C   96   4.094   2.670   4.621
    1C        C   97   4.033   2.630   4.743
    1C        C   98   4.192   2.762   4.864
    1C        C   99   4.102   2.651   4.865
    1C        C  100   4.214   2.844   4.976
    1C        C  101   2.824   2.732   2.069
    1C        C  102   2.995   2.596   2.192
    1C        C  103   2.879   2.681   2.187
    1C        C  104   3.066   2.578   2.314
    1C        C  105   3.002   2.617   2.434
    1C        C  106   3.203   2.533   2.552
    1C        C  107   3.074   2.589   2.552
    1C        C  108   3.272   2.521   2.675
    1C        C  109   3.202   2.538   2.796
    1C        C  110   3.411   2.499   2.916
    1C        C  111   3.271   2.518   2.917
    1C        C  112   3.485   2.486   3.036
    1C        C  113   3.415   2.495   3.159
    1C        C  114   3.628   2.502   3.280
    1C        C  115   3.487   2.490   3.281
    1C        C  116   3.694   2.512   3.404
    1C        C  117   3.624   2.501   3.526
    1C        C  118   3.830   2.555   3.647
    1C        C  119   3.696   2.512   3.648
    1C        C  120   3.898   2.577   3.769
    1C        C  121   3.833   2.549   3.891
    1C        C  122   4.023   2.648   4.013
    1C        C  123   3.899   2.581   4.013
    1C        C  124   4.084   2.684   4.135
    1C        C  125   4.026   2.643   4.257
    1C        C  126   4.197   2.768   4.379
    1C        C  127   4.085   2.681   4.380
    1C        C  128   4.242   2.824   4.500
    1C        C  129   4.195   2.768   4.621
    1C        C  130   4.324   2.935   4.740
    1C        C  131   4.245   2.817   4.744
    1C        C  132   4.351   3.006   4.860
    1C        C  133   4.280   2.966   4.974
    1C        C  134   3.172   2.466   2.083
    1C        C  135   3.041   2.515   2.084
    1C        C  136   3.260   2.479   2.191
    1C        C  137   3.194   2.516   2.310
    1C        C  138   3.407   2.480   2.428
    1C        C  139   3.267   2.503   2.430
    1C        C  140   3.479   2.483   2.549
    1C        C  141   3.411   2.493   2.673
    1C        C  142   3.623   2.492   2.791
    1C        C  143   3.481   2.486   2.795
    1C        C  144   3.695   2.501   2.912
    1C        C  145   3.626   2.490   3.035
    1C        C  146   3.833   2.540   3.156
    1C        C  147   3.697   2.503   3.157
    1C        C  148   3.898   2.567   3.279
    1C        C  149   3.831   2.545   3.402
    1C        C  150   4.023   2.638   3.524
    1C        C  151   3.895   2.577   3.523
    1C        C  152   4.084   2.676   3.646
    1C        C  153   4.024   2.640   3.768
    1C        C  154   4.191   2.773   3.889
    1C        C  155   4.084   2.681   3.890
    1C        C  156   4.244   2.821   4.011
    1C        C  157   4.196   2.770   4.134
    1C        C  158   4.342   2.922   4.254
    1C        C  159   4.252   2.813   4.257
    1C        C  160   4.378   2.986   4.375
    1C        C  161   4.330   2.934   4.497
    1C        C  162   4.437   3.117   4.617
    1C        C  163   4.366   2.995   4.619
    1C        C  164   4.463   3.186   4.737
    1C        C  165   4.429   3.124   4.859
    1C        C  166   4.504   3.323   4.972
    1C        C  167   4.476   3.187   4.975
    1C        C  168   3.475   2.437   2.075
    1C        C  169   3.400   2.456   2.191
    1C        C  170   3.620   2.465   2.306
    1C        C  171   3.478   2.459   2.308
    1C        C  172   3.692   2.487   2.426
    1C        C  173   3.620   2.491   2.547
    1C        C  174   3.828   2.539   2.670
    1C        C  175   3.692   2.503   2.669
    1C        C  176   3.897   2.561   2.792
    1C        C  177   3.832   2.535   2.914
    1C        C  178   4.024   2.631   3.035
    1C        C  179   3.902   2.560   3.034
    1C        C  180   4.080   2.675   3.156
    1C        C  181   4.022   2.635   3.279
    1C        C  182   4.196   2.755   3.400
    1C        C  183   4.085   2.668   3.400
    1C        C  184   4.246   2.810   3.521
    1C        C  185   4.194   2.764   3.644
    1C        C  186   4.342   2.918   3.765
    1C        C  187   4.246   2.815   3.766
    1C        C  188   4.382   2.978   3.886
    1C        C  189   4.338   2.926   4.010
    1C        C  190   4.449   3.105   4.130
    1C        C  191   4.380   2.982   4.133
    1C        C  192   4.475   3.174   4.251
    1C        C  193   4.447   3.110   4.374
    1C        C  194   4.512   3.313   4.493
    1C        C  195   4.475   3.177   4.495
    1C        C  196   4.528   3.388   4.612
    1C        C  197   4.511   3.320   4.734
    1C        C  198   4.547   3.537   4.850
    1C        C  199   4.525   3.395   4.854
    1C        C  200   4.588   3.617   4.961
    1C        C  201   3.615   2.421   2.074
    1C        C  202   3.827   2.518   2.182
    1C        C  203   3.694   2.465   2.185
    1C        C  204   3.897   2.545   2.303
    1C        C  205   3.829   2.522   2.425
    1C        C  206   4.020   2.618   2.544
    1C        C  207   3.895   2.554   2.546
    1C        C  208   4.081   2.658   2.665
    1C        C  209   4.022   2.626   2.789
    1C        C  210   4.193   2.754   2.908
    1C        C  211   4.081   2.668   2.911
    1C        C  212   4.246   2.801   3.031
    1C        C  213   4.195   2.758   3.155
    1C        C  214   4.333   2.916   3.275
    1C        C  215   4.245   2.806   3.278
    1C        C  216   4.373   2.976   3.396
    1C        C  217   4.337   2.918   3.520
    1C        C  218   4.439   3.105   3.641
    1C        C  219   4.380   2.976   3.642
    1C        C  220   4.469   3.170   3.762
    1C        C  221   4.444   3.105   3.885
    1C        C  222   4.511   3.306   4.005
    1C        C  223   4.475   3.170   4.007
    1C        C  224   4.519   3.381   4.125
    1C        C  225   4.513   3.310   4.247
    1C        C  226   4.527   3.521   4.366
    1C        C  227   4.527   3.380   4.369
    1C        C  228   4.522   3.597   4.486
    1C        C  229   4.532   3.529   4.609
    1C        C  230   4.507   3.745   4.729
    1C        C  231   4.540   3.607   4.727
    1C        C  232   4.499   3.819   4.849
    1C        C  233   4.540   3.749   4.963
    1C        C  234   4.019   2.612   2.064
    1C        C  235   3.895   2.550   2.064
    1C        C  236   4.087   2.652   2.180
    1C        C  237   4.021   2.616   2.300
    1C        C  238   4.197   2.738   2.421
    1C        C  239   4.081   2.655   2.421
    1C        C  240   4.249   2.789   2.542
    1C        C  241   4.191   2.747   2.664
    1C        C  242   4.335   2.906   2.784
    1C        C  243   4.246   2.796   2.785
    1C        C  244   4.378   2.963   2.906
    1C        C  245   4.336   2.910   3.030
    1C        C  246   4.447   3.093   3.149
    1C        C  247   4.374   2.972   3.151
    1C        C  248   4.470   3.159   3.272
    1C        C  249   4.435   3.103   3.396
    1C        C  250   4.503   3.305   3.514
    1C        C  251   4.464   3.169   3.518
    1C        C  252   4.516   3.372   3.637
    1C        C  253   4.508   3.306   3.762
    1C        C  254   4.529   3.518   3.879
    1C        C  255   4.524   3.377   3.883
    1C        C  256   4.521   3.589   4.000
    1C        C  257   4.521   3.522   4.124
    1C        C  258   4.496   3.734   4.242
    1C        C  259   4.520   3.594   4.245
    1C        C  260   4.474   3.803   4.363
    1C        C  261   4.493   3.735   4.486
    1C        C  262   4.427   3.940   4.604
    1C        C  263   4.480   3.809   4.605
    1C        C  264   4.400   4.009   4.724
    1C        C  265   4.438   3.946   4.845
    1C        C  266   4.319   4.131   4.959
    1C        C  267   4.393   4.013   4.960
    1C        C  268   4.265   2.778   2.063
    1C        C  269   4.199   2.737   2.180
    1C        C  270   4.350   2.890   2.301
    1C        C  271   4.255   2.784   2.301
    1C        C  272   4.386   2.954   2.422
    1C        C  273   4.342   2.895   2.542
    1C        C  274   4.450   3.083   2.662
    1C        C  275   4.379   2.961   2.662
    1C        C  276   4.479   3.150   2.783
    1C        C  277   4.446   3.086   2.905
    1C        C  278   4.512   3.292   3.023
    1C        C  279   4.473   3.156   3.025
    1C        C  280   4.518   3.363   3.145
    1C        C  281   4.508   3.295   3.268
    1C        C  282   4.521   3.509   3.389
    1C        C  283   4.517   3.368   3.388
    1C        C  284   4.519   3.581   3.511
    1C        C  285   4.523   3.513   3.635
    1C        C  286   4.501   3.725   3.752
    1C        C  287   4.527   3.586   3.755
    1C        C  288   4.479   3.793   3.874
    1C        C  289   4.494   3.728   3.998
    1C        C  290   4.429   3.933   4.115
    1C        C  291   4.479   3.800   4.119
    1C        C  292   4.399   3.997   4.237
    1C        C  293   4.428   3.936   4.361
    1C        C  294   4.326   4.125   4.480
    1C        C  295   4.398   4.004   4.482
    1C        C  296   4.284   4.189   4.599
    1C        C  297   4.326   4.130   4.720
    1C        C  298   4.202   4.312   4.836
    1C        C  299   4.284   4.195   4.840
    1C        C  300   4.172   4.399   4.946
    1C        C  301   4.350   2.888   2.062
    1C        C  302   4.476   3.067   2.179
    1C        C  303   4.400   2.945   2.180
    1C        C  304   4.488   3.142   2.299
    1C        C  305   4.457   3.076   2.420
    1C        C  306   4.511   3.285   2.537
    1C        C  307   4.477   3.148   2.540
    1C        C  308   4.524   3.357   2.658
    1C        C  309   4.508   3.288   2.780
    1C        C  310   4.527   3.502   2.901
    1C        C  311   4.524   3.361   2.900
    1C        C  312   4.518   3.574   3.022
    1C        C  313   4.520   3.505   3.146
    1C        C  314   4.491   3.718   3.264
    1C        C  315   4.517   3.579   3.266
    1C        C  316   4.477   3.787   3.386
    1C        C  317   4.500   3.721   3.509
    1C        C  318   4.428   3.923   3.629
    1C        C  319   4.484   3.793   3.629
    1C        C  320   4.391   3.986   3.750
    1C        C  321   4.422   3.922   3.873
    1C        C  322   4.314   4.109   3.990
    1C        C  323   4.392   3.991   3.992
    1C        C  324   4.273   4.166   4.112
    1C        C  325   4.320   4.115   4.235
    1C        C  326   4.185   4.281   4.351
    1C        C  327   4.281   4.177   4.356
    1C        C  328   4.134   4.337   4.471
    1C        C  329   4.189   4.293   4.593
    1C        C  330   4.028   4.437   4.712
    1C        C  331   4.141   4.350   4.714
    1C        C  332   3.969   4.484   4.831
    1C        C  333   4.054   4.475   4.942
    1C        C  334   4.563   3.264   2.063
    1C        C  335   4.535   3.127   2.063
    1C        C  336   4.547   3.348   2.175
    1C        C  337   4.524   3.279   2.296
    1C        C  338   4.526   3.496   2.411
    1C        C  339   4.523   3.355   2.415
    1C        C  340   4.523   3.568   2.533
    1C        C  341   4.533   3.498   2.656
    1C        C  342   4.492   3.708   2.772
    1C        C  343   4.521   3.570   2.777
    1C        C  344   4.477   3.779   2.894
    1C        C  345   4.493   3.712   3.018
    1C        C  346   4.420   3.913   3.140
    1C        C  347   4.471   3.781   3.139
    1C        C  348   4.391   3.979   3.262
    1C        C  349   4.425   3.918   3.385
    1C        C  350   4.315   4.100   3.502
    1C        C  351   4.394   3.983   3.506
    1C        C  352   4.268   4.159   3.622
    1C        C  353   4.311   4.102   3.744
    1C        C  354   4.174   4.264   3.866
    1C        C  355   4.269   4.160   3.866
    1C        C  356   4.121   4.315   3.987
    1C        C  357   4.176   4.268   4.109
    1C        C  358   4.009   4.399   4.232
    1C        C  359   4.129   4.325   4.229
    1C        C  360   3.950   4.445   4.352
    1C        C  361   4.016   4.414   4.473
    1C        C  362   3.828   4.517   4.595
    1C        C  363   3.960   4.466   4.592
    1C        C  364   3.762   4.547   4.716
    1C        C  365   3.841   4.543   4.833
    1C        C  366   3.630   4.594   4.950
    1C        C  367   3.767   4.575   4.948
    1C        C  368   4.510   3.561   2.053
    1C        C  369   4.530   3.488   2.170
    1C        C  370   4.501   3.705   2.287
    1C        C  371   4.520   3.565   2.288
    1C        C  372   4.483   3.779   2.407
    1C        C  373   4.499   3.707   2.527
    1C        C  374   4.425   3.906   2.650
    1C        C  375   4.478   3.775   2.649
    1C        C  376   4.387   3.969   2.771
    1C        C  377   4.423   3.909   2.894
    1C        C  378   4.314   4.092   3.013
    1C        C  379   4.389   3.972   3.015
    1C        C  380   4.269   4.151   3.134
    1C        C  381   4.312   4.096   3.257
    1C        C  382   4.174   4.256   3.376
    1C        C  383   4.271   4.153   3.379
    1C        C  384   4.119   4.304   3.497
    1C        C  385   4.173   4.264   3.621
    1C        C  386   4.003   4.387   3.743
    1C        C  387   4.123   4.313   3.744
    1C        C  388   3.942   4.425   3.864
    1C        C  389   4.004   4.394   3.987
    1C        C  390   3.818   4.491   4.108
    1C        C  391   3.945   4.430   4.110
    1C        C  392   3.752   4.519   4.230
    1C        C  393   3.821   4.503   4.352
    1C        C  394   3.617   4.555   4.475
    1C        C  395   3.756   4.528   4.475
    1C        C  396   3.547   4.569   4.597
    1C        C  397   3.622   4.569   4.717
    1C        C  398   3.409   4.556   4.841
    1C        C  399   3.549   4.577   4.837
    1C        C  400   3.338   4.531   4.959
    1C        C  401   4.502   3.700   2.054
    1C        C  402   4.451   3.916   2.166
    1C        C  403   4.490   3.780   2.168
    1C        C  404   4.407   3.976   2.286
    1C        C  405   4.435   3.911   2.408
    1C        C  406   4.326   4.096   2.526
    1C        C  407   4.400   3.975   2.529
    1C        C  408   4.279   4.150   2.648
    1C        C  409   4.316   4.091   2.770
    1C        C  410   4.173   4.248   2.890
    1C        C  411   4.275   4.151   2.891
    1C        C  412   4.117   4.296   3.011
    1C        C  413   4.170   4.252   3.134
    1C        C  414   3.999   4.379   3.255
    1C        C  415   4.120   4.305   3.255
    1C        C  416   3.936   4.410   3.377
    1C        C  417   4.002   4.383   3.499
    1C        C  418   3.811   4.478   3.620
    1C        C  419   3.940   4.421   3.621
    1C        C  420   3.748   4.509   3.742
    1C        C  421   3.814   4.486   3.865
    1C        C  422   3.612   4.545   3.989
    1C        C  423   3.751   4.518   3.987
    1C        C  424   3.542   4.544   4.112
    1C        C  425   3.613   4.545   4.234
    1C        C  426   3.401   4.554   4.359
    1C        C  427   3.542   4.557   4.355
    1C        C  428   3.331   4.555   4.481
    1C        C  429   3.406   4.564   4.601
    1C        C  430   3.195   4.521   4.725
    1C        C  431   3.335   4.547   4.722
    1C        C  432   3.123   4.498   4.845
    1C        C  433   3.203   4.497   4.960
    1C        C  434   4.387   4.126   2.052
    1C        C  435   4.451   4.002   2.055
    1C        C  436   4.304   4.165   2.163
    1C        C  437   4.333   4.098   2.284
    1C        C  438   4.178   4.248   2.405
    1C        C  439   4.283   4.153   2.405
    1C        C  440   4.124   4.297   2.525
    1C        C  441   4.178   4.249   2.647
    1C        C  442   4.001   4.372   2.768
    1C        C  443   4.117   4.291   2.767
    1C        C  444   3.940   4.415   2.888
    1C        C  445   4.000   4.376   3.010
    1C        C  446   3.812   4.476   3.133
    1C        C  447   3.938   4.412   3.132
    1C        C  448   3.743   4.500   3.253
    1C        C  449   3.811   4.475   3.375
    1C        C  450   3.608   4.535   3.498
    1C        C  451   3.746   4.504   3.497
    1C        C  452   3.539   4.552   3.620
    1C        C  453   3.611   4.544   3.742
    1C        C  454   3.402   4.549   3.865
    1C        C  455   3.543   4.551   3.865
    1C        C  456   3.333   4.541   3.988
    1C        C  457   3.401   4.541   4.113
    1C        C  458   3.194   4.512   4.236
    1C        C  459   3.333   4.537   4.236
    1C        C  460   3.127   4.492   4.359
    1C        C  461   3.193   4.522   4.480
    1C        C  462   3.001   4.435   4.605
    1C        C  463   3.130   4.493   4.603
    1C        C  464   2.928   4.407   4.723
    1C        C  465   2.988   4.450   4.844
    1C        C  466   2.804   4.337   4.961
    1C        C  467   2.906   4.433   4.960
    1C        C  468   4.125   4.287   2.043
    1C        C  469   4.190   4.252   2.162
    1C        C  470   4.006   4.369   2.281
    1C        C  471   4.128   4.296   2.282
    1C        C  472   3.946   4.409   2.402
    1C        C  473   4.009   4.379   2.525
    1C        C  474   3.812   4.465   2.644
    1C        C  475   3.942   4.410   2.646
    1C        C  476   3.743   4.489   2.764
    1C        C  477   3.809   4.467   2.887
    1C        C  478   3.606   4.522   3.011
    1C        C  479   3.745   4.495   3.010
    1C        C  480   3.533   4.537   3.131
    1C        C  481   3.605   4.530   3.253
    1C        C  482   3.396   4.545   3.376
    1C        C  483   3.537   4.540   3.376
    1C        C  484   3.327   4.540   3.500
    1C        C  485   3.398   4.551   3.621
    1C        C  486   3.192   4.509   3.749
    1C        C  487   3.329   4.544   3.745
    1C        C  488   3.128   4.480   3.872
    1C        C  489   3.196   4.507   3.993
    1C        C  490   3.005   4.413   4.115
    1C        C  491   3.127   4.486   4.114
    1C        C  492   2.946   4.382   4.240
    1C        C  493   3.002   4.427   4.362
    1C        C  494   2.837   4.296   4.484
    1C        C  495   2.941   4.392   4.485
    1C        C  496   2.778   4.254   4.605
    1C        C  497   2.818   4.317   4.725
    1C        C  498   2.669   4.164   4.846
    1C        C  499   2.756   4.275   4.845
    1C        C  500   2.594   4.121   4.956
    1C        C  501   4.005   4.356   2.042
    1C        C  502   3.814   4.461   2.156
    1C        C  503   3.942   4.402   2.159
    1C        C  504   3.746   4.481   2.278
    1C        C  505   3.814   4.459   2.400
    1C        C  506   3.608   4.518   2.519
    1C        C  507   3.744   4.481   2.521
    1C        C  508   3.536   4.527   2.641
    1C        C  509   3.605   4.521   2.764
    1C        C  510   3.396   4.535   2.885
    1C        C  511   3.537   4.528   2.888
    1C        C  512   3.324   4.529   3.006
    1C        C  513   3.392   4.538   3.130
    1C        C  514   3.189   4.495   3.255
    1C        C  515   3.324   4.535   3.255
    1C        C  516   3.127   4.467   3.379
    1C        C  517   3.192   4.498   3.501
    1C        C  518   3.007   4.411   3.625
    1C        C  519   3.129   4.482   3.626
    1C        C  520   2.949   4.368   3.747
    1C        C  521   3.006   4.409   3.870
    1C        C  522   2.840   4.280   3.997
    1C        C  523   2.952   4.367   3.993
    1C        C  524   2.787   4.240   4.121
    1C        C  525   2.836   4.294   4.242
    1C        C  526   2.698   4.133   4.365
    1C        C  527   2.787   4.243   4.364
    1C        C  528   2.663   4.074   4.488
    1C        C  529   2.694   4.140   4.609
    1C        C  530   2.583   3.959   4.731
    1C        C  531   2.644   4.087   4.730
    1C        C  532   2.543   3.901   4.855
    1C        C  533   2.530   3.997   4.960
    1C        C  534   3.619   4.557   2.038
    1C        C  535   3.753   4.517   2.043
    1C        C  536   3.539   4.535   2.154
    1C        C  537   3.607   4.514   2.277
    1C        C  538   3.394   4.516   2.400
    1C        C  539   3.535   4.525   2.398
    1C        C  540   3.322   4.514   2.521
    1C        C  541   3.395   4.525   2.641
    1C        C  542   3.187   4.487   2.767
    1C        C  543   3.325   4.521   2.764
    1C        C  544   3.120   4.469   2.889
    1C        C  545   3.190   4.487   3.011
    1C        C  546   2.997   4.401   3.136
    1C        C  547   3.123   4.465   3.134
    1C        C  548   2.939   4.366   3.260
    1C        C  549   3.002   4.402   3.382
    1C        C  550   2.838   4.273   3.506
    1C        C  551   2.944   4.366   3.506
    1C        C  552   2.789   4.226   3.630
    1C        C  553   2.842   4.276   3.751
    1C        C  554   2.705   4.117   3.877
    1C        C  555   2.795   4.226   3.874
    1C        C  556   2.665   4.063   4.001
    1C        C  557   2.703   4.125   4.122
    1C        C  558   2.594   3.944   4.245
    1C        C  559   2.664   4.067   4.245
    1C        C  560   2.568   3.879   4.368
    1C        C  561   2.596   3.950   4.487
    1C        C  562   2.532   3.750   4.615
    1C        C  563   2.564   3.888   4.610
    1C        C  564   2.512   3.681   4.737
    1C        C  565   2.519   3.760   4.855
    1C        C  566   2.527   3.548   4.975
    1C        C  567   2.529   3.687   4.974
    1C        C  568   3.329   4.478   2.042
    1C        C  569   3.398   4.520   2.156
    1C        C  570   3.185   4.480   2.282
    1C        C  571   3.324   4.510   2.278
    1C        C  572   3.116   4.456   2.403
    1C        C  573   3.184   4.482   2.524
    1C        C  574   2.990   4.401   2.649
    1C        C  575   3.117   4.463   2.646
    1C        C  576   2.929   4.365   2.772
    1C        C  577   2.994   4.404   2.891
    1C        C  578   2.828   4.276   3.016
    1C        C  579   2.936   4.366   3.014
    1C        C  580   2.784   4.221   3.139
    1C        C  581   2.833   4.273   3.260
    1C        C  582   2.699   4.112   3.385
    1C        C  583   2.789   4.221   3.384
    1C        C  584   2.662   4.055   3.508
    1C        C  585   2.704   4.114   3.630
    1C        C  586   2.606   3.931   3.757
    1C        C  587   2.665   4.059   3.754
    1C        C  588   2.578   3.870   3.881
    1C        C  589   2.600   3.938   4.002
    1C        C  590   2.536   3.737   4.128
    1C        C  591   2.568   3.875   4.125
    1C        C  592   2.520   3.672   4.252
    1C        C  593   2.533   3.743   4.374
    1C        C  594   2.515   3.533   4.499
    1C        C  595   2.523   3.674   4.497
    1C        C  596   2.514   3.463   4.622
    1C        C  597   2.513   3.539   4.741
    1C        C  598   2.531   3.325   4.864
    1C        C  599   2.523   3.466   4.861
    1C        C  600   2.528   3.247   4.980
    1C        C  601   3.194   4.447   2.045
    1C        C  602   2.981   4.401   2.162
    1C        C  603   3.117   4.448   2.161
    1C        C  604   2.920   4.367   2.285
    1C        C  605   2.987   4.398   2.405
    1C        C  606   2.823   4.268   2.530
    1C        C  607   2.929   4.361   2.528
    1C        C  608   2.772   4.220   2.653
    1C        C  609   2.822   4.273   2.774
    1C        C  610   2.689   4.109   2.897
    1C        C  611   2.772   4.224   2.897
    1C        C  612   2.656   4.050   3.021
    1C        C  613   2.700   4.107   3.142
    1C        C  614   2.600   3.921   3.267
    1C        C  615   2.662   4.048   3.264
    1C        C  616   2.572   3.861   3.392
    1C        C  617   2.600   3.928   3.513
    1C        C  618   2.527   3.731   3.637
    1C        C  619   2.575   3.864   3.636
    1C        C  620   2.520   3.663   3.761
    1C        C  621   2.533   3.736   3.881
    1C        C  622   2.511   3.528   4.012
    1C        C  623   2.517   3.669   4.005
    1C        C  624   2.513   3.458   4.135
    1C        C  625   2.510   3.531   4.255
    1C        C  626   2.540   3.322   4.380
    1C        C  627   2.519   3.461   4.378
    1C        C  628   2.562   3.253   4.501
    1C        C  629   2.539   3.323   4.621
    1C        C  630   2.592   3.118   4.745
    1C        C  631   2.547   3.253   4.743
    1C        C  632   2.615   3.049   4.867
    1C        C  633   2.564   3.111   4.985
    1C        C  634   2.785   4.305   2.053
    1C        C  635   2.889   4.400   2.052
    1C        C  636   2.752   4.231   2.167
    1C        C  637   2.809   4.279   2.288
    1C        C  638   2.679   4.110   2.410
    1C        C  639   2.766   4.221   2.410
    1C        C  640   2.645   4.049   2.532
    1C        C  641   2.687   4.107   2.654
    1C        C  642   2.587   3.921   2.775
    1C        C  643   2.651   4.047   2.776
    1C        C  644   2.563   3.859   2.900
    1C        C  645   2.592   3.924   3.021
    1C        C  646   2.521   3.725   3.149
    1C        C  647   2.570   3.858   3.145
    1C        C  648   2.512   3.656   3.271
    1C        C  649   2.528   3.726   3.392
    1C        C  650   2.504   3.519   3.519
    1C        C  651   2.511   3.660   3.516
    1C        C  652   2.510   3.452   3.643
    1C        C  653   2.512   3.522   3.766
    1C        C  654   2.537   3.317   3.893
    1C        C  655   2.510   3.456   3.891
    1C        C  656   2.551   3.248   4.016
    1C        C  657   2.530   3.318   4.137
    1C        C  658   2.611   3.121   4.260
    1C        C  659   2.557   3.251   4.258
    1C        C  660   2.642   3.058   4.382
    1C        C  661   2.609   3.120   4.505
    1C        C  662   2.715   2.937   4.629
    1C        C  663   2.633   3.052   4.627
    1C        C  664   2.751   2.877   4.751
    1C        C  665   2.693   2.929   4.871
    1C        C  666   2.743   2.865   4.985
    1C        C  667   2.684   4.025   2.054
    1C        C  668   2.688   4.106   2.168
    1C        C  669   2.594   3.912   2.291
    1C        C  670   2.648   4.044   2.289
    1C        C  671   2.559   3.849   2.413
    1C        C  672   2.586   3.921   2.532
    1C        C  673   2.517   3.720   2.659
    1C        C  674   2.557   3.855   2.654
    1C        C  675   2.508   3.652   2.782
    1C        C  676   2.524   3.723   2.903
    1C        C  677   2.509   3.514   3.029
    1C        C  678   2.513   3.655   3.026
    1C        C  679   2.510   3.442   3.151
    1C        C  680   2.508   3.514   3.273
    1C        C  681   2.534   3.309   3.402
    1C        C  682   2.509   3.448   3.398
    1C        C  683   2.553   3.244   3.526
    1C        C  684   2.535   3.313   3.648
    1C        C  685   2.609   3.117   3.771
    1C        C  686   2.555   3.248   3.772
    1C        C  687   2.639   3.054   3.894
    1C        C  688   2.606   3.118   4.016
    1C        C  689   2.714   2.936   4.139
    1C        C  690   2.638   3.054   4.138
    1C        C  691   2.758   2.882   4.262
    1C        C  692   2.716   2.938   4.384
    1C        C  693   2.751   2.876   4.506
    1C        C  694   2.618   3.901   2.054
    1C        C  695   2.521   3.709   2.173
    1C        C  696   2.575   3.839   2.172
    1C        C  697   2.506   3.640   2.296
    1C        C  698   2.521   3.713   2.416
    1C        C  699   2.491   3.505   2.541
    1C        C  700   2.505   3.646   2.539
    1C        C  701   2.498   3.437   2.664
    1C        C  702   2.500   3.511   2.784
    1C        C  703   2.522   3.302   2.910
    1C        C  704   2.505   3.442   2.907
    1C        C  705   2.542   3.235   3.033
    1C        C  706   2.531   3.303   3.156
    1C        C  707   2.605   3.109   3.281
    1C        C  708   2.549   3.238   3.281
    1C        C  709   2.633   3.045   3.404
    1C        C  710   2.605   3.112   3.525
    1C        C  711   2.718   2.935   3.648
    1C        C  712   2.642   3.054   3.649
    1C        C  713   2.760   2.880   3.771
    1C        C  714   2.715   2.935   3.893
    1C        C  715   2.756   2.879   4.016
    1C        C  716   2.454   3.500   2.063
    1C        C  717   2.493   3.634   2.058
    1C        C  718   2.470   3.422   2.182
    1C        C  719   2.491   3.499   2.299
    1C        C  720   2.512   3.289   2.425
    1C        C  721   2.491   3.429   2.422
    1C        C  722   2.541   3.224   2.547
    1C        C  723   2.524   3.298   2.666
    1C        C  724   2.599   3.102   2.793
    1C        C  725   2.541   3.231   2.790
    1C        C  726   2.632   3.039   2.915
    1C        C  727   2.595   3.104   3.035
    1C        C  728   2.709   2.927   3.159
    1C        C  729   2.630   3.044   3.158
    1C        C  730   2.757   2.873   3.281
    1C        C  731   2.717   2.931   3.403
    1C        C  732   2.760   2.877   3.526
    1C        C  733   2.491   3.195   2.072
    1C        C  734   2.488   3.280   2.184
    1C        C  735   2.586   3.088   2.307
    1C        C  736   2.520   3.214   2.305
    1C        C  737   2.615   3.021   2.428
    1C        C  738   2.597   3.095   2.547
    1C        C  739   2.705   2.917   2.671
    1C        C  740   2.629   3.037   2.672
    1C        C  741   2.747   2.859   2.792
    1C        C  742   2.708   2.920   2.913
    1C        C  743   2.753   2.870   3.038
    1C        C  744   2.543   3.067   2.073
    1C        C  745   2.693   2.906   2.189
    1C        C  746   2.616   3.024   2.185
    1C        C  747   2.734   2.842   2.308
    1C        C  748   2.688   2.900   2.429
    1C        C  749   2.742   2.853   2.550
    1C        C  750   2.741   2.843   2.073
    1C        C  751   3.657   2.308   1.989
    1C        O  752   3.633   2.190   2.024
    1C        O  753   3.698   2.324   1.855
    1C        C  754   4.613   3.052   1.962
    1C        O  755   4.584   3.066   1.840
    1C        O  756   4.721   2.976   2.009
    1C        C  757   4.421   4.215   1.939
    1C        O  758   4.499   4.312   1.957
    1C        O  759   4.432   4.172   1.806
    1C        C  760   3.573   4.638   1.922
    1C        O  761   3.627   4.751   1.909
    1C        O  762   3.568   4.591   1.790
    1C        C  763   2.848   4.520   1.975
    1C        O  764   2.852   4.514   1.849
    1C        O  765   2.860   4.653   2.015
    1C        C  766   2.331   3.480   1.983
    1C        O  767   2.336   3.453   1.860
    1C        O  768   2.203   3.483   2.040
    1C        C  769   4.727   3.597   5.007
    1C        O  770   4.755   3.581   5.129
    1C        O  771   4.838   3.668   4.960
    1C        C  772   4.272   4.440   5.047
    1C        O  773   4.266   4.402   5.167
    1C        O  774   4.340   4.563   5.051
    1C        C  775   4.150   2.512   5.068
    1C        O  776   4.259   2.470   5.021
    1C        O  777   4.121   2.440   5.185
    1C        C  778   2.865   4.554   5.035
    1C        O  779   2.830   4.663   4.984
    1C        O  780   2.876   4.571   5.174
    1C        C  781   2.506   3.041   5.102
    1C        O  782   2.388   2.996   5.100
    1C        O  783   2.557   3.066   5.229
    1C        C  784   2.410   3.993   5.047
    1C        O  785   2.304   4.058   5.027
    1C        O  786   2.416   3.944   5.178
    1C        C  787   2.947   2.447   1.991
    1C        O  788   2.966   2.473   1.869
    1C        O  789   2.857   2.345   2.019
    1C        C  790   3.180   2.370   5.063
    1C        O  791   3.186   2.251   5.021
    1C        O  792   3.139   2.373   5.197
    1C        H  793   4.242   3.041   5.039
    1C        H  794   4.164   2.819   5.067
    1C        H  795   4.532   3.123   5.040
    1C        H  796   4.505   3.370   5.068
    1C        H  797   4.564   3.805   5.051
    1C        H  798   4.413   3.975   5.058
    1C        H  799   4.281   4.159   5.055
    1C        H  800   4.062   4.568   4.996
    1C        H  801   3.814   4.568   5.044
    1C        H  802   3.588   4.650   5.032
    1C        H  803   3.383   4.557   5.053
    1C        H  804   3.166   4.464   5.055
    1C        H  805   3.875   2.555   5.069
    1C        H  806   3.674   2.512   5.069
    1C        H  807   2.989   2.540   5.049
    1C        H  808   3.445   2.452   5.075
    1C        H  809   2.867   2.718   5.081
    1C        H  810   2.709   2.892   5.082
    1C        H  811   2.500   3.286   5.075
    1C        H  812   2.488   3.504   5.065
    1C        H  813   2.597   3.727   5.046
    1C        H  814   2.574   4.193   5.034
    1C        H  815   2.744   4.331   5.050
    1C        H  816   2.725   2.894   1.980
    1C        H  817   2.866   2.700   1.976
    1C        H  818   3.204   2.427   1.989
    1C        H  819   3.437   2.456   1.977
    1C        H  820   3.848   2.534   1.969
    1C        H  821   4.054   2.646   1.969
    1C        H  822   4.282   2.709   1.984
    1C        H  823   4.344   2.955   1.980
    1C        H  824   4.630   3.302   1.989
    1C        H  825   4.528   3.508   1.962
    1C        H  826   4.496   3.748   1.958
    1C        H  827   3.815   4.565   1.970
    1C        H  828   3.952   4.364   1.950
    1C        H  829   4.183   4.296   1.953
    1C        H  830   4.504   3.982   1.964
    1C        H  831   2.637   3.838   1.969
    1C        H  832   2.731   4.055   1.963
    1C        H  833   2.707   4.314   1.981
    1C        H  834   3.391   4.429   1.970
    1C        H  835   3.139   4.447   1.953
    1C        H  836   2.513   2.997   1.998
    1C        H  837   2.425   3.218   1.991
    1C        H  838   2.522   3.666   1.960
    2V3OU   H29  839   2.803   3.544   5.986
    2V3OU   C27  840   2.784   3.503   6.088
    2V3OU   H27  841   2.724   3.565   6.159
    2V3OU   H28  842   2.730   3.405   6.079
    2V3OU   O11  843   2.910   3.480   6.154
    2V3OU   C15  844   2.920   3.398   6.264
    2V3OU   C13  845   3.052   3.374   6.305
    2V3OU   C14  846   3.078   3.266   6.391
    2V3OU   C16  847   2.973   3.191   6.441
    2V3OU    H6  848   2.996   3.107   6.509
    2V3OU   C12  849   3.217   3.227   6.422
    2V3OU    O2  850   3.240   3.128   6.494
    2V3OU   C10  851   3.329   3.311   6.378
    2V3OU    C8  852   3.459   3.267   6.400
    2V3OU   O10  853   3.486   3.154   6.471
    2V3OU   H26  854   3.400   3.116   6.493
    2V3OU    C6  855   3.566   3.350   6.354
    2V3OU    C5  856   3.535   3.466   6.284
    2V3OU    C4  857   3.705   3.297   6.355
    2V3OU    H4  858   3.724   3.230   6.444
    2V3OU    H5  859   3.712   3.229   6.266
    2V3OU    C2  860   3.820   3.399   6.353
    2V3OU    O6  861   3.810   3.477   6.472
    2V3OU   H21  862   3.762   3.555   6.438
    2V3OU    C3  863   3.782   3.497   6.242
    2V3OU    H2  864   3.862   3.575   6.244
    2V3OU    H3  865   3.787   3.443   6.144
    2V3OU   C25  866   3.953   3.327   6.331
    2V3OU    O7  867   3.998   3.304   6.218
    2V3OU   C26  868   4.032   3.290   6.455
    2V3OU   H22  869   4.067   3.385   6.503
    2V3OU   H23  870   4.122   3.228   6.429
    2V3OU    O8  871   3.959   3.207   6.543
    2V3OU   H24  872   3.929   3.263   6.616
    2V3OU    C1  873   3.645   3.562   6.247
    2V3OU    H1  874   3.629   3.622   6.153
    2V3OU    O3  875   3.659   3.656   6.355
    2V3OU   C19  876   3.621   3.793   6.343
    2V3OU    H9  877   3.527   3.805   6.280
    2V3OU    O4  878   3.718   3.852   6.260
    2V3OU   C20  879   3.847   3.870   6.319
    2V3OU   H10  880   3.894   3.768   6.328
    2V3OU   C24  881   3.610   3.859   6.481
    2V3OU   H16  882   3.547   3.796   6.548
    2V3OU   H17  883   3.558   3.958   6.472
    2V3OU   C23  884   3.749   3.877   6.541
    2V3OU   H15  885   3.792   3.772   6.555
    2V3OU    N1  886   3.737   3.959   6.659
    2V3OU   H19  887   3.807   3.917   6.717
    2V3OU   H20  888   3.652   3.945   6.710
    2V3OU   C21  889   3.851   3.951   6.449
    2V3OU   H11  890   3.955   3.929   6.487
    2V3OU    O5  891   3.829   4.091   6.443
    2V3OU   H18  892   3.778   4.104   6.525
    2V3OU   C22  893   3.918   3.946   6.209
    2V3OU   H12  894   3.865   4.042   6.187
    2V3OU   H13  895   3.911   3.890   6.113
    2V3OU   H14  896   4.026   3.955   6.236
    2V3OU   C11  897   3.161   3.471   6.285
    2V3OU    O1  898   3.137   3.588   6.252
    2V3OU    C9  899   3.302   3.426   6.300
    2V3OU    C7  900   3.403   3.508   6.251
    2V3OU    O9  901   3.388   3.622   6.174
    2V3OU   H25  902   3.291   3.631   6.182
    2V3OU   C17  903   2.816   3.317   6.316
    2V3OU    H7  904   2.714   3.346   6.291
    2V3OU   C18  905   2.840   3.214   6.406
    2V3OU    H8  906   2.755   3.159   6.448
    3SOL     OW  907   3.211   2.973   4.119
    3SOL    HW1  908   3.205   2.971   4.219
    3SOL    HW2  909   3.152   3.045   4.083
    4SOL     OW  910   0.802   6.471   0.694
    4SOL    HW1  911   0.809   6.436   0.787
    4SOL    HW2  912   0.735   6.546   0.691
    5SOL     OW  913   3.911   2.344   0.816
    5SOL    HW1  914   3.914   2.334   0.915
    5SOL    HW2  915   3.827   2.392   0.790
    6SOL     OW  916   3.687   1.807   2.611
    6SOL    HW1  917   3.664   1.901   2.587
    6SOL    HW2  918   3.736   1.764   2.535
    7SOL     OW  919   2.262   2.868   4.681
    7SOL    HW1  920   2.329   2.853   4.608
    7SOL    HW2  921   2.185   2.804   4.670
    8SOL     OW  922   0.986   2.420   5.991
    8SOL    HW1  923   1.024   2.460   6.074
    8SOL    HW2  924   1.060   2.396   5.928
    9SOL     OW  925   1.284   2.563   6.118
    9SOL    HW1  926   1.318   2.528   6.031
    9SOL    HW2  927   1.357   2.557   6.187
   10SOL     OW  928   5.700   5.059   1.455
   10SOL    HW1  929   5.666   5.141   1.502
   10SOL    HW2  930   5.632   5.029   1.387
   11SOL     OW  931   3.160   1.725   0.624
   11SOL    HW1  932   3.238   1.692   0.678
   11SOL    HW2  933   3.109   1.647   0.588
   12SOL     OW  934   5.473   5.422   1.729
   12SOL    HW1  935   5.375   5.440   1.743
   12SOL    HW2  936   5.500   5.342   1.782
   13SOL     OW  937   5.468   5.737   1.925
   13SOL    HW1  938   5.396   5.722   1.857
   13SOL    HW2  939   5.511   5.826   1.909
   14SOL     OW  940   3.726   6.204   0.704
   14SOL    HW1  941   3.718   6.174   0.609
   14SOL    HW2  942   3.680   6.138   0.763
   15SOL     OW  943   0.464   6.680   6.869
   15SOL    HW1  944   0.533   6.651   6.936
   15SOL    HW2  945   0.472   6.779   6.855
   16SOL     OW  946   1.846   5.603   4.676
   16SOL    HW1  947   1.918   5.661   4.715
   16SOL    HW2  948   1.756   5.645   4.692
   17SOL     OW  949   0.068   2.030   3.798
   17SOL    HW1  950   0.146   1.987   3.752
   17SOL    HW2  951   0.015   1.960   3.845
   18SOL     OW  952   2.822   1.775   5.533
   18SOL    HW1  953   2.850   1.840   5.605
   18SOL    HW2  954   2.834   1.819   5.444
   19SOL     OW  955   2.847   5.515   2.870
   19SOL    HW1  956   2.787   5.552   2.799
   19SOL    HW2  957   2.831   5.564   2.955
   20SOL     OW  958   6.970   1.717   5.551
   20SOL    HW1  959   6.919   1.633   5.534
   20SOL    HW2  960   0.036   1.710   5.510
   21SOL     OW  961   1.610   4.098   1.615
   21SOL    HW1  962   1.549   4.021   1.593
   21SOL    HW2  963   1.704   4.065   1.622
   22SOL     OW  964   0.661   1.196   0.250
   22SOL    HW1  965   0.563   1.185   0.269
   22SOL    HW2  966   0.681   1.292   0.232
   23SOL     OW  967   6.774   5.309   6.785
   23SOL    HW1  968   6.840   5.317   6.860
   23SOL    HW2  969   6.769   5.213   6.755
   24SOL     OW  970   4.903   0.936   6.683
   24SOL    HW1  971   4.941   1.027   6.673
   24SOL    HW2  972   4.911   0.886   6.597
   25SOL     OW  973   1.219   0.697   4.700
   25SOL    HW1  974   1.231   0.602   4.728
   25SOL    HW2  975   1.303   0.730   4.656
   26SOL     OW  976   2.232   0.262   5.676
   26SOL    HW1  977   2.256   0.250   5.772
   26SOL    HW2  978   2.200   0.175   5.638
   27SOL     OW  979   0.096   0.194   2.352
   27SOL    HW1  980   0.004   0.229   2.333
   27SOL    HW2  981   0.095   0.094   2.347
   28SOL     OW  982   1.727   0.822   5.888
   28SOL    HW1  983   1.644   0.766   5.894
   28SOL    HW2  984   1.708   0.912   5.928
   29SOL     OW  985   5.412   0.927   1.256
   29SOL    HW1  986   5.324   0.942   1.212
   29SOL    HW2  987   5.398   0.901   1.351
   30SOL     OW  988   5.018   0.277   4.756
   30SOL    HW1  989   5.093   0.275   4.690
   30SOL    HW2  990   4.963   0.359   4.742
   31SOL     OW  991   6.628   4.919   4.626
   31SOL    HW1  992   6.613   4.985   4.700
   31SOL    HW2  993   6.553   4.926   4.560
   32SOL     OW  994   3.228   1.131   1.141
   32SOL    HW1  995   3.302   1.138   1.208
   32SOL    HW2  996   3.261   1.084   1.060
   33SOL     OW  997   2.050   5.100   5.453
   33SOL    HW1  998   2.007   5.174   5.402
   33SOL    HW2  999   1.988   5.067   5.523
   34SOL     OW 1000   2.031   6.532   5.410
   34SOL    HW1 1001   2.095   6.455   5.406
   34SOL    HW2 1002   2.069   6.603   5.469
   35SOL     OW 1003   1.255   2.950   4.283
   35SOL    HW1 1004   1.338   2.949   4.226
   35SOL    HW2 1005   1.265   3.018   4.355
   36SOL     OW 1006   5.788   1.022   4.165
   36SOL    HW1 1007   5.705   0.967   4.155
   36SOL    HW2 1008   5.776   1.088   4.239
   37SOL     OW 1009   1.484   6.550   4.760
   37SOL    HW1 1010   1.567   6.518   4.806
   37SOL    HW2 1011   1.440   6.621   4.816
   38SOL     OW 1012   0.834   3.303   1.148
   38SOL    HW1 1013   0.777   3.282   1.068
   38SOL    HW2 1014   0.790   3.376   1.201
   39SOL     OW 1015   6.615   5.043   0.981
   39SOL    HW1 1016   6.564   5.022   1.064
   39SOL    HW2 1017   6.555   5.093   0.918
   40SOL     OW 1018   3.954   0.836   6.965
   40SOL    HW1 1019   3.918   0.908   7.025
   40SOL    HW2 1020   3.970   0.873   6.874
   41SOL     OW 1021   5.733   4.173   1.803
   41SOL    HW1 1022   5.678   4.245   1.762
   41SOL    HW2 1023   5.715   4.086   1.757
   42SOL     OW 1024   2.152   3.527   6.936
   42SOL    HW1 1025   2.135   3.430   6.950
   42SOL    HW2 1026   2.065   3.577   6.936
   43SOL     OW 1027   4.960   0.009   4.646
   43SOL    HW1 1028   4.969   0.099   4.689
   43SOL    HW2 1029   5.045   7.010   4.600
   44SOL     OW 1030   6.862   0.604   6.678
   44SOL    HW1 1031   6.859   0.704   6.687
   44SOL    HW2 1032   6.937   0.567   6.733
   45SOL     OW 1033   2.956   4.106   5.715
   45SOL    HW1 1034   2.947   4.092   5.814
   45SOL    HW2 1035   2.874   4.150   5.680
   46SOL     OW 1036   0.966   4.661   4.534
   46SOL    HW1 1037   0.919   4.728   4.592
   46SOL    HW2 1038   0.938   4.675   4.438
   47SOL     OW 1039   6.183   4.091   0.019
   47SOL    HW1 1040   6.190   3.992   0.005
   47SOL    HW2 1041   6.260   4.136   6.999
   48SOL     OW 1042   0.154   4.146   0.079
   48SOL    HW1 1043   0.066   4.158   0.124
   48SOL    HW2 1044   0.205   4.072   0.123
   49SOL     OW 1045   3.182   1.797   6.726
   49SOL    HW1 1046   3.146   1.882   6.763
   49SOL    HW2 1047   3.121   1.762   6.655
   50SOL     OW 1048   4.910   2.162   6.553
   50SOL    HW1 1049   4.894   2.255   6.587
   50SOL    HW2 1050   4.939   2.103   6.628
   51SOL     OW 1051   1.209   6.583   2.286
   51SOL    HW1 1052   1.200   6.567   2.188
   51SOL    HW2 1053   1.300   6.554   2.317
   52SOL     OW 1054   5.832   1.978   2.285
   52SOL    HW1 1055   5.854   2.075   2.289
   52SOL    HW2 1056   5.739   1.964   2.318
   53SOL     OW 1057   4.755   0.673   0.607
   53SOL    HW1 1058   4.673   0.730   0.613
   53SOL    HW2 1059   4.746   0.595   0.670
   54SOL     OW 1060   6.830   0.870   6.702
   54SOL    HW1 1061   6.844   0.926   6.620
   54SOL    HW2 1062   6.751   0.904   6.753
   55SOL     OW 1063   1.863   3.533   5.607
   55SOL    HW1 1064   1.945   3.480   5.631
   55SOL    HW2 1065   1.783   3.489   5.648
   56SOL     OW 1066   0.706   2.842   6.903
   56SOL    HW1 1067   0.661   2.902   6.837
   56SOL    HW2 1068   0.642   2.773   6.935
   57SOL     OW 1069   3.992   5.597   1.280
   57SOL    HW1 1070   4.025   5.634   1.193
   57SOL    HW2 1071   3.918   5.532   1.263
   58SOL     OW 1072   0.705   1.051   7.012
   58SOL    HW1 1073   0.609   1.079   7.018
   58SOL    HW2 1074   0.748   1.064   0.076
   59SOL     OW 1075   3.854   2.827   7.007
   59SOL    HW1 1076   3.782   2.773   0.027
   59SOL    HW2 1077   3.816   2.871   6.926
   60SOL     OW 1078   6.787   2.966   2.849
   60SOL    HW1 1079   6.848   3.044   2.833
   60SOL    HW2 1080   6.744   2.975   2.939
   61SOL     OW 1081   1.338   5.873   2.856
   61SOL    HW1 1082   1.283   5.830   2.784
   61SOL    HW2 1083   1.426   5.900   2.819
   62SOL     OW 1084   5.054   2.765   3.025
   62SOL    HW1 1085   5.003   2.692   3.071
   62SOL    HW2 1086   5.111   2.726   2.953
   63SOL     OW 1087   4.336   6.869   6.652
   63SOL    HW1 1088   4.291   6.908   6.733
   63SOL    HW2 1089   4.312   6.923   6.571
   64SOL     OW 1090   1.838   2.397   6.871
   64SOL    HW1 1091   1.757   2.341   6.851
   64SOL    HW2 1092   1.884   2.420   6.785
   65SOL     OW 1093   0.882   4.974   5.277
   65SOL    HW1 1094   0.903   4.917   5.198
   65SOL    HW2 1095   0.929   4.939   5.358
   66SOL     OW 1096   4.709   1.071   1.496
   66SOL    HW1 1097   4.727   1.169   1.504
   66SOL    HW2 1098   4.776   1.019   1.548
   67SOL     OW 1099   0.029   3.468   1.227
   67SOL    HW1 1100   0.090   3.522   1.286
   67SOL    HW2 1101   0.080   3.391   1.189
   68SOL     OW 1102   0.293   0.991   6.227
   68SOL    HW1 1103   0.379   0.957   6.266
   68SOL    HW2 1104   0.306   1.085   6.194
   69SOL     OW 1105   1.807   0.022   6.327
   69SOL    HW1 1106   1.712   0.044   6.349
   69SOL    HW2 1107   1.863   0.104   6.338
   70SOL     OW 1108   4.628   4.963   3.427
   70SOL    HW1 1109   4.678   4.979   3.342
   70SOL    HW2 1110   4.539   5.008   3.423
   71SOL     OW 1111   5.202   1.827   5.041
   71SOL    HW1 1112   5.283   1.791   4.994
   71SOL    HW2 1113   5.226   1.913   5.086
   72SOL     OW 1114   6.551   0.962   2.265
   72SOL    HW1 1115   6.636   1.001   2.301
   72SOL    HW2 1116   6.536   0.873   2.306
   73SOL     OW 1117   3.027   1.120   0.921
   73SOL    HW1 1118   3.078   1.143   0.837
   73SOL    HW2 1119   3.092   1.108   0.996
   74SOL     OW 1120   2.324   1.196   6.963
   74SOL    HW1 1121   2.355   1.191   6.868
   74SOL    HW2 1122   2.362   1.278   7.006
   75SOL     OW 1123   2.797   2.817   1.474
   75SOL    HW1 1124   2.823   2.812   1.378
   75SOL    HW2 1125   2.705   2.778   1.486
   76SOL     OW 1126   3.892   5.099   6.333
   76SOL    HW1 1127   3.823   5.155   6.378
   76SOL    HW2 1128   3.940   5.153   6.264
   77SOL     OW 1129   6.910   5.128   4.471
   77SOL    HW1 1130   6.991   5.068   4.473
   77SOL    HW2 1131   6.873   5.137   4.564
   78SOL     OW 1132   5.436   1.291   1.473
   78SOL    HW1 1133   5.371   1.224   1.510
   78SOL    HW2 1134   5.385   1.365   1.430
   79SOL     OW 1135   1.671   4.631   4.125
   79SOL    HW1 1136   1.722   4.707   4.087
   79SOL    HW2 1137   1.573   4.645   4.109
   80SOL     OW 1138   3.855   2.167   5.344
   80SOL    HW1 1139   3.789   2.240   5.331
   80SOL    HW2 1140   3.925   2.172   5.273
   81SOL     OW 1141   2.740   4.957   3.471
   81SOL    HW1 1142   2.759   5.021   3.545
   81SOL    HW2 1143   2.643   4.962   3.447
   82SOL     OW 1144   3.371   0.339   1.823
   82SOL    HW1 1145   3.337   0.301   1.909
   82SOL    HW2 1146   3.392   0.436   1.835
   83SOL     OW 1147   5.933   1.428   3.649
   83SOL    HW1 1148   6.031   1.414   3.635
   83SOL    HW2 1149   5.919   1.504   3.712
   84SOL     OW 1150   5.341   2.367   2.760
   84SOL    HW1 1151   5.313   2.390   2.666
   84SOL    HW2 1152   5.299   2.281   2.788
   85SOL     OW 1153   2.272   5.431   3.427
   85SOL    HW1 1154   2.253   5.436   3.525
   85SOL    HW2 1155   2.352   5.487   3.406
   86SOL     OW 1156   5.099   1.095   0.789
   86SOL    HW1 1157   5.027   1.056   0.846
   86SOL    HW2 1158   5.177   1.033   0.787
   87SOL     OW 1159   2.811   3.198   6.752
   87SOL    HW1 1160   2.814   3.285   6.704
   87SOL    HW2 1161   2.888   3.192   6.815
   88SOL     OW 1162   1.506   1.971   1.016
   88SOL    HW1 1163   1.467   1.881   0.997
   88SOL    HW2 1164   1.511   1.985   1.115
   89SOL     OW 1165   3.795   4.149   4.636
   89SOL    HW1 1166   3.833   4.214   4.701
   89SOL    HW2 1167   3.727   4.092   4.682
   90SOL     OW 1168   6.572   3.611   2.236
   90SOL    HW1 1169   6.485   3.615   2.284
   90SOL    HW2 1170   6.565   3.661   2.149
   91SOL     OW 1171   4.641   5.269   0.719
   91SOL    HW1 1172   4.620   5.329   0.796
   91SOL    HW2 1173   4.736   5.239   0.725
   92SOL     OW 1174   5.934   5.663   6.862
   92SOL    HW1 1175   5.887   5.603   6.797
   92SOL    HW2 1176   6.023   5.623   6.885
   93SOL     OW 1177   3.099   3.495   1.970
   93SOL    HW1 1178   3.140   3.586   1.959
   93SOL    HW2 1179   3.165   3.433   2.010
   94SOL     OW 1180   2.956   1.404   4.225
   94SOL    HW1 1181   2.908   1.426   4.310
   94SOL    HW2 1182   2.904   1.441   4.147
   95SOL     OW 1183   1.163   6.124   4.108
   95SOL    HW1 1184   1.196   6.044   4.158
   95SOL    HW2 1185   1.078   6.101   4.062
   96SOL     OW 1186   6.949   6.439   6.919
   96SOL    HW1 1187   6.913   6.434   6.826
   96SOL    HW2 1188   6.875   6.463   6.982
   97SOL     OW 1189   3.850   4.918   5.097
   97SOL    HW1 1190   3.800   4.982   5.156
   97SOL    HW2 1191   3.827   4.936   5.001
   98SOL     OW 1192   1.067   2.902   4.777
   98SOL    HW1 1193   1.135   2.959   4.823
   98SOL    HW2 1194   1.107   2.814   4.754
   99SOL     OW 1195   4.515   4.587   4.834
   99SOL    HW1 1196   4.449   4.552   4.900
   99SOL    HW2 1197   4.494   4.551   4.743
  100SOL     OW 1198   1.747   1.097   5.249
  100SOL    HW1 1199   1.659   1.070   5.288
  100SOL    HW2 1200   1.759   1.049   5.162
  101SOL     OW 1201   5.475   2.826   2.672
  101SOL    HW1 1202   5.481   2.894   2.598
  101SOL    HW2 1203   5.444   2.870   2.756
  102SOL     OW 1204   3.699   6.966   0.320
  102SOL    HW1 1205   3.748   6.887   0.357
  102SOL    HW2 1206   3.718   0.021   0.376
  103SOL     OW 1207   1.855   1.924   1.588
  103SOL    HW1 1208   1.911   1.967   1.518
  103SOL    HW2 1209   1.913   1.869   1.648
  104SOL     OW 1210   0.578   4.334   1.387
  104SOL    HW1 1211   0.593   4.379   1.475
  104SOL    HW2 1212   0.578   4.234   1.400
  105SOL     OW 1213   6.406   1.436   5.195
  105SOL    HW1 1214   6.439   1.432   5.290
  105SOL    HW2 1215   6.307   1.426   5.194
  106SOL     OW 1216   4.565   3.149   1.562
  106SOL    HW1 1217   4.480   3.142   1.508
  106SOL    HW2 1218   4.558   3.092   1.643
  107SOL     OW 1219   4.544   6.226   2.618
  107SOL    HW1 1220   4.448   6.235   2.644
  107SOL    HW2 1221   4.553   6.238   2.519
  108SOL     OW 1222   3.406   1.501   4.500
  108SOL    HW1 1223   3.319   1.452   4.488
  108SOL    HW2 1224   3.453   1.507   4.412
  109SOL     OW 1225   1.902   1.845   5.155
  109SOL    HW1 1226   1.828   1.801   5.205
  109SOL    HW2 1227   1.922   1.934   5.195
  110SOL     OW 1228   4.392   4.687   5.342
  110SOL    HW1 1229   4.306   4.636   5.351
  110SOL    HW2 1230   4.405   4.745   5.422
  111SOL     OW 1231   6.175   3.135   1.534
  111SOL    HW1 1232   6.076   3.143   1.532
  111SOL    HW2 1233   6.215   3.198   1.467
  112SOL     OW 1234   4.678   6.401   5.156
  112SOL    HW1 1235   4.635   6.425   5.243
  112SOL    HW2 1236   4.778   6.397   5.169
  113SOL     OW 1237   0.943   5.144   1.946
  113SOL    HW1 1238   0.999   5.081   1.891
  113SOL    HW2 1239   0.916   5.099   2.030
  114SOL     OW 1240   6.640   1.910   2.142
  114SOL    HW1 1241   6.665   1.853   2.064
  114SOL    HW2 1242   6.711   1.904   2.212
  115SOL     OW 1243   4.485   1.187   3.016
  115SOL    HW1 1244   4.402   1.172   2.962
  115SOL    HW2 1245   4.503   1.285   3.025
  116SOL     OW 1246   6.269   5.530   0.614
  116SOL    HW1 1247   6.214   5.612   0.596
  116SOL    HW2 1248   6.267   5.509   0.711
  117SOL     OW 1249   2.576   1.669   0.569
  117SOL    HW1 1250   2.500   1.693   0.509
  117SOL    HW2 1251   2.662   1.693   0.526
  118SOL     OW 1252   0.195   2.414   1.993
  118SOL    HW1 1253   0.104   2.393   2.028
  118SOL    HW2 1254   0.187   2.458   1.904
  119SOL     OW 1255   6.069   5.472   5.029
  119SOL    HW1 1256   6.041   5.452   5.123
  119SOL    HW2 1257   6.006   5.429   4.965
  120SOL     OW 1258   4.525   1.754   4.736
  120SOL    HW1 1259   4.595   1.700   4.784
  120SOL    HW2 1260   4.559   1.847   4.723
  121SOL     OW 1261   0.056   5.287   6.074
  121SOL    HW1 1262   0.082   5.215   6.010
  121SOL    HW2 1263   0.086   5.375   6.040
  122SOL     OW 1264   0.364   4.752   5.535
  122SOL    HW1 1265   0.325   4.794   5.453
  122SOL    HW2 1266   0.302   4.767   5.612
  123SOL     OW 1267   0.727   2.679   1.363
  123SOL    HW1 1268   0.705   2.676   1.265
  123SOL    HW2 1269   0.826   2.682   1.374
  124SOL     OW 1270   2.152   3.999   6.446
  124SOL    HW1 1271   2.163   3.901   6.429
  124SOL    HW2 1272   2.239   4.038   6.478
  125SOL     OW 1273   4.163   2.257   0.399
  125SOL    HW1 1274   4.105   2.317   0.454
  125SOL    HW2 1275   4.246   2.235   0.450
  126SOL     OW 1276   3.678   3.438   4.800
  126SOL    HW1 1277   3.683   3.355   4.744
  126SOL    HW2 1278   3.742   3.432   4.876
  127SOL     OW 1279   7.015   4.934   5.797
  127SOL    HW1 1280   7.024   5.029   5.826
  127SOL    HW2 1281   6.946   4.927   5.724
  128SOL     OW 1282   4.621   4.140   6.031
  128SOL    HW1 1283   4.669   4.104   6.111
  128SOL    HW2 1284   4.688   4.160   5.959
  129SOL     OW 1285   0.491   5.180   1.160
  129SOL    HW1 1286   0.537   5.096   1.133
  129SOL    HW2 1287   0.432   5.212   1.087
  130SOL     OW 1288   6.200   3.867   4.778
  130SOL    HW1 1289   6.119   3.864   4.835
  130SOL    HW2 1290   6.180   3.917   4.693
  131SOL     OW 1291   0.693   3.703   2.470
  131SOL    HW1 1292   0.670   3.791   2.430
  131SOL    HW2 1293   0.642   3.631   2.423
  132SOL     OW 1294   4.142   2.689   1.723
  132SOL    HW1 1295   4.048   2.663   1.700
  132SOL    HW2 1296   4.206   2.620   1.688
  133SOL     OW 1297   4.357   4.613   5.704
  133SOL    HW1 1298   4.445   4.568   5.687
  133SOL    HW2 1299   4.357   4.652   5.796
  134SOL     OW 1300   6.482   2.036   6.682
  134SOL    HW1 1301   6.568   1.993   6.654
  134SOL    HW2 1302   6.405   1.983   6.645
  135SOL     OW 1303   4.662   4.461   3.704
  135SOL    HW1 1304   4.570   4.500   3.698
  135SOL    HW2 1305   4.701   4.481   3.794
  136SOL     OW 1306   3.769   6.756   6.124
  136SOL    HW1 1307   3.851   6.699   6.127
  136SOL    HW2 1308   3.702   6.715   6.062
  137SOL     OW 1309   1.648   4.235   0.246
  137SOL    HW1 1310   1.607   4.166   0.305
  137SOL    HW2 1311   1.735   4.202   0.210
  138SOL     OW 1312   0.941   5.288   0.596
  138SOL    HW1 1313   1.040   5.280   0.610
  138SOL    HW2 1314   0.914   5.231   0.519
  139SOL     OW 1315   0.551   1.059   1.255
  139SOL    HW1 1316   0.459   1.043   1.292
  139SOL    HW2 1317   0.619   1.047   1.327
  140SOL     OW 1318   3.447   6.818   2.091
  140SOL    HW1 1319   3.459   6.722   2.117
  140SOL    HW2 1320   3.507   6.875   2.147
  141SOL     OW 1321   1.187   2.003   0.159
  141SOL    HW1 1322   1.098   1.990   0.115
  141SOL    HW2 1323   1.249   1.930   0.129
  142SOL     OW 1324   2.019   3.971   6.916
  142SOL    HW1 1325   2.076   4.018   6.983
  142SOL    HW2 1326   2.060   3.979   6.825
  143SOL     OW 1327   5.707   5.577   1.903
  143SOL    HW1 1328   5.743   5.533   1.822
  143SOL    HW2 1329   5.607   5.572   1.903
  144SOL     OW 1330   2.413   5.200   3.182
  144SOL    HW1 1331   2.463   5.262   3.122
  144SOL    HW2 1332   2.438   5.219   3.277
  145SOL     OW 1333   0.337   5.826   3.215
  145SOL    HW1 1334   0.242   5.841   3.190
  145SOL    HW2 1335   0.395   5.894   3.170
  146SOL     OW 1336   0.393   0.560   5.686
  146SOL    HW1 1337   0.324   0.604   5.628
  146SOL    HW2 1338   0.428   0.479   5.639
  147SOL     OW 1339   5.834   0.592   4.662
  147SOL    HW1 1340   5.933   0.580   4.649
  147SOL    HW2 1341   5.785   0.525   4.606
  148SOL     OW 1342   1.655   0.073   2.374
  148SOL    HW1 1343   1.601   0.123   2.441
  148SOL    HW2 1344   1.731   0.026   2.420
  149SOL     OW 1345   1.698   2.946   4.765
  149SOL    HW1 1346   1.790   2.982   4.779
  149SOL    HW2 1347   1.693   2.852   4.799
  150SOL     OW 1348   5.177   3.383   5.549
  150SOL    HW1 1349   5.099   3.365   5.489
  150SOL    HW2 1350   5.146   3.426   5.633
  151SOL     OW 1351   6.349   2.847   2.110
  151SOL    HW1 1352   6.328   2.922   2.047
  151SOL    HW2 1353   6.427   2.872   2.167
  152SOL     OW 1354   6.879   2.877   0.248
  152SOL    HW1 1355   6.860   2.793   0.299
  152SOL    HW2 1356   6.858   2.863   0.151
  153SOL     OW 1357   1.941   1.810   3.992
  153SOL    HW1 1358   1.910   1.877   4.060
  153SOL    HW2 1359   1.966   1.858   3.908
  154SOL     OW 1360   0.295   1.241   3.887
  154SOL    HW1 1361   0.358   1.173   3.924
  154SOL    HW2 1362   0.339   1.331   3.888
  155SOL     OW 1363   5.806   4.696   3.148
  155SOL    HW1 1364   5.724   4.648   3.116
  155SOL    HW2 1365   5.818   4.780   3.095
  156SOL     OW 1366   4.299   6.815   1.373
  156SOL    HW1 1367   4.255   6.889   1.323
  156SOL    HW2 1368   4.239   6.786   1.448
  157SOL     OW 1369   5.629   6.925   1.015
  157SOL    HW1 1370   5.550   6.869   0.992
  157SOL    HW2 1371   5.615   7.018   0.980
  158SOL     OW 1372   0.884   3.387   4.762
  158SOL    HW1 1373   0.948   3.448   4.716
  158SOL    HW2 1374   0.790   3.414   4.739
  159SOL     OW 1375   6.513   5.362   6.803
  159SOL    HW1 1376   6.610   5.339   6.800
  159SOL    HW2 1377   6.460   5.282   6.831
  160SOL     OW 1378   3.798   0.214   1.305
  160SOL    HW1 1379   3.821   0.270   1.384
  160SOL    HW2 1380   3.708   0.172   1.319
  161SOL     OW 1381   7.005   0.399   0.476
  161SOL    HW1 1382   6.976   0.329   0.541
  161SOL    HW2 1383   6.940   0.474   0.475
  162SOL     OW 1384   4.193   6.933   5.323
  162SOL    HW1 1385   4.281   6.965   5.287
  162SOL    HW2 1386   4.204   6.840   5.359
  163SOL     OW 1387   1.104   4.007   2.577
  163SOL    HW1 1388   1.136   3.939   2.511
  163SOL    HW2 1389   1.066   3.960   2.656
  164SOL     OW 1390   2.194   2.220   2.834
  164SOL    HW1 1391   2.186   2.243   2.737
  164SOL    HW2 1392   2.127   2.150   2.857
  165SOL     OW 1393   0.258   6.310   4.130
  165SOL    HW1 1394   0.303   6.396   4.154
  165SOL    HW2 1395   0.307   6.267   4.053
  166SOL     OW 1396   0.384   5.045   3.707
  166SOL    HW1 1397   0.290   5.039   3.674
  166SOL    HW2 1398   0.399   4.976   3.778
  167SOL     OW 1399   0.899   1.214   3.174
  167SOL    HW1 1400   0.816   1.265   3.151
  167SOL    HW2 1401   0.978   1.257   3.128
  168SOL     OW 1402   3.194   3.715   3.137
  168SOL    HW1 1403   3.133   3.722   3.216
  168SOL    HW2 1404   3.162   3.776   3.065
  169SOL     OW 1405   5.156   2.893   6.504
  169SOL    HW1 1406   5.253   2.872   6.516
  169SOL    HW2 1407   5.123   2.853   6.418
  170SOL     OW 1408   0.219   5.207   1.984
  170SOL    HW1 1409   0.270   5.121   1.980
  170SOL    HW2 1410   0.130   5.196   1.941
  171SOL     OW 1411   2.908   2.622   0.791
  171SOL    HW1 1412   2.959   2.574   0.863
  171SOL    HW2 1413   2.968   2.690   0.748
  172SOL     OW 1414   1.748   1.091   0.220
  172SOL    HW1 1415   1.719   1.101   0.315
  172SOL    HW2 1416   1.810   1.166   0.197
  173SOL     OW 1417   6.088   0.357   5.067
  173SOL    HW1 1418   5.993   0.333   5.049
  173SOL    HW2 1419   6.094   0.450   5.103
  174SOL     OW 1420   6.657   3.791   5.264
  174SOL    HW1 1421   6.678   3.704   5.218
  174SOL    HW2 1422   6.730   3.857   5.246
  175SOL     OW 1423   0.925   6.080   2.945
  175SOL    HW1 1424   1.022   6.063   2.928
  175SOL    HW2 1425   0.916   6.151   3.015
  176SOL     OW 1426   6.518   4.010   0.925
  176SOL    HW1 1427   6.609   3.971   0.940
  176SOL    HW2 1428   6.524   4.085   0.860
  177SOL     OW 1429   6.490   2.547   3.851
  177SOL    HW1 1430   6.518   2.540   3.755
  177SOL    HW2 1431   6.482   2.455   3.890
  178SOL     OW 1432   1.606   5.726   4.760
  178SOL    HW1 1433   1.649   5.789   4.825
  178SOL    HW2 1434   1.517   5.698   4.796
  179SOL     OW 1435   3.609   4.165   1.730
  179SOL    HW1 1436   3.515   4.167   1.696
  179SOL    HW2 1437   3.609   4.141   1.827
  180SOL     OW 1438   4.791   1.002   6.121
  180SOL    HW1 1439   4.788   1.036   6.215
  180SOL    HW2 1440   4.800   1.078   6.058
  181SOL     OW 1441   3.835   0.733   5.506
  181SOL    HW1 1442   3.750   0.781   5.488
  181SOL    HW2 1443   3.825   0.636   5.482
  182SOL     OW 1444   3.420   3.096   5.634
  182SOL    HW1 1445   3.346   3.161   5.655
  182SOL    HW2 1446   3.400   3.008   5.678
  183SOL     OW 1447   3.303   1.400   3.690
  183SOL    HW1 1448   3.358   1.436   3.614
  183SOL    HW2 1449   3.289   1.302   3.678
  184SOL     OW 1450   4.694   5.971   3.461
  184SOL    HW1 1451   4.603   5.959   3.423
  184SOL    HW2 1452   4.762   5.938   3.396
  185SOL     OW 1453   0.201   6.827   4.890
  185SOL    HW1 1454   0.262   6.880   4.831
  185SOL    HW2 1455   0.224   6.843   4.986
  186SOL     OW 1456   2.600   5.827   6.089
  186SOL    HW1 1457   2.558   5.760   6.028
  186SOL    HW2 1458   2.691   5.851   6.054
  187SOL     OW 1459   3.707   5.379   0.603
  187SOL    HW1 1460   3.620   5.426   0.617
  187SOL    HW2 1461   3.766   5.394   0.682
  188SOL     OW 1462   1.542   4.230   3.778
  188SOL    HW1 1463   1.516   4.139   3.812
  188SOL    HW2 1464   1.640   4.243   3.790
  189SOL     OW 1465   5.744   4.643   5.959
  189SOL    HW1 1466   5.811   4.713   5.980
  189SOL    HW2 1467   5.788   4.553   5.958
  190SOL     OW 1468   5.841   6.443   0.370
  190SOL    HW1 1469   5.869   6.418   0.277
  190SOL    HW2 1470   5.916   6.489   0.416
  191SOL     OW 1471   2.322   3.430   5.603
  191SOL    HW1 1472   2.390   3.465   5.667
  191SOL    HW2 1473   2.311   3.494   5.527
  192SOL     OW 1474   6.970   0.352   1.211
  192SOL    HW1 1475   6.938   0.397   1.294
  192SOL    HW2 1476   7.004   0.420   1.146
  193SOL     OW 1477   2.947   0.342   1.588
  193SOL    HW1 1478   2.909   0.313   1.500
  193SOL    HW2 1479   3.013   0.274   1.620
  194SOL     OW 1480   4.158   5.734   3.253
  194SOL    HW1 1481   4.228   5.755   3.185
  194SOL    HW2 1482   4.182   5.777   3.340
  195SOL     OW 1483   2.721   0.691   0.898
  195SOL    HW1 1484   2.798   0.754   0.888
  195SOL    HW2 1485   2.746   0.619   0.964
  196SOL     OW 1486   3.979   2.928   1.011
  196SOL    HW1 1487   3.968   2.832   0.987
  196SOL    HW2 1488   4.020   2.935   1.102
  197SOL     OW 1489   1.660   6.206   0.492
  197SOL    HW1 1490   1.566   6.177   0.510
  197SOL    HW2 1491   1.722   6.128   0.501
  198SOL     OW 1492   5.732   7.006   6.129
  198SOL    HW1 1493   5.688   6.961   6.051
  198SOL    HW2 1494   5.831   6.992   6.124
  199SOL     OW 1495   2.114   1.120   3.513
  199SOL    HW1 1496   2.119   1.117   3.413
  199SOL    HW2 1497   2.062   1.041   3.545
  200SOL     OW 1498   1.511   3.949   4.309
  200SOL    HW1 1499   1.437   4.007   4.275
  200SOL    HW2 1500   1.472   3.870   4.356
  201SOL     OW 1501   4.762   1.211   0.373
  201SOL    HW1 1502   4.802   1.204   0.465
  201SOL    HW2 1503   4.699   1.288   0.370
  202SOL     OW 1504   4.455   0.116   3.160
  202SOL    HW1 1505   4.472   0.162   3.247
  202SOL    HW2 1506   4.428   0.184   3.091
  203SOL     OW 1507   5.842   2.614   0.252
  203SOL    HW1 1508   5.919   2.578   0.199
  203SOL    HW2 1509   5.785   2.671   0.193
  204SOL     OW 1510   1.856   6.191   1.171
  204SOL    HW1 1511   1.787   6.209   1.100
  204SOL    HW2 1512   1.836   6.247   1.251
  205SOL     OW 1513   5.300   0.482   1.389
  205SOL    HW1 1514   5.234   0.535   1.336
  205SOL    HW2 1515   5.362   0.434   1.326
  206SOL     OW 1516   0.140   6.291   1.050
  206SOL    HW1 1517   0.040   6.291   1.038
  206SOL    HW2 1518   0.162   6.319   1.143
  207SOL     OW 1519   6.603   2.302   5.431
  207SOL    HW1 1520   6.527   2.237   5.441
  207SOL    HW2 1521   6.656   2.279   5.350
  208SOL     OW 1522   3.940   3.835   6.872
  208SOL    HW1 1523   3.977   3.927   6.883
  208SOL    HW2 1524   4.009   3.775   6.833
  209SOL     OW 1525   6.866   6.828   3.925
  209SOL    HW1 1526   6.830   6.910   3.970
  209SOL    HW2 1527   6.963   6.817   3.948
  210SOL     OW 1528   4.280   1.837   0.900
  210SOL    HW1 1529   4.254   1.934   0.905
  210SOL    HW2 1530   4.248   1.790   0.982
  211SOL     OW 1531   0.923   3.292   2.016
  211SOL    HW1 1532   0.881   3.201   2.011
  211SOL    HW2 1533   0.876   3.346   2.086
  212SOL     OW 1534   0.908   5.234   5.690
  212SOL    HW1 1535   0.908   5.256   5.592
  212SOL    HW2 1536   0.905   5.135   5.702
  213SOL     OW 1537   3.316   2.668   0.856
  213SOL    HW1 1538   3.263   2.711   0.783
  213SOL    HW2 1539   3.290   2.708   0.944
  214SOL     OW 1540   1.161   6.063   3.700
  214SOL    HW1 1541   1.151   6.001   3.778
  214SOL    HW2 1542   1.253   6.101   3.699
  215SOL     OW 1543   3.647   4.100   3.126
  215SOL    HW1 1544   3.734   4.070   3.086
  215SOL    HW2 1545   3.649   4.085   3.225
  216SOL     OW 1546   3.227   0.697   5.352
  216SOL    HW1 1547   3.131   0.671   5.354
  216SOL    HW2 1548   3.249   0.750   5.434
  217SOL     OW 1549   0.044   1.978   5.213
  217SOL    HW1 1550   0.006   1.890   5.241
  217SOL    HW2 1551   0.108   2.011   5.282
  218SOL     OW 1552   3.108   4.345   5.772
  218SOL    HW1 1553   3.106   4.246   5.758
  218SOL    HW2 1554   3.197   4.381   5.746
  219SOL     OW 1555   2.546   5.684   6.534
  219SOL    HW1 1556   2.605   5.759   6.504
  219SOL    HW2 1557   2.538   5.686   6.633
  220SOL     OW 1558   1.448   5.238   0.164
  220SOL    HW1 1559   1.477   5.227   0.069
  220SOL    HW2 1560   1.408   5.153   0.197
  221SOL     OW 1561   5.911   2.997   4.908
  221SOL    HW1 1562   5.865   3.054   4.838
  221SOL    HW2 1563   5.888   2.901   4.892
  222SOL     OW 1564   2.096   6.846   4.491
  222SOL    HW1 1565   2.058   6.753   4.493
  222SOL    HW2 1566   2.151   6.861   4.574
  223SOL     OW 1567   5.862   4.673   2.717
  223SOL    HW1 1568   5.935   4.673   2.785
  223SOL    HW2 1569   5.823   4.765   2.710
  224SOL     OW 1570   4.996   2.734   2.654
  224SOL    HW1 1571   5.001   2.821   2.606
  224SOL    HW2 1572   5.040   2.742   2.743
  225SOL     OW 1573   5.178   6.218   1.483
  225SOL    HW1 1574   5.199   6.195   1.387
  225SOL    HW2 1575   5.083   6.195   1.503
  226SOL     OW 1576   0.770   5.902   2.128
  226SOL    HW1 1577   0.783   5.996   2.096
  226SOL    HW2 1578   0.681   5.869   2.098
  227SOL     OW 1579   1.147   3.712   3.367
  227SOL    HW1 1580   1.094   3.691   3.285
  227SOL    HW2 1581   1.153   3.631   3.425
  228SOL     OW 1582   4.156   5.976   3.016
  228SOL    HW1 1583   4.085   5.907   3.000
  228SOL    HW2 1584   4.239   5.932   3.049
  229SOL     OW 1585   6.559   5.897   3.086
  229SOL    HW1 1586   6.519   5.855   3.168
  229SOL    HW2 1587   6.497   5.968   3.052
  230SOL     OW 1588   0.874   4.534   5.952
  230SOL    HW1 1589   0.858   4.519   5.854
  230SOL    HW2 1590   0.881   4.445   5.998
  231SOL     OW 1591   0.541   2.387   6.420
  231SOL    HW1 1592   0.579   2.346   6.503
  231SOL    HW2 1593   0.610   2.383   6.347
  232SOL     OW 1594   1.422   4.013   5.734
  232SOL    HW1 1595   1.453   4.108   5.726
  232SOL    HW2 1596   1.343   4.009   5.795
  233SOL     OW 1597   3.412   0.293   6.960
  233SOL    HW1 1598   3.384   0.208   7.004
  233SOL    HW2 1599   3.509   0.287   6.937
  234SOL     OW 1600   2.450   5.149   6.803
  234SOL    HW1 1601   2.406   5.070   6.760
  234SOL    HW2 1602   2.442   5.141   6.902
  235SOL     OW 1603   3.716   3.444   5.783
  235SOL    HW1 1604   3.676   3.427   5.693
  235SOL    HW2 1605   3.644   3.473   5.846
  236SOL     OW 1606   6.968   1.216   6.171
  236SOL    HW1 1607   6.994   1.159   6.093
  236SOL    HW2 1608   6.958   1.311   6.141
  237SOL     OW 1609   0.024   6.420   2.296
  237SOL    HW1 1610   7.016   6.391   2.207
  237SOL    HW2 1611   6.971   6.439   2.356
  238SOL     OW 1612   0.165   2.391   2.569
  238SOL    HW1 1613   0.123   2.432   2.650
  238SOL    HW2 1614   0.097   2.336   2.520
  239SOL     OW 1615   5.990   4.888   0.795
  239SOL    HW1 1616   5.930   4.871   0.873
  239SOL    HW2 1617   5.950   4.846   0.713
  240SOL     OW 1618   0.016   1.954   4.925
  240SOL    HW1 1619   0.051   1.864   4.901
  240SOL    HW2 1620   0.064   1.989   5.005
  241SOL     OW 1621   5.698   1.937   5.032
  241SOL    HW1 1622   5.632   1.879   4.986
  241SOL    HW2 1623   5.723   1.897   5.120
  242SOL     OW 1624   2.858   2.182   4.447
  242SOL    HW1 1625   2.800   2.127   4.506
  242SOL    HW2 1626   2.950   2.187   4.486
  243SOL     OW 1627   5.047   0.935   6.973
  243SOL    HW1 1628   5.008   1.025   6.994
  243SOL    HW2 1629   5.052   0.923   6.874
  244SOL     OW 1630   0.518   1.881   6.102
  244SOL    HW1 1631   0.580   1.862   6.177
  244SOL    HW2 1632   0.565   1.867   6.015
  245SOL     OW 1633   5.117   2.516   4.298
  245SOL    HW1 1634   5.170   2.537   4.381
  245SOL    HW2 1635   5.055   2.440   4.317
  246SOL     OW 1636   5.162   3.228   4.477
  246SOL    HW1 1637   5.241   3.285   4.456
  246SOL    HW2 1638   5.189   3.132   4.482
  247SOL     OW 1639   3.183   0.551   2.900
  247SOL    HW1 1640   3.270   0.599   2.889
  247SOL    HW2 1641   3.166   0.535   2.997
  248SOL     OW 1642   0.283   2.417   2.868
  248SOL    HW1 1643   0.339   2.437   2.948
  248SOL    HW2 1644   0.322   2.339   2.818
  249SOL     OW 1645   2.206   5.515   5.392
  249SOL    HW1 1646   2.115   5.551   5.370
  249SOL    HW2 1647   2.226   5.529   5.489
  250SOL     OW 1648   5.150   2.247   0.110
  250SOL    HW1 1649   5.148   2.344   0.086
  250SOL    HW2 1650   5.154   2.238   0.209
  251SOL     OW 1651   2.126   1.095   1.192
  251SOL    HW1 1652   2.057   1.042   1.243
  251SOL    HW2 1653   2.098   1.191   1.190
  252SOL     OW 1654   0.143   2.473   0.152
  252SOL    HW1 1655   0.155   2.556   0.206
  252SOL    HW2 1656   0.227   2.456   0.100
  253SOL     OW 1657   2.301   4.728   6.205
  253SOL    HW1 1658   2.360   4.648   6.220
  253SOL    HW2 1659   2.293   4.780   6.291
  254SOL     OW 1660   5.087   3.571   6.128
  254SOL    HW1 1661   5.157   3.572   6.057
  254SOL    HW2 1662   5.046   3.662   6.136
  255SOL     OW 1663   4.588   1.858   2.271
  255SOL    HW1 1664   4.620   1.946   2.235
  255SOL    HW2 1665   4.590   1.789   2.198
  256SOL     OW 1666   6.943   6.179   1.365
  256SOL    HW1 1667   6.949   6.278   1.373
  256SOL    HW2 1668   0.008   6.138   1.380
  257SOL     OW 1669   2.607   6.142   5.757
  257SOL    HW1 1670   2.687   6.090   5.787
  257SOL    HW2 1671   2.547   6.083   5.703
  258SOL     OW 1672   4.009   5.388   4.502
  258SOL    HW1 1673   3.945   5.397   4.425
  258SOL    HW2 1674   4.035   5.479   4.534
  259SOL     OW 1675   0.623   1.721   2.655
  259SOL    HW1 1676   0.640   1.678   2.567
  259SOL    HW2 1677   0.663   1.813   2.656
  260SOL     OW 1678   6.587   6.744   5.323
  260SOL    HW1 1679   6.517   6.726   5.393
  260SOL    HW2 1680   6.637   6.660   5.304
  261SOL     OW 1681   0.554   0.752   4.647
  261SOL    HW1 1682   0.490   0.777   4.574
  261SOL    HW2 1683   0.609   0.674   4.618
  262SOL     OW 1684   1.727   5.721   1.419
  262SOL    HW1 1685   1.766   5.791   1.359
  262SOL    HW2 1686   1.628   5.734   1.426
  263SOL     OW 1687   0.285   4.309   4.416
  263SOL    HW1 1688   0.350   4.274   4.483
  263SOL    HW2 1689   0.302   4.268   4.326
  264SOL     OW 1690   2.881   4.426   0.650
  264SOL    HW1 1691   2.981   4.421   0.646
  264SOL    HW2 1692   2.843   4.335   0.636
  265SOL     OW 1693   4.289   5.075   3.946
  265SOL    HW1 1694   4.245   5.011   3.883
  265SOL    HW2 1695   4.226   5.099   4.019
  266SOL     OW 1696   4.035   3.451   6.789
  266SOL    HW1 1697   4.104   3.523   6.798
  266SOL    HW2 1698   4.068   3.367   6.832
  267SOL     OW 1699   2.512   2.836   5.865
  267SOL    HW1 1700   2.595   2.802   5.909
  267SOL    HW2 1701   2.470   2.762   5.812
  268SOL     OW 1702   1.813   4.268   3.788
  268SOL    HW1 1703   1.805   4.348   3.847
  268SOL    HW2 1704   1.838   4.296   3.695
  269SOL     OW 1705   3.238   1.803   5.960
  269SOL    HW1 1706   3.283   1.734   5.904
  269SOL    HW2 1707   3.227   1.888   5.907
  270SOL     OW 1708   5.140   6.254   4.850
  270SOL    HW1 1709   5.122   6.332   4.911
  270SOL    HW2 1710   5.203   6.282   4.778
  271SOL     OW 1711   2.176   1.936   0.202
  271SOL    HW1 1712   2.260   1.953   0.253
  271SOL    HW2 1713   2.147   1.841   0.213
  272SOL     OW 1714   4.585   5.068   0.354
  272SOL    HW1 1715   4.619   5.001   0.289
  272SOL    HW2 1716   4.555   5.022   0.437
  273SOL     OW 1717   1.485   6.041   3.992
  273SOL    HW1 1718   1.462   6.098   4.070
  273SOL    HW2 1719   1.478   5.945   4.018
  274SOL     OW 1720   5.529   2.371   2.387
  274SOL    HW1 1721   5.567   2.305   2.451
  274SOL    HW2 1722   5.530   2.332   2.295
  275SOL     OW 1723   5.980   5.425   5.677
  275SOL    HW1 1724   5.883   5.429   5.703
  275SOL    HW2 1725   6.019   5.338   5.710
  276SOL     OW 1726   0.719   0.412   4.884
  276SOL    HW1 1727   0.760   0.474   4.817
  276SOL    HW2 1728   0.641   0.364   4.842
  277SOL     OW 1729   3.625   2.898   5.440
  277SOL    HW1 1730   3.574   2.984   5.432
  277SOL    HW2 1731   3.562   2.822   5.454
  278SOL     OW 1732   5.712   4.900   2.676
  278SOL    HW1 1733   5.630   4.844   2.682
  278SOL    HW2 1734   5.701   4.967   2.603
  279SOL     OW 1735   0.579   4.375   3.551
  279SOL    HW1 1736   0.635   4.299   3.583
  279SOL    HW2 1737   0.533   4.418   3.629
  280SOL     OW 1738   4.637   1.619   3.771
  280SOL    HW1 1739   4.572   1.624   3.696
  280SOL    HW2 1740   4.590   1.636   3.858
  281SOL     OW 1741   5.313   5.700   5.171
  281SOL    HW1 1742   5.353   5.614   5.141
  281SOL    HW2 1743   5.300   5.698   5.270
  282SOL     OW 1744   0.571   2.662   0.036
  282SOL    HW1 1745   0.601   2.719   0.112
  282SOL    HW2 1746   0.472   2.668   0.027
  283SOL     OW 1747   5.955   4.025   2.737
  283SOL    HW1 1748   5.971   3.943   2.791
  283SOL    HW2 1749   5.872   4.071   2.770
  284SOL     OW 1750   6.109   6.727   2.789
  284SOL    HW1 1751   6.017   6.723   2.751
  284SOL    HW2 1752   6.118   6.808   2.847
  285SOL     OW 1753   4.084   6.119   6.029
  285SOL    HW1 1754   4.179   6.110   6.057
  285SOL    HW2 1755   4.057   6.215   6.034
  286SOL     OW 1756   3.348   4.911   5.635
  286SOL    HW1 1757   3.362   4.831   5.694
  286SOL    HW2 1758   3.437   4.949   5.610
  287SOL     OW 1759   3.357   6.045   0.520
  287SOL    HW1 1760   3.275   5.988   0.518
  287SOL    HW2 1761   3.334   6.138   0.491
  288SOL     OW 1762   4.662   0.949   0.330
  288SOL    HW1 1763   4.743   0.903   0.367
  288SOL    HW2 1764   4.683   1.045   0.313
  289SOL     OW 1765   4.761   5.229   4.594
  289SOL    HW1 1766   4.836   5.294   4.586
  289SOL    HW2 1767   4.796   5.142   4.628
  290SOL     OW 1768   3.742   0.797   4.949
  290SOL    HW1 1769   3.822   0.857   4.950
  290SOL    HW2 1770   3.748   0.733   5.026
  291SOL     OW 1771   5.862   0.765   4.864
  291SOL    HW1 1772   5.853   0.698   4.790
  291SOL    HW2 1773   5.851   0.719   4.952
  292SOL     OW 1774   3.463   0.736   3.525
  292SOL    HW1 1775   3.388   0.793   3.494
  292SOL    HW2 1776   3.462   0.649   3.475
  293SOL     OW 1777   5.465   0.712   2.774
  293SOL    HW1 1778   5.507   0.701   2.684
  293SOL    HW2 1779   5.368   0.688   2.768
  294SOL     OW 1780   6.682   1.445   6.809
  294SOL    HW1 1781   6.775   1.481   6.798
  294SOL    HW2 1782   6.640   1.433   6.719
  295SOL     OW 1783   0.546   0.129   5.306
  295SOL    HW1 1784   0.539   0.220   5.346
  295SOL    HW2 1785   0.549   0.137   5.206
  296SOL     OW 1786   0.720   1.699   1.395
  296SOL    HW1 1787   0.774   1.664   1.471
  296SOL    HW2 1788   0.767   1.777   1.353
  297SOL     OW 1789   5.362   3.201   3.467
  297SOL    HW1 1790   5.439   3.177   3.409
  297SOL    HW2 1791   5.384   3.180   3.563
  298SOL     OW 1792   4.511   0.125   5.154
  298SOL    HW1 1793   4.466   0.209   5.186
  298SOL    HW2 1794   4.498   0.052   5.221
  299SOL     OW 1795   0.575   1.229   6.025
  299SOL    HW1 1796   0.636   1.167   6.073
  299SOL    HW2 1797   0.590   1.222   5.926
  300SOL     OW 1798   4.378   6.162   4.188
  300SOL    HW1 1799   4.368   6.068   4.155
  300SOL    HW2 1800   4.383   6.224   4.109
  301SOL     OW 1801   0.117   6.203   5.298
  301SOL    HW1 1802   0.105   6.235   5.392
  301SOL    HW2 1803   0.205   6.156   5.289
  302SOL     OW 1804   0.388   6.626   1.934
  302SOL    HW1 1805   0.339   6.545   1.964
  302SOL    HW2 1806   0.436   6.666   2.012
  303SOL     OW 1807   5.296   5.560   2.615
  303SOL    HW1 1808   5.321   5.655   2.633
  303SOL    HW2 1809   5.216   5.535   2.669
  304SOL     OW 1810   1.292   0.361   3.986
  304SOL    HW1 1811   1.315   0.362   3.888
  304SOL    HW2 1812   1.360   0.414   4.036
  305SOL     OW 1813   2.061   2.009   1.414
  305SOL    HW1 1814   2.114   1.989   1.332
  305SOL    HW2 1815   2.121   2.046   1.484
  306SOL     OW 1816   0.546   0.381   2.352
  306SOL    HW1 1817   0.584   0.295   2.387
  306SOL    HW2 1818   0.447   0.378   2.360
  307SOL     OW 1819   3.497   4.058   3.837
  307SOL    HW1 1820   3.520   4.115   3.916
  307SOL    HW2 1821   3.542   3.970   3.845
  308SOL     OW 1822   6.256   1.724   2.164
  308SOL    HW1 1823   6.296   1.654   2.104
  308SOL    HW2 1824   6.312   1.734   2.246
  309SOL     OW 1825   1.667   4.706   0.027
  309SOL    HW1 1826   1.628   4.628   0.076
  309SOL    HW2 1827   1.615   4.788   0.049
  310SOL     OW 1828   4.659   6.558   5.388
  310SOL    HW1 1829   4.603   6.600   5.460
  310SOL    HW2 1830   4.752   6.592   5.393
  311SOL     OW 1831   1.483   6.583   2.050
  311SOL    HW1 1832   1.511   6.664   1.999
  311SOL    HW2 1833   1.496   6.598   2.147
  312SOL     OW 1834   3.381   0.456   4.065
  312SOL    HW1 1835   3.331   0.483   3.982
  312SOL    HW2 1836   3.466   0.508   4.070
  313SOL     OW 1837   3.190   3.217   3.016
  313SOL    HW1 1838   3.257   3.291   3.011
  313SOL    HW2 1839   3.221   3.147   3.079
  314SOL     OW 1840   2.773   5.141   6.124
  314SOL    HW1 1841   2.835   5.212   6.090
  314SOL    HW2 1842   2.825   5.075   6.179
  315SOL     OW 1843   6.233   0.471   4.852
  315SOL    HW1 1844   6.222   0.401   4.781
  315SOL    HW2 1845   6.199   0.435   4.939
  316SOL     OW 1846   3.977   1.278   5.810
  316SOL    HW1 1847   4.032   1.360   5.797
  316SOL    HW2 1848   4.030   1.210   5.861
  317SOL     OW 1849   0.664   2.396   1.409
  317SOL    HW1 1850   0.737   2.446   1.456
  317SOL    HW2 1851   0.575   2.433   1.436
  318SOL     OW 1852   1.247   0.641   2.904
  318SOL    HW1 1853   1.191   0.719   2.934
  318SOL    HW2 1854   1.187   0.565   2.878
  319SOL     OW 1855   1.091   0.835   2.506
  319SOL    HW1 1856   0.993   0.839   2.525
  319SOL    HW2 1857   1.140   0.811   2.589
  320SOL     OW 1858   4.957   1.198   0.079
  320SOL    HW1 1859   5.001   1.286   0.094
  320SOL    HW2 1860   4.955   1.146   0.164
  321SOL     OW 1861   4.366   3.124   0.956
  321SOL    HW1 1862   4.349   3.110   1.054
  321SOL    HW2 1863   4.331   3.045   0.905
  322SOL     OW 1864   3.076   2.046   6.873
  322SOL    HW1 1865   2.997   1.988   6.889
  322SOL    HW2 1866   3.111   2.080   6.960
  323SOL     OW 1867   1.248   3.840   2.189
  323SOL    HW1 1868   1.338   3.859   2.152
  323SOL    HW2 1869   1.256   3.786   2.273
  324SOL     OW 1870   6.854   0.559   3.762
  324SOL    HW1 1871   6.952   0.556   3.741
  324SOL    HW2 1872   6.804   0.497   3.701
  325SOL     OW 1873   5.939   3.426   1.221
  325SOL    HW1 1874   5.988   3.443   1.306
  325SOL    HW2 1875   5.843   3.451   1.232
  326SOL     OW 1876   6.945   5.585   6.827
  326SOL    HW1 1877   6.882   5.656   6.797
  326SOL    HW2 1878   6.892   5.506   6.860
  327SOL     OW 1879   4.326   6.169   6.389
  327SOL    HW1 1880   4.318   6.105   6.465
  327SOL    HW2 1881   4.389   6.242   6.413
  328SOL     OW 1882   1.456   4.982   3.466
  328SOL    HW1 1883   1.499   4.922   3.399
  328SOL    HW2 1884   1.361   4.956   3.479
  329SOL     OW 1885   3.527   2.841   2.219
  329SOL    HW1 1886   3.607   2.785   2.237
  329SOL    HW2 1887   3.522   2.861   2.121
  330SOL     OW 1888   2.595   3.592   6.475
  330SOL    HW1 1889   2.531   3.544   6.416
  330SOL    HW2 1890   2.549   3.621   6.559
  331SOL     OW 1891   5.124   5.225   4.089
  331SOL    HW1 1892   5.037   5.262   4.056
  331SOL    HW2 1893   5.106   5.145   4.147
  332SOL     OW 1894   5.904   1.470   2.648
  332SOL    HW1 1895   5.888   1.402   2.719
  332SOL    HW2 1896   5.843   1.548   2.662
  333SOL     OW 1897   3.932   6.512   3.660
  333SOL    HW1 1898   3.879   6.484   3.740
  333SOL    HW2 1899   3.978   6.433   3.621
  334SOL     OW 1900   3.526   3.431   4.256
  334SOL    HW1 1901   3.617   3.445   4.217
  334SOL    HW2 1902   3.533   3.383   4.344
  335SOL     OW 1903   4.037   1.106   0.691
  335SOL    HW1 1904   4.077   1.145   0.609
  335SOL    HW2 1905   3.944   1.142   0.704
  336SOL     OW 1906   3.852   2.053   4.863
  336SOL    HW1 1907   3.822   2.030   4.771
  336SOL    HW2 1908   3.793   2.007   4.930
  337SOL     OW 1909   6.988   1.256   5.307
  337SOL    HW1 1910   0.054   1.218   5.294
  337SOL    HW2 1911   6.952   1.226   5.395
  338SOL     OW 1912   4.875   0.902   1.941
  338SOL    HW1 1913   4.968   0.900   1.978
  338SOL    HW2 1914   4.827   0.982   1.976
  339SOL     OW 1915   4.207   4.886   6.082
  339SOL    HW1 1916   4.217   4.854   6.177
  339SOL    HW2 1917   4.122   4.850   6.044
  340SOL     OW 1918   4.879   3.150   4.953
  340SOL    HW1 1919   4.915   3.237   4.918
  340SOL    HW2 1920   4.929   3.074   4.910
  341SOL     OW 1921   0.053   0.560   1.835
  341SOL    HW1 1922   0.114   0.616   1.779
  341SOL    HW2 1923   7.012   0.513   1.776
  342SOL     OW 1924   4.453   1.160   2.142
  342SOL    HW1 1925   4.436   1.063   2.126
  342SOL    HW2 1926   4.383   1.196   2.205
  343SOL     OW 1927   5.766   6.833   1.434
  343SOL    HW1 1928   5.742   6.876   1.521
  343SOL    HW2 1929   5.760   6.901   1.361
  344SOL     OW 1930   6.728   2.788   1.450
  344SOL    HW1 1931   6.676   2.722   1.395
  344SOL    HW2 1932   6.713   2.770   1.547
  345SOL     OW 1933   6.895   2.294   4.679
  345SOL    HW1 1934   6.977   2.283   4.623
  345SOL    HW2 1935   6.830   2.353   4.631
  346SOL     OW 1936   1.775   5.695   2.796
  346SOL    HW1 1937   1.830   5.645   2.729
  346SOL    HW2 1938   1.716   5.630   2.845
  347SOL     OW 1939   2.433   4.827   1.381
  347SOL    HW1 1940   2.451   4.884   1.301
  347SOL    HW2 1941   2.487   4.861   1.459
  348SOL     OW 1942   5.417   4.715   1.605
  348SOL    HW1 1943   5.383   4.716   1.511
  348SOL    HW2 1944   5.415   4.808   1.642
  349SOL     OW 1945   5.808   4.565   0.928
  349SOL    HW1 1946   5.787   4.500   0.855
  349SOL    HW2 1947   5.723   4.606   0.962
  350SOL     OW 1948   2.437   1.651   1.033
  350SOL    HW1 1949   2.513   1.669   0.971
  350SOL    HW2 1950   2.352   1.686   0.993
  351SOL     OW 1951   3.679   4.478   1.322
  351SOL    HW1 1952   3.586   4.468   1.286
  351SOL    HW2 1953   3.736   4.405   1.287
  352SOL     OW 1954   4.254   6.436   2.274
  352SOL    HW1 1955   4.215   6.433   2.366
  352SOL    HW2 1956   4.181   6.447   2.207
  353SOL     OW 1957   1.758   6.726   0.195
  353SOL    HW1 1958   1.780   6.740   0.292
  353SOL    HW2 1959   1.722   6.810   0.156
  354SOL     OW 1960   1.474   2.115   0.674
  354SOL    HW1 1961   1.563   2.071   0.688
  354SOL    HW2 1962   1.471   2.202   0.723
  355SOL     OW 1963   0.490   2.990   3.156
  355SOL    HW1 1964   0.523   2.922   3.091
  355SOL    HW2 1965   0.420   2.948   3.214
  356SOL     OW 1966   2.764   0.662   5.584
  356SOL    HW1 1967   2.703   0.731   5.624
  356SOL    HW2 1968   2.812   0.614   5.657
  357SOL     OW 1969   5.555   6.055   4.072
  357SOL    HW1 1970   5.510   6.088   4.155
  357SOL    HW2 1971   5.629   6.118   4.047
  358SOL     OW 1972   3.220   6.194   0.099
  358SOL    HW1 1973   3.213   6.128   0.023
  358SOL    HW2 1974   3.269   6.275   0.068
  359SOL     OW 1975   1.720   2.023   1.806
  359SOL    HW1 1976   1.694   1.928   1.825
  359SOL    HW2 1977   1.791   2.023   1.734
  360SOL     OW 1978   2.096   3.830   3.184
  360SOL    HW1 1979   2.195   3.814   3.188
  360SOL    HW2 1980   2.060   3.841   3.276
  361SOL     OW 1981   0.076   2.171   2.824
  361SOL    HW1 1982   0.064   2.072   2.831
  361SOL    HW2 1983   0.169   2.192   2.794
  362SOL     OW 1984   4.145   3.557   2.225
  362SOL    HW1 1985   4.138   3.564   2.125
  362SOL    HW2 1986   4.168   3.646   2.264
  363SOL     OW 1987   4.575   4.890   0.578
  363SOL    HW1 1988   4.541   4.876   0.671
  363SOL    HW2 1989   4.665   4.847   0.569
  364SOL     OW 1990   1.252   0.221   0.469
  364SOL    HW1 1991   1.251   0.268   0.557
  364SOL    HW2 1992   1.317   0.145   0.473
  365SOL     OW 1993   5.860   0.589   3.777
  365SOL    HW1 1994   5.790   0.647   3.734
  365SOL    HW2 1995   5.900   0.638   3.854
  366SOL     OW 1996   4.997   1.570   6.925
  366SOL    HW1 1997   5.032   1.477   6.914
  366SOL    HW2 1998   4.945   1.596   6.844
  367SOL     OW 1999   5.623   1.049   7.022
  367SOL    HW1 2000   5.612   1.088   0.089
  367SOL    HW2 2001   5.551   1.084   6.963
  368SOL     OW 2002   2.507   1.767   6.174
  368SOL    HW1 2003   2.498   1.728   6.265
  368SOL    HW2 2004   2.435   1.730   6.114
  369SOL     OW 2005   5.096   4.696   0.438
  369SOL    HW1 2006   5.175   4.654   0.483
  369SOL    HW2 2007   5.081   4.651   0.349
  370SOL     OW 2008   1.989   2.729   3.272
  370SOL    HW1 2009   2.073   2.729   3.218
  370SOL    HW2 2010   1.991   2.653   3.337
  371SOL     OW 2011   2.143   5.957   0.015
  371SOL    HW1 2012   2.180   5.905   6.964
  371SOL    HW2 2013   2.060   5.912   0.048
  372SOL     OW 2014   2.187   5.985   6.285
  372SOL    HW1 2015   2.279   5.972   6.323
  372SOL    HW2 2016   2.136   6.050   6.341
  373SOL     OW 2017   6.404   4.370   3.326
  373SOL    HW1 2018   6.312   4.337   3.349
  373SOL    HW2 2019   6.411   4.383   3.228
  374SOL     OW 2020   2.628   2.385   2.180
  374SOL    HW1 2021   2.654   2.481   2.170
  374SOL    HW2 2022   2.686   2.328   2.123
  375SOL     OW 2023   0.483   6.005   4.049
  375SOL    HW1 2024   0.569   6.018   4.097
  375SOL    HW2 2025   0.474   6.074   3.977
  376SOL     OW 2026   4.488   0.280   3.395
  376SOL    HW1 2027   4.521   0.219   3.467
  376SOL    HW2 2028   4.521   0.373   3.412
  377SOL     OW 2029   2.839   2.703   6.341
  377SOL    HW1 2030   2.871   2.783   6.291
  377SOL    HW2 2031   2.846   2.621   6.284
  378SOL     OW 2032   4.079   1.326   2.140
  378SOL    HW1 2033   4.099   1.400   2.075
  378SOL    HW2 2034   4.155   1.316   2.204
  379SOL     OW 2035   3.869   2.951   6.475
  379SOL    HW1 2036   3.928   3.025   6.505
  379SOL    HW2 2037   3.917   2.896   6.406
  380SOL     OW 2038   4.806   1.885   0.794
  380SOL    HW1 2039   4.875   1.851   0.730
  380SOL    HW2 2040   4.736   1.816   0.808
  381SOL     OW 2041   1.655   4.051   2.683
  381SOL    HW1 2042   1.702   4.066   2.595
  381SOL    HW2 2043   1.714   4.082   2.757
  382SOL     OW 2044   6.117   6.893   0.567
  382SOL    HW1 2045   6.082   6.983   0.540
  382SOL    HW2 2046   6.051   6.849   0.627
  383SOL     OW 2047   4.840   3.497   0.616
  383SOL    HW1 2048   4.894   3.423   0.656
  383SOL    HW2 2049   4.756   3.510   0.669
  384SOL     OW 2050   0.595   2.757   5.191
  384SOL    HW1 2051   0.654   2.819   5.243
  384SOL    HW2 2052   0.499   2.780   5.210
  385SOL     OW 2053   4.517   2.002   6.667
  385SOL    HW1 2054   4.451   2.058   6.716
  385SOL    HW2 2055   4.554   1.932   6.729
  386SOL     OW 2056   4.382   6.638   4.966
  386SOL    HW1 2057   4.430   6.614   5.050
  386SOL    HW2 2058   4.372   6.557   4.908
  387SOL     OW 2059   2.883   5.932   4.033
  387SOL    HW1 2060   2.919   6.024   4.017
  387SOL    HW2 2061   2.832   5.902   3.953
  388SOL     OW 2062   1.742   5.012   5.925
  388SOL    HW1 2063   1.643   4.999   5.920
  388SOL    HW2 2064   1.783   4.934   5.973
  389SOL     OW 2065   2.693   3.697   1.117
  389SOL    HW1 2066   2.692   3.696   1.017
  389SOL    HW2 2067   2.602   3.674   1.152
  390SOL     OW 2068   2.388   1.182   4.515
  390SOL    HW1 2069   2.320   1.168   4.443
  390SOL    HW2 2070   2.430   1.272   4.504
  391SOL     OW 2071   1.082   2.345   0.034
  391SOL    HW1 2072   1.144   2.404   0.085
  391SOL    HW2 2073   0.987   2.374   0.048
  392SOL     OW 2074   3.109   5.611   4.939
  392SOL    HW1 2075   3.080   5.682   4.875
  392SOL    HW2 2076   3.195   5.637   4.982
  393SOL     OW 2077   6.180   4.131   5.655
  393SOL    HW1 2078   6.093   4.135   5.606
  393SOL    HW2 2079   6.169   4.076   5.738
  394SOL     OW 2080   2.047   1.436   6.104
  394SOL    HW1 2081   1.976   1.405   6.166
  394SOL    HW2 2082   2.135   1.439   6.153
  395SOL     OW 2083   0.037   2.903   0.895
  395SOL    HW1 2084   0.052   2.842   0.973
  395SOL    HW2 2085   7.018   2.852   0.821
  396SOL     OW 2086   3.286   2.876   5.713
  396SOL    HW1 2087   3.334   2.841   5.793
  396SOL    HW2 2088   3.296   2.811   5.637
  397SOL     OW 2089   4.333   1.177   6.604
  397SOL    HW1 2090   4.318   1.232   6.687
  397SOL    HW2 2091   4.279   1.093   6.610
  398SOL     OW 2092   0.569   4.349   2.272
  398SOL    HW1 2093   0.637   4.422   2.271
  398SOL    HW2 2094   0.586   4.289   2.351
  399SOL     OW 2095   4.938   5.356   2.039
  399SOL    HW1 2096   4.898   5.360   2.130
  399SOL    HW2 2097   5.010   5.424   2.031
  400SOL     OW 2098   2.122   4.666   4.734
  400SOL    HW1 2099   2.203   4.611   4.755
  400SOL    HW2 2100   2.054   4.656   4.807
  401SOL     OW 2101   5.771   1.579   0.876
  401SOL    HW1 2102   5.855   1.564   0.928
  401SOL    HW2 2103   5.697   1.524   0.916
  402SOL     OW 2104   0.138   4.659   0.669
  402SOL    HW1 2105   0.071   4.720   0.628
  402SOL    HW2 2106   0.174   4.596   0.600
  403SOL     OW 2107   4.445   5.141   0.843
  403SOL    HW1 2108   4.353   5.142   0.804
  403SOL    HW2 2109   4.509   5.180   0.777
  404SOL     OW 2110   6.896   5.984   4.633
  404SOL    HW1 2111   6.891   5.985   4.732
  404SOL    HW2 2112   6.946   6.065   4.601
  405SOL     OW 2113   1.415   2.247   1.397
  405SOL    HW1 2114   1.399   2.287   1.487
  405SOL    HW2 2115   1.363   2.297   1.328
  406SOL     OW 2116   1.201   2.645   3.553
  406SOL    HW1 2117   1.130   2.685   3.494
  406SOL    HW2 2118   1.166   2.560   3.594
  407SOL     OW 2119   3.603   2.126   4.410
  407SOL    HW1 2120   3.550   2.151   4.491
  407SOL    HW2 2121   3.694   2.096   4.437
  408SOL     OW 2122   2.612   0.403   3.787
  408SOL    HW1 2123   2.693   0.406   3.846
  408SOL    HW2 2124   2.588   0.308   3.767
  409SOL     OW 2125   7.014   3.863   4.022
  409SOL    HW1 2126   0.062   3.826   4.080
  409SOL    HW2 2127   6.934   3.882   4.079
  410SOL     OW 2128   3.066   6.679   6.342
  410SOL    HW1 2129   2.981   6.729   6.328
  410SOL    HW2 2130   3.142   6.744   6.349
  411SOL     OW 2131   0.564   3.625   4.907
  411SOL    HW1 2132   0.663   3.611   4.906
  411SOL    HW2 2133   0.535   3.644   5.001
  412SOL     OW 2134   4.363   0.032   2.658
  412SOL    HW1 2135   4.420   0.096   2.710
  412SOL    HW2 2136   4.286   0.003   2.715
  413SOL     OW 2137   2.327   1.038   2.561
  413SOL    HW1 2138   2.373   0.972   2.621
  413SOL    HW2 2139   2.392   1.109   2.534
  414SOL     OW 2140   4.885   4.828   0.848
  414SOL    HW1 2141   4.860   4.835   0.752
  414SOL    HW2 2142   4.811   4.866   0.904
  415SOL     OW 2143   4.073   6.866   2.235
  415SOL    HW1 2144   4.161   6.819   2.233
  415SOL    HW2 2145   4.009   6.817   2.176
  416SOL     OW 2146   3.840   5.652   6.893
  416SOL    HW1 2147   3.784   5.671   6.975
  416SOL    HW2 2148   3.935   5.637   6.921
  417SOL     OW 2149   5.078   4.981   1.532
  417SOL    HW1 2150   4.991   5.024   1.554
  417SOL    HW2 2151   5.087   4.895   1.581
  418SOL     OW 2152   6.325   5.059   6.473
  418SOL    HW1 2153   6.305   5.022   6.382
  418SOL    HW2 2154   6.289   5.152   6.480
  419SOL     OW 2155   5.562   5.907   0.221
  419SOL    HW1 2156   5.510   5.923   0.136
  419SOL    HW2 2157   5.511   5.844   0.279
  420SOL     OW 2158   4.976   3.722   6.980
  420SOL    HW1 2159   4.902   3.748   0.017
  420SOL    HW2 2160   5.004   3.803   6.927
  421SOL     OW 2161   1.811   6.600   6.625
  421SOL    HW1 2162   1.830   6.648   6.540
  421SOL    HW2 2163   1.874   6.523   6.635
  422SOL     OW 2164   5.825   3.993   6.821
  422SOL    HW1 2165   5.793   3.906   6.858
  422SOL    HW2 2166   5.765   4.021   6.746
  423SOL     OW 2167   1.145   3.606   6.122
  423SOL    HW1 2168   1.061   3.554   6.138
  423SOL    HW2 2169   1.179   3.585   6.030
  424SOL     OW 2170   2.052   4.379   0.323
  424SOL    HW1 2171   1.987   4.351   0.252
  424SOL    HW2 2172   2.078   4.474   0.309
  425SOL     OW 2173   3.303   0.043   0.037
  425SOL    HW1 2174   3.352   0.050   0.125
  425SOL    HW2 2175   3.205   0.042   0.054
  426SOL     OW 2176   6.918   4.128   6.098
  426SOL    HW1 2177   6.822   4.102   6.100
  426SOL    HW2 2178   6.967   4.072   6.031
  427SOL     OW 2179   4.504   3.318   0.549
  427SOL    HW1 2180   4.584   3.275   0.506
  427SOL    HW2 2181   4.535   3.394   0.607
  428SOL     OW 2182   3.884   1.591   5.827
  428SOL    HW1 2183   3.965   1.561   5.777
  428SOL    HW2 2184   3.876   1.691   5.820
  429SOL     OW 2185   2.791   6.865   0.608
  429SOL    HW1 2186   2.790   6.905   0.517
  429SOL    HW2 2187   2.701   6.875   0.650
  430SOL     OW 2188   2.882   6.927   4.194
  430SOL    HW1 2189   2.826   6.868   4.136
  430SOL    HW2 2190   2.970   6.882   4.212
  431SOL     OW 2191   3.366   1.377   6.848
  431SOL    HW1 2192   3.381   1.475   6.834
  431SOL    HW2 2193   3.423   1.325   6.785
  432SOL     OW 2194   6.807   1.071   1.115
  432SOL    HW1 2195   6.786   1.108   1.205
  432SOL    HW2 2196   6.906   1.057   1.108
  433SOL     OW 2197   2.939   6.047   4.731
  433SOL    HW1 2198   2.973   6.091   4.647
  433SOL    HW2 2199   3.017   6.013   4.784
  434SOL     OW 2200   6.094   3.442   1.466
  434SOL    HW1 2201   6.194   3.431   1.460
  434SOL    HW2 2202   6.073   3.529   1.509
  435SOL     OW 2203   3.860   3.408   1.008
  435SOL    HW1 2204   3.915   3.329   0.981
  435SOL    HW2 2205   3.774   3.409   0.956
  436SOL     OW 2206   3.064   0.979   0.394
  436SOL    HW1 2207   2.994   0.911   0.371
  436SOL    HW2 2208   3.025   1.047   0.456
  437SOL     OW 2209   6.315   0.129   5.775
  437SOL    HW1 2210   6.369   0.169   5.849
  437SOL    HW2 2211   6.254   0.059   5.813
  438SOL     OW 2212   1.725   3.449   1.387
  438SOL    HW1 2213   1.719   3.349   1.382
  438SOL    HW2 2214   1.796   3.481   1.324
  439SOL     OW 2215   6.222   4.345   2.124
  439SOL    HW1 2216   6.125   4.362   2.108
  439SOL    HW2 2217   6.254   4.403   2.199
  440SOL     OW 2218   1.601   2.978   3.203
  440SOL    HW1 2219   1.594   3.066   3.156
  440SOL    HW2 2220   1.512   2.932   3.201
  441SOL     OW 2221   0.437   0.948   3.115
  441SOL    HW1 2222   0.449   0.937   3.214
  441SOL    HW2 2223   0.450   0.860   3.070
  442SOL     OW 2224   0.136   4.867   6.444
  442SOL    HW1 2225   0.211   4.894   6.384
  442SOL    HW2 2226   0.099   4.948   6.490
  443SOL     OW 2227   0.610   4.100   5.392
  443SOL    HW1 2228   0.519   4.138   5.376
  443SOL    HW2 2229   0.680   4.168   5.370
  444SOL     OW 2230   4.765   2.711   6.621
  444SOL    HW1 2231   4.785   2.773   6.697
  444SOL    HW2 2232   4.757   2.764   6.536
  445SOL     OW 2233   1.777   4.108   3.501
  445SOL    HW1 2234   1.854   4.173   3.502
  445SOL    HW2 2235   1.691   4.159   3.497
  446SOL     OW 2236   2.941   5.215   4.442
  446SOL    HW1 2237   2.878   5.144   4.472
  446SOL    HW2 2238   3.018   5.174   4.394
  447SOL     OW 2239   6.890   6.187   0.486
  447SOL    HW1 2240   6.968   6.220   0.539
  447SOL    HW2 2241   6.874   6.247   0.408
  448SOL     OW 2242   4.316   0.433   6.132
  448SOL    HW1 2243   4.310   0.485   6.047
  448SOL    HW2 2244   4.244   0.465   6.195
  449SOL     OW 2245   5.323   0.052   4.111
  449SOL    HW1 2246   5.370   0.071   4.025
  449SOL    HW2 2247   5.258   0.126   4.131
  450SOL     OW 2248   6.331   6.489   3.122
  450SOL    HW1 2249   6.337   6.526   3.215
  450SOL    HW2 2250   6.361   6.394   3.122
  451SOL     OW 2251   6.305   3.029   3.750
  451SOL    HW1 2252   6.366   3.050   3.827
  451SOL    HW2 2253   6.337   2.946   3.704
  452SOL     OW 2254   6.727   5.118   5.835
  452SOL    HW1 2255   6.627   5.118   5.843
  452SOL    HW2 2256   6.764   5.201   5.878
  453SOL     OW 2257   2.937   1.810   5.961
  453SOL    HW1 2258   2.910   1.747   5.889
  453SOL    HW2 2259   3.035   1.802   5.978
  454SOL     OW 2260   1.060   6.468   0.627
  454SOL    HW1 2261   1.117   6.500   0.703
  454SOL    HW2 2262   0.964   6.469   0.655
  455SOL     OW 2263   5.166   0.528   4.609
  455SOL    HW1 2264   5.073   0.530   4.645
  455SOL    HW2 2265   5.231   0.542   4.684
  456SOL     OW 2266   4.361   5.585   0.006
  456SOL    HW1 2267   4.390   5.680   7.020
  456SOL    HW2 2268   4.406   5.546   0.086
  457SOL     OW 2269   0.808   4.612   1.579
  457SOL    HW1 2270   0.883   4.610   1.512
  457SOL    HW2 2271   0.832   4.673   1.654
  458SOL     OW 2272   0.158   6.517   5.429
  458SOL    HW1 2273   0.181   6.456   5.353
  458SOL    HW2 2274   0.127   6.462   5.507
  459SOL     OW 2275   1.707   0.642   3.569
  459SOL    HW1 2276   1.642   0.695   3.623
  459SOL    HW2 2277   1.743   0.698   3.495
  460SOL     OW 2278   6.434   1.979   4.267
  460SOL    HW1 2279   6.406   1.940   4.179
  460SOL    HW2 2280   6.354   2.019   4.313
  461SOL     OW 2281   5.517   5.731   5.628
  461SOL    HW1 2282   5.596   5.719   5.688
  461SOL    HW2 2283   5.453   5.795   5.669
  462SOL     OW 2284   2.727   2.075   6.998
  462SOL    HW1 2285   2.777   2.154   6.962
  462SOL    HW2 2286   2.674   2.032   6.925
  463SOL     OW 2287   6.984   5.958   1.932
  463SOL    HW1 2288   6.941   6.025   1.992
  463SOL    HW2 2289   6.915   5.895   1.896
  464SOL     OW 2290   1.761   1.553   5.787
  464SOL    HW1 2291   1.767   1.640   5.739
  464SOL    HW2 2292   1.844   1.540   5.841
  465SOL     OW 2293   0.233   3.122   5.829
  465SOL    HW1 2294   0.276   3.198   5.877
  465SOL    HW2 2295   0.301   3.052   5.808
  466SOL     OW 2296   2.756   0.631   3.117
  466SOL    HW1 2297   2.657   0.642   3.123
  466SOL    HW2 2298   2.800   0.720   3.131
  467SOL     OW 2299   1.678   1.816   5.352
  467SOL    HW1 2300   1.596   1.873   5.346
  467SOL    HW2 2301   1.665   1.733   5.299
  468SOL     OW 2302   3.190   3.745   2.011
  468SOL    HW1 2303   3.281   3.755   2.050
  468SOL    HW2 2304   3.138   3.828   2.026
  469SOL     OW 2305   3.029   5.671   0.373
  469SOL    HW1 2306   3.059   5.605   0.304
  469SOL    HW2 2307   2.930   5.667   0.383
  470SOL     OW 2308   4.347   0.206   2.874
  470SOL    HW1 2309   4.353   0.288   2.816
  470SOL    HW2 2310   4.437   0.163   2.879
  471SOL     OW 2311   2.986   1.901   4.803
  471SOL    HW1 2312   3.049   1.978   4.801
  471SOL    HW2 2313   2.972   1.867   4.709
  472SOL     OW 2314   4.158   4.223   5.341
  472SOL    HW1 2315   4.077   4.189   5.293
  472SOL    HW2 2316   4.201   4.296   5.288
  473SOL     OW 2317   1.111   4.197   3.882
  473SOL    HW1 2318   1.125   4.254   3.963
  473SOL    HW2 2319   1.066   4.112   3.909
  474SOL     OW 2320   4.875   4.523   4.884
  474SOL    HW1 2321   4.937   4.594   4.919
  474SOL    HW2 2322   4.822   4.561   4.808
  475SOL     OW 2323   1.422   6.492   6.458
  475SOL    HW1 2324   1.463   6.555   6.524
  475SOL    HW2 2325   1.494   6.446   6.406
  476SOL     OW 2326   0.819   5.449   1.582
  476SOL    HW1 2327   0.825   5.453   1.682
  476SOL    HW2 2328   0.757   5.376   1.555
  477SOL     OW 2329   1.780   5.230   3.680
  477SOL    HW1 2330   1.697   5.274   3.712
  477SOL    HW2 2331   1.759   5.173   3.600
  478SOL     OW 2332   1.553   5.633   3.093
  478SOL    HW1 2333   1.553   5.584   3.180
  478SOL    HW2 2334   1.465   5.678   3.080
  479SOL     OW 2335   3.811   1.577   1.612
  479SOL    HW1 2336   3.727   1.602   1.660
  479SOL    HW2 2337   3.797   1.492   1.562
  480SOL     OW 2338   1.959   6.513   2.647
  480SOL    HW1 2339   1.943   6.602   2.606
  480SOL    HW2 2340   2.031   6.465   2.597
  481SOL     OW 2341   2.858   6.551   1.625
  481SOL    HW1 2342   2.832   6.502   1.542
  481SOL    HW2 2343   2.947   6.593   1.613
  482SOL     OW 2344   5.615   5.474   0.908
  482SOL    HW1 2345   5.531   5.428   0.937
  482SOL    HW2 2346   5.677   5.407   0.865
  483SOL     OW 2347   5.927   1.840   1.541
  483SOL    HW1 2348   5.836   1.881   1.536
  483SOL    HW2 2349   5.957   1.816   1.448
  484SOL     OW 2350   6.780   2.713   5.068
  484SOL    HW1 2351   6.811   2.747   4.979
  484SOL    HW2 2352   6.859   2.702   5.128
  485SOL     OW 2353   3.527   6.047   2.065
  485SOL    HW1 2354   3.553   5.955   2.092
  485SOL    HW2 2355   3.518   6.051   1.965
  486SOL     OW 2356   0.381   0.278   6.368
  486SOL    HW1 2357   0.300   0.218   6.364
  486SOL    HW2 2358   0.357   0.362   6.416
  487SOL     OW 2359   6.201   2.647   6.479
  487SOL    HW1 2360   6.261   2.717   6.519
  487SOL    HW2 2361   6.248   2.559   6.478
  488SOL     OW 2362   0.848   3.291   2.292
  488SOL    HW1 2363   0.794   3.208   2.295
  488SOL    HW2 2364   0.943   3.271   2.318
  489SOL     OW 2365   3.337   6.020   6.184
  489SOL    HW1 2366   3.347   6.038   6.282
  489SOL    HW2 2367   3.249   5.977   6.166
  490SOL     OW 2368   5.310   6.486   4.404
  490SOL    HW1 2369   5.223   6.523   4.371
  490SOL    HW2 2370   5.377   6.560   4.414
  491SOL     OW 2371   0.050   2.135   3.558
  491SOL    HW1 2372   0.063   2.121   3.656
  491SOL    HW2 2373   6.980   2.118   3.534
  492SOL     OW 2374   2.002   1.070   4.490
  492SOL    HW1 2375   2.076   1.031   4.544
  492SOL    HW2 2376   1.925   1.006   4.488
  493SOL     OW 2377   6.029   4.307   4.277
  493SOL    HW1 2378   6.059   4.319   4.182
  493SOL    HW2 2379   5.982   4.218   4.285
  494SOL     OW 2380   6.272   1.872   6.575
  494SOL    HW1 2381   6.197   1.844   6.515
  494SOL    HW2 2382   6.324   1.792   6.604
  495SOL     OW 2383   4.232   4.250   0.535
  495SOL    HW1 2384   4.240   4.156   0.567
  495SOL    HW2 2385   4.323   4.291   0.529
  496SOL     OW 2386   6.166   2.685   2.928
  496SOL    HW1 2387   6.149   2.586   2.936
  496SOL    HW2 2388   6.127   2.718   2.843
  497SOL     OW 2389   3.576   6.951   4.464
  497SOL    HW1 2390   3.600   0.003   4.404
  497SOL    HW2 2391   3.520   6.985   4.539
  498SOL     OW 2392   1.279   2.831   2.487
  498SOL    HW1 2393   1.252   2.813   2.392
  498SOL    HW2 2394   1.366   2.786   2.505
  499SOL     OW 2395   3.169   1.270   4.949
  499SOL    HW1 2396   3.130   1.339   4.888
  499SOL    HW2 2397   3.232   1.212   4.897
  500SOL     OW 2398   1.460   4.454   2.213
  500SOL    HW1 2399   1.559   4.448   2.223
  500SOL    HW2 2400   1.423   4.364   2.192
  501SOL     OW 2401   1.579   4.964   0.034
  501SOL    HW1 2402   1.593   5.005   0.125
  501SOL    HW2 2403   1.667   4.947   7.016
  502SOL     OW 2404   3.705   4.944   6.223
  502SOL    HW1 2405   3.724   4.849   6.247
  502SOL    HW2 2406   3.781   5.002   6.252
  503SOL     OW 2407   6.242   5.948   5.158
  503SOL    HW1 2408   6.201   5.952   5.249
  503SOL    HW2 2409   6.228   5.857   5.119
  504SOL     OW 2410   1.772   5.764   4.355
  504SOL    HW1 2411   1.865   5.727   4.352
  504SOL    HW2 2412   1.707   5.692   4.330
  505SOL     OW 2413   3.945   6.639   5.154
  505SOL    HW1 2414   3.980   6.557   5.199
  505SOL    HW2 2415   4.021   6.701   5.135
  506SOL     OW 2416   1.941   3.582   0.138
  506SOL    HW1 2417   1.951   3.624   0.047
  506SOL    HW2 2418   1.954   3.651   0.208
  507SOL     OW 2419   3.979   2.205   4.241
  507SOL    HW1 2420   4.074   2.235   4.251
  507SOL    HW2 2421   3.930   2.223   4.326
  508SOL     OW 2422   6.125   4.222   3.720
  508SOL    HW1 2423   6.167   4.139   3.758
  508SOL    HW2 2424   6.034   4.199   3.685
  509SOL     OW 2425   4.455   2.475   1.041
  509SOL    HW1 2426   4.493   2.404   1.101
  509SOL    HW2 2427   4.455   2.563   1.090
  510SOL     OW 2428   0.978   3.600   4.597
  510SOL    HW1 2429   1.045   3.675   4.600
  510SOL    HW2 2430   0.970   3.567   4.503
  511SOL     OW 2431   0.467   6.781   1.285
  511SOL    HW1 2432   0.404   6.769   1.362
  511SOL    HW2 2433   0.490   6.692   1.247
  512SOL     OW 2434   0.843   3.992   6.541
  512SOL    HW1 2435   0.767   3.948   6.495
  512SOL    HW2 2436   0.917   3.925   6.554
  513SOL     OW 2437   0.815   5.267   4.545
  513SOL    HW1 2438   0.774   5.245   4.456
  513SOL    HW2 2439   0.910   5.237   4.545
  514SOL     OW 2440   6.111   1.871   3.154
  514SOL    HW1 2441   6.135   1.919   3.238
  514SOL    HW2 2442   6.127   1.773   3.166
  515SOL     OW 2443   1.743   5.615   0.167
  515SOL    HW1 2444   1.768   5.545   0.234
  515SOL    HW2 2445   1.647   5.606   0.143
  516SOL     OW 2446   1.393   5.115   2.692
  516SOL    HW1 2447   1.467   5.182   2.699
  516SOL    HW2 2448   1.305   5.162   2.689
  517SOL     OW 2449   5.000   0.757   6.493
  517SOL    HW1 2450   5.086   0.806   6.504
  517SOL    HW2 2451   5.005   0.696   6.414
  518SOL     OW 2452   2.613   1.699   0.829
  518SOL    HW1 2453   2.705   1.734   0.813
  518SOL    HW2 2454   2.574   1.666   0.743
  519SOL     OW 2455   0.890   0.414   0.663
  519SOL    HW1 2456   0.986   0.438   0.655
  519SOL    HW2 2457   0.859   0.428   0.757
  520SOL     OW 2458   6.750   4.274   4.329
  520SOL    HW1 2459   6.715   4.227   4.410
  520SOL    HW2 2460   6.748   4.211   4.251
  521SOL     OW 2461   5.899   0.594   0.804
  521SOL    HW1 2462   5.946   0.682   0.817
  521SOL    HW2 2463   5.862   0.589   0.711
  522SOL     OW 2464   3.546   3.737   5.423
  522SOL    HW1 2465   3.558   3.741   5.522
  522SOL    HW2 2466   3.547   3.642   5.393
  523SOL     OW 2467   6.728   6.943   4.543
  523SOL    HW1 2468   6.648   6.978   4.495
  523SOL    HW2 2469   6.712   6.949   4.642
  524SOL     OW 2470   4.152   1.411   6.021
  524SOL    HW1 2471   4.152   1.313   6.001
  524SOL    HW2 2472   4.126   1.426   6.116
  525SOL     OW 2473   2.554   2.691   6.671
  525SOL    HW1 2474   2.576   2.683   6.768
  525SOL    HW2 2475   2.455   2.695   6.659
  526SOL     OW 2476   4.274   5.677   4.820
  526SOL    HW1 2477   4.317   5.644   4.736
  526SOL    HW2 2478   4.288   5.611   4.894
  527SOL     OW 2479   0.806   2.065   0.177
  527SOL    HW1 2480   0.738   2.089   0.107
  527SOL    HW2 2481   0.853   2.148   0.207
  528SOL     OW 2482   2.359   1.035   5.360
  528SOL    HW1 2483   2.361   0.935   5.367
  528SOL    HW2 2484   2.447   1.067   5.326
  529SOL     OW 2485   6.755   4.723   3.885
  529SOL    HW1 2486   6.668   4.725   3.837
  529SOL    HW2 2487   6.826   4.690   3.823
  530SOL     OW 2488   1.083   2.131   5.078
  530SOL    HW1 2489   1.084   2.206   5.011
  530SOL    HW2 2490   1.157   2.068   5.059
  531SOL     OW 2491   0.007   0.766   0.364
  531SOL    HW1 2492   0.082   0.715   0.323
  531SOL    HW2 2493   0.007   0.860   0.328
  532SOL     OW 2494   1.841   0.497   6.024
  532SOL    HW1 2495   1.903   0.500   5.945
  532SOL    HW2 2496   1.887   0.451   6.100
  533SOL     OW 2497   5.464   0.369   4.613
  533SOL    HW1 2498   5.396   0.388   4.541
  533SOL    HW2 2499   5.447   0.429   4.691
  534SOL     OW 2500   2.953   5.098   3.151
  534SOL    HW1 2501   3.024   5.030   3.133
  534SOL    HW2 2502   2.948   5.162   3.075
  535SOL     OW 2503   6.131   4.302   2.451
  535SOL    HW1 2504   6.077   4.302   2.535
  535SOL    HW2 2505   6.079   4.258   2.378
  536SOL     OW 2506   0.775   6.171   0.701
  536SOL    HW1 2507   0.724   6.253   0.675
  536SOL    HW2 2508   0.816   6.184   0.791
  537SOL     OW 2509   2.485   0.050   3.465
  537SOL    HW1 2510   2.437   7.024   3.536
  537SOL    HW2 2511   2.494   7.018   3.383
  538SOL     OW 2512   1.428   4.645   4.039
  538SOL    HW1 2513   1.356   4.711   4.016
  538SOL    HW2 2514   1.451   4.592   3.957
  539SOL     OW 2515   1.318   5.936   1.300
  539SOL    HW1 2516   1.391   5.931   1.232
  539SOL    HW2 2517   1.230   5.918   1.257
  540SOL     OW 2518   1.435   2.946   1.561
  540SOL    HW1 2519   1.427   2.963   1.660
  540SOL    HW2 2520   1.425   3.032   1.512
  541SOL     OW 2521   3.766   5.138   5.326
  541SOL    HW1 2522   3.827   5.195   5.270
  541SOL    HW2 2523   3.735   5.191   5.405
  542SOL     OW 2524   5.792   6.291   6.446
  542SOL    HW1 2525   5.870   6.329   6.397
  542SOL    HW2 2526   5.779   6.339   6.532
  543SOL     OW 2527   6.538   5.910   0.826
  543SOL    HW1 2528   6.442   5.914   0.800
  543SOL    HW2 2529   6.546   5.912   0.925
  544SOL     OW 2530   1.188   5.891   0.357
  544SOL    HW1 2531   1.268   5.848   0.399
  544SOL    HW2 2532   1.121   5.914   0.429
  545SOL     OW 2533   3.850   1.889   4.217
  545SOL    HW1 2534   3.800   1.894   4.304
  545SOL    HW2 2535   3.851   1.979   4.174
  546SOL     OW 2536   1.450   2.954   0.627
  546SOL    HW1 2537   1.491   2.953   0.535
  546SOL    HW2 2538   1.380   3.026   0.631
  547SOL     OW 2539   2.855   1.882   0.202
  547SOL    HW1 2540   2.895   1.828   0.128
  547SOL    HW2 2541   2.792   1.950   0.163
  548SOL     OW 2542   3.204   3.113   5.230
  548SOL    HW1 2543   3.265   3.151   5.160
  548SOL    HW2 2544   3.123   3.171   5.238
  549SOL     OW 2545   0.836   4.079   1.254
  549SOL    HW1 2546   0.923   4.126   1.269
  549SOL    HW2 2547   0.853   3.981   1.240
  550SOL     OW 2548   6.713   3.137   0.854
  550SOL    HW1 2549   6.710   3.109   0.949
  550SOL    HW2 2550   6.648   3.083   0.800
  551SOL     OW 2551   0.280   1.518   0.310
  551SOL    HW1 2552   0.209   1.537   0.242
  551SOL    HW2 2553   0.368   1.549   0.275
  552SOL     OW 2554   4.812   4.717   0.550
  552SOL    HW1 2555   4.866   4.729   0.467
  552SOL    HW2 2556   4.804   4.619   0.571
  553SOL     OW 2557   1.297   2.413   1.241
  553SOL    HW1 2558   1.269   2.383   1.150
  553SOL    HW2 2559   1.258   2.504   1.259
  554SOL     OW 2560   4.835   5.104   5.001
  554SOL    HW1 2561   4.901   5.168   4.963
  554SOL    HW2 2562   4.751   5.152   5.024
  555SOL     OW 2563   1.321   4.233   4.999
  555SOL    HW1 2564   1.273   4.282   5.071
  555SOL    HW2 2565   1.260   4.166   4.957
  556SOL     OW 2566   5.948   3.519   2.877
  556SOL    HW1 2567   6.040   3.479   2.885
  556SOL    HW2 2568   5.892   3.462   2.818
  557SOL     OW 2569   0.189   5.517   6.340
  557SOL    HW1 2570   0.252   5.441   6.326
  557SOL    HW2 2571   0.159   5.519   6.435
  558SOL     OW 2572   4.400   3.588   5.570
  558SOL    HW1 2573   4.324   3.525   5.584
  558SOL    HW2 2574   4.388   3.638   5.484
  559SOL     OW 2575   6.028   5.657   6.192
  559SOL    HW1 2576   6.079   5.741   6.172
  559SOL    HW2 2577   5.930   5.676   6.193
  560SOL     OW 2578   4.486   6.696   0.131
  560SOL    HW1 2579   4.488   6.604   0.169
  560SOL    HW2 2580   4.391   6.727   0.125
  561SOL     OW 2581   5.556   6.516   2.019
  561SOL    HW1 2582   5.488   6.459   1.972
  561SOL    HW2 2583   5.591   6.468   2.099
  562SOL     OW 2584   6.262   0.998   0.252
  562SOL    HW1 2585   6.298   0.905   0.257
  562SOL    HW2 2586   6.337   1.064   0.252
  563SOL     OW 2587   3.045   0.702   4.676
  563SOL    HW1 2588   3.100   0.733   4.599
  563SOL    HW2 2589   2.953   0.741   4.669
  564SOL     OW 2590   0.631   2.144   6.065
  564SOL    HW1 2591   0.707   2.088   6.033
  564SOL    HW2 2592   0.544   2.099   6.043
  565SOL     OW 2593   4.338   4.200   5.705
  565SOL    HW1 2594   4.293   4.112   5.691
  565SOL    HW2 2595   4.433   4.194   5.673
  566SOL     OW 2596   6.164   5.026   2.364
  566SOL    HW1 2597   6.082   5.020   2.421
  566SOL    HW2 2598   6.146   5.084   2.285
  567SOL     OW 2599   3.966   4.027   4.897
  567SOL    HW1 2600   4.030   4.067   4.831
  567SOL    HW2 2601   3.967   3.928   4.889
  568SOL     OW 2602   1.935   1.094   5.836
  568SOL    HW1 2603   2.028   1.060   5.850
  568SOL    HW2 2604   1.881   1.077   5.918
  569SOL     OW 2605   2.237   3.981   6.757
  569SOL    HW1 2606   2.272   3.919   6.827
  569SOL    HW2 2607   2.224   3.931   6.671
  570SOL     OW 2608   0.100   6.390   0.784
  570SOL    HW1 2609   0.146   6.331   0.717
  570SOL    HW2 2610   0.132   6.366   0.876
  571SOL     OW 2611   4.151   5.457   3.227
  571SOL    HW1 2612   4.159   5.556   3.216
  571SOL    HW2 2613   4.232   5.423   3.275
  572SOL     OW 2614   1.533   4.357   4.870
  572SOL    HW1 2615   1.530   4.448   4.912
  572SOL    HW2 2616   1.460   4.301   4.908
  573SOL     OW 2617   2.975   2.453   6.972
  573SOL    HW1 2618   2.883   2.444   6.933
  573SOL    HW2 2619   3.005   2.548   6.966
  574SOL     OW 2620   2.529   2.020   4.021
  574SOL    HW1 2621   2.544   2.116   4.046
  574SOL    HW2 2622   2.616   1.980   3.992
  575SOL     OW 2623   5.289   2.342   6.182
  575SOL    HW1 2624   5.219   2.299   6.239
  575SOL    HW2 2625   5.303   2.436   6.212
  576SOL     OW 2626   1.126   2.837   2.706
  576SOL    HW1 2627   1.190   2.830   2.630
  576SOL    HW2 2628   1.122   2.932   2.738
  577SOL     OW 2629   3.913   2.139   4.570
  577SOL    HW1 2630   4.012   2.144   4.573
  577SOL    HW2 2631   3.874   2.194   4.643
  578SOL     OW 2632   0.070   3.410   4.233
  578SOL    HW1 2633   0.124   3.445   4.156
  578SOL    HW2 2634   0.021   3.328   4.205
  579SOL     OW 2635   4.034   3.622   0.951
  579SOL    HW1 2636   4.050   3.642   0.854
  579SOL    HW2 2637   3.963   3.552   0.960
  580SOL     OW 2638   0.812   6.701   0.268
  580SOL    HW1 2639   0.879   6.630   0.244
  580SOL    HW2 2640   0.787   6.692   0.364
  581SOL     OW 2641   4.074   3.143   2.664
  581SOL    HW1 2642   3.995   3.197   2.693
  581SOL    HW2 2643   4.136   3.200   2.610
  582SOL     OW 2644   6.905   4.408   1.327
  582SOL    HW1 2645   6.915   4.500   1.290
  582SOL    HW2 2646   6.959   4.344   1.272
  583SOL     OW 2647   2.913   5.955   6.798
  583SOL    HW1 2648   2.866   5.869   6.814
  583SOL    HW2 2649   2.997   5.958   6.852
  584SOL     OW 2650   0.679   4.889   4.928
  584SOL    HW1 2651   0.640   4.799   4.908
  584SOL    HW2 2652   0.768   4.897   4.881
  585SOL     OW 2653   5.806   0.811   5.484
  585SOL    HW1 2654   5.779   0.896   5.528
  585SOL    HW2 2655   5.767   0.734   5.535
  586SOL     OW 2656   2.580   5.950   1.389
  586SOL    HW1 2657   2.657   5.959   1.451
  586SOL    HW2 2658   2.564   5.853   1.369
  587SOL     OW 2659   1.851   3.683   5.981
  587SOL    HW1 2660   1.921   3.726   5.924
  587SOL    HW2 2661   1.779   3.749   6.001
  588SOL     OW 2662   2.174   0.384   1.629
  588SOL    HW1 2663   2.248   0.406   1.693
  588SOL    HW2 2664   2.110   0.460   1.625
  589SOL     OW 2665   4.410   5.010   2.081
  589SOL    HW1 2666   4.318   5.047   2.097
  589SOL    HW2 2667   4.426   5.002   1.983
  590SOL     OW 2668   6.397   2.689   1.886
  590SOL    HW1 2669   6.450   2.606   1.904
  590SOL    HW2 2670   6.378   2.736   1.972
  591SOL     OW 2671   2.755   6.840   2.817
  591SOL    HW1 2672   2.854   6.854   2.822
  591SOL    HW2 2673   2.718   6.892   2.741
  592SOL     OW 2674   5.107   0.055   5.802
  592SOL    HW1 2675   5.125   6.982   5.808
  592SOL    HW2 2676   5.166   0.096   5.732
  593SOL     OW 2677   6.429   1.286   4.884
  593SOL    HW1 2678   6.448   1.199   4.837
  593SOL    HW2 2679   6.511   1.315   4.933
  594SOL     OW 2680   5.603   2.447   1.589
  594SOL    HW1 2681   5.588   2.362   1.539
  594SOL    HW2 2682   5.579   2.433   1.685
  595SOL     OW 2683   4.488   6.798   3.841
  595SOL    HW1 2684   4.477   6.740   3.760
  595SOL    HW2 2685   4.577   6.844   3.837
  596SOL     OW 2686   0.450   3.913   1.319
  596SOL    HW1 2687   0.525   3.967   1.357
  596SOL    HW2 2688   0.363   3.958   1.339
  597SOL     OW 2689   4.140   2.482   5.998
  597SOL    HW1 2690   4.064   2.474   6.062
  597SOL    HW2 2691   4.225   2.494   6.049
  598SOL     OW 2692   2.911   3.957   1.463
  598SOL    HW1 2693   2.823   3.980   1.505
  598SOL    HW2 2694   2.897   3.892   1.389
  599SOL     OW 2695   6.434   6.180   3.533
  599SOL    HW1 2696   6.350   6.212   3.489
  599SOL    HW2 2697   6.419   6.170   3.632
  600SOL     OW 2698   2.948   1.436   1.612
  600SOL    HW1 2699   2.929   1.473   1.521
  600SOL    HW2 2700   2.887   1.358   1.629
  601SOL     OW 2701   1.842   5.351   3.308
  601SOL    HW1 2702   1.919   5.288   3.316
  601SOL    HW2 2703   1.793   5.333   3.223
  602SOL     OW 2704   6.736   0.343   1.932
  602SOL    HW1 2705   6.803   0.372   2.001
  602SOL    HW2 2706   6.653   0.397   1.943
  603SOL     OW 2707   3.883   1.866   3.331
  603SOL    HW1 2708   3.906   1.862   3.429
  603SOL    HW2 2709   3.865   1.961   3.305
  604SOL     OW 2710   0.811   3.783   5.985
  604SOL    HW1 2711   0.861   3.735   5.913
  604SOL    HW2 2712   0.721   3.742   5.995
  605SOL     OW 2713   5.725   0.409   4.512
  605SOL    HW1 2714   5.768   0.328   4.472
  605SOL    HW2 2715   5.636   0.384   4.551
  606SOL     OW 2716   3.331   0.034   2.929
  606SOL    HW1 2717   3.285   7.013   2.853
  606SOL    HW2 2718   3.323   7.005   3.012
  607SOL     OW 2719   4.110   0.802   4.106
  607SOL    HW1 2720   4.125   0.899   4.087
  607SOL    HW2 2721   4.104   0.789   4.205
  608SOL     OW 2722   5.452   2.699   1.593
  608SOL    HW1 2723   5.510   2.618   1.582
  608SOL    HW2 2724   5.395   2.710   1.511
  609SOL     OW 2725   3.114   3.921   4.781
  609SOL    HW1 2726   3.054   3.945   4.858
  609SOL    HW2 2727   3.064   3.865   4.716
  610SOL     OW 2728   6.156   1.630   4.650
  610SOL    HW1 2729   6.076   1.570   4.651
  610SOL    HW2 2730   6.183   1.647   4.556
  611SOL     OW 2731   5.713   6.661   0.012
  611SOL    HW1 2732   5.649   6.670   0.089
  611SOL    HW2 2733   5.675   6.704   6.956
  612SOL     OW 2734   2.334   5.605   5.836
  612SOL    HW1 2735   2.285   5.527   5.797
  612SOL    HW2 2736   2.272   5.683   5.840
  613SOL     OW 2737   3.975   1.326   6.708
  613SOL    HW1 2738   3.936   1.255   6.650
  613SOL    HW2 2739   4.023   1.393   6.651
  614SOL     OW 2740   5.016   2.901   1.243
  614SOL    HW1 2741   5.098   2.949   1.276
  614SOL    HW2 2742   5.043   2.832   1.175
  615SOL     OW 2743   5.239   6.470   0.782
  615SOL    HW1 2744   5.267   6.420   0.700
  615SOL    HW2 2745   5.152   6.515   0.765
  616SOL     OW 2746   5.114   0.518   4.336
  616SOL    HW1 2747   5.171   0.584   4.288
  616SOL    HW2 2748   5.145   0.509   4.430
  617SOL     OW 2749   6.516   6.339   4.910
  617SOL    HW1 2750   6.466   6.264   4.867
  617SOL    HW2 2751   6.553   6.400   4.840
  618SOL     OW 2752   5.453   4.504   0.792
  618SOL    HW1 2753   5.355   4.516   0.810
  618SOL    HW2 2754   5.504   4.578   0.836
  619SOL     OW 2755   2.288   6.646   6.443
  619SOL    HW1 2756   2.256   6.701   6.366
  619SOL    HW2 2757   2.243   6.556   6.441
  620SOL     OW 2758   4.373   1.958   2.455
  620SOL    HW1 2759   4.328   2.047   2.444
  620SOL    HW2 2760   4.428   1.938   2.374
  621SOL     OW 2761   3.359   0.758   6.733
  621SOL    HW1 2762   3.290   0.719   6.672
  621SOL    HW2 2763   3.377   0.695   6.808
  622SOL     OW 2764   0.529   3.685   6.003
  622SOL    HW1 2765   0.461   3.652   6.069
  622SOL    HW2 2766   0.519   3.634   5.918
  623SOL     OW 2767   6.636   0.898   2.934
  623SOL    HW1 2768   6.638   0.900   2.834
  623SOL    HW2 2769   6.673   0.811   2.966
  624SOL     OW 2770   6.160   1.386   6.189
  624SOL    HW1 2771   6.083   1.410   6.248
  624SOL    HW2 2772   6.125   1.346   6.104
  625SOL     OW 2773   3.436   1.341   1.466
  625SOL    HW1 2774   3.397   1.433   1.462
  625SOL    HW2 2775   3.511   1.340   1.532
  626SOL     OW 2776   0.784   6.127   3.533
  626SOL    HW1 2777   0.848   6.174   3.594
  626SOL    HW2 2778   0.691   6.133   3.570
  627SOL     OW 2779   6.254   5.431   6.709
  627SOL    HW1 2780   6.258   5.443   6.610
  627SOL    HW2 2781   6.344   5.406   6.744
  628SOL     OW 2782   3.698   4.675   6.288
  628SOL    HW1 2783   3.650   4.595   6.324
  628SOL    HW2 2784   3.695   4.673   6.188
  629SOL     OW 2785   1.055   0.011   0.102
  629SOL    HW1 2786   1.013   0.012   0.193
  629SOL    HW2 2787   1.042   0.099   0.057
  630SOL     OW 2788   6.768   2.063   1.597
  630SOL    HW1 2789   6.801   2.154   1.574
  630SOL    HW2 2790   6.762   2.008   1.514
  631SOL     OW 2791   2.125   3.078   2.984
  631SOL    HW1 2792   2.088   3.067   2.892
  631SOL    HW2 2793   2.115   3.173   3.014
  632SOL     OW 2794   3.120   4.466   0.937
  632SOL    HW1 2795   3.035   4.413   0.930
  632SOL    HW2 2796   3.132   4.497   1.031
  633SOL     OW 2797   1.432   5.846   0.500
  633SOL    HW1 2798   1.519   5.819   0.459
  633SOL    HW2 2799   1.436   5.941   0.530
  634SOL     OW 2800   3.180   3.401   5.227
  634SOL    HW1 2801   3.148   3.492   5.199
  634SOL    HW2 2802   3.279   3.404   5.239
  635SOL     OW 2803   5.886   6.717   6.750
  635SOL    HW1 2804   5.978   6.686   6.773
  635SOL    HW2 2805   5.864   6.800   6.801
  636SOL     OW 2806   2.253   1.493   4.613
  636SOL    HW1 2807   2.181   1.515   4.547
  636SOL    HW2 2808   2.335   1.464   4.565
  637SOL     OW 2809   0.246   1.510   2.278
  637SOL    HW1 2810   0.268   1.607   2.287
  637SOL    HW2 2811   0.149   1.499   2.259
  638SOL     OW 2812   6.942   3.559   4.822
  638SOL    HW1 2813   0.011   3.568   4.853
  638SOL    HW2 2814   6.886   3.518   4.894
  639SOL     OW 2815   5.968   3.235   1.835
  639SOL    HW1 2816   5.936   3.228   1.741
  639SOL    HW2 2817   5.947   3.150   1.884
  640SOL     OW 2818   6.870   3.453   2.606
  640SOL    HW1 2819   6.854   3.510   2.525
  640SOL    HW2 2820   6.797   3.468   2.672
  641SOL     OW 2821   2.168   5.399   4.374
  641SOL    HW1 2822   2.148   5.497   4.384
  641SOL    HW2 2823   2.161   5.355   4.463
  642SOL     OW 2824   0.612   5.313   5.022
  642SOL    HW1 2825   0.628   5.223   5.062
  642SOL    HW2 2826   0.588   5.303   4.925
  643SOL     OW 2827   4.098   5.407   0.271
  643SOL    HW1 2828   4.078   5.313   0.244
  643SOL    HW2 2829   4.123   5.410   0.368
  644SOL     OW 2830   6.508   0.022   4.453
  644SOL    HW1 2831   6.424   7.009   4.417
  644SOL    HW2 2832   6.487   0.099   4.513
  645SOL     OW 2833   4.106   6.148   2.256
  645SOL    HW1 2834   4.103   6.243   2.224
  645SOL    HW2 2835   4.111   6.086   2.178
  646SOL     OW 2836   3.466   1.836   5.481
  646SOL    HW1 2837   3.477   1.934   5.498
  646SOL    HW2 2838   3.391   1.801   5.538
  647SOL     OW 2839   2.859   2.377   0.442
  647SOL    HW1 2840   2.882   2.290   0.397
  647SOL    HW2 2841   2.785   2.362   0.507
  648SOL     OW 2842   5.917   1.306   3.974
  648SOL    HW1 2843   5.951   1.386   4.023
  648SOL    HW2 2844   5.820   1.320   3.953
  649SOL     OW 2845   2.543   5.919   0.452
  649SOL    HW1 2846   2.641   5.909   0.471
  649SOL    HW2 2847   2.502   5.828   0.446
  650SOL     OW 2848   1.196   2.929   0.864
  650SOL    HW1 2849   1.200   2.829   0.859
  650SOL    HW2 2850   1.207   2.967   0.772
  651SOL     OW 2851   0.311   1.117   3.480
  651SOL    HW1 2852   0.352   1.187   3.421
  651SOL    HW2 2853   0.294   1.156   3.571
  652SOL     OW 2854   3.742   5.675   0.610
  652SOL    HW1 2855   3.657   5.703   0.565
  652SOL    HW2 2856   3.764   5.582   0.583
  653SOL     OW 2857   1.500   0.228   2.533
  653SOL    HW1 2858   1.579   0.271   2.578
  653SOL    HW2 2859   1.443   0.298   2.492
  654SOL     OW 2860   1.010   6.742   6.073
  654SOL    HW1 2861   1.036   6.836   6.055
  654SOL    HW2 2862   0.983   6.698   5.987
  655SOL     OW 2863   0.964   3.538   0.856
  655SOL    HW1 2864   0.983   3.632   0.829
  655SOL    HW2 2865   1.009   3.518   0.943
  656SOL     OW 2866   2.509   0.286   6.576
  656SOL    HW1 2867   2.462   0.261   6.660
  656SOL    HW2 2868   2.590   0.229   6.565
  657SOL     OW 2869   3.805   3.562   4.187
  657SOL    HW1 2870   3.873   3.635   4.173
  657SOL    HW2 2871   3.806   3.500   4.108
  658SOL     OW 2872   1.755   0.670   4.048
  658SOL    HW1 2873   1.840   0.623   4.069
  658SOL    HW2 2874   1.763   0.715   3.959
  659SOL     OW 2875   1.706   5.383   6.547
  659SOL    HW1 2876   1.719   5.476   6.581
  659SOL    HW2 2877   1.723   5.381   6.448
  660SOL     OW 2878   5.360   3.530   2.533
  660SOL    HW1 2879   5.378   3.442   2.489
  660SOL    HW2 2880   5.434   3.551   2.597
  661SOL     OW 2881   4.521   5.270   4.130
  661SOL    HW1 2882   4.522   5.173   4.153
  661SOL    HW2 2883   4.480   5.282   4.039
  662SOL     OW 2884   5.694   3.769   0.130
  662SOL    HW1 2885   5.733   3.687   0.089
  662SOL    HW2 2886   5.602   3.750   0.165
  663SOL     OW 2887   0.979   4.738   6.590
  663SOL    HW1 2888   0.940   4.658   6.636
  663SOL    HW2 2889   0.905   4.799   6.561
  664SOL     OW 2890   1.739   6.959   6.080
  664SOL    HW1 2891   1.683   6.877   6.090
  664SOL    HW2 2892   1.779   6.983   6.169
  665SOL     OW 2893   2.241   4.513   3.194
  665SOL    HW1 2894   2.186   4.595   3.209
  665SOL    HW2 2895   2.330   4.538   3.156
  666SOL     OW 2896   3.553   1.237   6.672
  666SOL    HW1 2897   3.586   1.174   6.602
  666SOL    HW2 2898   3.595   1.327   6.659
  667SOL     OW 2899   1.261   3.055   2.276
  667SOL    HW1 2900   1.237   2.960   2.256
  667SOL    HW2 2901   1.262   3.108   2.190
  668SOL     OW 2902   5.123   0.077   0.970
  668SOL    HW1 2903   5.213   0.064   0.927
  668SOL    HW2 2904   5.052   0.040   0.910
  669SOL     OW 2905   0.142   5.580   2.904
  669SOL    HW1 2906   0.085   5.540   2.832
  669SOL    HW2 2907   0.139   5.679   2.898
  670SOL     OW 2908   4.068   3.734   2.475
  670SOL    HW1 2909   4.035   3.799   2.544
  670SOL    HW2 2910   4.038   3.763   2.385
  671SOL     OW 2911   2.318   0.342   6.233
  671SOL    HW1 2912   2.299   0.257   6.282
  671SOL    HW2 2913   2.375   0.402   6.289
  672SOL     OW 2914   1.416   2.434   3.018
  672SOL    HW1 2915   1.455   2.491   3.090
  672SOL    HW2 2916   1.440   2.338   3.034
  673SOL     OW 2917   4.892   0.189   6.944
  673SOL    HW1 2918   4.932   0.270   6.987
  673SOL    HW2 2919   4.959   0.148   6.882
  674SOL     OW 2920   0.293   2.411   4.679
  674SOL    HW1 2921   0.223   2.473   4.715
  674SOL    HW2 2922   0.261   2.369   4.594
  675SOL     OW 2923   6.285   6.134   3.777
  675SOL    HW1 2924   6.189   6.130   3.753
  675SOL    HW2 2925   6.308   6.227   3.806
  676SOL     OW 2926   2.542   5.280   4.568
  676SOL    HW1 2927   2.609   5.344   4.530
  676SOL    HW2 2928   2.484   5.244   4.495
  677SOL     OW 2929   4.108   6.360   0.552
  677SOL    HW1 2930   4.205   6.344   0.536
  677SOL    HW2 2931   4.064   6.276   0.584
  678SOL     OW 2932   2.286   1.214   5.561
  678SOL    HW1 2933   2.284   1.144   5.489
  678SOL    HW2 2934   2.347   1.288   5.533
  679SOL     OW 2935   6.445   0.244   1.818
  679SOL    HW1 2936   6.520   0.227   1.882
  679SOL    HW2 2937   6.358   0.224   1.863
  680SOL     OW 2938   5.417   4.049   4.651
  680SOL    HW1 2939   5.372   3.999   4.725
  680SOL    HW2 2940   5.347   4.088   4.591
  681SOL     OW 2941   1.153   6.872   2.055
  681SOL    HW1 2942   1.057   6.856   2.074
  681SOL    HW2 2943   1.199   6.784   2.040
  682SOL     OW 2944   7.009   6.992   6.144
  682SOL    HW1 2945   6.930   6.943   6.180
  682SOL    HW2 2946   6.986   0.010   6.057
  683SOL     OW 2947   5.035   1.378   1.708
  683SOL    HW1 2948   4.991   1.468   1.714
  683SOL    HW2 2949   5.122   1.381   1.756
  684SOL     OW 2950   0.197   6.009   6.659
  684SOL    HW1 2951   0.275   5.953   6.686
  684SOL    HW2 2952   0.129   6.010   6.732
  685SOL     OW 2953   6.448   0.805   6.735
  685SOL    HW1 2954   6.476   0.900   6.727
  685SOL    HW2 2955   6.372   0.798   6.800
  686SOL     OW 2956   5.440   5.208   2.564
  686SOL    HW1 2957   5.514   5.156   2.522
  686SOL    HW2 2958   5.472   5.301   2.584
  687SOL     OW 2959   5.397   2.054   5.563
  687SOL    HW1 2960   5.335   1.982   5.531
  687SOL    HW2 2961   5.489   2.016   5.574
  688SOL     OW 2962   6.185   3.214   5.138
  688SOL    HW1 2963   6.245   3.139   5.110
  688SOL    HW2 2964   6.090   3.182   5.139
  689SOL     OW 2965   5.716   4.320   4.438
  689SOL    HW1 2966   5.692   4.339   4.343
  689SOL    HW2 2967   5.698   4.224   4.458
  690SOL     OW 2968   0.267   3.222   4.434
  690SOL    HW1 2969   0.231   3.314   4.450
  690SOL    HW2 2970   0.314   3.219   4.346
  691SOL     OW 2971   0.049   3.049   6.441
  691SOL    HW1 2972   0.049   2.955   6.474
  691SOL    HW2 2973   6.985   3.069   6.399
  692SOL     OW 2974   2.680   0.263   3.350
  692SOL    HW1 2975   2.593   0.280   3.396
  692SOL    HW2 2976   2.663   0.226   3.259
  693SOL     OW 2977   6.749   1.793   2.946
  693SOL    HW1 2978   6.712   1.769   2.856
  693SOL    HW2 2979   6.835   1.841   2.935
  694SOL     OW 2980   1.503   0.626   1.975
  694SOL    HW1 2981   1.585   0.658   1.929
  694SOL    HW2 2982   1.466   0.699   2.033
  695SOL     OW 2983   4.533   5.410   6.677
  695SOL    HW1 2984   4.528   5.378   6.771
  695SOL    HW2 2985   4.610   5.473   6.666
  696SOL     OW 2986   4.987   6.200   2.300
  696SOL    HW1 2987   4.995   6.242   2.210
  696SOL    HW2 2988   5.046   6.249   2.364
  697SOL     OW 2989   1.590   3.736   4.035
  697SOL    HW1 2990   1.618   3.825   4.000
  697SOL    HW2 2991   1.631   3.664   3.980
  698SOL     OW 2992   5.096   5.587   4.069
  698SOL    HW1 2993   5.055   5.568   3.980
  698SOL    HW2 2994   5.050   5.665   4.111
  699SOL     OW 2995   1.142   4.452   6.508
  699SOL    HW1 2996   1.075   4.515   6.469
  699SOL    HW2 2997   1.125   4.442   6.606
  700SOL     OW 2998   1.806   1.676   4.814
  700SOL    HW1 2999   1.727   1.726   4.848
  700SOL    HW2 3000   1.883   1.739   4.805
  701SOL     OW 3001   0.839   4.605   4.934
  701SOL    HW1 3002   0.866   4.510   4.951
  701SOL    HW2 3003   0.873   4.663   5.008
  702SOL     OW 3004   5.721   5.985   5.116
  702SOL    HW1 3005   5.815   5.988   5.081
  702SOL    HW2 3006   5.710   5.905   5.176
  703SOL     OW 3007   4.852   4.344   6.333
  703SOL    HW1 3008   4.768   4.291   6.344
  703SOL    HW2 3009   4.926   4.283   6.304
  704SOL     OW 3010   2.477   6.694   2.172
  704SOL    HW1 3011   2.417   6.657   2.101
  704SOL    HW2 3012   2.569   6.657   2.161
  705SOL     OW 3013   0.302   1.940   3.711
  705SOL    HW1 3014   0.327   1.872   3.642
  705SOL    HW2 3015   0.363   1.930   3.790
  706SOL     OW 3016   4.879   3.019   4.157
  706SOL    HW1 3017   4.970   3.010   4.118
  706SOL    HW2 3018   4.854   2.934   4.204
  707SOL     OW 3019   4.964   2.407   2.667
  707SOL    HW1 3020   4.976   2.398   2.766
  707SOL    HW2 3021   4.978   2.503   2.641
  708SOL     OW 3022   4.135   0.702   2.409
  708SOL    HW1 3023   4.120   0.658   2.497
  708SOL    HW2 3024   4.196   0.780   2.421
  709SOL     OW 3025   0.991   5.417   6.871
  709SOL    HW1 3026   1.007   5.319   6.857
  709SOL    HW2 3027   0.895   5.432   6.893
  710SOL     OW 3028   3.479   3.846   2.826
  710SOL    HW1 3029   3.451   3.815   2.917
  710SOL    HW2 3030   3.432   3.790   2.757
  711SOL     OW 3031   0.436   0.800   5.196
  711SOL    HW1 3032   0.508   0.773   5.132
  711SOL    HW2 3033   0.467   0.783   5.289
  712SOL     OW 3034   0.338   3.850   2.826
  712SOL    HW1 3035   0.333   3.903   2.911
  712SOL    HW2 3036   0.421   3.874   2.776
  713SOL     OW 3037   3.240   3.822   4.342
  713SOL    HW1 3038   3.311   3.870   4.393
  713SOL    HW2 3039   3.186   3.887   4.289
  714SOL     OW 3040   4.916   4.429   5.216
  714SOL    HW1 3041   4.888   4.519   5.183
  714SOL    HW2 3042   4.880   4.416   5.309
  715SOL     OW 3043   6.223   0.089   6.383
  715SOL    HW1 3044   6.131   0.126   6.399
  715SOL    HW2 3045   6.231   0.064   6.286
  716SOL     OW 3046   6.301   5.078   1.034
  716SOL    HW1 3047   6.294   5.130   1.120
  716SOL    HW2 3048   6.314   5.142   0.958
  717SOL     OW 3049   6.210   3.343   6.449
  717SOL    HW1 3050   6.147   3.273   6.416
  717SOL    HW2 3051   6.296   3.301   6.477
  718SOL     OW 3052   2.573   3.113   6.642
  718SOL    HW1 3053   2.637   3.132   6.717
  718SOL    HW2 3054   2.608   3.036   6.588
  719SOL     OW 3055   5.376   4.866   0.096
  719SOL    HW1 3056   5.438   4.789   0.088
  719SOL    HW2 3057   5.283   4.838   0.072
  720SOL     OW 3058   3.406   1.408   5.975
  720SOL    HW1 3059   3.426   1.496   5.931
  720SOL    HW2 3060   3.478   1.386   6.040
  721SOL     OW 3061   1.078   6.727   5.594
  721SOL    HW1 3062   1.123   6.812   5.622
  721SOL    HW2 3063   1.137   6.678   5.531
  722SOL     OW 3064   4.472   6.918   5.306
  722SOL    HW1 3065   4.499   6.849   5.238
  722SOL    HW2 3066   4.475   6.877   5.397
  723SOL     OW 3067   1.500   3.312   1.936
  723SOL    HW1 3068   1.428   3.278   1.876
  723SOL    HW2 3069   1.462   3.382   1.997
  724SOL     OW 3070   0.235   1.270   5.082
  724SOL    HW1 3071   0.235   1.181   5.127
  724SOL    HW2 3072   0.190   1.262   4.993
  725SOL     OW 3073   2.486   5.226   1.906
  725SOL    HW1 3074   2.394   5.202   1.937
  725SOL    HW2 3075   2.492   5.215   1.807
  726SOL     OW 3076   5.053   6.099   5.817
  726SOL    HW1 3077   5.007   6.018   5.854
  726SOL    HW2 3078   4.985   6.159   5.773
  727SOL     OW 3079   1.943   4.450   4.226
  727SOL    HW1 3080   1.937   4.549   4.214
  727SOL    HW2 3081   2.026   4.428   4.278
  728SOL     OW 3082   0.042   3.259   5.690
  728SOL    HW1 3083   6.994   3.196   5.663
  728SOL    HW2 3084   0.106   3.212   5.750
  729SOL     OW 3085   3.768   1.181   0.701
  729SOL    HW1 3086   3.727   1.268   0.728
  729SOL    HW2 3087   3.718   1.144   0.622
  730SOL     OW 3088   5.886   1.079   4.607
  730SOL    HW1 3089   5.924   0.990   4.584
  730SOL    HW2 3090   5.828   1.111   4.532
  731SOL     OW 3091   6.906   2.658   4.524
  731SOL    HW1 3092   6.858   2.584   4.476
  731SOL    HW2 3093   6.899   2.742   4.470
  732SOL     OW 3094   0.788   3.424   3.709
  732SOL    HW1 3095   0.738   3.511   3.701
  732SOL    HW2 3096   0.738   3.363   3.770
  733SOL     OW 3097   4.231   5.162   4.786
  733SOL    HW1 3098   4.227   5.196   4.880
  733SOL    HW2 3099   4.297   5.217   4.734
  734SOL     OW 3100   0.880   5.909   6.823
  734SOL    HW1 3101   0.882   5.975   6.897
  734SOL    HW2 3102   0.969   5.862   6.817
  735SOL     OW 3103   3.140   4.530   6.852
  735SOL    HW1 3104   3.140   4.582   6.938
  735SOL    HW2 3105   3.046   4.522   6.819
  736SOL     OW 3106   5.818   0.607   2.751
  736SOL    HW1 3107   5.798   0.615   2.653
  736SOL    HW2 3108   5.769   0.678   2.801
  737SOL     OW 3109   5.393   4.213   0.439
  737SOL    HW1 3110   5.372   4.129   0.487
  737SOL    HW2 3111   5.427   4.192   0.347
  738SOL     OW 3112   0.738   4.694   3.047
  738SOL    HW1 3113   0.751   4.773   2.988
  738SOL    HW2 3114   0.721   4.724   3.141
  739SOL     OW 3115   4.715   6.722   6.252
  739SOL    HW1 3116   4.813   6.723   6.230
  739SOL    HW2 3117   4.693   6.637   6.300
  740SOL     OW 3118   5.660   0.236   6.987
  740SOL    HW1 3119   5.758   0.231   6.968
  740SOL    HW2 3120   5.618   0.146   6.971
  741SOL     OW 3121   2.831   0.413   3.935
  741SOL    HW1 3122   2.829   0.493   3.996
  741SOL    HW2 3123   2.905   0.352   3.963
  742SOL     OW 3124   1.410   6.665   2.626
  742SOL    HW1 3125   1.398   6.762   2.604
  742SOL    HW2 3126   1.334   6.634   2.683
  743SOL     OW 3127   1.642   3.095   3.888
  743SOL    HW1 3128   1.725   3.151   3.897
  743SOL    HW2 3129   1.567   3.152   3.854
  744SOL     OW 3130   6.530   5.171   0.581
  744SOL    HW1 3131   6.600   5.222   0.531
  744SOL    HW2 3132   6.540   5.189   0.679
  745SOL     OW 3133   1.345   5.990   3.307
  745SOL    HW1 3134   1.324   6.082   3.339
  745SOL    HW2 3135   1.377   5.934   3.384
  746SOL     OW 3136   3.486   0.503   3.351
  746SOL    HW1 3137   3.561   0.464   3.299
  746SOL    HW2 3138   3.433   0.430   3.394
  747SOL     OW 3139   6.332   3.334   1.093
  747SOL    HW1 3140   6.327   3.294   1.185
  747SOL    HW2 3141   6.346   3.433   1.100
  748SOL     OW 3142   3.790   2.966   2.859
  748SOL    HW1 3143   3.804   2.931   2.766
  748SOL    HW2 3144   3.699   2.940   2.891
  749SOL     OW 3145   6.202   2.490   5.076
  749SOL    HW1 3146   6.166   2.583   5.064
  749SOL    HW2 3147   6.131   2.424   5.050
  750SOL     OW 3148   3.256   3.271   1.695
  750SOL    HW1 3149   3.219   3.312   1.612
  750SOL    HW2 3150   3.285   3.177   1.675
  751SOL     OW 3151   5.404   1.358   0.587
  751SOL    HW1 3152   5.411   1.425   0.513
  751SOL    HW2 3153   5.487   1.360   0.642
  752SOL     OW 3154   4.660   0.686   1.545
  752SOL    HW1 3155   4.622   0.598   1.517
  752SOL    HW2 3156   4.758   0.687   1.526
  753SOL     OW 3157   3.707   1.281   3.007
  753SOL    HW1 3158   3.639   1.240   2.947
  753SOL    HW2 3159   3.784   1.218   3.018
  754SOL     OW 3160   5.407   5.718   0.394
  754SOL    HW1 3161   5.459   5.635   0.371
  754SOL    HW2 3162   5.404   5.729   0.493
  755SOL     OW 3163   6.460   5.588   2.774
  755SOL    HW1 3164   6.523   5.524   2.818
  755SOL    HW2 3165   6.447   5.563   2.678
  756SOL     OW 3166   3.436   6.367   3.862
  756SOL    HW1 3167   3.362   6.434   3.868
  756SOL    HW2 3168   3.396   6.275   3.867
  757SOL     OW 3169   6.740   1.259   3.637
  757SOL    HW1 3170   6.765   1.244   3.733
  757SOL    HW2 3171   6.645   1.290   3.632
  758SOL     OW 3172   4.501   2.147   1.065
  758SOL    HW1 3173   4.503   2.094   0.981
  758SOL    HW2 3174   4.589   2.139   1.112
  759SOL     OW 3175   1.992   0.917   0.958
  759SOL    HW1 3176   2.041   0.986   1.011
  759SOL    HW2 3177   1.897   0.944   0.946
  760SOL     OW 3178   4.588   2.064   5.557
  760SOL    HW1 3179   4.626   1.985   5.510
  760SOL    HW2 3180   4.642   2.083   5.639
  761SOL     OW 3181   5.328   1.103   6.613
  761SOL    HW1 3182   5.228   1.115   6.606
  761SOL    HW2 3183   5.372   1.142   6.532
  762SOL     OW 3184   1.969   4.786   4.507
  762SOL    HW1 3185   1.931   4.851   4.573
  762SOL    HW2 3186   2.037   4.729   4.552
  763SOL     OW 3187   6.215   5.094   0.111
  763SOL    HW1 3188   6.259   5.094   0.021
  763SOL    HW2 3189   6.238   5.178   0.160
  764SOL     OW 3190   5.404   1.036   2.803
  764SOL    HW1 3191   5.309   1.057   2.780
  764SOL    HW2 3192   5.417   0.937   2.803
  765SOL     OW 3193   0.019   6.687   3.148
  765SOL    HW1 3194   6.951   6.720   3.165
  765SOL    HW2 3195   0.031   6.598   3.192
  766SOL     OW 3196   6.812   6.593   0.094
  766SOL    HW1 3197   6.834   6.676   0.043
  766SOL    HW2 3198   6.717   6.597   0.124
  767SOL     OW 3199   5.985   5.814   1.554
  767SOL    HW1 3200   6.020   5.736   1.501
  767SOL    HW2 3201   5.898   5.845   1.515
  768SOL     OW 3202   3.222   6.569   3.823
  768SOL    HW1 3203   3.229   6.669   3.822
  768SOL    HW2 3204   3.150   6.540   3.760
  769SOL     OW 3205   3.638   0.770   0.317
  769SOL    HW1 3206   3.617   0.728   0.229
  769SOL    HW2 3207   3.717   0.725   0.358
  770SOL     OW 3208   3.127   5.146   4.176
  770SOL    HW1 3209   3.194   5.120   4.107
  770SOL    HW2 3210   3.067   5.216   4.139
  771SOL     OW 3211   0.669   5.592   4.696
  771SOL    HW1 3212   0.660   5.503   4.739
  771SOL    HW2 3213   0.753   5.636   4.727
  772SOL     OW 3214   0.083   4.562   5.533
  772SOL    HW1 3215   0.139   4.480   5.519
  772SOL    HW2 3216   0.108   4.606   5.619
  773SOL     OW 3217   0.041   3.454   2.241
  773SOL    HW1 3218   0.138   3.431   2.244
  773SOL    HW2 3219   0.022   3.528   2.305
  774SOL     OW 3220   1.301   0.998   1.516
  774SOL    HW1 3221   1.307   1.048   1.603
  774SOL    HW2 3222   1.239   0.921   1.527
  775SOL     OW 3223   1.522   2.692   4.271
  775SOL    HW1 3224   1.618   2.672   4.250
  775SOL    HW2 3225   1.512   2.789   4.292
  776SOL     OW 3226   2.088   0.254   4.969
  776SOL    HW1 3227   2.052   0.165   4.943
  776SOL    HW2 3228   2.188   0.251   4.971
  777SOL     OW 3229   4.436   0.005   0.023
  777SOL    HW1 3230   4.456   0.088   6.996
  777SOL    HW2 3231   4.522   6.988   0.052
  778SOL     OW 3232   4.287   5.532   5.059
  778SOL    HW1 3233   4.370   5.520   5.113
  778SOL    HW2 3234   4.252   5.442   5.031
  779SOL     OW 3235   0.820   0.586   2.682
  779SOL    HW1 3236   0.909   0.556   2.715
  779SOL    HW2 3237   0.752   0.514   2.700
  780SOL     OW 3238   5.084   2.777   5.044
  780SOL    HW1 3239   5.085   2.816   5.136
  780SOL    HW2 3240   5.115   2.846   4.978
  781SOL     OW 3241   0.882   2.451   6.716
  781SOL    HW1 3242   0.810   2.521   6.715
  781SOL    HW2 3243   0.903   2.423   6.622
  782SOL     OW 3244   0.213   4.384   0.462
  782SOL    HW1 3245   0.245   4.290   0.471
  782SOL    HW2 3246   0.149   4.390   0.385
  783SOL     OW 3247   2.372   4.759   6.964
  783SOL    HW1 3248   2.299   4.693   6.945
  783SOL    HW2 3249   2.451   4.710   7.001
  784SOL     OW 3250   5.064   5.181   3.593
  784SOL    HW1 3251   5.154   5.188   3.550
  784SOL    HW2 3252   5.076   5.167   3.691
  785SOL     OW 3253   6.121   2.275   4.127
  785SOL    HW1 3254   6.166   2.213   4.191
  785SOL    HW2 3255   6.130   2.240   4.034
  786SOL     OW 3256   6.045   6.601   0.459
  786SOL    HW1 3257   6.013   6.626   0.551
  786SOL    HW2 3258   6.143   6.583   0.462
  787SOL     OW 3259   4.536   0.937   0.073
  787SOL    HW1 3260   4.562   0.929   0.169
  787SOL    HW2 3261   4.618   0.928   0.016
  788SOL     OW 3262   1.012   4.827   3.206
  788SOL    HW1 3263   0.920   4.850   3.239
  788SOL    HW2 3264   1.043   4.743   3.249
  789SOL     OW 3265   5.617   2.653   1.297
  789SOL    HW1 3266   5.520   2.672   1.279
  789SOL    HW2 3267   5.673   2.726   1.257
  790SOL     OW 3268   3.239   0.508   3.784
  790SOL    HW1 3269   3.165   0.449   3.752
  790SOL    HW2 3270   3.320   0.494   3.728
  791SOL     OW 3271   3.920   1.653   5.082
  791SOL    HW1 3272   3.930   1.582   5.152
  791SOL    HW2 3273   3.853   1.622   5.014
  792SOL     OW 3274   5.251   0.379   3.582
  792SOL    HW1 3275   5.160   0.420   3.589
  792SOL    HW2 3276   5.243   0.285   3.548
  793SOL     OW 3277   0.083   0.289   6.734
  793SOL    HW1 3278   0.011   0.282   6.664
  793SOL    HW2 3279   0.170   0.260   6.694
  794SOL     OW 3280   3.554   5.028   5.170
  794SOL    HW1 3281   3.465   5.015   5.214
  794SOL    HW2 3282   3.615   5.077   5.232
  795SOL     OW 3283   5.141   4.946   6.927
  795SOL    HW1 3284   5.207   5.015   6.958
  795SOL    HW2 3285   5.050   4.969   6.960
  796SOL     OW 3286   0.368   1.539   6.018
  796SOL    HW1 3287   0.298   1.589   6.069
  796SOL    HW2 3288   0.434   1.500   6.081
  797SOL     OW 3289   6.312   2.912   5.539
  797SOL    HW1 3290   6.222   2.938   5.574
  797SOL    HW2 3291   6.302   2.875   5.447
  798SOL     OW 3292   6.466   0.550   5.101
  798SOL    HW1 3293   6.421   0.543   5.190
  798SOL    HW2 3294   6.401   0.589   5.035
  799SOL     OW 3295   6.606   3.358   3.738
  799SOL    HW1 3296   6.521   3.328   3.695
  799SOL    HW2 3297   6.675   3.286   3.729
  800SOL     OW 3298   6.719   1.788   1.908
  800SOL    HW1 3299   6.689   1.694   1.923
  800SOL    HW2 3300   6.815   1.789   1.883
  801SOL     OW 3301   0.300   2.712   3.901
  801SOL    HW1 3302   0.303   2.763   3.987
  801SOL    HW2 3303   0.366   2.752   3.837
  802SOL     OW 3304   5.971   1.639   1.748
  802SOL    HW1 3305   5.953   1.703   1.674
  802SOL    HW2 3306   6.006   1.688   1.827
  803SOL     OW 3307   1.245   0.003   4.984
  803SOL    HW1 3308   1.212   7.013   5.077
  803SOL    HW2 3309   1.343   0.021   4.985
  804SOL     OW 3310   6.428   6.719   0.740
  804SOL    HW1 3311   6.525   6.729   0.765
  804SOL    HW2 3312   6.390   6.809   0.716
  805SOL     OW 3313   1.574   2.917   5.598
  805SOL    HW1 3314   1.584   3.013   5.574
  805SOL    HW2 3315   1.501   2.906   5.665
  806SOL     OW 3316   5.171   0.380   0.408
  806SOL    HW1 3317   5.178   0.421   0.317
  806SOL    HW2 3318   5.108   0.434   0.464
  807SOL     OW 3319   1.098   6.999   3.069
  807SOL    HW1 3320   1.090   0.028   2.985
  807SOL    HW2 3321   1.074   0.031   3.148
  808SOL     OW 3322   5.878   3.732   5.197
  808SOL    HW1 3323   5.831   3.818   5.215
  808SOL    HW2 3324   5.854   3.700   5.105
  809SOL     OW 3325   0.696   5.550   6.195
  809SOL    HW1 3326   0.762   5.476   6.181
  809SOL    HW2 3327   0.715   5.624   6.129
  810SOL     OW 3328   6.521   5.262   6.347
  810SOL    HW1 3329   6.456   5.254   6.271
  810SOL    HW2 3330   6.474   5.299   6.427
  811SOL     OW 3331   3.758   5.298   3.475
  811SOL    HW1 3332   3.719   5.384   3.510
  811SOL    HW2 3333   3.814   5.317   3.395
  812SOL     OW 3334   0.231   0.425   2.378
  812SOL    HW1 3335   0.223   0.492   2.304
  812SOL    HW2 3336   0.179   0.343   2.355
  813SOL     OW 3337   5.872   5.432   2.077
  813SOL    HW1 3338   5.804   5.500   2.048
  813SOL    HW2 3339   5.959   5.478   2.094
  814SOL     OW 3340   5.262   5.422   1.352
  814SOL    HW1 3341   5.354   5.392   1.326
  814SOL    HW2 3342   5.207   5.343   1.379
  815SOL     OW 3343   0.758   0.968   0.437
  815SOL    HW1 3344   0.659   0.976   0.453
  815SOL    HW2 3345   0.781   1.011   0.349
  816SOL     OW 3346   5.583   0.527   1.675
  816SOL    HW1 3347   5.490   0.495   1.655
  816SOL    HW2 3348   5.646   0.450   1.677
  817SOL     OW 3349   0.268   2.149   1.933
  817SOL    HW1 3350   0.237   2.241   1.956
  817SOL    HW2 3351   0.304   2.104   2.015
  818SOL     OW 3352   5.682   1.539   2.347
  818SOL    HW1 3353   5.781   1.530   2.336
  818SOL    HW2 3354   5.636   1.468   2.293
  819SOL     OW 3355   0.176   5.426   2.136
  819SOL    HW1 3356   0.189   5.404   2.233
  819SOL    HW2 3357   0.181   5.342   2.082
  820SOL     OW 3358   1.409   2.752   4.735
  820SOL    HW1 3359   1.378   2.709   4.821
  820SOL    HW2 3360   1.411   2.851   4.747
  821SOL     OW 3361   0.873   4.182   0.370
  821SOL    HW1 3362   0.800   4.127   0.329
  821SOL    HW2 3363   0.950   4.123   0.393
  822SOL     OW 3364   1.527   3.509   4.720
  822SOL    HW1 3365   1.537   3.608   4.714
  822SOL    HW2 3366   1.554   3.468   4.633
  823SOL     OW 3367   3.495   3.440   1.397
  823SOL    HW1 3368   3.533   3.491   1.320
  823SOL    HW2 3369   3.516   3.343   1.387
  824SOL     OW 3370   6.302   2.521   5.981
  824SOL    HW1 3371   6.213   2.552   5.949
  824SOL    HW2 3372   6.313   2.423   5.961
  825SOL     OW 3373   1.174   4.023   1.731
  825SOL    HW1 3374   1.152   4.007   1.634
  825SOL    HW2 3375   1.097   3.993   1.788
  826SOL     OW 3376   1.259   3.788   5.564
  826SOL    HW1 3377   1.237   3.722   5.492
  826SOL    HW2 3378   1.178   3.842   5.586
  827SOL     OW 3379   3.389   5.059   0.613
  827SOL    HW1 3380   3.320   5.053   0.685
  827SOL    HW2 3381   3.363   4.999   0.537
  828SOL     OW 3382   6.468   0.250   5.981
  828SOL    HW1 3383   6.535   0.324   5.977
  828SOL    HW2 3384   6.388   0.281   6.032
  829SOL     OW 3385   3.237   3.426   4.876
  829SOL    HW1 3386   3.148   3.397   4.840
  829SOL    HW2 3387   3.244   3.526   4.871
  830SOL     OW 3388   4.313   3.854   6.208
  830SOL    HW1 3389   4.324   3.950   6.181
  830SOL    HW2 3390   4.366   3.795   6.146
  831SOL     OW 3391   6.151   0.257   4.054
  831SOL    HW1 3392   6.188   0.165   4.046
  831SOL    HW2 3393   6.200   0.306   4.127
  832SOL     OW 3394   2.060   1.377   5.630
  832SOL    HW1 3395   1.984   1.371   5.565
  832SOL    HW2 3396   2.134   1.315   5.601
  833SOL     OW 3397   0.853   0.455   5.813
  833SOL    HW1 3398   0.792   0.455   5.734
  833SOL    HW2 3399   0.905   0.370   5.815
  834SOL     OW 3400   3.432   4.494   5.989
  834SOL    HW1 3401   3.388   4.515   6.077
  834SOL    HW2 3402   3.428   4.395   5.973
  835SOL     OW 3403   4.556   0.955   3.138
  835SOL    HW1 3404   4.526   1.027   3.075
  835SOL    HW2 3405   4.588   0.996   3.223
  836SOL     OW 3406   2.352   1.051   6.449
  836SOL    HW1 3407   2.384   0.980   6.385
  836SOL    HW2 3408   2.261   1.083   6.421
  837SOL     OW 3409   4.097   1.511   4.592
  837SOL    HW1 3410   4.118   1.596   4.545
  837SOL    HW2 3411   4.156   1.503   4.673
  838SOL     OW 3412   0.888   6.139   1.961
  838SOL    HW1 3413   0.954   6.064   1.953
  838SOL    HW2 3414   0.850   6.160   1.871
  839SOL     OW 3415   3.242   1.395   1.991
  839SOL    HW1 3416   3.210   1.427   1.902
  839SOL    HW2 3417   3.179   1.327   2.027
  840SOL     OW 3418   0.443   1.432   5.679
  840SOL    HW1 3419   0.485   1.343   5.701
  840SOL    HW2 3420   0.344   1.425   5.685
  841SOL     OW 3421   0.262   3.345   1.050
  841SOL    HW1 3422   0.296   3.410   0.982
  841SOL    HW2 3423   0.314   3.355   1.135
  842SOL     OW 3424   3.446   5.328   3.850
  842SOL    HW1 3425   3.396   5.414   3.846
  842SOL    HW2 3426   3.542   5.344   3.825
  843SOL     OW 3427   0.177   3.890   1.780
  843SOL    HW1 3428   0.274   3.892   1.808
  843SOL    HW2 3429   0.121   3.931   1.852
  844SOL     OW 3430   5.863   4.847   6.583
  844SOL    HW1 3431   5.948   4.899   6.591
  844SOL    HW2 3432   5.857   4.782   6.658
  845SOL     OW 3433   1.620   5.152   5.495
  845SOL    HW1 3434   1.699   5.093   5.477
  845SOL    HW2 3435   1.642   5.215   5.569
  846SOL     OW 3436   4.528   2.565   6.727
  846SOL    HW1 3437   4.563   2.626   6.657
  846SOL    HW2 3438   4.565   2.473   6.714
  847SOL     OW 3439   5.318   4.238   2.302
  847SOL    HW1 3440   5.267   4.295   2.237
  847SOL    HW2 3441   5.372   4.171   2.251
  848SOL     OW 3442   6.268   6.986   5.250
  848SOL    HW1 3443   6.262   0.041   5.190
  848SOL    HW2 3444   6.249   7.013   5.344
  849SOL     OW 3445   1.009   5.790   4.129
  849SOL    HW1 3446   1.083   5.791   4.196
  849SOL    HW2 3447   0.926   5.828   4.171
  850SOL     OW 3448   4.240   0.583   3.362
  850SOL    HW1 3449   4.193   0.579   3.450
  850SOL    HW2 3450   4.308   0.510   3.357
  851SOL     OW 3451   6.911   0.796   6.012
  851SOL    HW1 3452   6.847   0.860   5.970
  851SOL    HW2 3453   6.920   0.816   6.110
  852SOL     OW 3454   2.913   4.440   5.589
  852SOL    HW1 3455   2.990   4.424   5.651
  852SOL    HW2 3456   2.830   4.456   5.643
  853SOL     OW 3457   0.613   3.982   0.560
  853SOL    HW1 3458   0.575   3.891   0.577
  853SOL    HW2 3459   0.648   3.988   0.467
  854SOL     OW 3460   6.209   5.004   1.455
  854SOL    HW1 3461   6.297   5.044   1.430
  854SOL    HW2 3462   6.165   4.967   1.374
  855SOL     OW 3463   5.420   0.444   0.495
  855SOL    HW1 3464   5.492   0.416   0.431
  855SOL    HW2 3465   5.331   0.418   0.458
  856SOL     OW 3466   1.098   0.455   5.232
  856SOL    HW1 3467   1.145   0.449   5.144
  856SOL    HW2 3468   1.000   0.441   5.218
  857SOL     OW 3469   5.606   3.324   1.558
  857SOL    HW1 3470   5.585   3.414   1.596
  857SOL    HW2 3471   5.531   3.261   1.579
  858SOL     OW 3472   3.687   3.485   1.819
  858SOL    HW1 3473   3.602   3.512   1.865
  858SOL    HW2 3474   3.759   3.472   1.887
  859SOL     OW 3475   6.844   4.477   0.977
  859SOL    HW1 3476   6.803   4.535   0.906
  859SOL    HW2 3477   6.941   4.465   0.959
  860SOL     OW 3478   1.720   4.402   6.929
  860SOL    HW1 3479   1.817   4.419   6.911
  860SOL    HW2 3480   1.700   4.305   6.913
  861SOL     OW 3481   3.530   4.603   5.623
  861SOL    HW1 3482   3.616   4.646   5.650
  861SOL    HW2 3483   3.514   4.620   5.526
  862SOL     OW 3484   4.686   4.296   3.001
  862SOL    HW1 3485   4.612   4.344   2.955
  862SOL    HW2 3486   4.735   4.360   3.061
  863SOL     OW 3487   6.001   2.176   1.109
  863SOL    HW1 3488   5.979   2.176   1.207
  863SOL    HW2 3489   5.917   2.185   1.056
  864SOL     OW 3490   0.034   5.335   3.316
  864SOL    HW1 3491   0.005   5.358   3.410
  864SOL    HW2 3492   6.982   5.348   3.254
  865SOL     OW 3493   2.077   0.910   3.676
  865SOL    HW1 3494   2.138   0.924   3.754
  865SOL    HW2 3495   1.988   0.876   3.709
  866SOL     OW 3496   4.845   1.232   1.153
  866SOL    HW1 3497   4.748   1.234   1.130
  866SOL    HW2 3498   4.870   1.140   1.184
  867SOL     OW 3499   2.462   1.608   6.427
  867SOL    HW1 3500   2.558   1.583   6.418
  867SOL    HW2 3501   2.428   1.578   6.516
  868SOL     OW 3502   5.546   2.030   3.341
  868SOL    HW1 3503   5.451   2.054   3.319
  868SOL    HW2 3504   5.571   1.947   3.291
  869SOL     OW 3505   6.660   3.792   1.230
  869SOL    HW1 3506   6.578   3.848   1.237
  869SOL    HW2 3507   6.675   3.768   1.134
  870SOL     OW 3508   6.636   2.268   0.103
  870SOL    HW1 3509   6.711   2.325   0.071
  870SOL    HW2 3510   6.574   2.323   0.159
  871SOL     OW 3511   5.821   4.476   0.531
  871SOL    HW1 3512   5.797   4.388   0.490
  871SOL    HW2 3513   5.765   4.491   0.613
  872SOL     OW 3514   0.041   2.027   1.836
  872SOL    HW1 3515   0.122   2.080   1.862
  872SOL    HW2 3516   6.984   2.079   1.858
  873SOL     OW 3517   3.575   6.836   4.888
  873SOL    HW1 3518   3.526   6.786   4.817
  873SOL    HW2 3519   3.623   6.772   4.947
  874SOL     OW 3520   0.350   4.184   6.681
  874SOL    HW1 3521   0.448   4.204   6.674
  874SOL    HW2 3522   0.299   4.269   6.680
  875SOL     OW 3523   6.205   5.466   6.216
  875SOL    HW1 3524   6.194   5.408   6.135
  875SOL    HW2 3525   6.138   5.540   6.214
  876SOL     OW 3526   1.838   2.120   1.287
  876SOL    HW1 3527   1.807   2.027   1.306
  876SOL    HW2 3528   1.919   2.140   1.342
  877SOL     OW 3529   5.115   5.511   0.160
  877SOL    HW1 3530   5.035   5.471   0.113
  877SOL    HW2 3531   5.145   5.593   0.111
  878SOL     OW 3532   3.703   2.718   0.844
  878SOL    HW1 3533   3.682   2.650   0.773
  878SOL    HW2 3534   3.620   2.741   0.894
  879SOL     OW 3535   4.715   2.756   3.082
  879SOL    HW1 3536   4.722   2.730   3.179
  879SOL    HW2 3537   4.794   2.718   3.033
  880SOL     OW 3538   4.363   5.535   1.727
  880SOL    HW1 3539   4.448   5.583   1.746
  880SOL    HW2 3540   4.331   5.557   1.635
  881SOL     OW 3541   5.175   4.853   3.240
  881SOL    HW1 3542   5.148   4.756   3.236
  881SOL    HW2 3543   5.118   4.900   3.308
  882SOL     OW 3544   0.589   2.109   4.451
  882SOL    HW1 3545   0.596   2.064   4.362
  882SOL    HW2 3546   0.671   2.091   4.504
  883SOL     OW 3547   3.192   4.736   0.009
  883SOL    HW1 3548   3.118   4.702   0.068
  883SOL    HW2 3549   3.177   4.833   7.014
  884SOL     OW 3550   4.056   4.118   1.632
  884SOL    HW1 3551   3.979   4.070   1.674
  884SOL    HW2 3552   4.047   4.216   1.647
  885SOL     OW 3553   4.911   5.763   5.331
  885SOL    HW1 3554   4.899   5.830   5.258
  885SOL    HW2 3555   4.900   5.671   5.294
  886SOL     OW 3556   4.073   2.002   6.396
  886SOL    HW1 3557   4.073   1.956   6.307
  886SOL    HW2 3558   4.010   2.080   6.393
  887SOL     OW 3559   5.931   5.855   4.820
  887SOL    HW1 3560   5.958   5.914   4.896
  887SOL    HW2 3561   5.865   5.787   4.853
  888SOL     OW 3562   6.185   0.132   3.377
  888SOL    HW1 3563   6.212   0.224   3.404
  888SOL    HW2 3564   6.238   0.065   3.430
  889SOL     OW 3565   0.546   0.309   4.701
  889SOL    HW1 3566   0.456   0.348   4.681
  889SOL    HW2 3567   0.561   0.229   4.643
  890SOL     OW 3568   1.530   3.908   2.071
  890SOL    HW1 3569   1.608   3.968   2.085
  890SOL    HW2 3570   1.472   3.944   1.997
  891SOL     OW 3571   5.689   3.971   6.513
  891SOL    HW1 3572   5.626   3.893   6.502
  891SOL    HW2 3573   5.769   3.957   6.455
  892SOL     OW 3574   1.975   5.669   1.817
  892SOL    HW1 3575   1.896   5.684   1.757
  892SOL    HW2 3576   1.951   5.695   1.910
  893SOL     OW 3577   2.212   0.274   2.113
  893SOL    HW1 3578   2.247   0.249   2.204
  893SOL    HW2 3579   2.275   0.239   2.043
  894SOL     OW 3580   1.282   5.544   4.521
  894SOL    HW1 3581   1.378   5.515   4.519
  894SOL    HW2 3582   1.228   5.482   4.464
  895SOL     OW 3583   2.406   0.736   4.642
  895SOL    HW1 3584   2.364   0.646   4.653
  895SOL    HW2 3585   2.450   0.742   4.553
  896SOL     OW 3586   5.140   6.667   3.624
  896SOL    HW1 3587   5.092   6.621   3.698
  896SOL    HW2 3588   5.192   6.601   3.570
  897SOL     OW 3589   5.185   1.545   6.261
  897SOL    HW1 3590   5.130   1.628   6.246
  897SOL    HW2 3591   5.242   1.529   6.181
  898SOL     OW 3592   5.545   6.593   3.470
  898SOL    HW1 3593   5.580   6.625   3.382
  898SOL    HW2 3594   5.564   6.661   3.540
  899SOL     OW 3595   1.561   4.461   0.116
  899SOL    HW1 3596   1.611   4.458   0.029
  899SOL    HW2 3597   1.601   4.395   0.179
  900SOL     OW 3598   0.373   5.241   3.445
  900SOL    HW1 3599   0.343   5.231   3.350
  900SOL    HW2 3600   0.317   5.183   3.504
  901SOL     OW 3601   5.952   1.968   4.015
  901SOL    HW1 3602   5.982   2.063   4.009
  901SOL    HW2 3603   5.861   1.964   4.055
  902SOL     OW 3604   1.288   6.560   0.282
  902SOL    HW1 3605   1.355   6.547   0.209
  902SOL    HW2 3606   1.276   6.657   0.299
  903SOL     OW 3607   0.749   4.832   6.474
  903SOL    HW1 3608   0.678   4.767   6.448
  903SOL    HW2 3609   0.762   4.899   6.401
  904SOL     OW 3610   2.193   1.135   4.316
  904SOL    HW1 3611   2.190   1.205   4.245
  904SOL    HW2 3612   2.106   1.132   4.364
  905SOL     OW 3613   6.234   2.963   4.125
  905SOL    HW1 3614   6.261   2.883   4.071
  905SOL    HW2 3615   6.138   2.983   4.110
  906SOL     OW 3616   6.421   4.007   5.618
  906SOL    HW1 3617   6.432   4.001   5.519
  906SOL    HW2 3618   6.339   4.060   5.639
  907SOL     OW 3619   0.303   3.403   2.342
  907SOL    HW1 3620   0.331   3.330   2.280
  907SOL    HW2 3621   0.303   3.370   2.436
  908SOL     OW 3622   2.865   1.392   3.750
  908SOL    HW1 3623   2.808   1.348   3.681
  908SOL    HW2 3624   2.928   1.325   3.789
  909SOL     OW 3625   3.979   6.460   1.249
  909SOL    HW1 3626   4.049   6.402   1.208
  909SOL    HW2 3627   3.949   6.528   1.182
  910SOL     OW 3628   1.999   1.403   1.713
  910SOL    HW1 3629   2.076   1.447   1.759
  910SOL    HW2 3630   1.940   1.472   1.672
  911SOL     OW 3631   0.577   3.168   0.769
  911SOL    HW1 3632   0.591   3.187   0.866
  911SOL    HW2 3633   0.657   3.197   0.717
  912SOL     OW 3634   1.671   0.998   6.705
  912SOL    HW1 3635   1.692   1.038   6.795
  912SOL    HW2 3636   1.756   0.988   6.653
  913SOL     OW 3637   2.190   1.487   2.659
  913SOL    HW1 3638   2.105   1.532   2.632
  913SOL    HW2 3639   2.267   1.547   2.641
  914SOL     OW 3640   2.704   5.661   1.907
  914SOL    HW1 3641   2.717   5.613   1.821
  914SOL    HW2 3642   2.783   5.720   1.925
  915SOL     OW 3643   2.181   2.315   0.910
  915SOL    HW1 3644   2.175   2.320   1.010
  915SOL    HW2 3645   2.167   2.221   0.880
  916SOL     OW 3646   1.272   3.134   2.579
  916SOL    HW1 3647   1.248   3.060   2.516
  916SOL    HW2 3648   1.209   3.133   2.657
  917SOL     OW 3649   4.039   1.004   6.349
  917SOL    HW1 3650   4.113   0.938   6.361
  917SOL    HW2 3651   3.970   0.966   6.287
  918SOL     OW 3652   0.355   1.943   5.023
  918SOL    HW1 3653   0.427   1.985   5.079
  918SOL    HW2 3654   0.383   1.851   4.996
  919SOL     OW 3655   1.521   0.372   1.056
  919SOL    HW1 3656   1.575   0.456   1.059
  919SOL    HW2 3657   1.581   0.295   1.035
  920SOL     OW 3658   1.747   1.160   2.911
  920SOL    HW1 3659   1.723   1.103   2.833
  920SOL    HW2 3660   1.842   1.192   2.901
  921SOL     OW 3661   3.690   4.300   0.437
  921SOL    HW1 3662   3.625   4.237   0.479
  921SOL    HW2 3663   3.723   4.365   0.506
  922SOL     OW 3664   2.623   5.939   6.899
  922SOL    HW1 3665   2.574   5.960   6.983
  922SOL    HW2 3666   2.710   5.990   6.897
  923SOL     OW 3667   4.179   1.151   0.027
  923SOL    HW1 3668   4.129   1.160   0.113
  923SOL    HW2 3669   4.259   1.213   0.029
  924SOL     OW 3670   6.384   5.148   2.469
  924SOL    HW1 3671   6.306   5.086   2.462
  924SOL    HW2 3672   6.468   5.095   2.470
  925SOL     OW 3673   6.998   1.812   2.320
  925SOL    HW1 3674   0.064   1.791   2.284
  925SOL    HW2 3675   6.970   1.903   2.291
  926SOL     OW 3676   3.536   5.586   1.225
  926SOL    HW1 3677   3.461   5.530   1.259
  926SOL    HW2 3678   3.531   5.677   1.266
  927SOL     OW 3679   4.661   5.610   4.751
  927SOL    HW1 3680   4.761   5.617   4.749
  927SOL    HW2 3681   4.625   5.668   4.823
  928SOL     OW 3682   0.315   1.599   1.521
  928SOL    HW1 3683   0.358   1.677   1.477
  928SOL    HW2 3684   0.372   1.566   1.596
  929SOL     OW 3685   0.002   2.190   2.402
  929SOL    HW1 3686   6.976   2.131   2.465
  929SOL    HW2 3687   6.966   2.257   2.361
  930SOL     OW 3688   5.943   4.859   2.036
  930SOL    HW1 3689   6.029   4.809   2.047
  930SOL    HW2 3690   5.962   4.949   1.998
  931SOL     OW 3691   1.041   3.129   1.742
  931SOL    HW1 3692   1.030   3.062   1.815
  931SOL    HW2 3693   1.087   3.086   1.664
  932SOL     OW 3694   4.706   5.790   1.385
  932SOL    HW1 3695   4.740   5.714   1.330
  932SOL    HW2 3696   4.606   5.789   1.386
  933SOL     OW 3697   0.975   6.584   3.243
  933SOL    HW1 3698   0.948   6.505   3.188
  933SOL    HW2 3699   0.974   6.559   3.340
  934SOL     OW 3700   3.185   1.310   5.558
  934SOL    HW1 3701   3.118   1.372   5.598
  934SOL    HW2 3702   3.141   1.223   5.535
  935SOL     OW 3703   1.539   4.373   4.577
  935SOL    HW1 3704   1.515   4.343   4.669
  935SOL    HW2 3705   1.638   4.371   4.566
  936SOL     OW 3706   1.498   1.610   1.776
  936SOL    HW1 3707   1.480   1.519   1.738
  936SOL    HW2 3708   1.452   1.679   1.721
  937SOL     OW 3709   5.268   2.077   3.310
  937SOL    HW1 3710   5.226   1.990   3.285
  937SOL    HW2 3711   5.263   2.091   3.409
  938SOL     OW 3712   0.744   1.261   6.693
  938SOL    HW1 3713   0.779   1.274   6.600
  938SOL    HW2 3714   0.736   1.163   6.712
  939SOL     OW 3715   6.199   0.989   5.311
  939SOL    HW1 3716   6.228   1.033   5.226
  939SOL    HW2 3717   6.102   0.967   5.307
  940SOL     OW 3718   0.057   0.517   4.215
  940SOL    HW1 3719   0.082   0.548   4.123
  940SOL    HW2 3720   0.037   0.419   4.213
  941SOL     OW 3721   5.961   2.544   5.295
  941SOL    HW1 3722   5.900   2.572   5.221
  941SOL    HW2 3723   5.909   2.530   5.379
  942SOL     OW 3724   4.667   0.115   4.930
  942SOL    HW1 3725   4.604   0.099   5.007
  942SOL    HW2 3726   4.686   0.213   4.923
  943SOL     OW 3727   5.149   2.194   0.413
  943SOL    HW1 3728   5.178   2.289   0.427
  943SOL    HW2 3729   5.121   2.154   0.501
  944SOL     OW 3730   5.028   4.134   4.254
  944SOL    HW1 3731   5.070   4.225   4.246
  944SOL    HW2 3732   5.037   4.086   4.167
  945SOL     OW 3733   5.572   3.669   6.553
  945SOL    HW1 3734   5.515   3.588   6.560
  945SOL    HW2 3735   5.621   3.669   6.466
  946SOL     OW 3736   5.607   3.778   6.806
  946SOL    HW1 3737   5.528   3.830   6.837
  946SOL    HW2 3738   5.582   3.725   6.725
  947SOL     OW 3739   0.856   2.494   5.448
  947SOL    HW1 3740   0.955   2.487   5.436
  947SOL    HW2 3741   0.813   2.408   5.421
  948SOL     OW 3742   3.978   1.332   0.954
  948SOL    HW1 3743   3.957   1.384   1.037
  948SOL    HW2 3744   3.902   1.340   0.890
  949SOL     OW 3745   5.336   6.460   6.384
  949SOL    HW1 3746   5.356   6.402   6.305
  949SOL    HW2 3747   5.406   6.446   6.454
  950SOL     OW 3748   3.440   5.464   0.611
  950SOL    HW1 3749   3.408   5.469   0.705
  950SOL    HW2 3750   3.383   5.399   0.560
  951SOL     OW 3751   1.174   3.035   3.491
  951SOL    HW1 3752   1.213   3.123   3.463
  951SOL    HW2 3753   1.231   2.995   3.562
  952SOL     OW 3754   5.028   1.424   1.221
  952SOL    HW1 3755   5.020   1.490   1.146
  952SOL    HW2 3756   4.965   1.348   1.205
  953SOL     OW 3757   4.040   6.667   6.014
  953SOL    HW1 3758   4.058   6.579   6.059
  953SOL    HW2 3759   4.034   6.653   5.915
  954SOL     OW 3760   6.351   0.668   1.086
  954SOL    HW1 3761   6.407   0.588   1.062
  954SOL    HW2 3762   6.367   0.740   1.019
  955SOL     OW 3763   0.972   5.945   2.537
  955SOL    HW1 3764   0.943   6.038   2.515
  955SOL    HW2 3765   0.926   5.915   2.621
  956SOL     OW 3766   1.635   2.551   0.651
  956SOL    HW1 3767   1.615   2.558   0.554
  956SOL    HW2 3768   1.550   2.532   0.702
  957SOL     OW 3769   1.988   6.594   5.110
  957SOL    HW1 3770   1.930   6.516   5.087
  957SOL    HW2 3771   2.005   6.595   5.209
  958SOL     OW 3772   4.638   2.713   6.965
  958SOL    HW1 3773   4.568   2.667   6.910
  958SOL    HW2 3774   4.728   2.678   6.940
  959SOL     OW 3775   1.444   3.543   1.122
  959SOL    HW1 3776   1.534   3.505   1.097
  959SOL    HW2 3777   1.448   3.643   1.119
  960SOL     OW 3778   1.838   5.012   5.616
  960SOL    HW1 3779   1.766   4.950   5.647
  960SOL    HW2 3780   1.871   5.066   5.693
  961SOL     OW 3781   3.563   6.942   6.678
  961SOL    HW1 3782   3.627   6.940   6.601
  961SOL    HW2 3783   3.487   6.880   6.659
  962SOL     OW 3784   1.305   7.001   3.368
  962SOL    HW1 3785   1.375   0.045   3.383
  962SOL    HW2 3786   1.324   6.951   3.283
  963SOL     OW 3787   5.574   0.012   1.598
  963SOL    HW1 3788   5.543   0.021   1.504
  963SOL    HW2 3789   5.520   0.072   1.657
  964SOL     OW 3790   5.974   3.648   1.598
  964SOL    HW1 3791   5.924   3.600   1.670
  964SOL    HW2 3792   5.920   3.726   1.566
  965SOL     OW 3793   1.780   1.406   0.350
  965SOL    HW1 3794   1.848   1.349   0.397
  965SOL    HW2 3795   1.692   1.396   0.395
  966SOL     OW 3796   6.245   2.623   2.615
  966SOL    HW1 3797   6.335   2.660   2.641
  966SOL    HW2 3798   6.244   2.525   2.632
  967SOL     OW 3799   1.250   5.661   1.985
  967SOL    HW1 3800   1.202   5.578   1.957
  967SOL    HW2 3801   1.233   5.678   2.081
  968SOL     OW 3802   6.935   4.250   0.626
  968SOL    HW1 3803   6.998   4.203   0.564
  968SOL    HW2 3804   6.939   4.348   0.610
  969SOL     OW 3805   4.012   6.502   6.269
  969SOL    HW1 3806   4.111   6.501   6.283
  969SOL    HW2 3807   3.966   6.508   6.357
  970SOL     OW 3808   5.152   3.119   5.736
  970SOL    HW1 3809   5.172   3.193   5.672
  970SOL    HW2 3810   5.231   3.105   5.796
  971SOL     OW 3811   0.226   2.946   6.808
  971SOL    HW1 3812   0.230   2.884   6.730
  971SOL    HW2 3813   0.305   3.008   6.804
  972SOL     OW 3814   4.930   6.521   0.747
  972SOL    HW1 3815   4.883   6.508   0.834
  972SOL    HW2 3816   4.875   6.580   0.688
  973SOL     OW 3817   5.973   3.506   6.414
  973SOL    HW1 3818   6.063   3.461   6.415
  973SOL    HW2 3819   5.910   3.455   6.472
  974SOL     OW 3820   2.003   0.379   4.509
  974SOL    HW1 3821   1.913   0.366   4.467
  974SOL    HW2 3822   2.039   0.291   4.538
  975SOL     OW 3823   2.860   0.105   4.991
  975SOL    HW1 3824   2.875   0.009   5.014
  975SOL    HW2 3825   2.790   0.143   5.051
  976SOL     OW 3826   0.282   4.552   3.540
  976SOL    HW1 3827   0.274   4.513   3.632
  976SOL    HW2 3828   0.198   4.532   3.488
  977SOL     OW 3829   0.835   2.100   2.429
  977SOL    HW1 3830   0.805   2.071   2.520
  977SOL    HW2 3831   0.768   2.071   2.361
  978SOL     OW 3832   5.500   3.125   4.852
  978SOL    HW1 3833   5.441   3.114   4.772
  978SOL    HW2 3834   5.571   3.193   4.832
  979SOL     OW 3835   5.874   1.575   3.104
  979SOL    HW1 3836   5.924   1.496   3.142
  979SOL    HW2 3837   5.940   1.641   3.067
  980SOL     OW 3838   0.219   0.240   5.475
  980SOL    HW1 3839   0.139   0.192   5.510
  980SOL    HW2 3840   0.302   0.203   5.518
  981SOL     OW 3841   6.312   2.939   6.064
  981SOL    HW1 3842   6.226   2.975   6.027
  981SOL    HW2 3843   6.360   3.011   6.113
  982SOL     OW 3844   1.004   4.333   0.959
  982SOL    HW1 3845   1.038   4.300   0.871
  982SOL    HW2 3846   0.909   4.362   0.949
  983SOL     OW 3847   5.413   1.533   3.728
  983SOL    HW1 3848   5.480   1.478   3.678
  983SOL    HW2 3849   5.327   1.536   3.678
  984SOL     OW 3850   4.972   2.684   5.338
  984SOL    HW1 3851   4.931   2.774   5.350
  984SOL    HW2 3852   4.948   2.647   5.248
  985SOL     OW 3853   1.679   4.634   0.515
  985SOL    HW1 3854   1.693   4.535   0.516
  985SOL    HW2 3855   1.605   4.657   0.451
  986SOL     OW 3856   4.723   4.073   6.273
  986SOL    HW1 3857   4.760   4.042   6.361
  986SOL    HW2 3858   4.656   4.146   6.289
  987SOL     OW 3859   4.107   6.966   2.729
  987SOL    HW1 3860   4.038   0.009   2.755
  987SOL    HW2 3861   4.068   6.903   2.662
  988SOL     OW 3862   3.472   2.863   1.472
  988SOL    HW1 3863   3.398   2.928   1.488
  988SOL    HW2 3864   3.438   2.786   1.419
  989SOL     OW 3865   0.555   0.663   4.933
  989SOL    HW1 3866   0.603   0.577   4.952
  989SOL    HW2 3867   0.495   0.651   4.854
  990SOL     OW 3868   5.402   6.318   1.899
  990SOL    HW1 3869   5.397   6.287   1.804
  990SOL    HW2 3870   5.397   6.239   1.960
  991SOL     OW 3871   5.795   1.858   5.269
  991SOL    HW1 3872   5.859   1.788   5.302
  991SOL    HW2 3873   5.817   1.946   5.311
  992SOL     OW 3874   6.812   3.014   1.304
  992SOL    HW1 3875   6.782   2.939   1.363
  992SOL    HW2 3876   6.896   3.054   1.340
  993SOL     OW 3877   3.710   6.627   5.017
  993SOL    HW1 3878   3.628   6.573   5.035
  993SOL    HW2 3879   3.778   6.610   5.089
  994SOL     OW 3880   3.033   3.261   2.646
  994SOL    HW1 3881   2.969   3.307   2.708
  994SOL    HW2 3882   3.055   3.170   2.683
  995SOL     OW 3883   0.452   1.355   4.552
  995SOL    HW1 3884   0.541   1.333   4.512
  995SOL    HW2 3885   0.462   1.429   4.619
  996SOL     OW 3886   0.758   3.538   0.185
  996SOL    HW1 3887   0.849   3.533   0.227
  996SOL    HW2 3888   0.743   3.457   0.128
  997SOL     OW 3889   0.124   2.018   0.782
  997SOL    HW1 3890   0.098   2.112   0.802
  997SOL    HW2 3891   0.156   1.973   0.865
  998SOL     OW 3892   5.453   0.017   3.324
  998SOL    HW1 3893   5.429   6.964   3.266
  998SOL    HW2 3894   5.430   0.102   3.276
  999SOL     OW 3895   5.991   5.516   1.470
  999SOL    HW1 3896   5.972   5.419   1.456
  999SOL    HW2 3897   5.995   5.563   1.382
 1000SOL     OW 3898   4.641   1.993   4.754
 1000SOL    HW1 3899   4.675   2.013   4.846
 1000SOL    HW2 3900   4.628   2.079   4.704
 1001SOL     OW 3901   4.767   1.145   5.468
 1001SOL    HW1 3902   4.754   1.069   5.405
 1001SOL    HW2 3903   4.686   1.154   5.526
 1002SOL     OW 3904   0.477   1.631   0.549
 1002SOL    HW1 3905   0.411   1.575   0.500
 1002SOL    HW2 3906   0.443   1.652   0.641
 1003SOL     OW 3907   4.375   5.149   2.913
 1003SOL    HW1 3908   4.422   5.195   2.837
 1003SOL    HW2 3909   4.327   5.069   2.878
 1004SOL     OW 3910   5.900   5.776   0.260
 1004SOL    HW1 3911   5.915   5.865   0.217
 1004SOL    HW2 3912   5.922   5.781   0.357
 1005SOL     OW 3913   6.670   5.724   3.473
 1005SOL    HW1 3914   6.709   5.805   3.516
 1005SOL    HW2 3915   6.606   5.680   3.536
 1006SOL     OW 3916   2.230   4.513   6.913
 1006SOL    HW1 3917   2.326   4.486   6.901
 1006SOL    HW2 3918   2.171   4.447   6.867
 1007SOL     OW 3919   0.881   0.946   3.134
 1007SOL    HW1 3920   0.955   0.911   3.077
 1007SOL    HW2 3921   0.886   1.046   3.137
 1008SOL     OW 3922   2.868   2.366   5.222
 1008SOL    HW1 3923   2.968   2.367   5.216
 1008SOL    HW2 3924   2.836   2.458   5.248
 1009SOL     OW 3925   2.895   6.070   5.899
 1009SOL    HW1 3926   2.864   5.980   5.928
 1009SOL    HW2 3927   2.987   6.087   5.936
 1010SOL     OW 3928   5.310   0.096   5.313
 1010SOL    HW1 3929   5.213   0.072   5.305
 1010SOL    HW2 3930   5.366   0.025   5.271
 1011SOL     OW 3931   3.117   5.655   3.974
 1011SOL    HW1 3932   3.200   5.637   3.922
 1011SOL    HW2 3933   3.140   5.704   4.058
 1012SOL     OW 3934   3.486   5.697   0.534
 1012SOL    HW1 3935   3.463   5.759   0.609
 1012SOL    HW2 3936   3.466   5.603   0.561
 1013SOL     OW 3937   0.538   0.687   0.178
 1013SOL    HW1 3938   0.631   0.709   0.208
 1013SOL    HW2 3939   0.540   0.604   0.123
 1014SOL     OW 3940   5.878   6.717   5.899
 1014SOL    HW1 3941   5.782   6.715   5.927
 1014SOL    HW2 3942   5.902   6.631   5.854
 1015SOL     OW 3943   3.075   0.423   4.757
 1015SOL    HW1 3944   3.062   0.521   4.742
 1015SOL    HW2 3945   3.098   0.379   4.670
 1016SOL     OW 3946   4.617   2.477   1.758
 1016SOL    HW1 3947   4.618   2.537   1.838
 1016SOL    HW2 3948   4.524   2.444   1.742
 1017SOL     OW 3949   5.058   0.592   6.268
 1017SOL    HW1 3950   5.148   0.624   6.238
 1017SOL    HW2 3951   4.987   0.636   6.214
 1018SOL     OW 3952   1.410   2.699   1.473
 1018SOL    HW1 3953   1.491   2.663   1.426
 1018SOL    HW2 3954   1.429   2.792   1.505
 1019SOL     OW 3955   6.381   1.746   0.789
 1019SOL    HW1 3956   6.391   1.706   0.699
 1019SOL    HW2 3957   6.457   1.718   0.848
 1020SOL     OW 3958   3.605   2.163   1.686
 1020SOL    HW1 3959   3.635   2.239   1.744
 1020SOL    HW2 3960   3.537   2.109   1.736
 1021SOL     OW 3961   6.435   1.390   1.240
 1021SOL    HW1 3962   6.520   1.393   1.187
 1021SOL    HW2 3963   6.415   1.481   1.277
 1022SOL     OW 3964   3.095   2.836   6.965
 1022SOL    HW1 3965   3.095   2.782   6.881
 1022SOL    HW2 3966   3.111   2.777   0.019
 1023SOL     OW 3967   6.624   0.823   4.510
 1023SOL    HW1 3968   6.611   0.728   4.480
 1023SOL    HW2 3969   6.610   0.829   4.609
 1024SOL     OW 3970   6.672   2.126   4.323
 1024SOL    HW1 3971   6.584   2.080   4.307
 1024SOL    HW2 3972   6.746   2.068   4.289
 1025SOL     OW 3973   2.970   4.709   1.433
 1025SOL    HW1 3974   2.991   4.669   1.522
 1025SOL    HW2 3975   2.923   4.796   1.446
 1026SOL     OW 3976   0.715   2.645   6.107
 1026SOL    HW1 3977   0.679   2.645   6.014
 1026SOL    HW2 3978   0.672   2.719   6.159
 1027SOL     OW 3979   1.957   5.028   0.928
 1027SOL    HW1 3980   1.998   5.084   1.000
 1027SOL    HW2 3981   1.956   4.933   0.957
 1028SOL     OW 3982   0.088   5.134   0.256
 1028SOL    HW1 3983   0.089   5.065   0.328
 1028SOL    HW2 3984   0.042   5.217   0.291
 1029SOL     OW 3985   3.800   0.633   5.184
 1029SOL    HW1 3986   3.897   0.636   5.159
 1029SOL    HW2 3987   3.757   0.553   5.143
 1030SOL     OW 3988   4.119   4.830   5.285
 1030SOL    HW1 3989   4.065   4.813   5.202
 1030SOL    HW2 3990   4.125   4.746   5.339
 1031SOL     OW 3991   2.588   5.732   0.756
 1031SOL    HW1 3992   2.560   5.653   0.702
 1031SOL    HW2 3993   2.515   5.800   0.757
 1032SOL     OW 3994   1.133   1.372   4.773
 1032SOL    HW1 3995   1.229   1.355   4.797
 1032SOL    HW2 3996   1.078   1.292   4.797
 1033SOL     OW 3997   2.368   6.617   2.440
 1033SOL    HW1 3998   2.377   6.680   2.364
 1033SOL    HW2 3999   2.446   6.627   2.502
 1034SOL     OW 4000   0.831   0.349   1.502
 1034SOL    HW1 4001   0.921   0.312   1.481
 1034SOL    HW2 4002   0.787   0.292   1.572
 1035SOL     OW 4003   3.509   1.643   2.799
 1035SOL    HW1 4004   3.561   1.612   2.879
 1035SOL    HW2 4005   3.572   1.661   2.723
 1036SOL     OW 4006   4.717   6.841   0.084
 1036SOL    HW1 4007   4.624   6.807   0.101
 1036SOL    HW2 4008   4.768   6.772   0.033
 1037SOL     OW 4009   3.339   1.952   6.189
 1037SOL    HW1 4010   3.333   1.909   6.098
 1037SOL    HW2 4011   3.370   2.046   6.179
 1038SOL     OW 4012   2.494   1.821   5.330
 1038SOL    HW1 4013   2.538   1.891   5.275
 1038SOL    HW2 4014   2.513   1.838   5.427
 1039SOL     OW 4015   4.326   1.849   3.688
 1039SOL    HW1 4016   4.339   1.948   3.695
 1039SOL    HW2 4017   4.265   1.818   3.760
 1040SOL     OW 4018   6.266   3.706   4.412
 1040SOL    HW1 4019   6.340   3.652   4.453
 1040SOL    HW2 4020   6.238   3.665   4.326
 1041SOL     OW 4021   1.659   6.851   4.011
 1041SOL    HW1 4022   1.645   6.811   3.920
 1041SOL    HW2 4023   1.681   6.779   4.076
 1042SOL     OW 4024   4.594   3.758   0.803
 1042SOL    HW1 4025   4.615   3.844   0.755
 1042SOL    HW2 4026   4.608   3.771   0.901
 1043SOL     OW 4027   3.757   0.635   6.881
 1043SOL    HW1 4028   3.818   0.706   6.916
 1043SOL    HW2 4029   3.749   0.644   6.782
 1044SOL     OW 4030   4.146   3.539   2.866
 1044SOL    HW1 4031   4.235   3.499   2.890
 1044SOL    HW2 4032   4.142   3.554   2.768
 1045SOL     OW 4033   4.452   0.698   3.181
 1045SOL    HW1 4034   4.494   0.786   3.157
 1045SOL    HW2 4035   4.375   0.713   3.244
 1046SOL     OW 4036   3.749   0.689   2.281
 1046SOL    HW1 4037   3.807   0.754   2.329
 1046SOL    HW2 4038   3.706   0.627   2.348
 1047SOL     OW 4039   0.632   5.898   1.823
 1047SOL    HW1 4040   0.605   5.980   1.874
 1047SOL    HW2 4041   0.716   5.917   1.772
 1048SOL     OW 4042   6.467   3.984   5.359
 1048SOL    HW1 4043   6.540   3.917   5.351
 1048SOL    HW2 4044   6.392   3.959   5.298
 1049SOL     OW 4045   0.405   2.932   5.712
 1049SOL    HW1 4046   0.338   2.859   5.703
 1049SOL    HW2 4047   0.424   2.972   5.623
 1050SOL     OW 4048   2.829   0.882   0.559
 1050SOL    HW1 4049   2.787   0.962   0.602
 1050SOL    HW2 4050   2.779   0.859   0.475
 1051SOL     OW 4051   4.954   4.529   2.011
 1051SOL    HW1 4052   4.866   4.512   1.966
 1051SOL    HW2 4053   4.986   4.621   1.988
 1052SOL     OW 4054   3.748   0.248   3.899
 1052SOL    HW1 4055   3.772   0.254   3.996
 1052SOL    HW2 4056   3.771   0.334   3.854
 1053SOL     OW 4057   3.167   4.915   3.667
 1053SOL    HW1 4058   3.217   4.865   3.738
 1053SOL    HW2 4059   3.226   4.986   3.629
 1054SOL     OW 4060   4.353   5.881   5.171
 1054SOL    HW1 4061   4.314   5.944   5.239
 1054SOL    HW2 4062   4.287   5.809   5.150
 1055SOL     OW 4063   3.620   4.986   4.476
 1055SOL    HW1 4064   3.614   4.991   4.575
 1055SOL    HW2 4065   3.533   4.952   4.439
 1056SOL     OW 4066   2.442   5.936   6.439
 1056SOL    HW1 4067   2.469   5.978   6.525
 1056SOL    HW2 4068   2.452   5.836   6.446
 1057SOL     OW 4069   3.810   4.073   1.101
 1057SOL    HW1 4070   3.906   4.057   1.125
 1057SOL    HW2 4071   3.805   4.125   1.016
 1058SOL     OW 4072   2.697   6.522   2.174
 1058SOL    HW1 4073   2.766   6.506   2.103
 1058SOL    HW2 4074   2.629   6.449   2.172
 1059SOL     OW 4075   3.379   0.791   0.352
 1059SOL    HW1 4076   3.330   0.851   0.289
 1059SOL    HW2 4077   3.478   0.800   0.337
 1060SOL     OW 4078   2.925   1.127   4.169
 1060SOL    HW1 4079   2.959   1.070   4.095
 1060SOL    HW2 4080   2.947   1.223   4.150
 1061SOL     OW 4081   2.554   5.679   1.378
 1061SOL    HW1 4082   2.487   5.692   1.304
 1061SOL    HW2 4083   2.516   5.618   1.447
 1062SOL     OW 4084   4.963   4.479   4.354
 1062SOL    HW1 4085   5.061   4.496   4.359
 1062SOL    HW2 4086   4.939   4.407   4.420
 1063SOL     OW 4087   2.709   2.287   5.745
 1063SOL    HW1 4088   2.760   2.252   5.667
 1063SOL    HW2 4089   2.728   2.385   5.756
 1064SOL     OW 4090   0.506   2.936   1.711
 1064SOL    HW1 4091   0.478   3.029   1.685
 1064SOL    HW2 4092   0.441   2.870   1.674
 1065SOL     OW 4093   4.572   5.234   5.736
 1065SOL    HW1 4094   4.583   5.136   5.747
 1065SOL    HW2 4095   4.512   5.270   5.807
 1066SOL     OW 4096   4.878   6.903   3.793
 1066SOL    HW1 4097   4.816   6.944   3.860
 1066SOL    HW2 4098   4.849   6.809   3.775
 1067SOL     OW 4099   2.710   3.697   0.816
 1067SOL    HW1 4100   2.653   3.617   0.798
 1067SOL    HW2 4101   2.715   3.754   0.734
 1068SOL     OW 4102   0.446   4.720   0.989
 1068SOL    HW1 4103   0.427   4.685   1.081
 1068SOL    HW2 4104   0.498   4.806   0.996
 1069SOL     OW 4105   3.839   2.971   2.563
 1069SOL    HW1 4106   3.925   3.018   2.544
 1069SOL    HW2 4107   3.772   2.994   2.492
 1070SOL     OW 4108   2.373   0.004   0.559
 1070SOL    HW1 4109   2.407   7.009   0.467
 1070SOL    HW2 4110   2.278   6.999   0.566
 1071SOL     OW 4111   5.195   5.407   3.829
 1071SOL    HW1 4112   5.191   5.368   3.921
 1071SOL    HW2 4113   5.117   5.468   3.816
 1072SOL     OW 4114   3.892   5.344   3.255
 1072SOL    HW1 4115   3.808   5.365   3.205
 1072SOL    HW2 4116   3.971   5.381   3.206
 1073SOL     OW 4117   2.988   5.548   3.311
 1073SOL    HW1 4118   3.066   5.490   3.291
 1073SOL    HW2 4119   2.917   5.495   3.358
 1074SOL     OW 4120   1.891   5.343   2.961
 1074SOL    HW1 4121   1.928   5.436   2.963
 1074SOL    HW2 4122   1.962   5.279   2.933
 1075SOL     OW 4123   0.802   4.220   2.779
 1075SOL    HW1 4124   0.759   4.204   2.868
 1075SOL    HW2 4125   0.873   4.289   2.788
 1076SOL     OW 4126   6.511   4.434   3.049
 1076SOL    HW1 4127   6.523   4.341   3.015
 1076SOL    HW2 4128   6.428   4.474   3.010
 1077SOL     OW 4129   4.539   6.970   1.727
 1077SOL    HW1 4130   4.622   6.916   1.743
 1077SOL    HW2 4131   4.493   6.937   1.645
 1078SOL     OW 4132   0.247   3.001   1.959
 1078SOL    HW1 4133   0.168   2.945   1.935
 1078SOL    HW2 4134   0.236   3.093   1.920
 1079SOL     OW 4135   1.725   5.066   3.465
 1079SOL    HW1 4136   1.734   5.026   3.374
 1079SOL    HW2 4137   1.631   5.099   3.478
 1080SOL     OW 4138   1.772   5.357   3.962
 1080SOL    HW1 4139   1.826   5.385   4.041
 1080SOL    HW2 4140   1.832   5.319   3.892
 1081SOL     OW 4141   1.285   0.616   0.128
 1081SOL    HW1 4142   1.236   0.542   0.176
 1081SOL    HW2 4143   1.377   0.626   0.167
 1082SOL     OW 4144   2.177   0.413   1.185
 1082SOL    HW1 4145   2.174   0.429   1.087
 1082SOL    HW2 4146   2.215   0.494   1.231
 1083SOL     OW 4147   3.675   2.544   1.726
 1083SOL    HW1 4148   3.681   2.628   1.780
 1083SOL    HW2 4149   3.703   2.466   1.783
 1084SOL     OW 4150   0.073   3.670   0.643
 1084SOL    HW1 4151   0.050   3.587   0.694
 1084SOL    HW2 4152   0.001   3.688   0.576
 1085SOL     OW 4153   1.758   5.666   3.891
 1085SOL    HW1 4154   1.689   5.682   3.961
 1085SOL    HW2 4155   1.788   5.571   3.894
 1086SOL     OW 4156   2.746   5.672   2.436
 1086SOL    HW1 4157   2.808   5.593   2.441
 1086SOL    HW2 4158   2.662   5.646   2.389
 1087SOL     OW 4159   3.828   3.044   4.881
 1087SOL    HW1 4160   3.763   2.969   4.875
 1087SOL    HW2 4161   3.897   3.034   4.809
 1088SOL     OW 4162   0.078   4.588   2.516
 1088SOL    HW1 4163   0.080   4.682   2.481
 1088SOL    HW2 4164   0.002   4.578   2.580
 1089SOL     OW 4165   6.866   0.103   3.271
 1089SOL    HW1 4166   6.819   0.025   3.229
 1089SOL    HW2 4167   6.801   0.155   3.326
 1090SOL     OW 4168   1.621   2.499   6.640
 1090SOL    HW1 4169   1.631   2.427   6.571
 1090SOL    HW2 4170   1.579   2.461   6.722
 1091SOL     OW 4171   1.138   2.391   5.777
 1091SOL    HW1 4172   1.150   2.473   5.721
 1091SOL    HW2 4173   1.106   2.315   5.720
 1092SOL     OW 4174   2.010   4.765   1.345
 1092SOL    HW1 4175   1.981   4.669   1.355
 1092SOL    HW2 4176   1.960   4.806   1.269
 1093SOL     OW 4177   6.901   2.930   1.703
 1093SOL    HW1 4178   6.803   2.924   1.723
 1093SOL    HW2 4179   6.931   3.025   1.712
 1094SOL     OW 4180   0.962   6.791   2.490
 1094SOL    HW1 4181   0.879   6.834   2.457
 1094SOL    HW2 4182   0.961   6.694   2.466
 1095SOL     OW 4183   0.679   3.638   6.246
 1095SOL    HW1 4184   0.615   3.639   6.169
 1095SOL    HW2 4185   0.768   3.674   6.215
 1096SOL     OW 4186   3.745   3.115   1.712
 1096SOL    HW1 4187   3.666   3.175   1.712
 1096SOL    HW2 4188   3.829   3.169   1.721
 1097SOL     OW 4189   2.894   4.616   5.941
 1097SOL    HW1 4190   2.849   4.568   5.866
 1097SOL    HW2 4191   2.860   4.710   5.945
 1098SOL     OW 4192   3.894   0.373   2.660
 1098SOL    HW1 4193   3.868   0.464   2.627
 1098SOL    HW2 4194   3.825   0.338   2.722
 1099SOL     OW 4195   3.527   0.152   2.514
 1099SOL    HW1 4196   3.532   0.094   2.432
 1099SOL    HW2 4197   3.577   0.108   2.588
 1100SOL     OW 4198   6.465   1.328   6.963
 1100SOL    HW1 4199   6.527   1.404   6.943
 1100SOL    HW2 4200   6.498   1.278   0.018
 1101SOL     OW 4201   5.396   2.822   1.191
 1101SOL    HW1 4202   5.333   2.899   1.191
 1101SOL    HW2 4203   5.452   2.824   1.108
 1102SOL     OW 4204   0.168   3.585   3.775
 1102SOL    HW1 4205   0.166   3.524   3.854
 1102SOL    HW2 4206   0.115   3.545   3.701
 1103SOL     OW 4207   6.920   3.221   6.826
 1103SOL    HW1 4208   6.956   3.290   6.890
 1103SOL    HW2 4209   6.968   3.134   6.841
 1104SOL     OW 4210   2.521   5.670   5.637
 1104SOL    HW1 4211   2.460   5.619   5.699
 1104SOL    HW2 4212   2.551   5.609   5.564
 1105SOL     OW 4213   3.944   5.015   0.875
 1105SOL    HW1 4214   3.903   5.086   0.932
 1105SOL    HW2 4215   3.884   4.996   0.797
 1106SOL     OW 4216   1.492   1.447   6.841
 1106SOL    HW1 4217   1.538   1.408   6.921
 1106SOL    HW2 4218   1.399   1.412   6.836
 1107SOL     OW 4219   6.849   0.512   1.433
 1107SOL    HW1 4220   6.773   0.464   1.474
 1107SOL    HW2 4221   6.817   0.566   1.355
 1108SOL     OW 4222   1.782   1.178   6.929
 1108SOL    HW1 4223   1.703   1.217   6.976
 1108SOL    HW2 4224   1.863   1.187   6.987
 1109SOL     OW 4225   4.728   0.742   4.054
 1109SOL    HW1 4226   4.703   0.687   4.134
 1109SOL    HW2 4227   4.740   0.837   4.081
 1110SOL     OW 4228   3.525   2.901   2.892
 1110SOL    HW1 4229   3.509   2.886   2.794
 1110SOL    HW2 4230   3.444   2.942   2.933
 1111SOL     OW 4231   4.589   6.733   0.424
 1111SOL    HW1 4232   4.625   6.826   0.412
 1111SOL    HW2 4233   4.497   6.728   0.388
 1112SOL     OW 4234   1.125   1.378   2.566
 1112SOL    HW1 4235   1.085   1.297   2.523
 1112SOL    HW2 4236   1.068   1.458   2.546
 1113SOL     OW 4237   6.429   3.466   1.525
 1113SOL    HW1 4238   6.413   3.565   1.522
 1113SOL    HW2 4239   6.469   3.442   1.613
 1114SOL     OW 4240   5.905   1.212   5.369
 1114SOL    HW1 4241   5.920   1.115   5.350
 1114SOL    HW2 4242   5.991   1.253   5.401
 1115SOL     OW 4243   2.248   4.687   0.636
 1115SOL    HW1 4244   2.208   4.779   0.636
 1115SOL    HW2 4245   2.276   4.663   0.543
 1116SOL     OW 4246   3.645   6.448   6.620
 1116SOL    HW1 4247   3.612   6.391   6.545
 1116SOL    HW2 4248   3.709   6.516   6.586
 1117SOL     OW 4249   2.215   3.242   0.967
 1117SOL    HW1 4250   2.158   3.306   0.917
 1117SOL    HW2 4251   2.222   3.270   1.063
 1118SOL     OW 4252   1.909   3.295   1.624
 1118SOL    HW1 4253   1.888   3.387   1.592
 1118SOL    HW2 4254   1.953   3.300   1.714
 1119SOL     OW 4255   2.930   3.657   2.891
 1119SOL    HW1 4256   2.928   3.586   2.961
 1119SOL    HW2 4257   2.988   3.732   2.920
 1120SOL     OW 4258   4.351   0.943   3.870
 1120SOL    HW1 4259   4.431   0.990   3.832
 1120SOL    HW2 4260   4.374   0.848   3.891
 1121SOL     OW 4261   5.598   3.442   3.158
 1121SOL    HW1 4262   5.578   3.447   3.061
 1121SOL    HW2 4263   5.580   3.349   3.192
 1122SOL     OW 4264   4.685   5.305   6.307
 1122SOL    HW1 4265   4.780   5.324   6.282
 1122SOL    HW2 4266   4.654   5.371   6.375
 1123SOL     OW 4267   3.966   1.191   1.936
 1123SOL    HW1 4268   3.998   1.233   2.021
 1123SOL    HW2 4269   3.955   1.262   1.866
 1124SOL     OW 4270   1.579   5.204   4.319
 1124SOL    HW1 4271   1.650   5.266   4.353
 1124SOL    HW2 4272   1.606   5.169   4.229
 1125SOL     OW 4273   2.962   3.397   4.832
 1125SOL    HW1 4274   2.938   3.493   4.843
 1125SOL    HW2 4275   2.931   3.365   4.742
 1126SOL     OW 4276   6.569   0.497   2.222
 1126SOL    HW1 4277   6.586   0.414   2.169
 1126SOL    HW2 4278   6.614   0.574   2.176
 1127SOL     OW 4279   2.281   6.012   6.013
 1127SOL    HW1 4280   2.373   5.973   6.017
 1127SOL    HW2 4281   2.242   6.012   6.105
 1128SOL     OW 4282   2.413   2.496   4.351
 1128SOL    HW1 4283   2.405   2.450   4.440
 1128SOL    HW2 4284   2.445   2.431   4.283
 1129SOL     OW 4285   4.539   6.422   6.208
 1129SOL    HW1 4286   4.611   6.392   6.271
 1129SOL    HW2 4287   4.499   6.342   6.164
 1130SOL     OW 4288   0.201   5.473   5.878
 1130SOL    HW1 4289   0.234   5.519   5.796
 1130SOL    HW2 4290   0.262   5.397   5.901
 1131SOL     OW 4291   0.350   5.215   5.648
 1131SOL    HW1 4292   0.365   5.297   5.703
 1131SOL    HW2 4293   0.421   5.208   5.578
 1132SOL     OW 4294   5.492   6.146   4.680
 1132SOL    HW1 4295   5.414   6.206   4.662
 1132SOL    HW2 4296   5.543   6.180   4.759
 1133SOL     OW 4297   6.825   2.679   6.705
 1133SOL    HW1 4298   6.805   2.618   6.783
 1133SOL    HW2 4299   6.748   2.741   6.692
 1134SOL     OW 4300   6.978   2.297   5.899
 1134SOL    HW1 4301   7.022   2.386   5.887
 1134SOL    HW2 4302   6.996   2.263   5.991
 1135SOL     OW 4303   6.723   1.352   4.647
 1135SOL    HW1 4304   6.682   1.437   4.614
 1135SOL    HW2 4305   6.776   1.309   4.573
 1136SOL     OW 4306   3.495   5.299   4.318
 1136SOL    HW1 4307   3.430   5.371   4.294
 1136SOL    HW2 4308   3.446   5.215   4.337
 1137SOL     OW 4309   1.458   1.169   6.422
 1137SOL    HW1 4310   1.500   1.248   6.468
 1137SOL    HW2 4311   1.527   1.099   6.405
 1138SOL     OW 4312   1.097   3.861   5.829
 1138SOL    HW1 4313   1.118   3.767   5.854
 1138SOL    HW2 4314   1.028   3.862   5.757
 1139SOL     OW 4315   1.052   0.468   2.786
 1139SOL    HW1 4316   1.010   0.426   2.867
 1139SOL    HW2 4317   1.063   0.398   2.715
 1140SOL     OW 4318   3.453   2.056   3.297
 1140SOL    HW1 4319   3.458   2.055   3.197
 1140SOL    HW2 4320   3.538   2.094   3.335
 1141SOL     OW 4321   6.708   5.765   5.953
 1141SOL    HW1 4322   6.679   5.695   6.017
 1141SOL    HW2 4323   6.789   5.734   5.903
 1142SOL     OW 4324   7.016   0.650   4.725
 1142SOL    HW1 4325   6.979   0.578   4.667
 1142SOL    HW2 4326   0.032   0.610   4.807
 1143SOL     OW 4327   4.570   1.937   1.450
 1143SOL    HW1 4328   4.481   1.928   1.494
 1143SOL    HW2 4329   4.568   2.013   1.385
 1144SOL     OW 4330   0.854   6.131   5.002
 1144SOL    HW1 4331   0.905   6.213   4.977
 1144SOL    HW2 4332   0.916   6.062   5.039
 1145SOL     OW 4333   1.908   4.885   5.143
 1145SOL    HW1 4334   1.851   4.832   5.079
 1145SOL    HW2 4335   1.854   4.961   5.178
 1146SOL     OW 4336   5.997   1.737   1.318
 1146SOL    HW1 4337   6.029   1.643   1.305
 1146SOL    HW2 4338   5.996   1.783   1.229
 1147SOL     OW 4339   6.487   3.145   2.268
 1147SOL    HW1 4340   6.515   3.200   2.347
 1147SOL    HW2 4341   6.496   3.199   2.185
 1148SOL     OW 4342   5.553   0.746   6.432
 1148SOL    HW1 4343   5.595   0.798   6.357
 1148SOL    HW2 4344   5.539   0.652   6.402
 1149SOL     OW 4345   5.567   2.768   3.002
 1149SOL    HW1 4346   5.557   2.687   2.945
 1149SOL    HW2 4347   5.657   2.809   2.986
 1150SOL     OW 4348   1.503   5.453   5.577
 1150SOL    HW1 4349   1.574   5.432   5.510
 1150SOL    HW2 4350   1.446   5.528   5.543
 1151SOL     OW 4351   2.604   5.262   0.448
 1151SOL    HW1 4352   2.628   5.217   0.362
 1151SOL    HW2 4353   2.504   5.259   0.460
 1152SOL     OW 4354   0.805   0.886   3.653
 1152SOL    HW1 4355   0.861   0.879   3.571
 1152SOL    HW2 4356   0.737   0.958   3.641
 1153SOL     OW 4357   2.353   4.431   2.735
 1153SOL    HW1 4358   2.430   4.495   2.737
 1153SOL    HW2 4359   2.377   4.350   2.789
 1154SOL     OW 4360   1.474   4.115   2.356
 1154SOL    HW1 4361   1.438   4.103   2.264
 1154SOL    HW2 4362   1.530   4.037   2.381
 1155SOL     OW 4363   4.083   0.135   2.199
 1155SOL    HW1 4364   4.090   0.042   2.233
 1155SOL    HW2 4365   4.168   0.161   2.153
 1156SOL     OW 4366   1.845   1.135   4.035
 1156SOL    HW1 4367   1.755   1.174   4.053
 1156SOL    HW2 4368   1.890   1.187   3.962
 1157SOL     OW 4369   1.852   2.929   4.035
 1157SOL    HW1 4370   1.889   2.990   4.105
 1157SOL    HW2 4371   1.778   2.976   3.986
 1158SOL     OW 4372   4.341   6.106   6.101
 1158SOL    HW1 4373   4.358   6.126   6.198
 1158SOL    HW2 4374   4.407   6.156   6.045
 1159SOL     OW 4375   6.082   4.602   2.530
 1159SOL    HW1 4376   6.130   4.646   2.455
 1159SOL    HW2 4377   5.994   4.647   2.545
 1160SOL     OW 4378   2.551   3.157   1.293
 1160SOL    HW1 4379   2.638   3.205   1.305
 1160SOL    HW2 4380   2.539   3.132   1.197
 1161SOL     OW 4381   4.298   0.680   3.946
 1161SOL    HW1 4382   4.299   0.581   3.932
 1161SOL    HW2 4383   4.209   0.707   3.985
 1162SOL     OW 4384   3.638   5.276   1.437
 1162SOL    HW1 4385   3.559   5.219   1.416
 1162SOL    HW2 4386   3.651   5.281   1.536
 1163SOL     OW 4387   5.206   0.135   2.128
 1163SOL    HW1 4388   5.252   0.190   2.197
 1163SOL    HW2 4389   5.239   0.040   2.133
 1164SOL     OW 4390   6.416   3.812   4.948
 1164SOL    HW1 4391   6.482   3.753   4.901
 1164SOL    HW2 4392   6.347   3.843   4.883
 1165SOL     OW 4393   1.117   4.846   2.163
 1165SOL    HW1 4394   1.072   4.758   2.177
 1165SOL    HW2 4395   1.204   4.833   2.117
 1166SOL     OW 4396   3.394   1.632   6.769
 1166SOL    HW1 4397   3.464   1.666   6.706
 1166SOL    HW2 4398   3.306   1.674   6.748
 1167SOL     OW 4399   4.126   1.800   5.599
 1167SOL    HW1 4400   4.072   1.726   5.558
 1167SOL    HW2 4401   4.147   1.869   5.529
 1168SOL     OW 4402   5.870   0.493   3.385
 1168SOL    HW1 4403   5.963   0.513   3.416
 1168SOL    HW2 4404   5.823   0.436   3.453
 1169SOL     OW 4405   1.044   2.845   1.189
 1169SOL    HW1 4406   0.980   2.896   1.246
 1169SOL    HW2 4407   0.994   2.776   1.136
 1170SOL     OW 4408   2.624   0.867   1.137
 1170SOL    HW1 4409   2.665   0.827   1.054
 1170SOL    HW2 4410   2.524   0.864   1.129
 1171SOL     OW 4411   3.264   1.065   0.228
 1171SOL    HW1 4412   3.185   1.054   0.289
 1171SOL    HW2 4413   3.249   1.144   0.169
 1172SOL     OW 4414   3.179   3.714   5.131
 1172SOL    HW1 4415   3.164   3.797   5.186
 1172SOL    HW2 4416   3.223   3.740   5.045
 1173SOL     OW 4417   5.454   6.893   5.927
 1173SOL    HW1 4418   5.468   6.960   5.854
 1173SOL    HW2 4419   5.358   6.865   5.929
 1174SOL     OW 4420   3.921   5.801   6.585
 1174SOL    HW1 4421   3.843   5.857   6.555
 1174SOL    HW2 4422   3.964   5.759   6.506
 1175SOL     OW 4423   0.105   4.976   4.479
 1175SOL    HW1 4424   0.095   4.909   4.552
 1175SOL    HW2 4425   0.202   5.002   4.471
 1176SOL     OW 4426   6.110   2.604   1.134
 1176SOL    HW1 4427   6.098   2.540   1.209
 1176SOL    HW2 4428   6.023   2.650   1.114
 1177SOL     OW 4429   6.390   3.353   0.002
 1177SOL    HW1 4430   6.389   3.302   0.088
 1177SOL    HW2 4431   6.306   3.407   7.020
 1178SOL     OW 4432   5.424   4.502   2.712
 1178SOL    HW1 4433   5.469   4.459   2.791
 1178SOL    HW2 4434   5.439   4.446   2.631
 1179SOL     OW 4435   1.579   5.477   6.157
 1179SOL    HW1 4436   1.549   5.559   6.206
 1179SOL    HW2 4437   1.663   5.442   6.199
 1180SOL     OW 4438   2.074   0.528   3.916
 1180SOL    HW1 4439   2.051   0.553   4.010
 1180SOL    HW2 4440   1.993   0.539   3.858
 1181SOL     OW 4441   1.554   4.782   2.281
 1181SOL    HW1 4442   1.506   4.839   2.347
 1181SOL    HW2 4443   1.487   4.736   2.222
 1182SOL     OW 4444   1.732   3.984   4.033
 1182SOL    HW1 4445   1.762   4.058   4.093
 1182SOL    HW2 4446   1.810   3.947   3.984
 1183SOL     OW 4447   4.041   5.604   1.019
 1183SOL    HW1 4448   4.073   5.697   1.000
 1183SOL    HW2 4449   4.110   5.539   0.989
 1184SOL     OW 4450   3.415   2.716   6.598
 1184SOL    HW1 4451   3.466   2.754   6.522
 1184SOL    HW2 4452   3.419   2.616   6.595
 1185SOL     OW 4453   2.701   0.973   6.518
 1185SOL    HW1 4454   2.644   0.913   6.575
 1185SOL    HW2 4455   2.797   0.960   6.543
 1186SOL     OW 4456   3.822   1.254   5.108
 1186SOL    HW1 4457   3.847   1.190   5.181
 1186SOL    HW2 4458   3.772   1.205   5.037
 1187SOL     OW 4459   1.226   1.747   4.810
 1187SOL    HW1 4460   1.142   1.710   4.851
 1187SOL    HW2 4461   1.305   1.699   4.846
 1188SOL     OW 4462   1.806   0.495   5.572
 1188SOL    HW1 4463   1.845   0.584   5.550
 1188SOL    HW2 4464   1.838   0.466   5.662
 1189SOL     OW 4465   0.241   0.586   1.547
 1189SOL    HW1 4466   0.273   0.531   1.470
 1189SOL    HW2 4467   0.318   0.604   1.609
 1190SOL     OW 4468   4.051   5.414   2.020
 1190SOL    HW1 4469   4.094   5.368   1.942
 1190SOL    HW2 4470   4.029   5.346   2.091
 1191SOL     OW 4471   2.554   4.891   1.606
 1191SOL    HW1 4472   2.615   4.812   1.616
 1191SOL    HW2 4473   2.471   4.875   1.658
 1192SOL     OW 4474   3.757   5.208   2.982
 1192SOL    HW1 4475   3.822   5.258   2.926
 1192SOL    HW2 4476   3.806   5.146   3.044
 1193SOL     OW 4477   3.331   0.190   4.114
 1193SOL    HW1 4478   3.354   0.285   4.091
 1193SOL    HW2 4479   3.413   0.145   4.151
 1194SOL     OW 4480   6.016   1.759   2.010
 1194SOL    HW1 4481   5.923   1.737   2.038
 1194SOL    HW2 4482   6.079   1.745   2.086
 1195SOL     OW 4483   3.101   6.591   0.111
 1195SOL    HW1 4484   3.185   6.584   0.056
 1195SOL    HW2 4485   3.051   6.674   0.086
 1196SOL     OW 4486   1.332   5.598   3.465
 1196SOL    HW1 4487   1.253   5.655   3.490
 1196SOL    HW2 4488   1.303   5.526   3.403
 1197SOL     OW 4489   3.674   4.734   6.977
 1197SOL    HW1 4490   3.651   4.805   0.018
 1197SOL    HW2 4491   3.606   4.661   6.982
 1198SOL     OW 4492   3.639   0.525   2.484
 1198SOL    HW1 4493   3.563   0.472   2.523
 1198SOL    HW2 4494   3.689   0.570   2.558
 1199SOL     OW 4495   2.966   3.780   3.592
 1199SOL    HW1 4496   2.970   3.852   3.662
 1199SOL    HW2 4497   2.980   3.691   3.635
 1200SOL     OW 4498   4.981   3.360   1.652
 1200SOL    HW1 4499   4.911   3.365   1.581
 1200SOL    HW2 4500   4.970   3.275   1.704
 1201SOL     OW 4501   1.458   1.655   4.956
 1201SOL    HW1 4502   1.501   1.730   4.905
 1201SOL    HW2 4503   1.455   1.678   5.053
 1202SOL     OW 4504   6.425   7.016   4.822
 1202SOL    HW1 4505   6.399   6.944   4.887
 1202SOL    HW2 4506   6.525   7.023   4.819
 1203SOL     OW 4507   6.535   0.028   2.549
 1203SOL    HW1 4508   6.485   6.987   2.605
 1203SOL    HW2 4509   6.630   7.024   2.541
 1204SOL     OW 4510   1.453   0.314   0.195
 1204SOL    HW1 4511   1.444   0.363   0.108
 1204SOL    HW2 4512   1.376   0.338   0.254
 1205SOL     OW 4513   0.680   2.721   5.516
 1205SOL    HW1 4514   0.768   2.765   5.528
 1205SOL    HW2 4515   0.693   2.626   5.486
 1206SOL     OW 4516   0.092   1.496   4.326
 1206SOL    HW1 4517   0.107   1.464   4.420
 1206SOL    HW2 4518   0.018   1.444   4.284
 1207SOL     OW 4519   6.226   6.467   6.351
 1207SOL    HW1 4520   6.253   6.557   6.317
 1207SOL    HW2 4521   6.261   6.396   6.289
 1208SOL     OW 4522   3.717   3.723   2.787
 1208SOL    HW1 4523   3.780   3.687   2.856
 1208SOL    HW2 4524   3.639   3.765   2.833
 1209SOL     OW 4525   6.801   3.920   4.578
 1209SOL    HW1 4526   6.750   3.834   4.584
 1209SOL    HW2 4527   6.869   3.913   4.506
 1210SOL     OW 4528   2.462   0.031   2.797
 1210SOL    HW1 4529   2.460   0.124   2.832
 1210SOL    HW2 4530   2.379   0.013   2.744
 1211SOL     OW 4531   0.935   2.942   3.170
 1211SOL    HW1 4532   0.887   2.881   3.107
 1211SOL    HW2 4533   0.868   2.998   3.219
 1212SOL     OW 4534   1.178   4.999   3.615
 1212SOL    HW1 4535   1.183   4.948   3.529
 1212SOL    HW2 4536   1.091   4.980   3.660
 1213SOL     OW 4537   5.520   4.069   5.086
 1213SOL    HW1 4538   5.439   4.011   5.091
 1213SOL    HW2 4539   5.516   4.125   5.003
 1214SOL     OW 4540   1.638   1.746   1.533
 1214SOL    HW1 4541   1.710   1.814   1.544
 1214SOL    HW2 4542   1.554   1.779   1.577
 1215SOL     OW 4543   0.474   5.373   1.947
 1215SOL    HW1 4544   0.379   5.345   1.962
 1215SOL    HW2 4545   0.506   5.425   2.027
 1216SOL     OW 4546   2.305   0.278   1.398
 1216SOL    HW1 4547   2.250   0.328   1.332
 1216SOL    HW2 4548   2.280   0.308   1.491
 1217SOL     OW 4549   1.835   2.964   2.907
 1217SOL    HW1 4550   1.876   3.019   2.834
 1217SOL    HW2 4551   1.874   2.993   2.995
 1218SOL     OW 4552   0.797   3.371   3.445
 1218SOL    HW1 4553   0.811   3.394   3.541
 1218SOL    HW2 4554   0.743   3.288   3.438
 1219SOL     OW 4555   2.732   5.729   3.336
 1219SOL    HW1 4556   2.715   5.814   3.285
 1219SOL    HW2 4557   2.793   5.748   3.413
 1220SOL     OW 4558   6.523   4.711   2.528
 1220SOL    HW1 4559   6.574   4.683   2.609
 1220SOL    HW2 4560   6.481   4.630   2.486
 1221SOL     OW 4561   4.917   4.461   5.736
 1221SOL    HW1 4562   4.823   4.495   5.743
 1221SOL    HW2 4563   4.972   4.501   5.809
 1222SOL     OW 4564   6.791   4.425   1.620
 1222SOL    HW1 4565   6.812   4.370   1.539
 1222SOL    HW2 4566   6.733   4.373   1.683
 1223SOL     OW 4567   6.957   4.683   4.885
 1223SOL    HW1 4568   6.866   4.676   4.845
 1223SOL    HW2 4569   6.967   4.615   4.958
 1224SOL     OW 4570   3.993   4.513   1.048
 1224SOL    HW1 4571   4.007   4.612   1.039
 1224SOL    HW2 4572   3.895   4.494   1.050
 1225SOL     OW 4573   4.326   1.439   0.196
 1225SOL    HW1 4574   4.335   1.521   0.253
 1225SOL    HW2 4575   4.369   1.456   0.107
 1226SOL     OW 4576   5.956   5.724   0.876
 1226SOL    HW1 4577   6.029   5.753   0.938
 1226SOL    HW2 4578   5.868   5.746   0.916
 1227SOL     OW 4579   4.855   4.434   7.013
 1227SOL    HW1 4580   4.772   4.402   6.968
 1227SOL    HW2 4581   4.868   4.531   6.994
 1228SOL     OW 4582   3.687   3.992   4.078
 1228SOL    HW1 4583   3.674   4.049   4.159
 1228SOL    HW2 4584   3.623   3.915   4.081
 1229SOL     OW 4585   2.540   5.275   2.781
 1229SOL    HW1 4586   2.466   5.265   2.715
 1229SOL    HW2 4587   2.627   5.251   2.738
 1230SOL     OW 4588   4.154   4.461   0.683
 1230SOL    HW1 4589   4.164   4.371   0.640
 1230SOL    HW2 4590   4.156   4.532   0.613
 1231SOL     OW 4591   2.248   1.447   0.320
 1231SOL    HW1 4592   2.197   1.361   0.310
 1231SOL    HW2 4593   2.185   1.524   0.317
 1232SOL     OW 4594   2.498   1.937   5.599
 1232SOL    HW1 4595   2.564   1.926   5.673
 1232SOL    HW2 4596   2.501   2.030   5.565
 1233SOL     OW 4597   0.492   4.982   4.694
 1233SOL    HW1 4598   0.582   5.009   4.728
 1233SOL    HW2 4599   0.426   4.988   4.769
 1234SOL     OW 4600   6.150   4.360   6.741
 1234SOL    HW1 4601   6.152   4.398   6.833
 1234SOL    HW2 4602   6.056   4.333   6.718
 1235SOL     OW 4603   6.089   4.600   0.903
 1235SOL    HW1 4604   6.150   4.676   0.926
 1235SOL    HW2 4605   5.996   4.623   0.929
 1236SOL     OW 4606   0.873   0.949   2.802
 1236SOL    HW1 4607   0.841   1.043   2.795
 1236SOL    HW2 4608   0.836   0.895   2.725
 1237SOL     OW 4609   1.162   0.564   4.345
 1237SOL    HW1 4610   1.100   0.628   4.391
 1237SOL    HW2 4611   1.142   0.471   4.377
 1238SOL     OW 4612   0.639   0.651   4.064
 1238SOL    HW1 4613   0.679   0.590   4.133
 1238SOL    HW2 4614   0.540   0.640   4.064
 1239SOL     OW 4615   5.043   4.366   3.908
 1239SOL    HW1 4616   5.056   4.378   3.810
 1239SOL    HW2 4617   4.974   4.295   3.924
 1240SOL     OW 4618   0.305   3.497   0.815
 1240SOL    HW1 4619   0.368   3.432   0.773
 1240SOL    HW2 4620   0.356   3.573   0.854
 1241SOL     OW 4621   3.729   5.452   5.868
 1241SOL    HW1 4622   3.638   5.430   5.832
 1241SOL    HW2 4623   3.763   5.377   5.923
 1242SOL     OW 4624   1.981   5.347   0.492
 1242SOL    HW1 4625   1.959   5.264   0.543
 1242SOL    HW2 4626   2.077   5.371   0.509
 1243SOL     OW 4627   0.678   3.852   3.442
 1243SOL    HW1 4628   0.678   3.919   3.515
 1243SOL    HW2 4629   0.745   3.877   3.373
 1244SOL     OW 4630   6.532   6.655   4.948
 1244SOL    HW1 4631   6.600   6.722   4.979
 1244SOL    HW2 4632   6.570   6.603   4.872
 1245SOL     OW 4633   4.849   6.362   1.437
 1245SOL    HW1 4634   4.823   6.301   1.512
 1245SOL    HW2 4635   4.769   6.384   1.382
 1246SOL     OW 4636   5.971   2.217   1.839
 1246SOL    HW1 4637   5.892   2.277   1.850
 1246SOL    HW2 4638   5.994   2.211   1.741
 1247SOL     OW 4639   5.031   6.939   2.454
 1247SOL    HW1 4640   5.009   6.878   2.530
 1247SOL    HW2 4641   5.025   6.889   2.368
 1248SOL     OW 4642   0.443   6.910   4.772
 1248SOL    HW1 4643   0.482   6.822   4.745
 1248SOL    HW2 4644   0.486   6.942   4.856
 1249SOL     OW 4645   6.030   6.487   6.580
 1249SOL    HW1 4646   6.119   6.462   6.541
 1249SOL    HW2 4647   5.993   6.566   6.529
 1250SOL     OW 4648   0.382   4.459   4.805
 1250SOL    HW1 4649   0.284   4.443   4.804
 1250SOL    HW2 4650   0.424   4.405   4.878
 1251SOL     OW 4651   3.019   0.320   2.599
 1251SOL    HW1 4652   3.093   0.274   2.550
 1251SOL    HW2 4653   2.956   0.252   2.636
 1252SOL     OW 4654   2.398   5.251   6.346
 1252SOL    HW1 4655   2.337   5.277   6.421
 1252SOL    HW2 4656   2.418   5.153   6.352
 1253SOL     OW 4657   2.738   6.097   0.209
 1253SOL    HW1 4658   2.723   6.128   0.302
 1253SOL    HW2 4659   2.815   6.033   0.207
 1254SOL     OW 4660   6.246   1.480   3.851
 1254SOL    HW1 4661   6.183   1.476   3.929
 1254SOL    HW2 4662   6.264   1.575   3.828
 1255SOL     OW 4663   6.065   1.852   5.735
 1255SOL    HW1 4664   6.129   1.790   5.781
 1255SOL    HW2 4665   6.078   1.846   5.636
 1256SOL     OW 4666   0.034   5.572   4.828
 1256SOL    HW1 4667   7.021   5.611   4.911
 1256SOL    HW2 4668   0.105   5.505   4.852
 1257SOL     OW 4669   0.376   6.219   3.304
 1257SOL    HW1 4670   0.391   6.161   3.384
 1257SOL    HW2 4671   0.459   6.270   3.282
 1258SOL     OW 4672   4.130   5.431   6.567
 1258SOL    HW1 4673   4.122   5.416   6.665
 1258SOL    HW2 4674   4.214   5.481   6.548
 1259SOL     OW 4675   5.131   6.473   5.009
 1259SOL    HW1 4676   5.095   6.566   5.005
 1259SOL    HW2 4677   5.221   6.474   5.053
 1260SOL     OW 4678   3.009   1.421   0.846
 1260SOL    HW1 4679   2.911   1.409   0.830
 1260SOL    HW2 4680   3.061   1.375   0.774
 1261SOL     OW 4681   0.009   4.236   4.412
 1261SOL    HW1 4682   6.986   4.313   4.371
 1261SOL    HW2 4683   0.097   4.267   4.450
 1262SOL     OW 4684   3.824   5.525   1.661
 1262SOL    HW1 4685   3.907   5.568   1.626
 1262SOL    HW2 4686   3.774   5.590   1.719
 1263SOL     OW 4687   6.893   1.618   1.520
 1263SOL    HW1 4688   6.811   1.562   1.528
 1263SOL    HW2 4689   6.871   1.705   1.475
 1264SOL     OW 4690   6.490   2.109   4.699
 1264SOL    HW1 4691   6.415   2.151   4.648
 1264SOL    HW2 4692   6.540   2.179   4.750
 1265SOL     OW 4693   6.344   5.640   4.787
 1265SOL    HW1 4694   6.438   5.639   4.754
 1265SOL    HW2 4695   6.301   5.552   4.767
 1266SOL     OW 4696   3.285   0.786   3.890
 1266SOL    HW1 4697   3.312   0.790   3.986
 1266SOL    HW2 4698   3.250   0.695   3.868
 1267SOL     OW 4699   0.366   4.810   2.448
 1267SOL    HW1 4700   0.437   4.880   2.440
 1267SOL    HW2 4701   0.360   4.778   2.542
 1268SOL     OW 4702   5.802   4.459   6.918
 1268SOL    HW1 4703   5.733   4.511   6.969
 1268SOL    HW2 4704   5.884   4.447   6.974
 1269SOL     OW 4705   6.783   5.041   6.673
 1269SOL    HW1 4706   6.740   5.059   6.584
 1269SOL    HW2 4707   6.758   4.950   6.704
 1270SOL     OW 4708   1.277   1.803   4.154
 1270SOL    HW1 4709   1.270   1.766   4.247
 1270SOL    HW2 4710   1.348   1.873   4.152
 1271SOL     OW 4711   5.379   2.843   3.202
 1271SOL    HW1 4712   5.458   2.851   3.142
 1271SOL    HW2 4713   5.355   2.746   3.212
 1272SOL     OW 4714   6.104   6.462   0.015
 1272SOL    HW1 4715   6.124   6.531   0.084
 1272SOL    HW2 4716   6.038   6.396   0.051
 1273SOL     OW 4717   2.582   6.996   5.016
 1273SOL    HW1 4718   2.599   0.031   4.938
 1273SOL    HW2 4719   2.486   7.004   5.044
 1274SOL     OW 4720   5.895   2.254   2.323
 1274SOL    HW1 4721   5.870   2.312   2.246
 1274SOL    HW2 4722   5.893   2.308   2.408
 1275SOL     OW 4723   4.142   1.726   4.075
 1275SOL    HW1 4724   4.047   1.696   4.077
 1275SOL    HW2 4725   4.201   1.648   4.055
 1276SOL     OW 4726   6.045   0.028   2.195
 1276SOL    HW1 4727   6.127   7.011   2.155
 1276SOL    HW2 4728   6.047   0.126   2.178
 1277SOL     OW 4729   1.064   1.570   4.538
 1277SOL    HW1 4730   1.062   1.507   4.616
 1277SOL    HW2 4731   0.981   1.626   4.538
 1278SOL     OW 4732   2.990   1.534   5.554
 1278SOL    HW1 4733   2.946   1.622   5.539
 1278SOL    HW2 4734   2.985   1.478   5.471
 1279SOL     OW 4735   2.258   5.231   0.350
 1279SOL    HW1 4736   2.256   5.279   0.438
 1279SOL    HW2 4737   2.174   5.251   0.300
 1280SOL     OW 4738   1.221   6.115   2.918
 1280SOL    HW1 4739   1.282   6.193   2.918
 1280SOL    HW2 4740   1.271   6.032   2.892
 1281SOL     OW 4741   0.651   6.956   3.789
 1281SOL    HW1 4742   0.640   6.907   3.703
 1281SOL    HW2 4743   0.732   7.015   3.785
 1282SOL     OW 4744   1.222   6.531   2.818
 1282SOL    HW1 4745   1.153   6.464   2.790
 1282SOL    HW2 4746   1.177   6.610   2.860
 1283SOL     OW 4747   5.039   4.098   4.887
 1283SOL    HW1 4748   5.128   4.053   4.882
 1283SOL    HW2 4749   5.051   4.196   4.869
 1284SOL     OW 4750   3.046   1.754   2.890
 1284SOL    HW1 4751   3.012   1.809   2.814
 1284SOL    HW2 4752   3.139   1.783   2.913
 1285SOL     OW 4753   5.715   3.042   5.997
 1285SOL    HW1 4754   5.700   2.996   5.909
 1285SOL    HW2 4755   5.748   2.975   6.064
 1286SOL     OW 4756   6.158   6.056   1.622
 1286SOL    HW1 4757   6.107   5.983   1.576
 1286SOL    HW2 4758   6.119   6.144   1.598
 1287SOL     OW 4759   6.668   3.963   5.771
 1287SOL    HW1 4760   6.748   3.991   5.719
 1287SOL    HW2 4761   6.585   3.987   5.722
 1288SOL     OW 4762   6.487   3.045   3.981
 1288SOL    HW1 4763   6.570   3.000   4.014
 1288SOL    HW2 4764   6.417   3.043   4.052
 1289SOL     OW 4765   0.472   5.182   2.650
 1289SOL    HW1 4766   0.399   5.235   2.692
 1289SOL    HW2 4767   0.531   5.144   2.721
 1290SOL     OW 4768   0.567   0.276   1.160
 1290SOL    HW1 4769   0.598   0.183   1.182
 1290SOL    HW2 4770   0.609   0.341   1.223
 1291SOL     OW 4771   1.724   6.540   1.042
 1291SOL    HW1 4772   1.670   6.583   0.970
 1291SOL    HW2 4773   1.662   6.495   1.107
 1292SOL     OW 4774   0.993   6.114   6.544
 1292SOL    HW1 4775   1.074   6.172   6.537
 1292SOL    HW2 4776   0.922   6.162   6.596
 1293SOL     OW 4777   6.025   2.333   6.274
 1293SOL    HW1 4778   5.942   2.339   6.330
 1293SOL    HW2 4779   6.061   2.425   6.259
 1294SOL     OW 4780   0.510   1.340   3.408
 1294SOL    HW1 4781   0.588   1.282   3.382
 1294SOL    HW2 4782   0.515   1.426   3.357
 1295SOL     OW 4783   5.073   3.312   1.304
 1295SOL    HW1 4784   5.155   3.310   1.362
 1295SOL    HW2 4785   4.998   3.355   1.354
 1296SOL     OW 4786   3.570   2.222   0.128
 1296SOL    HW1 4787   3.566   2.150   0.197
 1296SOL    HW2 4788   3.478   2.256   0.110
 1297SOL     OW 4789   6.704   0.490   6.464
 1297SOL    HW1 4790   6.776   0.491   6.532
 1297SOL    HW2 4791   6.656   0.578   6.465
 1298SOL     OW 4792   6.832   2.594   3.757
 1298SOL    HW1 4793   6.864   2.530   3.686
 1298SOL    HW2 4794   6.791   2.542   3.832
 1299SOL     OW 4795   1.457   2.914   4.120
 1299SOL    HW1 4796   1.514   2.996   4.113
 1299SOL    HW2 4797   1.450   2.871   4.031
 1300SOL     OW 4798   3.869   3.569   2.265
 1300SOL    HW1 4799   3.968   3.568   2.279
 1300SOL    HW2 4800   3.839   3.477   2.239
 1301SOL     OW 4801   1.307   1.396   2.168
 1301SOL    HW1 4802   1.265   1.309   2.194
 1301SOL    HW2 4803   1.329   1.448   2.251
 1302SOL     OW 4804   2.677   6.312   5.470
 1302SOL    HW1 4805   2.690   6.289   5.374
 1302SOL    HW2 4806   2.735   6.255   5.527
 1303SOL     OW 4807   3.043   0.449   1.173
 1303SOL    HW1 4808   3.033   0.548   1.166
 1303SOL    HW2 4809   2.965   0.411   1.223
 1304SOL     OW 4810   3.619   1.274   6.167
 1304SOL    HW1 4811   3.717   1.286   6.150
 1304SOL    HW2 4812   3.595   1.177   6.158
 1305SOL     OW 4813   5.971   6.329   3.604
 1305SOL    HW1 4814   5.988   6.380   3.688
 1305SOL    HW2 4815   5.872   6.321   3.590
 1306SOL     OW 4816   1.415   5.260   4.736
 1306SOL    HW1 4817   1.410   5.161   4.747
 1306SOL    HW2 4818   1.397   5.284   4.641
 1307SOL     OW 4819   1.003   1.087   4.196
 1307SOL    HW1 4820   0.916   1.041   4.181
 1307SOL    HW2 4821   1.037   1.124   4.109
 1308SOL     OW 4822   4.452   5.925   3.339
 1308SOL    HW1 4823   4.424   6.013   3.301
 1308SOL    HW2 4824   4.385   5.896   3.408
 1309SOL     OW 4825   5.339   2.982   4.668
 1309SOL    HW1 4826   5.407   3.024   4.607
 1309SOL    HW2 4827   5.347   2.882   4.663
 1310SOL     OW 4828   5.278   3.807   5.469
 1310SOL    HW1 4829   5.366   3.812   5.516
 1310SOL    HW2 4830   5.251   3.899   5.439
 1311SOL     OW 4831   4.986   4.962   5.210
 1311SOL    HW1 4832   4.992   5.013   5.124
 1311SOL    HW2 4833   5.022   5.018   5.284
 1312SOL     OW 4834   6.591   0.223   1.576
 1312SOL    HW1 4835   6.547   0.222   1.666
 1312SOL    HW2 4836   6.537   0.170   1.511
 1313SOL     OW 4837   3.185   5.159   5.325
 1313SOL    HW1 4838   3.222   5.247   5.297
 1313SOL    HW2 4839   3.119   5.127   5.258
 1314SOL     OW 4840   6.316   1.393   5.880
 1314SOL    HW1 4841   6.217   1.389   5.898
 1314SOL    HW2 4842   6.339   1.326   5.808
 1315SOL     OW 4843   1.620   7.015   3.577
 1315SOL    HW1 4844   1.564   6.932   3.570
 1315SOL    HW2 4845   1.586   0.058   3.513
 1316SOL     OW 4846   3.614   6.304   3.030
 1316SOL    HW1 4847   3.614   6.209   3.000
 1316SOL    HW2 4848   3.591   6.309   3.127
 1317SOL     OW 4849   0.253   3.493   4.038
 1317SOL    HW1 4850   0.336   3.510   4.092
 1317SOL    HW2 4851   0.258   3.401   3.999
 1318SOL     OW 4852   1.177   6.485   1.553
 1318SOL    HW1 4853   1.125   6.414   1.504
 1318SOL    HW2 4854   1.268   6.494   1.511
 1319SOL     OW 4855   6.319   0.558   0.408
 1319SOL    HW1 4856   6.305   0.609   0.323
 1319SOL    HW2 4857   6.287   0.464   0.395
 1320SOL     OW 4858   5.158   5.717   4.938
 1320SOL    HW1 4859   5.200   5.707   5.029
 1320SOL    HW2 4860   5.219   5.770   4.879
 1321SOL     OW 4861   3.080   1.490   0.149
 1321SOL    HW1 4862   3.107   1.416   0.088
 1321SOL    HW2 4863   3.160   1.520   0.201
 1322SOL     OW 4864   5.043   1.819   6.242
 1322SOL    HW1 4865   5.132   1.853   6.211
 1322SOL    HW2 4866   4.988   1.793   6.163
 1323SOL     OW 4867   6.700   1.092   4.018
 1323SOL    HW1 4868   6.646   1.022   3.972
 1323SOL    HW2 4869   6.784   1.051   4.054
 1324SOL     OW 4870   1.264   2.631   0.585
 1324SOL    HW1 4871   1.281   2.532   0.577
 1324SOL    HW2 4872   1.213   2.663   0.505
 1325SOL     OW 4873   4.415   5.308   3.877
 1325SOL    HW1 4874   4.360   5.389   3.900
 1325SOL    HW2 4875   4.355   5.228   3.872
 1326SOL     OW 4876   5.655   4.080   4.520
 1326SOL    HW1 4877   5.728   4.043   4.578
 1326SOL    HW2 4878   5.566   4.053   4.557
 1327SOL     OW 4879   2.532   6.221   4.355
 1327SOL    HW1 4880   2.473   6.180   4.286
 1327SOL    HW2 4881   2.550   6.316   4.331
 1328SOL     OW 4882   2.446   1.378   1.119
 1328SOL    HW1 4883   2.482   1.415   1.205
 1328SOL    HW2 4884   2.433   1.453   1.054
 1329SOL     OW 4885   0.877   6.695   1.835
 1329SOL    HW1 4886   0.927   6.766   1.786
 1329SOL    HW2 4887   0.933   6.612   1.840
 1330SOL     OW 4888   4.508   6.174   1.072
 1330SOL    HW1 4889   4.488   6.076   1.063
 1330SOL    HW2 4890   4.605   6.187   1.090
 1331SOL     OW 4891   0.480   2.096   2.115
 1331SOL    HW1 4892   0.515   2.189   2.127
 1331SOL    HW2 4893   0.552   2.039   2.074
 1332SOL     OW 4894   4.229   1.914   1.225
 1332SOL    HW1 4895   4.305   1.852   1.202
 1332SOL    HW2 4896   4.257   1.974   1.300
 1333SOL     OW 4897   4.112   3.574   4.497
 1333SOL    HW1 4898   4.026   3.525   4.480
 1333SOL    HW2 4899   4.120   3.651   4.434
 1334SOL     OW 4900   0.951   3.648   3.806
 1334SOL    HW1 4901   0.988   3.600   3.885
 1334SOL    HW2 4902   0.919   3.582   3.738
 1335SOL     OW 4903   2.205   5.847   3.174
 1335SOL    HW1 4904   2.160   5.936   3.182
 1335SOL    HW2 4905   2.156   5.779   3.229
 1336SOL     OW 4906   0.281   0.433   5.240
 1336SOL    HW1 4907   0.217   0.510   5.237
 1336SOL    HW2 4908   0.253   0.370   5.313
 1337SOL     OW 4909   3.672   0.283   6.989
 1337SOL    HW1 4910   3.709   0.307   0.054
 1337SOL    HW2 4911   3.747   0.256   6.928
 1338SOL     OW 4912   2.950   5.199   1.509
 1338SOL    HW1 4913   2.940   5.276   1.445
 1338SOL    HW2 4914   3.021   5.137   1.475
 1339SOL     OW 4915   0.284   4.435   6.544
 1339SOL    HW1 4916   0.239   4.518   6.578
 1339SOL    HW2 4917   0.340   4.459   6.465
 1340SOL     OW 4918   2.197   1.135   6.032
 1340SOL    HW1 4919   2.231   1.229   6.022
 1340SOL    HW2 4920   2.203   1.089   5.943
 1341SOL     OW 4921   5.710   2.688   4.503
 1341SOL    HW1 4922   5.799   2.672   4.546
 1341SOL    HW2 4923   5.707   2.781   4.466
 1342SOL     OW 4924   0.855   6.650   1.342
 1342SOL    HW1 4925   0.832   6.576   1.405
 1342SOL    HW2 4926   0.845   6.738   1.390
 1343SOL     OW 4927   2.850   5.867   4.288
 1343SOL    HW1 4928   2.798   5.783   4.289
 1343SOL    HW2 4929   2.893   5.879   4.198
 1344SOL     OW 4930   5.203   1.539   3.244
 1344SOL    HW1 4931   5.121   1.591   3.222
 1344SOL    HW2 4932   5.178   1.449   3.278
 1345SOL     OW 4933   0.594   5.576   2.570
 1345SOL    HW1 4934   0.521   5.517   2.537
 1345SOL    HW2 4935   0.678   5.557   2.519
 1346SOL     OW 4936   0.074   1.299   3.203
 1346SOL    HW1 4937   0.106   1.384   3.244
 1346SOL    HW2 4938   0.126   1.280   3.120
 1347SOL     OW 4939   4.479   0.704   3.726
 1347SOL    HW1 4940   4.413   0.674   3.795
 1347SOL    HW2 4941   4.430   0.741   3.646
 1348SOL     OW 4942   4.514   5.880   4.540
 1348SOL    HW1 4943   4.417   5.906   4.533
 1348SOL    HW2 4944   4.552   5.868   4.448
 1349SOL     OW 4945   4.479   2.140   0.160
 1349SOL    HW1 4946   4.570   2.112   0.191
 1349SOL    HW2 4947   4.454   2.226   0.205
 1350SOL     OW 4948   3.032   0.966   5.067
 1350SOL    HW1 4949   2.934   0.984   5.053
 1350SOL    HW2 4950   3.086   1.026   5.008
 1351SOL     OW 4951   1.683   1.595   3.833
 1351SOL    HW1 4952   1.725   1.512   3.799
 1351SOL    HW2 4953   1.754   1.660   3.861
 1352SOL     OW 4954   0.923   6.450   4.242
 1352SOL    HW1 4955   0.950   6.445   4.146
 1352SOL    HW2 4956   0.823   6.442   4.249
 1353SOL     OW 4957   2.301   2.954   5.600
 1353SOL    HW1 4958   2.270   3.037   5.646
 1353SOL    HW2 4959   2.303   2.970   5.501
 1354SOL     OW 4960   0.416   6.889   0.056
 1354SOL    HW1 4961   0.325   6.925   0.074
 1354SOL    HW2 4962   0.426   6.800   0.100
 1355SOL     OW 4963   3.723   2.918   6.798
 1355SOL    HW1 4964   3.765   2.938   6.709
 1355SOL    HW2 4965   3.624   2.906   6.785
 1356SOL     OW 4966   3.255   3.017   1.596
 1356SOL    HW1 4967   3.280   2.968   1.679
 1356SOL    HW2 4968   3.156   3.007   1.580
 1357SOL     OW 4969   3.065   2.641   5.855
 1357SOL    HW1 4970   3.093   2.668   5.947
 1357SOL    HW2 4971   3.031   2.721   5.805
 1358SOL     OW 4972   1.696   3.946   6.102
 1358SOL    HW1 4973   1.754   4.000   6.040
 1358SOL    HW2 4974   1.707   3.979   6.195
 1359SOL     OW 4975   0.218   1.731   6.740
 1359SOL    HW1 4976   0.235   1.706   6.644
 1359SOL    HW2 4977   0.300   1.774   6.778
 1360SOL     OW 4978   3.119   3.207   4.028
 1360SOL    HW1 4979   3.064   3.277   4.074
 1360SOL    HW2 4980   3.215   3.234   4.029
 1361SOL     OW 4981   0.710   6.070   1.039
 1361SOL    HW1 4982   0.721   5.971   1.043
 1361SOL    HW2 4983   0.643   6.093   0.968
 1362SOL     OW 4984   3.256   1.870   0.179
 1362SOL    HW1 4985   3.326   1.841   0.114
 1362SOL    HW2 4986   3.180   1.805   0.178
 1363SOL     OW 4987   6.823   6.625   1.121
 1363SOL    HW1 4988   6.732   6.650   1.153
 1363SOL    HW2 4989   6.816   6.570   1.038
 1364SOL     OW 4990   1.026   3.792   0.872
 1364SOL    HW1 4991   0.927   3.801   0.885
 1364SOL    HW2 4992   1.068   3.883   0.874
 1365SOL     OW 4993   1.123   3.579   5.778
 1365SOL    HW1 4994   1.212   3.561   5.734
 1365SOL    HW2 4995   1.055   3.515   5.742
 1366SOL     OW 4996   3.585   0.373   1.509
 1366SOL    HW1 4997   3.539   0.420   1.434
 1366SOL    HW2 4998   3.651   0.435   1.551
 1367SOL     OW 4999   1.179   0.313   4.490
 1367SOL    HW1 5000   1.225   0.228   4.464
 1367SOL    HW2 5001   1.104   0.294   4.552
 1368SOL     OW 5002   1.506   6.109   4.930
 1368SOL    HW1 5003   1.553   6.164   4.998
 1368SOL    HW2 5004   1.476   6.023   4.972
 1369SOL     OW 5005   2.225   5.433   3.690
 1369SOL    HW1 5006   2.143   5.408   3.742
 1369SOL    HW2 5007   2.306   5.420   3.747
 1370SOL     OW 5008   0.089   2.648   3.335
 1370SOL    HW1 5009   0.010   2.615   3.386
 1370SOL    HW2 5010   0.173   2.608   3.373
 1371SOL     OW 5011   6.046   1.830   5.440
 1371SOL    HW1 5012   6.043   1.927   5.416
 1371SOL    HW2 5013   6.087   1.778   5.365
 1372SOL     OW 5014   5.811   2.761   1.503
 1372SOL    HW1 5015   5.781   2.675   1.462
 1372SOL    HW2 5016   5.858   2.816   1.434
 1373SOL     OW 5017   6.173   3.370   1.948
 1373SOL    HW1 5018   6.176   3.324   2.036
 1373SOL    HW2 5019   6.090   3.345   1.899
 1374SOL     OW 5020   4.074   3.185   2.197
 1374SOL    HW1 5021   4.148   3.121   2.182
 1374SOL    HW2 5022   3.996   3.160   2.140
 1375SOL     OW 5023   5.159   4.711   4.414
 1375SOL    HW1 5024   5.076   4.765   4.430
 1375SOL    HW2 5025   5.237   4.772   4.404
 1376SOL     OW 5026   3.218   4.427   5.442
 1376SOL    HW1 5027   3.232   4.345   5.386
 1376SOL    HW2 5028   3.275   4.421   5.524
 1377SOL     OW 5029   1.474   1.641   2.906
 1377SOL    HW1 5030   1.390   1.688   2.880
 1377SOL    HW2 5031   1.553   1.698   2.880
 1378SOL     OW 5032   4.980   2.286   4.330
 1378SOL    HW1 5033   4.901   2.251   4.278
 1378SOL    HW2 5034   5.057   2.224   4.319
 1379SOL     OW 5035   4.483   5.497   0.246
 1379SOL    HW1 5036   4.565   5.487   0.302
 1379SOL    HW2 5037   4.448   5.407   0.221
 1380SOL     OW 5038   0.509   6.180   3.604
 1380SOL    HW1 5039   0.475   6.272   3.582
 1380SOL    HW2 5040   0.446   6.112   3.566
 1381SOL     OW 5041   6.509   2.415   5.683
 1381SOL    HW1 5042   6.552   2.361   5.609
 1381SOL    HW2 5043   6.571   2.418   5.761
 1382SOL     OW 5044   4.297   2.150   6.782
 1382SOL    HW1 5045   4.298   2.239   6.735
 1382SOL    HW2 5046   4.211   2.103   6.764
 1383SOL     OW 5047   6.666   0.391   0.451
 1383SOL    HW1 5048   6.728   0.470   0.458
 1383SOL    HW2 5049   6.647   0.356   0.543
 1384SOL     OW 5050   6.325   2.331   2.170
 1384SOL    HW1 5051   6.270   2.273   2.230
 1384SOL    HW2 5052   6.347   2.416   2.217
 1385SOL     OW 5053   0.246   6.122   1.625
 1385SOL    HW1 5054   0.242   6.110   1.526
 1385SOL    HW2 5055   0.210   6.041   1.671
 1386SOL     OW 5056   2.165   6.105   3.975
 1386SOL    HW1 5057   2.213   6.017   3.979
 1386SOL    HW2 5058   2.108   6.108   3.893
 1387SOL     OW 5059   2.224   5.969   2.039
 1387SOL    HW1 5060   2.174   6.053   2.019
 1387SOL    HW2 5061   2.193   5.931   2.126
 1388SOL     OW 5062   6.517   0.505   1.638
 1388SOL    HW1 5063   6.553   0.485   1.729
 1388SOL    HW2 5064   6.521   0.422   1.582
 1389SOL     OW 5065   6.048   0.302   2.168
 1389SOL    HW1 5066   5.990   0.333   2.243
 1389SOL    HW2 5067   6.110   0.377   2.141
 1390SOL     OW 5068   1.267   1.673   4.392
 1390SOL    HW1 5069   1.261   1.751   4.454
 1390SOL    HW2 5070   1.200   1.604   4.420
 1391SOL     OW 5071   0.534   3.237   3.286
 1391SOL    HW1 5072   0.446   3.286   3.290
 1391SOL    HW2 5073   0.528   3.165   3.217
 1392SOL     OW 5074   5.424   4.352   4.542
 1392SOL    HW1 5075   5.344   4.293   4.532
 1392SOL    HW2 5076   5.500   4.313   4.490
 1393SOL     OW 5077   3.774   5.140   6.683
 1393SOL    HW1 5078   3.690   5.091   6.660
 1393SOL    HW2 5079   3.788   5.214   6.618
 1394SOL     OW 5080   1.800   6.163   6.918
 1394SOL    HW1 5081   1.788   6.251   6.963
 1394SOL    HW2 5082   1.711   6.128   6.888
 1395SOL     OW 5083   4.414   4.776   5.905
 1395SOL    HW1 5084   4.356   4.820   5.973
 1395SOL    HW2 5085   4.498   4.744   5.949
 1396SOL     OW 5086   6.182   6.258   3.463
 1396SOL    HW1 5087   6.165   6.202   3.382
 1396SOL    HW2 5088   6.100   6.260   3.520
 1397SOL     OW 5089   4.939   6.152   5.424
 1397SOL    HW1 5090   5.031   6.183   5.398
 1397SOL    HW2 5091   4.924   6.059   5.390
 1398SOL     OW 5092   2.073   0.973   4.112
 1398SOL    HW1 5093   1.992   1.030   4.094
 1398SOL    HW2 5094   2.118   1.004   4.196
 1399SOL     OW 5095   2.663   5.475   2.097
 1399SOL    HW1 5096   2.691   5.533   2.020
 1399SOL    HW2 5097   2.693   5.381   2.080
 1400SOL     OW 5098   1.571   6.968   2.687
 1400SOL    HW1 5099   1.488   6.969   2.632
 1400SOL    HW2 5100   1.644   7.014   2.637
 1401SOL     OW 5101   6.619   1.758   4.217
 1401SOL    HW1 5102   6.709   1.791   4.245
 1401SOL    HW2 5103   6.550   1.828   4.238
 1402SOL     OW 5104   6.337   3.199   0.219
 1402SOL    HW1 5105   6.242   3.180   0.243
 1402SOL    HW2 5106   6.392   3.204   0.302
 1403SOL     OW 5107   3.689   0.415   1.905
 1403SOL    HW1 5108   3.659   0.325   1.935
 1403SOL    HW2 5109   3.610   0.469   1.877
 1404SOL     OW 5110   4.986   1.765   0.138
 1404SOL    HW1 5111   4.936   1.771   0.051
 1404SOL    HW2 5112   4.964   1.845   0.194
 1405SOL     OW 5113   3.151   2.990   1.247
 1405SOL    HW1 5114   3.079   3.018   1.183
 1405SOL    HW2 5115   3.116   2.994   1.340
 1406SOL     OW 5116   1.538   4.752   1.446
 1406SOL    HW1 5117   1.499   4.700   1.522
 1406SOL    HW2 5118   1.525   4.702   1.361
 1407SOL     OW 5119   6.611   2.288   2.875
 1407SOL    HW1 5120   6.685   2.235   2.916
 1407SOL    HW2 5121   6.550   2.322   2.948
 1408SOL     OW 5122   6.379   6.296   6.209
 1408SOL    HW1 5123   6.454   6.240   6.245
 1408SOL    HW2 5124   6.385   6.298   6.109
 1409SOL     OW 5125   0.505   1.370   3.682
 1409SOL    HW1 5126   0.470   1.458   3.714
 1409SOL    HW2 5127   0.506   1.369   3.582
 1410SOL     OW 5128   6.326   2.612   6.821
 1410SOL    HW1 5129   6.308   2.684   6.754
 1410SOL    HW2 5130   6.409   2.634   6.872
 1411SOL     OW 5131   2.103   0.547   1.986
 1411SOL    HW1 5132   2.128   0.466   2.038
 1411SOL    HW2 5133   2.168   0.561   1.912
 1412SOL     OW 5134   1.125   2.841   6.722
 1412SOL    HW1 5135   1.093   2.827   6.628
 1412SOL    HW2 5136   1.224   2.829   6.726
 1413SOL     OW 5137   3.029   6.756   3.386
 1413SOL    HW1 5138   2.940   6.752   3.431
 1413SOL    HW2 5139   3.065   6.663   3.374
 1414SOL     OW 5140   3.010   0.784   1.964
 1414SOL    HW1 5141   2.967   0.818   1.881
 1414SOL    HW2 5142   3.108   0.806   1.964
 1415SOL     OW 5143   4.637   6.127   5.245
 1415SOL    HW1 5144   4.661   6.210   5.195
 1415SOL    HW2 5145   4.693   6.051   5.212
 1416SOL     OW 5146   4.328   5.567   3.603
 1416SOL    HW1 5147   4.393   5.552   3.678
 1416SOL    HW2 5148   4.323   5.485   3.546
 1417SOL     OW 5149   3.129   2.850   6.542
 1417SOL    HW1 5150   3.203   2.791   6.510
 1417SOL    HW2 5151   3.165   2.919   6.605
 1418SOL     OW 5152   3.731   4.068   2.529
 1418SOL    HW1 5153   3.817   4.039   2.570
 1418SOL    HW2 5154   3.663   4.082   2.601
 1419SOL     OW 5155   4.061   6.259   4.239
 1419SOL    HW1 5156   4.155   6.232   4.258
 1419SOL    HW2 5157   3.998   6.203   4.294
 1420SOL     OW 5158   0.472   5.777   1.594
 1420SOL    HW1 5159   0.497   5.842   1.666
 1420SOL    HW2 5160   0.440   5.692   1.635
 1421SOL     OW 5161   4.002   0.845   2.714
 1421SOL    HW1 5162   4.046   0.758   2.736
 1421SOL    HW2 5163   4.059   0.920   2.748
 1422SOL     OW 5164   2.695   0.181   0.234
 1422SOL    HW1 5165   2.656   0.208   0.322
 1422SOL    HW2 5166   2.654   0.236   0.161
 1423SOL     OW 5167   5.215   0.535   2.263
 1423SOL    HW1 5168   5.256   0.444   2.258
 1423SOL    HW2 5169   5.266   0.591   2.328
 1424SOL     OW 5170   0.056   5.167   2.287
 1424SOL    HW1 5171   0.002   5.085   2.270
 1424SOL    HW2 5172   0.049   5.192   2.384
 1425SOL     OW 5173   1.878   7.009   4.474
 1425SOL    HW1 5174   1.874   0.041   4.391
 1425SOL    HW2 5175   1.953   6.944   4.466
 1426SOL     OW 5176   1.831   1.021   5.567
 1426SOL    HW1 5177   1.847   1.082   5.489
 1426SOL    HW2 5178   1.878   1.057   5.648
 1427SOL     OW 5179   6.126   0.607   5.151
 1427SOL    HW1 5180   6.152   0.663   5.072
 1427SOL    HW2 5181   6.081   0.665   5.219
 1428SOL     OW 5182   5.399   1.337   0.155
 1428SOL    HW1 5183   5.307   1.349   0.118
 1428SOL    HW2 5184   5.451   1.422   0.143
 1429SOL     OW 5185   5.730   6.451   6.688
 1429SOL    HW1 5186   5.779   6.538   6.686
 1429SOL    HW2 5187   5.733   6.413   6.781
 1430SOL     OW 5188   1.742   4.031   3.230
 1430SOL    HW1 5189   1.729   4.043   3.328
 1430SOL    HW2 5190   1.837   4.048   3.206
 1431SOL     OW 5191   1.290   0.549   1.418
 1431SOL    HW1 5192   1.286   0.539   1.319
 1431SOL    HW2 5193   1.385   0.538   1.449
 1432SOL     OW 5194   2.615   0.112   0.969
 1432SOL    HW1 5195   2.564   0.093   1.053
 1432SOL    HW2 5196   2.675   0.034   0.948
 1433SOL     OW 5197   4.256   0.421   4.617
 1433SOL    HW1 5198   4.195   0.370   4.557
 1433SOL    HW2 5199   4.207   0.501   4.654
 1434SOL     OW 5200   0.775   0.899   5.176
 1434SOL    HW1 5201   0.736   0.893   5.084
 1434SOL    HW2 5202   0.814   0.990   5.190
 1435SOL     OW 5203   6.767   1.839   3.308
 1435SOL    HW1 5204   6.716   1.925   3.310
 1435SOL    HW2 5205   6.703   1.763   3.294
 1436SOL     OW 5206   4.158   4.040   0.922
 1436SOL    HW1 5207   4.180   4.137   0.924
 1436SOL    HW2 5208   4.190   3.996   1.006
 1437SOL     OW 5209   4.279   1.250   2.360
 1437SOL    HW1 5210   4.219   1.179   2.397
 1437SOL    HW2 5211   4.278   1.329   2.420
 1438SOL     OW 5212   2.719   0.708   1.632
 1438SOL    HW1 5213   2.695   0.659   1.717
 1438SOL    HW2 5214   2.644   0.769   1.607
 1439SOL     OW 5215   0.486   5.660   1.883
 1439SOL    HW1 5216   0.523   5.753   1.883
 1439SOL    HW2 5217   0.400   5.658   1.934
 1440SOL     OW 5218   2.275   3.106   1.799
 1440SOL    HW1 5219   2.230   3.161   1.870
 1440SOL    HW2 5220   2.369   3.138   1.787
 1441SOL     OW 5221   5.149   6.075   0.787
 1441SOL    HW1 5222   5.079   6.047   0.852
 1441SOL    HW2 5223   5.132   6.030   0.699
 1442SOL     OW 5224   5.374   5.446   0.644
 1442SOL    HW1 5225   5.317   5.408   0.571
 1442SOL    HW2 5226   5.382   5.545   0.633
 1443SOL     OW 5227   0.582   2.510   2.614
 1443SOL    HW1 5228   0.533   2.431   2.649
 1443SOL    HW2 5229   0.633   2.484   2.532
 1444SOL     OW 5230   0.695   5.073   6.063
 1444SOL    HW1 5231   0.603   5.050   6.031
 1444SOL    HW2 5232   0.713   5.169   6.043
 1445SOL     OW 5233   1.050   3.574   1.505
 1445SOL    HW1 5234   1.123   3.515   1.538
 1445SOL    HW2 5235   1.004   3.617   1.582
 1446SOL     OW 5236   6.583   5.972   1.105
 1446SOL    HW1 5237   6.492   5.952   1.142
 1446SOL    HW2 5238   6.650   5.972   1.180
 1447SOL     OW 5239   6.182   5.694   4.471
 1447SOL    HW1 5240   6.173   5.664   4.565
 1447SOL    HW2 5241   6.145   5.624   4.410
 1448SOL     OW 5242   1.144   1.956   6.178
 1448SOL    HW1 5243   1.230   1.999   6.205
 1448SOL    HW2 5244   1.077   2.027   6.155
 1449SOL     OW 5245   2.027   3.437   2.856
 1449SOL    HW1 5246   1.996   3.391   2.940
 1449SOL    HW2 5247   1.953   3.493   2.820
 1450SOL     OW 5248   2.910   2.265   4.171
 1450SOL    HW1 5249   2.870   2.233   4.257
 1450SOL    HW2 5250   3.010   2.253   4.174
 1451SOL     OW 5251   3.368   1.406   2.718
 1451SOL    HW1 5252   3.423   1.477   2.763
 1451SOL    HW2 5253   3.274   1.411   2.751
 1452SOL     OW 5254   4.191   2.764   6.658
 1452SOL    HW1 5255   4.160   2.705   6.732
 1452SOL    HW2 5256   4.146   2.738   6.572
 1453SOL     OW 5257   0.409   3.929   5.483
 1453SOL    HW1 5258   0.493   3.976   5.456
 1453SOL    HW2 5259   0.387   3.953   5.578
 1454SOL     OW 5260   3.509   2.010   3.030
 1454SOL    HW1 5261   3.578   2.073   2.996
 1454SOL    HW2 5262   3.549   1.919   3.042
 1455SOL     OW 5263   0.588   5.501   2.172
 1455SOL    HW1 5264   0.581   5.599   2.156
 1455SOL    HW2 5265   0.674   5.467   2.134
 1456SOL     OW 5266   6.460   5.373   4.055
 1456SOL    HW1 5267   6.405   5.290   4.066
 1456SOL    HW2 5268   6.528   5.378   4.127
 1457SOL     OW 5269   1.520   5.110   6.200
 1457SOL    HW1 5270   1.577   5.118   6.118
 1457SOL    HW2 5271   1.579   5.105   6.281
 1458SOL     OW 5272   5.733   5.428   5.058
 1458SOL    HW1 5273   5.639   5.420   5.091
 1458SOL    HW2 5274   5.795   5.429   5.136
 1459SOL     OW 5275   6.367   6.621   5.422
 1459SOL    HW1 5276   6.406   6.549   5.366
 1459SOL    HW2 5277   6.268   6.608   5.430
 1460SOL     OW 5278   1.504   6.705   5.158
 1460SOL    HW1 5279   1.534   6.746   5.073
 1460SOL    HW2 5280   1.584   6.688   5.217
 1461SOL     OW 5281   5.761   2.805   3.889
 1461SOL    HW1 5282   5.683   2.743   3.882
 1461SOL    HW2 5283   5.815   2.781   3.970
 1462SOL     OW 5284   0.423   1.564   1.776
 1462SOL    HW1 5285   0.403   1.482   1.829
 1462SOL    HW2 5286   0.441   1.640   1.838
 1463SOL     OW 5287   1.833   6.292   6.478
 1463SOL    HW1 5288   1.906   6.306   6.545
 1463SOL    HW2 5289   1.799   6.199   6.484
 1464SOL     OW 5290   1.098   4.351   4.133
 1464SOL    HW1 5291   1.031   4.415   4.096
 1464SOL    HW2 5292   1.164   4.401   4.190
 1465SOL     OW 5293   1.311   3.117   4.507
 1465SOL    HW1 5294   1.394   3.132   4.561
 1465SOL    HW2 5295   1.231   3.123   4.566
 1466SOL     OW 5296   5.563   1.452   2.760
 1466SOL    HW1 5297   5.617   1.377   2.797
 1466SOL    HW2 5298   5.582   1.536   2.811
 1467SOL     OW 5299   0.396   0.500   3.676
 1467SOL    HW1 5300   0.350   0.504   3.765
 1467SOL    HW2 5301   0.494   0.492   3.689
 1468SOL     OW 5302   3.160   5.476   2.875
 1468SOL    HW1 5303   3.131   5.542   2.807
 1468SOL    HW2 5304   3.096   5.399   2.877
 1469SOL     OW 5305   5.621   4.075   3.403
 1469SOL    HW1 5306   5.578   4.005   3.347
 1469SOL    HW2 5307   5.610   4.164   3.359
 1470SOL     OW 5308   6.039   1.837   2.354
 1470SOL    HW1 5309   6.111   1.836   2.284
 1470SOL    HW2 5310   5.959   1.887   2.319
 1471SOL     OW 5311   4.833   6.700   0.577
 1471SOL    HW1 5312   4.737   6.686   0.550
 1471SOL    HW2 5313   4.846   6.795   0.604
 1472SOL     OW 5314   1.880   0.916   6.519
 1472SOL    HW1 5315   1.809   0.849   6.498
 1472SOL    HW2 5316   1.970   0.879   6.494
 1473SOL     OW 5317   1.688   6.039   3.426
 1473SOL    HW1 5318   1.713   6.120   3.479
 1473SOL    HW2 5319   1.591   6.019   3.437
 1474SOL     OW 5320   2.549   5.166   1.618
 1474SOL    HW1 5321   2.475   5.185   1.554
 1474SOL    HW2 5322   2.551   5.068   1.639
 1475SOL     OW 5323   6.348   0.282   6.586
 1475SOL    HW1 5324   6.346   0.214   6.512
 1475SOL    HW2 5325   6.443   0.310   6.602
 1476SOL     OW 5326   5.291   0.123   6.538
 1476SOL    HW1 5327   5.215   0.183   6.564
 1476SOL    HW2 5328   5.303   0.126   6.439
 1477SOL     OW 5329   3.377   4.184   1.629
 1477SOL    HW1 5330   3.367   4.283   1.641
 1477SOL    HW2 5331   3.286   4.142   1.630
 1478SOL     OW 5332   4.678   4.913   6.751
 1478SOL    HW1 5333   4.749   4.854   6.711
 1478SOL    HW2 5334   4.709   5.008   6.749
 1479SOL     OW 5335   4.749   3.344   1.464
 1479SOL    HW1 5336   4.713   3.422   1.515
 1479SOL    HW2 5337   4.699   3.261   1.491
 1480SOL     OW 5338   2.706   0.570   4.470
 1480SOL    HW1 5339   2.754   0.513   4.403
 1480SOL    HW2 5340   2.628   0.615   4.426
 1481SOL     OW 5341   4.523   2.369   6.078
 1481SOL    HW1 5342   4.495   2.314   5.999
 1481SOL    HW2 5343   4.623   2.366   6.086
 1482SOL     OW 5344   6.004   1.471   1.249
 1482SOL    HW1 5345   5.908   1.468   1.276
 1482SOL    HW2 5346   6.055   1.400   1.298
 1483SOL     OW 5347   5.979   0.853   0.382
 1483SOL    HW1 5348   5.962   0.886   0.290
 1483SOL    HW2 5349   5.901   0.797   0.412
 1484SOL     OW 5350   3.642   5.693   5.397
 1484SOL    HW1 5351   3.617   5.718   5.491
 1484SOL    HW2 5352   3.620   5.770   5.336
 1485SOL     OW 5353   4.902   3.572   3.420
 1485SOL    HW1 5354   4.910   3.622   3.334
 1485SOL    HW2 5355   4.890   3.475   3.401
 1486SOL     OW 5356   4.649   5.662   4.161
 1486SOL    HW1 5357   4.661   5.622   4.070
 1486SOL    HW2 5358   4.695   5.605   4.229
 1487SOL     OW 5359   6.358   1.467   0.807
 1487SOL    HW1 5360   6.447   1.473   0.762
 1487SOL    HW2 5361   6.321   1.559   0.821
 1488SOL     OW 5362   6.515   2.241   2.599
 1488SOL    HW1 5363   6.590   2.296   2.562
 1488SOL    HW2 5364   6.540   2.209   2.690
 1489SOL     OW 5365   3.131   4.980   6.923
 1489SOL    HW1 5366   3.136   4.935   6.834
 1489SOL    HW2 5367   3.175   5.070   6.917
 1490SOL     OW 5368   6.047   2.953   2.743
 1490SOL    HW1 5369   5.954   2.934   2.772
 1490SOL    HW2 5370   6.063   2.913   2.652
 1491SOL     OW 5371   5.822   2.619   3.643
 1491SOL    HW1 5372   5.781   2.696   3.691
 1491SOL    HW2 5373   5.774   2.603   3.557
 1492SOL     OW 5374   0.073   1.838   2.701
 1492SOL    HW1 5375   0.172   1.834   2.684
 1492SOL    HW2 5376   0.028   1.764   2.651
 1493SOL     OW 5377   5.925   1.983   6.142
 1493SOL    HW1 5378   5.989   2.057   6.120
 1493SOL    HW2 5379   5.972   1.895   6.138
 1494SOL     OW 5380   0.295   4.598   6.312
 1494SOL    HW1 5381   0.289   4.698   6.311
 1494SOL    HW2 5382   0.203   4.559   6.309
 1495SOL     OW 5383   6.569   3.808   4.306
 1495SOL    HW1 5384   6.544   3.728   4.360
 1495SOL    HW2 5385   6.496   3.876   4.312
 1496SOL     OW 5386   6.549   6.525   5.779
 1496SOL    HW1 5387   6.602   6.565   5.704
 1496SOL    HW2 5388   6.452   6.545   5.766
 1497SOL     OW 5389   5.968   2.443   2.533
 1497SOL    HW1 5390   6.054   2.434   2.583
 1497SOL    HW2 5391   5.968   2.531   2.485
 1498SOL     OW 5392   3.219   4.008   0.414
 1498SOL    HW1 5393   3.220   4.034   0.318
 1498SOL    HW2 5394   3.238   3.910   0.423
 1499SOL     OW 5395   7.012   4.559   4.332
 1499SOL    HW1 5396   6.988   4.555   4.429
 1499SOL    HW2 5397   0.060   4.625   4.318
 1500SOL     OW 5398   1.506   5.873   1.830
 1500SOL    HW1 5399   1.429   5.828   1.875
 1500SOL    HW2 5400   1.517   5.965   1.868
 1501SOL     OW 5401   6.726   1.907   0.793
 1501SOL    HW1 5402   6.653   1.971   0.769
 1501SOL    HW2 5403   6.753   1.855   0.711
 1502SOL     OW 5404   7.019   6.672   6.629
 1502SOL    HW1 5405   0.045   6.593   6.664
 1502SOL    HW2 5406   6.926   6.670   6.667
 1503SOL     OW 5407   0.380   4.577   1.706
 1503SOL    HW1 5408   0.307   4.623   1.656
 1503SOL    HW2 5409   0.408   4.634   1.784
 1504SOL     OW 5410   1.895   6.985   2.776
 1504SOL    HW1 5411   1.820   0.014   2.814
 1504SOL    HW2 5412   1.975   6.993   2.836
 1505SOL     OW 5413   6.280   5.216   5.073
 1505SOL    HW1 5414   6.376   5.217   5.047
 1505SOL    HW2 5415   6.234   5.296   5.035
 1506SOL     OW 5416   1.167   0.860   0.500
 1506SOL    HW1 5417   1.078   0.844   0.542
 1506SOL    HW2 5418   1.160   0.935   0.434
 1507SOL     OW 5419   2.792   2.249   3.516
 1507SOL    HW1 5420   2.750   2.162   3.490
 1507SOL    HW2 5421   2.823   2.297   3.434
 1508SOL     OW 5422   2.057   0.684   1.457
 1508SOL    HW1 5423   2.086   0.747   1.528
 1508SOL    HW2 5424   1.977   0.722   1.409
 1509SOL     OW 5425   5.524   0.903   4.041
 1509SOL    HW1 5426   5.538   0.833   3.971
 1509SOL    HW2 5427   5.435   0.889   4.085
 1510SOL     OW 5428   3.582   5.918   5.227
 1510SOL    HW1 5429   3.521   5.997   5.225
 1510SOL    HW2 5430   3.674   5.946   5.200
 1511SOL     OW 5431   2.893   3.655   4.917
 1511SOL    HW1 5432   2.793   3.655   4.913
 1511SOL    HW2 5433   2.923   3.649   5.012
 1512SOL     OW 5434   5.452   6.217   0.917
 1512SOL    HW1 5435   5.380   6.148   0.930
 1512SOL    HW2 5436   5.464   6.270   1.001
 1513SOL     OW 5437   2.600   0.756   5.335
 1513SOL    HW1 5438   2.679   0.750   5.395
 1513SOL    HW2 5439   2.516   0.745   5.388
 1514SOL     OW 5440   3.212   2.335   6.442
 1514SOL    HW1 5441   3.247   2.367   6.530
 1514SOL    HW2 5442   3.182   2.240   6.450
 1515SOL     OW 5443   3.777   0.621   2.696
 1515SOL    HW1 5444   3.804   0.712   2.665
 1515SOL    HW2 5445   3.808   0.606   2.790
 1516SOL     OW 5446   6.244   6.521   5.824
 1516SOL    HW1 5447   6.263   6.604   5.772
 1516SOL    HW2 5448   6.145   6.508   5.830
 1517SOL     OW 5449   3.200   5.799   3.561
 1517SOL    HW1 5450   3.112   5.752   3.568
 1517SOL    HW2 5451   3.195   5.871   3.492
 1518SOL     OW 5452   0.624   3.119   6.505
 1518SOL    HW1 5453   0.556   3.047   6.489
 1518SOL    HW2 5454   0.609   3.195   6.442
 1519SOL     OW 5455   6.976   4.647   6.881
 1519SOL    HW1 5456   7.009   4.602   6.798
 1519SOL    HW2 5457   6.876   4.645   6.883
 1520SOL     OW 5458   0.459   6.494   3.515
 1520SOL    HW1 5459   0.443   6.455   3.425
 1520SOL    HW2 5460   0.377   6.543   3.546
 1521SOL     OW 5461   2.180   5.280   6.180
 1521SOL    HW1 5462   2.210   5.368   6.142
 1521SOL    HW2 5463   2.246   5.250   6.249
 1522SOL     OW 5464   5.787   6.211   4.070
 1522SOL    HW1 5465   5.877   6.205   4.115
 1522SOL    HW2 5466   5.791   6.280   3.997
 1523SOL     OW 5467   2.799   6.622   0.745
 1523SOL    HW1 5468   2.840   6.661   0.828
 1523SOL    HW2 5469   2.804   6.688   0.671
 1524SOL     OW 5470   2.174   1.417   3.761
 1524SOL    HW1 5471   2.146   1.380   3.673
 1524SOL    HW2 5472   2.184   1.516   3.755
 1525SOL     OW 5473   5.176   4.304   6.546
 1525SOL    HW1 5474   5.152   4.332   6.453
 1525SOL    HW2 5475   5.165   4.381   6.608
 1526SOL     OW 5476   1.086   1.761   1.346
 1526SOL    HW1 5477   1.112   1.856   1.365
 1526SOL    HW2 5478   1.045   1.755   1.255
 1527SOL     OW 5479   5.124   1.777   4.619
 1527SOL    HW1 5480   5.025   1.765   4.616
 1527SOL    HW2 5481   5.168   1.689   4.601
 1528SOL     OW 5482   3.459   3.555   2.306
 1528SOL    HW1 5483   3.371   3.583   2.343
 1528SOL    HW2 5484   3.529   3.621   2.335
 1529SOL     OW 5485   4.877   1.765   6.024
 1529SOL    HW1 5486   4.790   1.726   6.053
 1529SOL    HW2 5487   4.879   1.771   5.924
 1530SOL     OW 5488   2.286   0.186   0.974
 1530SOL    HW1 5489   2.320   0.279   0.990
 1530SOL    HW2 5490   2.236   0.183   0.888
 1531SOL     OW 5491   4.814   5.755   4.485
 1531SOL    HW1 5492   4.766   5.669   4.466
 1531SOL    HW2 5493   4.763   5.830   4.443
 1532SOL     OW 5494   2.584   5.479   0.988
 1532SOL    HW1 5495   2.677   5.486   0.952
 1532SOL    HW2 5496   2.541   5.569   0.989
 1533SOL     OW 5497   5.518   5.894   1.055
 1533SOL    HW1 5498   5.522   5.823   1.126
 1533SOL    HW2 5499   5.451   5.868   0.985
 1534SOL     OW 5500   2.903   5.102   6.625
 1534SOL    HW1 5501   2.854   5.161   6.690
 1534SOL    HW2 5502   2.978   5.056   6.672
 1535SOL     OW 5503   5.413   4.301   3.642
 1535SOL    HW1 5504   5.413   4.401   3.642
 1535SOL    HW2 5505   5.322   4.268   3.616
 1536SOL     OW 5506   4.249   3.610   6.797
 1536SOL    HW1 5507   4.275   3.677   6.866
 1536SOL    HW2 5508   4.327   3.552   6.774
 1537SOL     OW 5509   2.778   5.095   2.659
 1537SOL    HW1 5510   2.731   5.008   2.645
 1537SOL    HW2 5511   2.860   5.098   2.602
 1538SOL     OW 5512   2.783   1.271   0.520
 1538SOL    HW1 5513   2.739   1.215   0.590
 1538SOL    HW2 5514   2.759   1.236   0.429
 1539SOL     OW 5515   6.034   3.193   0.772
 1539SOL    HW1 5516   6.073   3.156   0.688
 1539SOL    HW2 5517   5.948   3.240   0.751
 1540SOL     OW 5518   3.776   6.528   3.051
 1540SOL    HW1 5519   3.821   6.547   2.964
 1540SOL    HW2 5520   3.714   6.450   3.040
 1541SOL     OW 5521   4.321   2.597   5.779
 1541SOL    HW1 5522   4.264   2.540   5.839
 1541SOL    HW2 5523   4.348   2.679   5.829
 1542SOL     OW 5524   0.019   5.294   2.860
 1542SOL    HW1 5525   7.005   5.354   2.790
 1542SOL    HW2 5526   0.016   5.340   2.948
 1543SOL     OW 5527   3.099   5.474   0.182
 1543SOL    HW1 5528   3.192   5.510   0.174
 1543SOL    HW2 5529   3.072   5.431   0.096
 1544SOL     OW 5530   3.740   3.371   4.005
 1544SOL    HW1 5531   3.687   3.355   3.922
 1544SOL    HW2 5532   3.829   3.328   3.997
 1545SOL     OW 5533   5.622   5.315   1.529
 1545SOL    HW1 5534   5.564   5.348   1.604
 1545SOL    HW2 5535   5.569   5.310   1.445
 1546SOL     OW 5536   5.859   6.132   5.568
 1546SOL    HW1 5537   5.910   6.050   5.542
 1546SOL    HW2 5538   5.837   6.128   5.665
 1547SOL     OW 5539   2.292   3.615   6.178
 1547SOL    HW1 5540   2.379   3.655   6.208
 1547SOL    HW2 5541   2.239   3.684   6.128
 1548SOL     OW 5542   0.039   2.407   0.972
 1548SOL    HW1 5543   7.016   2.321   0.989
 1548SOL    HW2 5544   7.004   2.483   0.997
 1549SOL     OW 5545   5.029   0.736   4.806
 1549SOL    HW1 5546   4.937   0.724   4.844
 1549SOL    HW2 5547   5.093   0.761   4.879
 1550SOL     OW 5548   3.669   3.101   4.268
 1550SOL    HW1 5549   3.620   3.048   4.199
 1550SOL    HW2 5550   3.608   3.122   4.344
 1551SOL     OW 5551   6.988   4.779   5.398
 1551SOL    HW1 5552   0.029   4.708   5.421
 1551SOL    HW2 5553   6.942   4.810   5.481
 1552SOL     OW 5554   1.934   4.307   1.617
 1552SOL    HW1 5555   2.022   4.353   1.621
 1552SOL    HW2 5556   1.947   4.208   1.624
 1553SOL     OW 5557   1.889   2.385   6.218
 1553SOL    HW1 5558   1.885   2.285   6.216
 1553SOL    HW2 5559   1.981   2.414   6.190
 1554SOL     OW 5560   3.911   1.813   3.617
 1554SOL    HW1 5561   3.969   1.831   3.697
 1554SOL    HW2 5562   3.815   1.821   3.643
 1555SOL     OW 5563   6.027   4.863   5.300
 1555SOL    HW1 5564   6.021   4.928   5.376
 1555SOL    HW2 5565   5.952   4.797   5.307
 1556SOL     OW 5566   1.955   0.796   5.752
 1556SOL    HW1 5567   1.865   0.783   5.794
 1556SOL    HW2 5568   1.955   0.883   5.701
 1557SOL     OW 5569   0.557   2.021   5.205
 1557SOL    HW1 5570   0.520   1.934   5.238
 1557SOL    HW2 5571   0.637   2.003   5.147
 1558SOL     OW 5572   0.082   6.463   4.574
 1558SOL    HW1 5573   0.090   6.365   4.561
 1558SOL    HW2 5574   7.020   6.496   4.536
 1559SOL     OW 5575   1.555   1.486   5.608
 1559SOL    HW1 5576   1.650   1.508   5.630
 1559SOL    HW2 5577   1.552   1.429   5.526
 1560SOL     OW 5578   6.850   0.621   7.016
 1560SOL    HW1 5579   6.916   0.555   6.980
 1560SOL    HW2 5580   6.889   0.713   7.009
 1561SOL     OW 5581   6.048   6.167   2.310
 1561SOL    HW1 5582   5.977   6.126   2.367
 1561SOL    HW2 5583   6.021   6.163   2.214
 1562SOL     OW 5584   5.924   0.730   4.000
 1562SOL    HW1 5585   5.931   0.821   3.959
 1562SOL    HW2 5586   6.014   0.687   4.003
 1563SOL     OW 5587   3.219   6.884   5.904
 1563SOL    HW1 5588   3.261   6.794   5.912
 1563SOL    HW2 5589   3.122   6.875   5.883
 1564SOL     OW 5590   0.786   1.959   3.402
 1564SOL    HW1 5591   0.841   1.936   3.483
 1564SOL    HW2 5592   0.690   1.945   3.423
 1565SOL     OW 5593   6.463   4.015   1.530
 1565SOL    HW1 5594   6.557   4.018   1.497
 1565SOL    HW2 5595   6.463   4.009   1.630
 1566SOL     OW 5596   5.717   4.148   2.801
 1566SOL    HW1 5597   5.742   4.244   2.785
 1566SOL    HW2 5598   5.628   4.129   2.759
 1567SOL     OW 5599   6.512   5.782   5.133
 1567SOL    HW1 5600   6.560   5.702   5.097
 1567SOL    HW2 5601   6.424   5.753   5.171
 1568SOL     OW 5602   6.952   0.060   6.855
 1568SOL    HW1 5603   0.025   0.082   6.859
 1568SOL    HW2 5604   6.903   0.112   6.925
 1569SOL     OW 5605   3.254   6.236   5.105
 1569SOL    HW1 5606   3.225   6.316   5.156
 1569SOL    HW2 5607   3.177   6.199   5.052
 1570SOL     OW 5608   3.076   2.024   1.939
 1570SOL    HW1 5609   3.012   2.064   2.005
 1570SOL    HW2 5610   3.085   2.085   1.861
 1571SOL     OW 5611   0.259   3.526   0.451
 1571SOL    HW1 5612   0.235   3.480   0.536
 1571SOL    HW2 5613   0.341   3.484   0.412
 1572SOL     OW 5614   1.036   5.502   2.533
 1572SOL    HW1 5615   1.068   5.411   2.507
 1572SOL    HW2 5616   1.012   5.503   2.630
 1573SOL     OW 5617   4.245   6.780   0.064
 1573SOL    HW1 5618   4.286   6.829   7.011
 1573SOL    HW2 5619   4.205   6.846   0.128
 1574SOL     OW 5620   5.504   2.288   2.128
 1574SOL    HW1 5621   5.553   2.241   2.055
 1574SOL    HW2 5622   5.407   2.262   2.126
 1575SOL     OW 5623   3.289   1.560   0.293
 1575SOL    HW1 5624   3.332   1.637   0.340
 1575SOL    HW2 5625   3.318   1.474   0.335
 1576SOL     OW 5626   5.952   5.657   3.485
 1576SOL    HW1 5627   6.015   5.631   3.558
 1576SOL    HW2 5628   5.978   5.612   3.400
 1577SOL     OW 5629   1.160   0.415   0.261
 1577SOL    HW1 5630   1.066   0.405   0.228
 1577SOL    HW2 5631   1.180   0.340   0.324
 1578SOL     OW 5632   5.926   5.333   4.832
 1578SOL    HW1 5633   5.827   5.344   4.840
 1578SOL    HW2 5634   5.946   5.273   4.755
 1579SOL     OW 5635   0.155   7.024   2.969
 1579SOL    HW1 5636   0.116   0.085   3.001
 1579SOL    HW2 5637   0.139   7.016   2.870
 1580SOL     OW 5638   3.073   3.613   5.957
 1580SOL    HW1 5639   3.016   3.566   6.025
 1580SOL    HW2 5640   3.058   3.572   5.867
 1581SOL     OW 5641   6.271   3.578   4.715
 1581SOL    HW1 5642   6.276   3.677   4.724
 1581SOL    HW2 5643   6.363   3.539   4.724
 1582SOL     OW 5644   5.884   6.322   4.908
 1582SOL    HW1 5645   5.959   6.375   4.871
 1582SOL    HW2 5646   5.808   6.321   4.844
 1583SOL     OW 5647   2.209   1.972   2.216
 1583SOL    HW1 5648   2.214   2.071   2.204
 1583SOL    HW2 5649   2.292   1.930   2.179
 1584SOL     OW 5650   2.399   0.763   6.424
 1584SOL    HW1 5651   2.455   0.789   6.503
 1584SOL    HW2 5652   2.419   0.668   6.399
 1585SOL     OW 5653   5.723   1.047   5.912
 1585SOL    HW1 5654   5.703   1.144   5.899
 1585SOL    HW2 5655   5.638   0.995   5.902
 1586SOL     OW 5656   4.053   3.822   2.920
 1586SOL    HW1 5657   4.048   3.824   3.020
 1586SOL    HW2 5658   4.148   3.807   2.892
 1587SOL     OW 5659   2.498   6.796   6.453
 1587SOL    HW1 5660   2.553   6.784   6.370
 1587SOL    HW2 5661   2.409   6.753   6.441
 1588SOL     OW 5662   5.887   3.864   1.483
 1588SOL    HW1 5663   5.983   3.874   1.455
 1588SOL    HW2 5664   5.845   3.954   1.490
 1589SOL     OW 5665   4.918   4.649   3.370
 1589SOL    HW1 5666   4.859   4.683   3.296
 1589SOL    HW2 5667   4.878   4.672   3.458
 1590SOL     OW 5668   1.824   6.798   5.181
 1590SOL    HW1 5669   1.906   6.754   5.144
 1590SOL    HW2 5670   1.780   6.737   5.246
 1591SOL     OW 5671   1.266   3.642   0.738
 1591SOL    HW1 5672   1.224   3.685   0.818
 1591SOL    HW2 5673   1.323   3.709   0.690
 1592SOL     OW 5674   3.306   3.907   3.666
 1592SOL    HW1 5675   3.219   3.931   3.709
 1592SOL    HW2 5676   3.380   3.925   3.730
 1593SOL     OW 5677   1.585   5.025   4.557
 1593SOL    HW1 5678   1.564   5.077   4.474
 1593SOL    HW2 5679   1.510   4.962   4.577
 1594SOL     OW 5680   1.319   5.348   3.294
 1594SOL    HW1 5681   1.240   5.304   3.337
 1594SOL    HW2 5682   1.314   5.337   3.195
 1595SOL     OW 5683   6.843   4.600   5.269
 1595SOL    HW1 5684   6.898   4.554   5.201
 1595SOL    HW2 5685   6.901   4.663   5.322
 1596SOL     OW 5686   2.726   5.720   0.120
 1596SOL    HW1 5687   2.629   5.715   0.096
 1596SOL    HW2 5688   2.749   5.646   0.183
 1597SOL     OW 5689   2.351   0.162   0.075
 1597SOL    HW1 5690   2.295   0.149   0.157
 1597SOL    HW2 5691   2.371   0.073   0.034
 1598SOL     OW 5692   6.592   5.195   1.393
 1598SOL    HW1 5693   6.628   5.105   1.368
 1598SOL    HW2 5694   6.594   5.205   1.493
 1599SOL     OW 5695   2.976   5.098   0.266
 1599SOL    HW1 5696   3.039   5.086   0.188
 1599SOL    HW2 5697   3.001   5.180   0.317
 1600SOL     OW 5698   2.986   1.383   5.319
 1600SOL    HW1 5699   3.072   1.346   5.282
 1600SOL    HW2 5700   2.942   1.441   5.251
 1601SOL     OW 5701   1.349   5.153   5.059
 1601SOL    HW1 5702   1.336   5.203   5.144
 1601SOL    HW2 5703   1.428   5.093   5.067
 1602SOL     OW 5704   0.888   3.567   2.326
 1602SOL    HW1 5705   0.831   3.617   2.392
 1602SOL    HW2 5706   0.852   3.475   2.314
 1603SOL     OW 5707   5.558   6.437   0.464
 1603SOL    HW1 5708   5.559   6.377   0.544
 1603SOL    HW2 5709   5.652   6.457   0.436
 1604SOL     OW 5710   0.422   5.692   4.688
 1604SOL    HW1 5711   0.518   5.664   4.689
 1604SOL    HW2 5712   0.404   5.747   4.607
 1605SOL     OW 5713   5.040   6.210   3.160
 1605SOL    HW1 5714   5.078   6.142   3.097
 1605SOL    HW2 5715   5.095   6.213   3.243
 1606SOL     OW 5716   5.580   6.324   4.936
 1606SOL    HW1 5717   5.597   6.403   4.877
 1606SOL    HW2 5718   5.664   6.299   4.984
 1607SOL     OW 5719   4.763   2.974   0.930
 1607SOL    HW1 5720   4.794   3.030   1.007
 1607SOL    HW2 5721   4.695   2.908   0.962
 1608SOL     OW 5722   2.709   0.828   0.330
 1608SOL    HW1 5723   2.721   0.850   0.233
 1608SOL    HW2 5724   2.621   0.863   0.362
 1609SOL     OW 5725   5.342   0.984   5.592
 1609SOL    HW1 5726   5.291   0.917   5.537
 1609SOL    HW2 5727   5.338   1.073   5.548
 1610SOL     OW 5728   5.025   6.473   3.090
 1610SOL    HW1 5729   5.068   6.531   3.159
 1610SOL    HW2 5730   5.035   6.377   3.116
 1611SOL     OW 5731   4.235   2.938   1.661
 1611SOL    HW1 5732   4.208   2.850   1.701
 1611SOL    HW2 5733   4.253   2.926   1.564
 1612SOL     OW 5734   3.591   0.878   4.460
 1612SOL    HW1 5735   3.615   0.855   4.555
 1612SOL    HW2 5736   3.554   0.970   4.457
 1613SOL     OW 5737   1.709   0.224   0.834
 1613SOL    HW1 5738   1.721   0.138   0.784
 1613SOL    HW2 5739   1.725   0.208   0.932
 1614SOL     OW 5740   0.355   2.470   5.717
 1614SOL    HW1 5741   0.275   2.484   5.775
 1614SOL    HW2 5742   0.426   2.537   5.740
 1615SOL     OW 5743   6.321   4.879   5.614
 1615SOL    HW1 5744   6.370   4.831   5.541
 1615SOL    HW2 5745   6.366   4.861   5.702
 1616SOL     OW 5746   2.628   2.021   6.112
 1616SOL    HW1 5747   2.647   1.997   6.016
 1616SOL    HW2 5748   2.586   1.943   6.158
 1617SOL     OW 5749   4.202   0.269   4.358
 1617SOL    HW1 5750   4.266   0.193   4.367
 1617SOL    HW2 5751   4.109   0.238   4.379
 1618SOL     OW 5752   5.643   2.604   1.991
 1618SOL    HW1 5753   5.551   2.568   2.008
 1618SOL    HW2 5754   5.640   2.669   1.915
 1619SOL     OW 5755   1.984   3.049   4.452
 1619SOL    HW1 5756   2.060   3.101   4.490
 1619SOL    HW2 5757   1.996   3.040   4.353
 1620SOL     OW 5758   3.504   5.832   1.676
 1620SOL    HW1 5759   3.567   5.789   1.741
 1620SOL    HW2 5760   3.424   5.773   1.663
 1621SOL     OW 5761   2.206   1.652   2.146
 1621SOL    HW1 5762   2.172   1.745   2.129
 1621SOL    HW2 5763   2.155   1.588   2.089
 1622SOL     OW 5764   2.225   2.389   4.778
 1622SOL    HW1 5765   2.288   2.467   4.785
 1622SOL    HW2 5766   2.188   2.369   4.869
 1623SOL     OW 5767   2.191   2.073   4.755
 1623SOL    HW1 5768   2.199   2.168   4.785
 1623SOL    HW2 5769   2.242   2.060   4.670
 1624SOL     OW 5770   2.226   0.894   0.594
 1624SOL    HW1 5771   2.281   0.925   0.672
 1624SOL    HW2 5772   2.149   0.839   0.628
 1625SOL     OW 5773   0.500   5.959   1.354
 1625SOL    HW1 5774   0.483   5.902   1.434
 1625SOL    HW2 5775   0.426   5.946   1.287
 1626SOL     OW 5776   2.154   2.856   5.835
 1626SOL    HW1 5777   2.095   2.934   5.815
 1626SOL    HW2 5778   2.241   2.867   5.787
 1627SOL     OW 5779   4.882   3.411   3.838
 1627SOL    HW1 5780   4.877   3.480   3.767
 1627SOL    HW2 5781   4.837   3.446   3.921
 1628SOL     OW 5782   2.743   3.360   0.218
 1628SOL    HW1 5783   2.805   3.281   0.210
 1628SOL    HW2 5784   2.675   3.355   0.145
 1629SOL     OW 5785   3.490   2.024   2.690
 1629SOL    HW1 5786   3.525   2.045   2.781
 1629SOL    HW2 5787   3.431   1.944   2.694
 1630SOL     OW 5788   6.396   4.947   4.480
 1630SOL    HW1 5789   6.329   5.010   4.439
 1630SOL    HW2 5790   6.388   4.857   4.438
 1631SOL     OW 5791   0.681   6.563   5.823
 1631SOL    HW1 5792   0.744   6.612   5.883
 1631SOL    HW2 5793   0.670   6.469   5.854
 1632SOL     OW 5794   4.700   6.990   0.413
 1632SOL    HW1 5795   4.744   0.016   0.339
 1632SOL    HW2 5796   4.769   6.963   0.481
 1633SOL     OW 5797   5.896   3.379   3.760
 1633SOL    HW1 5798   5.847   3.448   3.707
 1633SOL    HW2 5799   5.986   3.362   3.719
 1634SOL     OW 5800   4.297   0.768   0.762
 1634SOL    HW1 5801   4.293   0.860   0.799
 1634SOL    HW2 5802   4.256   0.704   0.828
 1635SOL     OW 5803   0.878   5.142   3.899
 1635SOL    HW1 5804   0.800   5.102   3.949
 1635SOL    HW2 5805   0.895   5.089   3.817
 1636SOL     OW 5806   2.355   6.430   0.437
 1636SOL    HW1 5807   2.422   6.492   0.477
 1636SOL    HW2 5808   2.381   6.335   0.457
 1637SOL     OW 5809   0.797   2.511   2.762
 1637SOL    HW1 5810   0.810   2.566   2.845
 1637SOL    HW2 5811   0.709   2.535   2.720
 1638SOL     OW 5812   1.103   2.722   5.927
 1638SOL    HW1 5813   1.022   2.695   5.875
 1638SOL    HW2 5814   1.131   2.647   5.986
 1639SOL     OW 5815   4.447   5.040   3.167
 1639SOL    HW1 5816   4.424   4.942   3.171
 1639SOL    HW2 5817   4.433   5.073   3.074
 1640SOL     OW 5818   5.447   0.381   0.913
 1640SOL    HW1 5819   5.487   0.472   0.926
 1640SOL    HW2 5820   5.372   0.387   0.848
 1641SOL     OW 5821   6.646   2.888   5.252
 1641SOL    HW1 5822   6.705   2.901   5.332
 1641SOL    HW2 5823   6.699   2.849   5.177
 1642SOL     OW 5824   0.410   2.460   1.647
 1642SOL    HW1 5825   0.503   2.488   1.670
 1642SOL    HW2 5826   0.408   2.362   1.627
 1643SOL     OW 5827   3.673   0.779   5.943
 1643SOL    HW1 5828   3.602   0.847   5.961
 1643SOL    HW2 5829   3.714   0.797   5.854
 1644SOL     OW 5830   3.973   0.944   0.371
 1644SOL    HW1 5831   3.938   0.928   0.463
 1644SOL    HW2 5832   3.944   0.870   0.311
 1645SOL     OW 5833   2.089   6.480   5.982
 1645SOL    HW1 5834   2.034   6.443   6.058
 1645SOL    HW2 5835   2.033   6.482   5.899
 1646SOL     OW 5836   1.735   3.964   0.342
 1646SOL    HW1 5837   1.724   3.940   0.438
 1646SOL    HW2 5838   1.715   3.884   0.285
 1647SOL     OW 5839   5.772   2.824   2.814
 1647SOL    HW1 5840   5.773   2.814   2.714
 1647SOL    HW2 5841   5.762   2.734   2.856
 1648SOL     OW 5842   3.923   0.135   2.554
 1648SOL    HW1 5843   3.896   0.158   2.461
 1648SOL    HW2 5844   3.928   0.218   2.609
 1649SOL     OW 5845   2.544   6.839   2.984
 1649SOL    HW1 5846   2.639   6.827   2.957
 1649SOL    HW2 5847   2.500   6.905   2.924
 1650SOL     OW 5848   3.123   7.022   3.751
 1650SOL    HW1 5849   3.118   0.065   3.824
 1650SOL    HW2 5850   3.200   6.960   3.768
 1651SOL     OW 5851   1.512   0.436   1.769
 1651SOL    HW1 5852   1.589   0.494   1.740
 1651SOL    HW2 5853   1.457   0.485   1.836
 1652SOL     OW 5854   3.039   3.184   1.866
 1652SOL    HW1 5855   3.118   3.216   1.814
 1652SOL    HW2 5856   2.957   3.232   1.834
 1653SOL     OW 5857   1.548   4.934   0.784
 1653SOL    HW1 5858   1.604   4.964   0.861
 1653SOL    HW2 5859   1.463   4.894   0.817
 1654SOL     OW 5860   0.274   1.602   3.569
 1654SOL    HW1 5861   0.362   1.624   3.611
 1654SOL    HW2 5862   0.202   1.601   3.638
 1655SOL     OW 5863   4.555   4.397   5.685
 1655SOL    HW1 5864   4.616   4.474   5.707
 1655SOL    HW2 5865   4.598   4.312   5.714
 1656SOL     OW 5866   0.426   4.156   2.483
 1656SOL    HW1 5867   0.375   4.080   2.524
 1656SOL    HW2 5868   0.459   4.217   2.555
 1657SOL     OW 5869   0.988   0.163   5.037
 1657SOL    HW1 5870   1.085   0.183   5.052
 1657SOL    HW2 5871   0.933   0.240   5.069
 1658SOL     OW 5872   6.448   6.144   2.870
 1658SOL    HW1 5873   6.393   6.105   2.796
 1658SOL    HW2 5874   6.526   6.194   2.831
 1659SOL     OW 5875   5.096   2.153   6.322
 1659SOL    HW1 5876   5.025   2.193   6.380
 1659SOL    HW2 5877   5.107   2.056   6.344
 1660SOL     OW 5878   2.597   6.178   3.138
 1660SOL    HW1 5879   2.684   6.190   3.184
 1660SOL    HW2 5880   2.547   6.102   3.180
 1661SOL     OW 5881   3.043   0.271   3.133
 1661SOL    HW1 5882   3.122   0.271   3.072
 1661SOL    HW2 5883   3.065   0.323   3.215
 1662SOL     OW 5884   6.624   0.877   2.673
 1662SOL    HW1 5885   6.546   0.908   2.618
 1662SOL    HW2 5886   6.682   0.816   2.618
 1663SOL     OW 5887   1.912   0.530   3.694
 1663SOL    HW1 5888   1.835   0.578   3.651
 1663SOL    HW2 5889   1.993   0.540   3.637
 1664SOL     OW 5890   2.396   4.934   4.326
 1664SOL    HW1 5891   2.334   4.863   4.295
 1664SOL    HW2 5892   2.490   4.909   4.302
 1665SOL     OW 5893   1.267   0.913   4.036
 1665SOL    HW1 5894   1.192   0.921   3.970
 1665SOL    HW2 5895   1.273   0.818   4.067
 1666SOL     OW 5896   5.503   3.156   6.130
 1666SOL    HW1 5897   5.574   3.121   6.069
 1666SOL    HW2 5898   5.420   3.176   6.077
 1667SOL     OW 5899   6.674   1.068   6.819
 1667SOL    HW1 5900   6.610   1.033   6.889
 1667SOL    HW2 5901   6.749   1.116   6.864
 1668SOL     OW 5902   1.911   0.429   5.072
 1668SOL    HW1 5903   1.954   0.518   5.058
 1668SOL    HW2 5904   1.971   0.357   5.036
 1669SOL     OW 5905   5.898   5.949   6.338
 1669SOL    HW1 5906   5.942   5.859   6.340
 1669SOL    HW2 5907   5.959   6.018   6.378
 1670SOL     OW 5908   6.582   3.483   6.654
 1670SOL    HW1 5909   6.548   3.480   6.747
 1670SOL    HW2 5910   6.507   3.502   6.591
 1671SOL     OW 5911   5.994   5.032   0.265
 1671SOL    HW1 5912   5.994   5.080   0.352
 1671SOL    HW2 5913   6.067   5.067   0.207
 1672SOL     OW 5914   2.124   5.344   2.165
 1672SOL    HW1 5915   2.120   5.403   2.246
 1672SOL    HW2 5916   2.156   5.253   2.192
 1673SOL     OW 5917   6.548   2.314   3.408
 1673SOL    HW1 5918   6.568   2.410   3.427
 1673SOL    HW2 5919   6.482   2.308   3.332
 1674SOL     OW 5920   2.051   5.581   6.784
 1674SOL    HW1 5921   2.111   5.633   6.724
 1674SOL    HW2 5922   2.004   5.510   6.732
 1675SOL     OW 5923   4.653   2.238   0.598
 1675SOL    HW1 5924   4.695   2.325   0.573
 1675SOL    HW2 5925   4.554   2.248   0.600
 1676SOL     OW 5926   2.698   1.183   4.031
 1676SOL    HW1 5927   2.635   1.165   4.107
 1676SOL    HW2 5928   2.792   1.178   4.064
 1677SOL     OW 5929   5.866   0.403   5.697
 1677SOL    HW1 5930   5.800   0.478   5.698
 1677SOL    HW2 5931   5.917   0.405   5.612
 1678SOL     OW 5932   4.940   0.398   1.569
 1678SOL    HW1 5933   5.028   0.351   1.575
 1678SOL    HW2 5934   4.867   0.336   1.600
 1679SOL     OW 5935   5.251   4.448   0.288
 1679SOL    HW1 5936   5.243   4.530   0.231
 1679SOL    HW2 5937   5.302   4.470   0.371
 1680SOL     OW 5938   1.348   2.360   5.055
 1680SOL    HW1 5939   1.427   2.299   5.041
 1680SOL    HW2 5940   1.330   2.368   5.153
 1681SOL     OW 5941   4.669   5.377   0.456
 1681SOL    HW1 5942   4.623   5.325   0.528
 1681SOL    HW2 5943   4.734   5.440   0.497
 1682SOL     OW 5944   6.969   3.565   5.586
 1682SOL    HW1 5945   6.949   3.663   5.599
 1682SOL    HW2 5946   6.895   3.511   5.626
 1683SOL     OW 5947   5.499   5.544   5.900
 1683SOL    HW1 5948   5.544   5.456   5.885
 1683SOL    HW2 5949   5.442   5.539   5.982
 1684SOL     OW 5950   0.337   6.632   4.155
 1684SOL    HW1 5951   0.425   6.615   4.112
 1684SOL    HW2 5952   0.347   6.630   4.255
 1685SOL     OW 5953   1.258   1.357   0.419
 1685SOL    HW1 5954   1.214   1.356   0.509
 1685SOL    HW2 5955   1.198   1.403   0.353
 1686SOL     OW 5956   2.365   6.297   6.654
 1686SOL    HW1 5957   2.396   6.209   6.619
 1686SOL    HW2 5958   2.421   6.370   6.612
 1687SOL     OW 5959   2.698   6.181   2.269
 1687SOL    HW1 5960   2.684   6.082   2.265
 1687SOL    HW2 5961   2.625   6.227   2.218
 1688SOL     OW 5962   0.741   1.179   3.375
 1688SOL    HW1 5963   0.820   1.194   3.316
 1688SOL    HW2 5964   0.746   1.088   3.416
 1689SOL     OW 5965   3.217   1.835   2.211
 1689SOL    HW1 5966   3.237   1.930   2.236
 1689SOL    HW2 5967   3.161   1.834   2.128
 1690SOL     OW 5968   1.090   2.274   0.734
 1690SOL    HW1 5969   1.125   2.180   0.742
 1690SOL    HW2 5970   1.041   2.284   0.648
 1691SOL     OW 5971   4.242   5.099   2.475
 1691SOL    HW1 5972   4.228   5.155   2.393
 1691SOL    HW2 5973   4.336   5.064   2.476
 1692SOL     OW 5974   1.737   0.062   3.191
 1692SOL    HW1 5975   1.661   0.125   3.206
 1692SOL    HW2 5976   1.725   7.006   3.248
 1693SOL     OW 5977   3.407   1.749   3.839
 1693SOL    HW1 5978   3.455   1.828   3.878
 1693SOL    HW2 5979   3.441   1.666   3.882
 1694SOL     OW 5980   5.720   5.740   5.272
 1694SOL    HW1 5981   5.676   5.686   5.345
 1694SOL    HW2 5982   5.816   5.712   5.264
 1695SOL     OW 5983   3.897   1.255   6.172
 1695SOL    HW1 5984   3.977   1.274   6.230
 1695SOL    HW2 5985   3.909   1.167   6.126
 1696SOL     OW 5986   3.313   5.753   1.990
 1696SOL    HW1 5987   3.274   5.843   2.008
 1696SOL    HW2 5988   3.261   5.708   1.918
 1697SOL     OW 5989   1.113   1.821   1.789
 1697SOL    HW1 5990   1.187   1.885   1.810
 1697SOL    HW2 5991   1.118   1.743   1.852
 1698SOL     OW 5992   5.020   2.298   0.878
 1698SOL    HW1 5993   5.035   2.222   0.940
 1698SOL    HW2 5994   4.926   2.295   0.843
 1699SOL     OW 5995   2.890   4.963   0.529
 1699SOL    HW1 5996   2.798   4.966   0.490
 1699SOL    HW2 5997   2.954   5.010   0.468
 1700SOL     OW 5998   6.427   2.566   4.605
 1700SOL    HW1 5999   6.376   2.615   4.534
 1700SOL    HW2 6000   6.463   2.481   4.568
 1701SOL     OW 6001   6.254   2.859   5.287
 1701SOL    HW1 6002   6.155   2.854   5.274
 1701SOL    HW2 6003   6.296   2.892   5.203
 1702SOL     OW 6004   4.628   2.712   1.914
 1702SOL    HW1 6005   4.591   2.745   1.827
 1702SOL    HW2 6006   4.656   2.790   1.970
 1703SOL     OW 6007   1.607   3.713   0.261
 1703SOL    HW1 6008   1.653   3.631   0.295
 1703SOL    HW2 6009   1.513   3.714   0.296
 1704SOL     OW 6010   6.998   0.969   1.686
 1704SOL    HW1 6011   6.907   0.944   1.653
 1704SOL    HW2 6012   7.013   1.067   1.670
 1705SOL     OW 6013   4.026   3.058   2.961
 1705SOL    HW1 6014   4.090   3.080   2.888
 1705SOL    HW2 6015   3.947   3.011   2.924
 1706SOL     OW 6016   2.488   0.490   6.410
 1706SOL    HW1 6017   2.519   0.433   6.486
 1706SOL    HW2 6018   2.568   0.533   6.367
 1707SOL     OW 6019   4.909   1.485   2.809
 1707SOL    HW1 6020   4.889   1.439   2.723
 1707SOL    HW2 6021   5.006   1.476   2.831
 1708SOL     OW 6022   0.084   4.559   1.443
 1708SOL    HW1 6023   0.101   4.468   1.480
 1708SOL    HW2 6024   0.105   4.559   1.345
 1709SOL     OW 6025   2.473   5.284   4.978
 1709SOL    HW1 6026   2.520   5.310   5.062
 1709SOL    HW2 6027   2.528   5.218   4.928
 1710SOL     OW 6028   6.665   5.365   4.246
 1710SOL    HW1 6029   6.731   5.423   4.293
 1710SOL    HW2 6030   6.645   5.285   4.303
 1711SOL     OW 6031   1.633   4.272   5.393
 1711SOL    HW1 6032   1.727   4.245   5.416
 1711SOL    HW2 6033   1.604   4.223   5.311
 1712SOL     OW 6034   1.965   4.854   1.655
 1712SOL    HW1 6035   2.005   4.846   1.564
 1712SOL    HW2 6036   1.872   4.889   1.648
 1713SOL     OW 6037   1.807   3.238   0.848
 1713SOL    HW1 6038   1.886   3.297   0.837
 1713SOL    HW2 6039   1.828   3.147   0.813
 1714SOL     OW 6040   4.144   1.160   1.741
 1714SOL    HW1 6041   4.205   1.085   1.766
 1714SOL    HW2 6042   4.067   1.162   1.805
 1715SOL     OW 6043   0.568   3.050   3.575
 1715SOL    HW1 6044   0.557   3.139   3.619
 1715SOL    HW2 6045   0.479   3.009   3.561
 1716SOL     OW 6046   0.422   0.397   0.061
 1716SOL    HW1 6047   0.504   0.363   0.107
 1716SOL    HW2 6048   0.449   0.456   7.009
 1717SOL     OW 6049   2.996   6.977   6.806
 1717SOL    HW1 6050   3.006   6.976   6.905
 1717SOL    HW2 6051   2.998   0.046   6.773
 1718SOL     OW 6052   1.563   4.501   5.524
 1718SOL    HW1 6053   1.590   4.408   5.499
 1718SOL    HW2 6054   1.502   4.498   5.603
 1719SOL     OW 6055   2.030   3.562   1.556
 1719SOL    HW1 6056   2.072   3.555   1.466
 1719SOL    HW2 6057   1.953   3.626   1.552
 1720SOL     OW 6058   6.745   1.515   2.253
 1720SOL    HW1 6059   6.699   1.603   2.261
 1720SOL    HW2 6060   6.778   1.487   2.343
 1721SOL     OW 6061   1.486   6.188   4.238
 1721SOL    HW1 6062   1.517   6.241   4.316
 1721SOL    HW2 6063   1.482   6.091   4.262
 1722SOL     OW 6064   5.756   0.314   1.652
 1722SOL    HW1 6065   5.801   0.291   1.739
 1722SOL    HW2 6066   5.713   0.232   1.614
 1723SOL     OW 6067   5.927   1.134   2.685
 1723SOL    HW1 6068   5.978   1.081   2.753
 1723SOL    HW2 6069   5.831   1.140   2.713
 1724SOL     OW 6070   5.505   0.374   0.135
 1724SOL    HW1 6071   5.410   0.392   0.111
 1724SOL    HW2 6072   5.552   0.336   0.055
 1725SOL     OW 6073   3.624   5.578   2.259
 1725SOL    HW1 6074   3.628   5.489   2.212
 1725SOL    HW2 6075   3.628   5.564   2.358
 1726SOL     OW 6076   6.790   3.626   4.598
 1726SOL    HW1 6077   6.824   3.587   4.513
 1726SOL    HW2 6078   6.849   3.597   4.674
 1727SOL     OW 6079   2.780   3.442   5.293
 1727SOL    HW1 6080   2.802   3.534   5.259
 1727SOL    HW2 6081   2.855   3.380   5.273
 1728SOL     OW 6082   4.548   5.004   3.806
 1728SOL    HW1 6083   4.489   5.028   3.883
 1728SOL    HW2 6084   4.613   5.079   3.790
 1729SOL     OW 6085   1.551   3.667   2.226
 1729SOL    HW1 6086   1.627   3.607   2.202
 1729SOL    HW2 6087   1.551   3.747   2.167
 1730SOL     OW 6088   5.604   2.396   4.660
 1730SOL    HW1 6089   5.628   2.492   4.674
 1730SOL    HW2 6090   5.507   2.383   4.677
 1731SOL     OW 6091   6.944   6.530   0.653
 1731SOL    HW1 6092   6.962   6.628   0.663
 1731SOL    HW2 6093   0.003   6.480   0.673
 1732SOL     OW 6094   0.439   4.405   6.948
 1732SOL    HW1 6095   0.466   4.363   6.862
 1732SOL    HW2 6096   0.340   4.398   6.960
 1733SOL     OW 6097   0.957   4.022   0.122
 1733SOL    HW1 6098   0.865   3.989   0.144
 1733SOL    HW2 6099   0.993   3.971   0.044
 1734SOL     OW 6100   4.897   3.835   1.404
 1734SOL    HW1 6101   4.864   3.744   1.379
 1734SOL    HW2 6102   4.995   3.832   1.420
 1735SOL     OW 6103   5.077   5.792   0.630
 1735SOL    HW1 6104   5.083   5.729   0.552
 1735SOL    HW2 6105   5.167   5.803   0.672
 1736SOL     OW 6106   2.984   3.550   0.352
 1736SOL    HW1 6107   3.062   3.492   0.377
 1736SOL    HW2 6108   2.922   3.499   0.293
 1737SOL     OW 6109   0.612   5.578   3.592
 1737SOL    HW1 6110   0.597   5.654   3.528
 1737SOL    HW2 6111   0.685   5.520   3.557
 1738SOL     OW 6112   1.226   1.386   1.701
 1738SOL    HW1 6113   1.324   1.364   1.705
 1738SOL    HW2 6114   1.175   1.304   1.673
 1739SOL     OW 6115   4.317   2.440   6.210
 1739SOL    HW1 6116   4.409   2.416   6.178
 1739SOL    HW2 6117   4.310   2.421   6.308
 1740SOL     OW 6118   0.700   1.364   5.514
 1740SOL    HW1 6119   0.785   1.416   5.525
 1740SOL    HW2 6120   0.701   1.318   5.425
 1741SOL     OW 6121   2.258   1.275   2.262
 1741SOL    HW1 6122   2.348   1.243   2.233
 1741SOL    HW2 6123   2.251   1.374   2.248
 1742SOL     OW 6124   5.689   6.812   4.127
 1742SOL    HW1 6125   5.715   6.854   4.041
 1742SOL    HW2 6126   5.632   6.731   4.109
 1743SOL     OW 6127   4.869   1.255   0.649
 1743SOL    HW1 6128   4.809   1.208   0.714
 1743SOL    HW2 6129   4.959   1.210   0.648
 1744SOL     OW 6130   3.066   5.918   1.994
 1744SOL    HW1 6131   3.028   6.009   1.979
 1744SOL    HW2 6132   3.029   5.855   1.925
 1745SOL     OW 6133   6.860   3.351   4.996
 1745SOL    HW1 6134   6.955   3.347   5.026
 1745SOL    HW2 6135   6.800   3.333   5.074
 1746SOL     OW 6136   2.635   0.873   5.711
 1746SOL    HW1 6137   2.637   0.971   5.692
 1746SOL    HW2 6138   2.601   0.857   5.804
 1747SOL     OW 6139   4.953   6.631   5.349
 1747SOL    HW1 6140   5.016   6.591   5.282
 1747SOL    HW2 6141   4.958   6.580   5.435
 1748SOL     OW 6142   5.790   1.330   1.349
 1748SOL    HW1 6143   5.726   1.300   1.278
 1748SOL    HW2 6144   5.866   1.266   1.356
 1749SOL     OW 6145   4.658   6.979   6.054
 1749SOL    HW1 6146   4.597   6.917   6.102
 1749SOL    HW2 6147   4.753   6.951   6.069
 1750SOL     OW 6148   4.815   0.474   4.308
 1750SOL    HW1 6149   4.906   0.514   4.316
 1750SOL    HW2 6150   4.787   0.437   4.397
 1751SOL     OW 6151   1.980   5.784   3.991
 1751SOL    HW1 6152   1.905   5.740   3.942
 1751SOL    HW2 6153   2.067   5.743   3.963
 1752SOL     OW 6154   6.851   1.866   6.354
 1752SOL    HW1 6155   6.889   1.937   6.294
 1752SOL    HW2 6156   6.925   1.823   6.406
 1753SOL     OW 6157   2.791   6.331   2.494
 1753SOL    HW1 6158   2.760   6.296   2.405
 1753SOL    HW2 6159   2.790   6.257   2.561
 1754SOL     OW 6160   3.588   2.909   1.951
 1754SOL    HW1 6161   3.522   2.877   1.883
 1754SOL    HW2 6162   3.679   2.877   1.926
 1755SOL     OW 6163   6.401   4.580   0.261
 1755SOL    HW1 6164   6.345   4.539   0.332
 1755SOL    HW2 6165   6.371   4.674   0.245
 1756SOL     OW 6166   5.659   5.347   4.707
 1756SOL    HW1 6167   5.597   5.425   4.715
 1756SOL    HW2 6168   5.703   5.348   4.618
 1757SOL     OW 6169   3.612   0.868   5.427
 1757SOL    HW1 6170   3.568   0.950   5.391
 1757SOL    HW2 6171   3.562   0.836   5.507
 1758SOL     OW 6172   3.156   1.619   3.236
 1758SOL    HW1 6173   3.135   1.572   3.321
 1758SOL    HW2 6174   3.092   1.695   3.223
 1759SOL     OW 6175   0.513   5.354   6.158
 1759SOL    HW1 6176   0.547   5.444   6.131
 1759SOL    HW2 6177   0.547   5.330   6.248
 1760SOL     OW 6178   4.798   0.104   2.001
 1760SOL    HW1 6179   4.846   0.134   2.084
 1760SOL    HW2 6180   4.839   0.019   1.968
 1761SOL     OW 6181   5.928   2.970   1.646
 1761SOL    HW1 6182   5.880   3.051   1.613
 1761SOL    HW2 6183   5.897   2.890   1.594
 1762SOL     OW 6184   5.524   2.940   0.708
 1762SOL    HW1 6185   5.435   2.899   0.689
 1762SOL    HW2 6186   5.587   2.921   0.632
 1763SOL     OW 6187   2.092   3.139   3.871
 1763SOL    HW1 6188   2.128   3.046   3.873
 1763SOL    HW2 6189   2.118   3.187   3.954
 1764SOL     OW 6190   6.531   3.402   4.305
 1764SOL    HW1 6191   6.443   3.417   4.260
 1764SOL    HW2 6192   6.595   3.360   4.240
 1765SOL     OW 6193   2.333   3.990   6.179
 1765SOL    HW1 6194   2.254   3.947   6.137
 1765SOL    HW2 6195   2.394   3.920   6.216
 1766SOL     OW 6196   5.739   3.402   5.866
 1766SOL    HW1 6197   5.806   3.398   5.792
 1766SOL    HW2 6198   5.773   3.348   5.943
 1767SOL     OW 6199   6.457   4.690   1.881
 1767SOL    HW1 6200   6.550   4.716   1.905
 1767SOL    HW2 6201   6.443   4.703   1.783
 1768SOL     OW 6202   6.445   6.697   3.472
 1768SOL    HW1 6203   6.375   6.649   3.420
 1768SOL    HW2 6204   6.405   6.733   3.557
 1769SOL     OW 6205   5.153   0.990   3.547
 1769SOL    HW1 6206   5.199   1.037   3.471
 1769SOL    HW2 6207   5.167   0.891   3.539
 1770SOL     OW 6208   3.353   5.675   5.230
 1770SOL    HW1 6209   3.325   5.734   5.306
 1770SOL    HW2 6210   3.331   5.719   5.143
 1771SOL     OW 6211   4.681   6.732   6.615
 1771SOL    HW1 6212   4.626   6.648   6.614
 1771SOL    HW2 6213   4.774   6.711   6.582
 1772SOL     OW 6214   3.398   5.955   3.207
 1772SOL    HW1 6215   3.313   5.912   3.236
 1772SOL    HW2 6216   3.379   6.029   3.143
 1773SOL     OW 6217   0.778   7.021   0.310
 1773SOL    HW1 6218   0.865   0.037   0.338
 1773SOL    HW2 6219   0.795   6.929   0.275
 1774SOL     OW 6220   2.821   4.776   2.742
 1774SOL    HW1 6221   2.897   4.832   2.776
 1774SOL    HW2 6222   2.758   4.758   2.818
 1775SOL     OW 6223   0.647   4.055   1.438
 1775SOL    HW1 6224   0.715   4.076   1.368
 1775SOL    HW2 6225   0.692   4.037   1.525
 1776SOL     OW 6226   2.912   6.626   5.693
 1776SOL    HW1 6227   2.892   6.636   5.791
 1776SOL    HW2 6228   2.913   6.529   5.669
 1777SOL     OW 6229   3.407   6.448   0.521
 1777SOL    HW1 6230   3.348   6.395   0.461
 1777SOL    HW2 6231   3.481   6.489   0.468
 1778SOL     OW 6232   0.060   3.471   5.914
 1778SOL    HW1 6233   0.145   3.463   5.967
 1778SOL    HW2 6234   0.052   3.394   5.851
 1779SOL     OW 6235   4.023   0.578   5.725
 1779SOL    HW1 6236   4.010   0.602   5.821
 1779SOL    HW2 6237   3.938   0.541   5.687
 1780SOL     OW 6238   3.112   3.463   6.643
 1780SOL    HW1 6239   3.039   3.437   6.580
 1780SOL    HW2 6240   3.073   3.493   6.729
 1781SOL     OW 6241   3.398   5.620   3.897
 1781SOL    HW1 6242   3.437   5.647   3.809
 1781SOL    HW2 6243   3.471   5.600   3.962
 1782SOL     OW 6244   3.130   1.746   4.378
 1782SOL    HW1 6245   3.187   1.698   4.311
 1782SOL    HW2 6246   3.126   1.843   4.355
 1783SOL     OW 6247   1.858   5.905   6.456
 1783SOL    HW1 6248   1.927   5.951   6.512
 1783SOL    HW2 6249   1.851   5.950   6.367
 1784SOL     OW 6250   3.349   0.502   6.174
 1784SOL    HW1 6251   3.397   0.581   6.212
 1784SOL    HW2 6252   3.404   0.419   6.188
 1785SOL     OW 6253   6.951   4.899   1.678
 1785SOL    HW1 6254   6.880   4.952   1.726
 1785SOL    HW2 6255   7.009   4.962   1.626
 1786SOL     OW 6256   3.951   2.260   1.455
 1786SOL    HW1 6257   3.864   2.299   1.424
 1786SOL    HW2 6258   4.026   2.316   1.420
 1787SOL     OW 6259   3.841   0.893   5.752
 1787SOL    HW1 6260   3.810   0.987   5.756
 1787SOL    HW2 6261   3.845   0.864   5.656
 1788SOL     OW 6262   1.530   4.819   6.000
 1788SOL    HW1 6263   1.469   4.740   6.005
 1788SOL    HW2 6264   1.496   4.884   5.932
 1789SOL     OW 6265   5.728   0.045   0.323
 1789SOL    HW1 6266   5.721   7.012   0.242
 1789SOL    HW2 6267   5.694   0.136   0.301
 1790SOL     OW 6268   2.954   6.578   3.031
 1790SOL    HW1 6269   2.984   6.673   3.023
 1790SOL    HW2 6270   3.010   6.521   2.971
 1791SOL     OW 6271   0.454   6.449   2.579
 1791SOL    HW1 6272   0.478   6.361   2.540
 1791SOL    HW2 6273   0.367   6.481   2.540
 1792SOL     OW 6274   0.929   3.866   4.340
 1792SOL    HW1 6275   1.002   3.925   4.306
 1792SOL    HW2 6276   0.922   3.876   4.440
 1793SOL     OW 6277   6.981   0.778   3.294
 1793SOL    HW1 6278   0.028   0.841   3.324
 1793SOL    HW2 6279   6.908   0.775   3.362
 1794SOL     OW 6280   4.365   5.596   6.581
 1794SOL    HW1 6281   4.423   5.572   6.658
 1794SOL    HW2 6282   4.419   5.597   6.497
 1795SOL     OW 6283   0.899   2.750   0.224
 1795SOL    HW1 6284   0.818   2.807   0.241
 1795SOL    HW2 6285   0.915   2.743   0.126
 1796SOL     OW 6286   3.828   0.816   6.260
 1796SOL    HW1 6287   3.750   0.851   6.313
 1796SOL    HW2 6288   3.867   0.736   6.307
 1797SOL     OW 6289   0.859   0.974   1.509
 1797SOL    HW1 6290   0.915   0.917   1.569
 1797SOL    HW2 6291   0.883   0.957   1.414
 1798SOL     OW 6292   5.657   1.831   3.175
 1798SOL    HW1 6293   5.625   1.738   3.190
 1798SOL    HW2 6294   5.620   1.865   3.089
 1799SOL     OW 6295   2.259   2.226   0.045
 1799SOL    HW1 6296   2.326   2.153   0.037
 1799SOL    HW2 6297   2.261   2.282   6.988
 1800SOL     OW 6298   3.150   4.874   2.698
 1800SOL    HW1 6299   3.098   4.883   2.784
 1800SOL    HW2 6300   3.161   4.778   2.675
 1801SOL     OW 6301   5.512   6.722   0.534
 1801SOL    HW1 6302   5.586   6.779   0.499
 1801SOL    HW2 6303   5.522   6.628   0.500
 1802SOL     OW 6304   6.111   4.847   3.582
 1802SOL    HW1 6305   6.171   4.770   3.564
 1802SOL    HW2 6306   6.085   4.890   3.496
 1803SOL     OW 6307   5.508   5.323   1.277
 1803SOL    HW1 6308   5.596   5.360   1.250
 1803SOL    HW2 6309   5.497   5.231   1.240
 1804SOL     OW 6310   3.394   3.303   5.974
 1804SOL    HW1 6311   3.316   3.286   5.914
 1804SOL    HW2 6312   3.397   3.231   6.044
 1805SOL     OW 6313   5.727   3.168   6.339
 1805SOL    HW1 6314   5.682   3.089   6.380
 1805SOL    HW2 6315   5.673   3.200   6.261
 1806SOL     OW 6316   6.840   0.598   0.475
 1806SOL    HW1 6317   6.771   0.653   0.523
 1806SOL    HW2 6318   6.898   0.658   0.420
 1807SOL     OW 6319   6.213   2.070   5.693
 1807SOL    HW1 6320   6.309   2.045   5.705
 1807SOL    HW2 6321   6.155   1.996   5.727
 1808SOL     OW 6322   1.970   4.736   4.235
 1808SOL    HW1 6323   1.896   4.784   4.188
 1808SOL    HW2 6324   1.987   4.779   4.324
 1809SOL     OW 6325   3.880   0.592   6.405
 1809SOL    HW1 6326   3.788   0.578   6.441
 1809SOL    HW2 6327   3.938   0.629   6.478
 1810SOL     OW 6328   3.643   6.047   2.926
 1810SOL    HW1 6329   3.594   6.015   2.845
 1810SOL    HW2 6330   3.646   5.975   2.995
 1811SOL     OW 6331   6.026   5.782   2.618
 1811SOL    HW1 6332   6.126   5.784   2.624
 1811SOL    HW2 6333   5.988   5.741   2.702
 1812SOL     OW 6334   4.535   5.091   6.182
 1812SOL    HW1 6335   4.578   5.146   6.253
 1812SOL    HW2 6336   4.495   5.009   6.222
 1813SOL     OW 6337   6.857   5.466   5.201
 1813SOL    HW1 6338   6.895   5.513   5.281
 1813SOL    HW2 6339   6.914   5.388   5.177
 1814SOL     OW 6340   4.919   6.580   2.554
 1814SOL    HW1 6341   4.853   6.604   2.483
 1814SOL    HW2 6342   4.900   6.634   2.637
 1815SOL     OW 6343   0.403   1.274   2.343
 1815SOL    HW1 6344   0.354   1.354   2.310
 1815SOL    HW2 6345   0.416   1.282   2.442
 1816SOL     OW 6346   1.138   4.873   0.628
 1816SOL    HW1 6347   1.059   4.927   0.655
 1816SOL    HW2 6348   1.174   4.824   0.707
 1817SOL     OW 6349   1.459   5.822   1.516
 1817SOL    HW1 6350   1.396   5.854   1.445
 1817SOL    HW2 6351   1.428   5.856   1.605
 1818SOL     OW 6352   1.379   1.370   2.972
 1818SOL    HW1 6353   1.420   1.339   3.058
 1818SOL    HW2 6354   1.418   1.458   2.946
 1819SOL     OW 6355   0.750   4.257   2.500
 1819SOL    HW1 6356   0.761   4.227   2.594
 1819SOL    HW2 6357   0.838   4.284   2.462
 1820SOL     OW 6358   6.000   0.420   2.639
 1820SOL    HW1 6359   6.065   0.404   2.714
 1820SOL    HW2 6360   5.926   0.478   2.670
 1821SOL     OW 6361   1.718   1.724   3.572
 1821SOL    HW1 6362   1.721   1.653   3.642
 1821SOL    HW2 6363   1.811   1.754   3.550
 1822SOL     OW 6364   3.374   3.636   1.728
 1822SOL    HW1 6365   3.346   3.569   1.797
 1822SOL    HW2 6366   3.430   3.706   1.772
 1823SOL     OW 6367   4.228   0.256   2.516
 1823SOL    HW1 6368   4.296   0.193   2.554
 1823SOL    HW2 6369   4.146   0.205   2.489
 1824SOL     OW 6370   4.846   2.091   1.503
 1824SOL    HW1 6371   4.815   2.075   1.597
 1824SOL    HW2 6372   4.893   2.179   1.498
 1825SOL     OW 6373   1.064   0.881   1.710
 1825SOL    HW1 6374   1.070   0.824   1.628
 1825SOL    HW2 6375   1.137   0.855   1.773
 1826SOL     OW 6376   2.822   5.992   6.247
 1826SOL    HW1 6377   2.824   5.975   6.346
 1826SOL    HW2 6378   2.726   6.002   6.218
 1827SOL     OW 6379   6.379   0.061   1.474
 1827SOL    HW1 6380   6.285   0.091   1.457
 1827SOL    HW2 6381   6.380   6.989   1.497
 1828SOL     OW 6382   1.789   2.595   0.214
 1828SOL    HW1 6383   1.788   2.615   0.116
 1828SOL    HW2 6384   1.701   2.620   0.255
 1829SOL     OW 6385   6.098   5.186   1.851
 1829SOL    HW1 6386   6.113   5.282   1.828
 1829SOL    HW2 6387   6.032   5.146   1.788
 1830SOL     OW 6388   5.169   6.218   3.848
 1830SOL    HW1 6389   5.088   6.263   3.885
 1830SOL    HW2 6390   5.188   6.135   3.900
 1831SOL     OW 6391   5.191   0.704   3.503
 1831SOL    HW1 6392   5.244   0.624   3.533
 1831SOL    HW2 6393   5.103   0.704   3.549
 1832SOL     OW 6394   4.833   2.276   0.181
 1832SOL    HW1 6395   4.779   2.243   0.258
 1832SOL    HW2 6396   4.803   2.368   0.156
 1833SOL     OW 6397   5.528   1.734   5.784
 1833SOL    HW1 6398   5.532   1.721   5.883
 1833SOL    HW2 6399   5.621   1.732   5.746
 1834SOL     OW 6400   2.612   4.238   0.588
 1834SOL    HW1 6401   2.610   4.283   0.678
 1834SOL    HW2 6402   2.693   4.180   0.582
 1835SOL     OW 6403   1.343   4.830   6.670
 1835SOL    HW1 6404   1.314   4.735   6.686
 1835SOL    HW2 6405   1.442   4.833   6.658
 1836SOL     OW 6406   1.002   6.491   0.341
 1836SOL    HW1 6407   0.993   6.483   0.440
 1836SOL    HW2 6408   1.093   6.525   0.318
 1837SOL     OW 6409   1.078   2.375   4.946
 1837SOL    HW1 6410   1.147   2.419   5.003
 1837SOL    HW2 6411   1.030   2.444   4.892
 1838SOL     OW 6412   1.077   2.574   4.485
 1838SOL    HW1 6413   1.174   2.597   4.496
 1838SOL    HW2 6414   1.048   2.598   4.393
 1839SOL     OW 6415   0.457   1.234   6.444
 1839SOL    HW1 6416   0.552   1.263   6.460
 1839SOL    HW2 6417   0.428   1.266   6.353
 1840SOL     OW 6418   1.197   5.230   0.670
 1840SOL    HW1 6419   1.214   5.246   0.767
 1840SOL    HW2 6420   1.271   5.176   0.631
 1841SOL     OW 6421   1.335   2.860   3.155
 1841SOL    HW1 6422   1.337   2.797   3.077
 1841SOL    HW2 6423   1.326   2.808   3.240
 1842SOL     OW 6424   0.942   5.217   6.480
 1842SOL    HW1 6425   0.889   5.253   6.557
 1842SOL    HW2 6426   0.879   5.185   6.409
 1843SOL     OW 6427   4.234   2.298   4.830
 1843SOL    HW1 6428   4.179   2.221   4.862
 1843SOL    HW2 6429   4.269   2.349   4.909
 1844SOL     OW 6430   5.546   3.428   3.929
 1844SOL    HW1 6431   5.581   3.521   3.942
 1844SOL    HW2 6432   5.495   3.424   3.843
 1845SOL     OW 6433   4.203   6.613   0.634
 1845SOL    HW1 6434   4.172   6.517   0.638
 1845SOL    HW2 6435   4.126   6.673   0.655
 1846SOL     OW 6436   3.612   1.573   5.709
 1846SOL    HW1 6437   3.625   1.621   5.622
 1846SOL    HW2 6438   3.695   1.578   5.763
 1847SOL     OW 6439   1.469   6.841   6.835
 1847SOL    HW1 6440   1.490   6.748   6.805
 1847SOL    HW2 6441   1.485   6.848   6.934
 1848SOL     OW 6442   2.245   6.988   2.663
 1848SOL    HW1 6443   2.199   6.957   2.747
 1848SOL    HW2 6444   2.214   6.932   2.586
 1849SOL     OW 6445   3.164   0.648   6.530
 1849SOL    HW1 6446   3.070   0.650   6.566
 1849SOL    HW2 6447   3.170   0.705   6.449
 1850SOL     OW 6448   5.130   1.707   1.869
 1850SOL    HW1 6449   5.060   1.641   1.899
 1850SOL    HW2 6450   5.211   1.658   1.839
 1851SOL     OW 6451   6.336   3.611   3.032
 1851SOL    HW1 6452   6.394   3.687   3.002
 1851SOL    HW2 6453   6.271   3.589   2.959
 1852SOL     OW 6454   4.836   2.435   6.070
 1852SOL    HW1 6455   4.897   2.359   6.044
 1852SOL    HW2 6456   4.814   2.489   5.989
 1853SOL     OW 6457   0.978   4.412   0.657
 1853SOL    HW1 6458   0.992   4.472   0.578
 1853SOL    HW2 6459   0.887   4.371   0.651
 1854SOL     OW 6460   2.741   5.452   3.522
 1854SOL    HW1 6461   2.669   5.517   3.499
 1854SOL    HW2 6462   2.749   5.383   3.451
 1855SOL     OW 6463   5.928   4.588   2.258
 1855SOL    HW1 6464   5.920   4.531   2.177
 1855SOL    HW2 6465   6.019   4.631   2.261
 1856SOL     OW 6466   4.998   3.107   6.628
 1856SOL    HW1 6467   5.039   3.042   6.563
 1856SOL    HW2 6468   4.964   3.187   6.579
 1857SOL     OW 6469   4.753   1.510   3.467
 1857SOL    HW1 6470   4.667   1.464   3.492
 1857SOL    HW2 6471   4.735   1.572   3.391
 1858SOL     OW 6472   5.800   3.956   3.099
 1858SOL    HW1 6473   5.802   3.938   3.001
 1858SOL    HW2 6474   5.713   3.927   3.137
 1859SOL     OW 6475   5.798   1.406   2.915
 1859SOL    HW1 6476   5.839   1.475   2.974
 1859SOL    HW2 6477   5.843   1.317   2.930
 1860SOL     OW 6478   3.746   1.942   5.137
 1860SOL    HW1 6479   3.788   2.014   5.193
 1860SOL    HW2 6480   3.810   1.865   5.130
 1861SOL     OW 6481   5.495   5.850   2.418
 1861SOL    HW1 6482   5.589   5.820   2.402
 1861SOL    HW2 6483   5.439   5.833   2.337
 1862SOL     OW 6484   1.982   1.651   0.518
 1862SOL    HW1 6485   2.030   1.699   0.591
 1862SOL    HW2 6486   1.884   1.669   0.525
 1863SOL     OW 6487   2.121   2.642   1.389
 1863SOL    HW1 6488   2.189   2.596   1.447
 1863SOL    HW2 6489   2.090   2.580   1.318
 1864SOL     OW 6490   0.654   6.833   2.968
 1864SOL    HW1 6491   0.689   6.829   3.061
 1864SOL    HW2 6492   0.729   6.815   2.904
 1865SOL     OW 6493   5.144   2.373   6.797
 1865SOL    HW1 6494   5.202   2.419   6.864
 1865SOL    HW2 6495   5.116   2.284   6.834
 1866SOL     OW 6496   4.874   5.255   2.639
 1866SOL    HW1 6497   4.834   5.219   2.555
 1866SOL    HW2 6498   4.935   5.186   2.679
 1867SOL     OW 6499   0.612   4.877   6.759
 1867SOL    HW1 6500   0.595   4.791   6.806
 1867SOL    HW2 6501   0.643   4.859   6.666
 1868SOL     OW 6502   6.799   4.080   5.549
 1868SOL    HW1 6503   6.849   4.160   5.583
 1868SOL    HW2 6504   6.788   4.087   5.449
 1869SOL     OW 6505   6.412   1.530   4.731
 1869SOL    HW1 6506   6.403   1.442   4.778
 1869SOL    HW2 6507   6.324   1.557   4.694
 1870SOL     OW 6508   2.381   4.343   4.528
 1870SOL    HW1 6509   2.386   4.300   4.618
 1870SOL    HW2 6510   2.419   4.436   4.533
 1871SOL     OW 6511   1.529   0.345   0.657
 1871SOL    HW1 6512   1.555   0.273   0.721
 1871SOL    HW2 6513   1.441   0.384   0.686
 1872SOL     OW 6514   2.422   5.177   0.052
 1872SOL    HW1 6515   2.361   5.102   0.078
 1872SOL    HW2 6516   2.500   5.179   0.115
 1873SOL     OW 6517   5.296   0.696   0.553
 1873SOL    HW1 6518   5.325   0.741   0.638
 1873SOL    HW2 6519   5.350   0.613   0.540
 1874SOL     OW 6520   1.036   4.244   2.430
 1874SOL    HW1 6521   1.099   4.179   2.474
 1874SOL    HW2 6522   1.070   4.337   2.442
 1875SOL     OW 6523   1.431   0.274   1.307
 1875SOL    HW1 6524   1.342   0.304   1.272
 1875SOL    HW2 6525   1.487   0.355   1.328
 1876SOL     OW 6526   2.230   6.887   3.951
 1876SOL    HW1 6527   2.171   6.863   4.028
 1876SOL    HW2 6528   2.191   6.965   3.902
 1877SOL     OW 6529   0.317   0.245   3.593
 1877SOL    HW1 6530   0.334   0.340   3.618
 1877SOL    HW2 6531   0.315   0.188   3.676
 1878SOL     OW 6532   6.006   2.674   5.696
 1878SOL    HW1 6533   6.055   2.629   5.622
 1878SOL    HW2 6534   5.916   2.631   5.707
 1879SOL     OW 6535   1.895   4.768   5.839
 1879SOL    HW1 6536   1.857   4.782   5.747
 1879SOL    HW2 6537   1.874   4.676   5.870
 1880SOL     OW 6538   6.240   0.137   5.041
 1880SOL    HW1 6539   6.313   0.145   4.973
 1880SOL    HW2 6540   6.188   0.222   5.043
 1881SOL     OW 6541   0.295   2.751   7.024
 1881SOL    HW1 6542   0.259   2.805   6.948
 1881SOL    HW2 6543   0.242   2.769   0.082
 1882SOL     OW 6544   1.316   6.325   6.830
 1882SOL    HW1 6545   1.294   6.410   6.878
 1882SOL    HW2 6546   1.266   6.249   6.872
 1883SOL     OW 6547   0.396   2.031   4.170
 1883SOL    HW1 6548   0.420   2.128   4.160
 1883SOL    HW2 6549   0.301   2.023   4.199
 1884SOL     OW 6550   0.319   2.392   1.135
 1884SOL    HW1 6551   0.226   2.357   1.122
 1884SOL    HW2 6552   0.358   2.352   1.218
 1885SOL     OW 6553   2.231   0.966   4.624
 1885SOL    HW1 6554   2.295   0.892   4.647
 1885SOL    HW2 6555   2.283   1.047   4.598
 1886SOL     OW 6556   0.689   6.563   3.368
 1886SOL    HW1 6557   0.716   6.637   3.306
 1886SOL    HW2 6558   0.611   6.593   3.423
 1887SOL     OW 6559   2.836   6.285   6.230
 1887SOL    HW1 6560   2.936   6.291   6.235
 1887SOL    HW2 6561   2.808   6.189   6.236
 1888SOL     OW 6562   2.647   0.613   3.585
 1888SOL    HW1 6563   2.719   0.588   3.520
 1888SOL    HW2 6564   2.630   0.536   3.647
 1889SOL     OW 6565   0.744   3.578   2.712
 1889SOL    HW1 6566   0.741   3.621   2.621
 1889SOL    HW2 6567   0.662   3.524   2.726
 1890SOL     OW 6568   1.214   6.143   4.881
 1890SOL    HW1 6569   1.158   6.084   4.940
 1890SOL    HW2 6570   1.305   6.153   4.921
 1891SOL     OW 6571   3.248   3.481   3.347
 1891SOL    HW1 6572   3.253   3.552   3.417
 1891SOL    HW2 6573   3.153   3.466   3.319
 1892SOL     OW 6574   1.111   0.115   2.824
 1892SOL    HW1 6575   1.153   0.137   2.736
 1892SOL    HW2 6576   1.014   0.141   2.823
 1893SOL     OW 6577   4.093   3.274   4.489
 1893SOL    HW1 6578   4.007   3.323   4.499
 1893SOL    HW2 6579   4.167   3.339   4.472
 1894SOL     OW 6580   3.230   3.573   4.244
 1894SOL    HW1 6581   3.324   3.539   4.236
 1894SOL    HW2 6582   3.229   3.655   4.301
 1895SOL     OW 6583   1.872   6.097   0.141
 1895SOL    HW1 6584   1.868   6.110   0.042
 1895SOL    HW2 6585   1.865   5.999   0.162
 1896SOL     OW 6586   6.559   2.320   1.619
 1896SOL    HW1 6587   6.567   2.337   1.520
 1896SOL    HW2 6588   6.545   2.222   1.635
 1897SOL     OW 6589   1.243   4.529   4.274
 1897SOL    HW1 6590   1.303   4.565   4.203
 1897SOL    HW2 6591   1.230   4.598   4.345
 1898SOL     OW 6592   1.753   6.133   2.914
 1898SOL    HW1 6593   1.750   6.203   2.843
 1898SOL    HW2 6594   1.717   6.047   2.877
 1899SOL     OW 6595   0.148   1.087   2.248
 1899SOL    HW1 6596   0.187   1.174   2.278
 1899SOL    HW2 6597   0.189   1.013   2.301
 1900SOL     OW 6598   2.582   6.954   6.724
 1900SOL    HW1 6599   2.557   6.953   6.627
 1900SOL    HW2 6600   2.580   6.861   6.760
 1901SOL     OW 6601   2.812   3.583   1.915
 1901SOL    HW1 6602   2.796   3.662   1.856
 1901SOL    HW2 6603   2.909   3.559   1.914
 1902SOL     OW 6604   1.021   6.667   4.853
 1902SOL    HW1 6605   1.067   6.590   4.809
 1902SOL    HW2 6606   1.062   6.752   4.822
 1903SOL     OW 6607   1.032   1.959   4.406
 1903SOL    HW1 6608   1.031   1.914   4.317
 1903SOL    HW2 6609   1.102   1.917   4.464
 1904SOL     OW 6610   5.606   5.971   1.828
 1904SOL    HW1 6611   5.621   6.066   1.801
 1904SOL    HW2 6612   5.694   5.927   1.844
 1905SOL     OW 6613   0.723   1.596   4.156
 1905SOL    HW1 6614   0.808   1.561   4.196
 1905SOL    HW2 6615   0.711   1.692   4.182
 1906SOL     OW 6616   1.104   6.209   4.368
 1906SOL    HW1 6617   1.052   6.293   4.384
 1906SOL    HW2 6618   1.117   6.197   4.269
 1907SOL     OW 6619   5.157   3.188   0.600
 1907SOL    HW1 6620   5.126   3.115   0.540
 1907SOL    HW2 6621   5.251   3.170   0.629
 1908SOL     OW 6622   3.702   0.702   1.456
 1908SOL    HW1 6623   3.790   0.663   1.432
 1908SOL    HW2 6624   3.712   0.761   1.537
 1909SOL     OW 6625   6.289   5.323   4.745
 1909SOL    HW1 6626   6.356   5.266   4.698
 1909SOL    HW2 6627   6.197   5.304   4.709
 1910SOL     OW 6628   0.387   6.242   5.722
 1910SOL    HW1 6629   0.389   6.292   5.809
 1910SOL    HW2 6630   0.472   6.259   5.672
 1911SOL     OW 6631   6.100   6.315   4.092
 1911SOL    HW1 6632   6.186   6.331   4.042
 1911SOL    HW2 6633   6.102   6.223   4.131
 1912SOL     OW 6634   3.581   4.944   2.122
 1912SOL    HW1 6635   3.523   5.014   2.082
 1912SOL    HW2 6636   3.601   4.873   2.054
 1913SOL     OW 6637   3.224   4.239   6.874
 1913SOL    HW1 6638   3.153   4.173   6.899
 1913SOL    HW2 6639   3.182   4.328   6.858
 1914SOL     OW 6640   3.527   4.205   6.835
 1914SOL    HW1 6641   3.435   4.206   6.872
 1914SOL    HW2 6642   3.575   4.123   6.865
 1915SOL     OW 6643   3.218   2.999   6.767
 1915SOL    HW1 6644   3.172   2.956   6.845
 1915SOL    HW2 6645   3.168   3.081   6.739
 1916SOL     OW 6646   4.503   0.660   2.408
 1916SOL    HW1 6647   4.434   0.589   2.398
 1916SOL    HW2 6648   4.550   0.673   2.320
 1917SOL     OW 6649   2.169   4.441   1.648
 1917SOL    HW1 6650   2.260   4.448   1.689
 1917SOL    HW2 6651   2.105   4.498   1.701
 1918SOL     OW 6652   5.612   2.130   3.569
 1918SOL    HW1 6653   5.581   2.073   3.493
 1918SOL    HW2 6654   5.695   2.091   3.608
 1919SOL     OW 6655   6.073   2.186   6.047
 1919SOL    HW1 6656   6.162   2.200   6.003
 1919SOL    HW2 6657   6.050   2.267   6.101
 1920SOL     OW 6658   4.355   2.791   0.485
 1920SOL    HW1 6659   4.390   2.767   0.394
 1920SOL    HW2 6660   4.424   2.844   0.534
 1921SOL     OW 6661   2.344   2.047   0.397
 1921SOL    HW1 6662   2.310   1.999   0.478
 1921SOL    HW2 6663   2.354   2.145   0.418
 1922SOL     OW 6664   3.127   3.062   3.807
 1922SOL    HW1 6665   3.121   3.144   3.863
 1922SOL    HW2 6666   3.102   2.982   3.862
 1923SOL     OW 6667   3.112   0.481   4.166
 1923SOL    HW1 6668   3.069   0.555   4.116
 1923SOL    HW2 6669   3.207   0.471   4.137
 1924SOL     OW 6670   5.353   1.041   0.918
 1924SOL    HW1 6671   5.411   1.048   0.837
 1924SOL    HW2 6672   5.395   1.091   0.993
 1925SOL     OW 6673   1.073   4.196   1.231
 1925SOL    HW1 6674   1.078   4.229   1.137
 1925SOL    HW2 6675   1.104   4.267   1.293
 1926SOL     OW 6676   3.925   0.296   1.563
 1926SOL    HW1 6677   3.927   0.375   1.624
 1926SOL    HW2 6678   4.017   0.279   1.527
 1927SOL     OW 6679   2.282   5.528   1.251
 1927SOL    HW1 6680   2.235   5.608   1.213
 1927SOL    HW2 6681   2.261   5.520   1.348
 1928SOL     OW 6682   6.774   4.753   2.395
 1928SOL    HW1 6683   6.677   4.741   2.418
 1928SOL    HW2 6684   6.810   4.667   2.360
 1929SOL     OW 6685   3.621   0.154   3.294
 1929SOL    HW1 6686   3.661   0.063   3.296
 1929SOL    HW2 6687   3.547   0.159   3.361
 1930SOL     OW 6688   3.729   3.511   0.527
 1930SOL    HW1 6689   3.733   3.454   0.445
 1930SOL    HW2 6690   3.790   3.474   0.597
 1931SOL     OW 6691   6.989   2.845   4.037
 1931SOL    HW1 6692   0.005   2.841   3.946
 1931SOL    HW2 6693   6.942   2.933   4.049
 1932SOL     OW 6694   4.623   1.265   2.341
 1932SOL    HW1 6695   4.599   1.252   2.437
 1932SOL    HW2 6696   4.556   1.217   2.283
 1933SOL     OW 6697   1.594   1.244   1.201
 1933SOL    HW1 6698   1.567   1.274   1.293
 1933SOL    HW2 6699   1.660   1.170   1.208
 1934SOL     OW 6700   6.874   1.169   0.048
 1934SOL    HW1 6701   6.897   1.187   6.978
 1934SOL    HW2 6702   6.952   1.126   0.093
 1935SOL     OW 6703   5.746   5.366   3.513
 1935SOL    HW1 6704   5.724   5.438   3.447
 1935SOL    HW2 6705   5.752   5.278   3.466
 1936SOL     OW 6706   4.907   3.240   5.701
 1936SOL    HW1 6707   4.976   3.173   5.730
 1936SOL    HW2 6708   4.942   3.332   5.715
 1937SOL     OW 6709   6.701   4.774   6.751
 1937SOL    HW1 6710   6.618   4.805   6.706
 1937SOL    HW2 6711   6.697   4.799   6.848
 1938SOL     OW 6712   7.005   2.473   6.796
 1938SOL    HW1 6713   6.957   2.544   6.746
 1938SOL    HW2 6714   6.948   2.391   6.802
 1939SOL     OW 6715   0.388   0.517   4.345
 1939SOL    HW1 6716   0.384   0.420   4.367
 1939SOL    HW2 6717   0.387   0.529   4.245
 1940SOL     OW 6718   0.616   5.159   0.820
 1940SOL    HW1 6719   0.638   5.088   0.752
 1940SOL    HW2 6720   0.666   5.243   0.798
 1941SOL     OW 6721   5.998   1.217   4.801
 1941SOL    HW1 6722   5.959   1.194   4.711
 1941SOL    HW2 6723   5.941   1.285   4.846
 1942SOL     OW 6724   0.379   4.915   1.751
 1942SOL    HW1 6725   0.326   4.850   1.696
 1942SOL    HW2 6726   0.440   4.967   1.691
 1943SOL     OW 6727   0.818   3.070   3.825
 1943SOL    HW1 6728   0.810   3.083   3.726
 1943SOL    HW2 6729   0.899   3.117   3.858
 1944SOL     OW 6730   0.912   3.099   3.556
 1944SOL    HW1 6731   1.011   3.090   3.566
 1944SOL    HW2 6732   0.891   3.154   3.476
 1945SOL     OW 6733   5.361   1.587   1.650
 1945SOL    HW1 6734   5.377   1.509   1.710
 1945SOL    HW2 6735   5.299   1.560   1.576
 1946SOL     OW 6736   5.915   5.490   0.751
 1946SOL    HW1 6737   5.972   5.559   0.796
 1946SOL    HW2 6738   5.881   5.527   0.664
 1947SOL     OW 6739   6.274   5.102   2.878
 1947SOL    HW1 6740   6.234   5.010   2.866
 1947SOL    HW2 6741   6.284   5.120   2.976
 1948SOL     OW 6742   5.153   3.397   3.573
 1948SOL    HW1 6743   5.053   3.394   3.569
 1948SOL    HW2 6744   5.191   3.325   3.515
 1949SOL     OW 6745   3.334   4.121   6.625
 1949SOL    HW1 6746   3.282   4.175   6.692
 1949SOL    HW2 6747   3.423   4.097   6.664
 1950SOL     OW 6748   3.908   3.916   3.391
 1950SOL    HW1 6749   3.923   3.940   3.295
 1950SOL    HW2 6750   3.994   3.885   3.432
 1951SOL     OW 6751   6.365   5.266   5.617
 1951SOL    HW1 6752   6.357   5.231   5.523
 1951SOL    HW2 6753   6.452   5.314   5.628
 1952SOL     OW 6754   5.447   4.277   6.880
 1952SOL    HW1 6755   5.485   4.210   6.816
 1952SOL    HW2 6756   5.403   4.351   6.828
 1953SOL     OW 6757   1.119   1.061   0.308
 1953SOL    HW1 6758   1.049   1.132   0.309
 1953SOL    HW2 6759   1.178   1.072   0.227
 1954SOL     OW 6760   3.674   6.432   2.265
 1954SOL    HW1 6761   3.725   6.454   2.348
 1954SOL    HW2 6762   3.611   6.357   2.284
 1955SOL     OW 6763   6.327   2.367   4.263
 1955SOL    HW1 6764   6.380   2.445   4.228
 1955SOL    HW2 6765   6.247   2.352   4.205
 1956SOL     OW 6766   4.982   1.174   1.538
 1956SOL    HW1 6767   4.992   1.267   1.572
 1956SOL    HW2 6768   4.956   1.113   1.613
 1957SOL     OW 6769   6.286   2.742   4.426
 1957SOL    HW1 6770   6.315   2.715   4.334
 1957SOL    HW2 6771   6.339   2.822   4.455
 1958SOL     OW 6772   3.894   1.840   0.786
 1958SOL    HW1 6773   3.955   1.847   0.707
 1958SOL    HW2 6774   3.810   1.793   0.758
 1959SOL     OW 6775   1.447   1.562   5.863
 1959SOL    HW1 6776   1.488   1.482   5.907
 1959SOL    HW2 6777   1.502   1.588   5.783
 1960SOL     OW 6778   5.405   3.988   2.926
 1960SOL    HW1 6779   5.354   3.954   2.847
 1960SOL    HW2 6780   5.382   4.084   2.941
 1961SOL     OW 6781   0.426   3.799   4.199
 1961SOL    HW1 6782   0.484   3.880   4.212
 1961SOL    HW2 6783   0.333   3.829   4.175
 1962SOL     OW 6784   0.706   0.013   2.102
 1962SOL    HW1 6785   0.770   6.964   2.123
 1962SOL    HW2 6786   0.734   0.097   2.148
 1963SOL     OW 6787   0.810   3.011   0.090
 1963SOL    HW1 6788   0.782   2.938   0.029
 1963SOL    HW2 6789   0.831   3.093   0.037
 1964SOL     OW 6790   5.354   3.371   0.953
 1964SOL    HW1 6791   5.415   3.345   0.878
 1964SOL    HW2 6792   5.362   3.470   0.970
 1965SOL     OW 6793   6.152   4.425   3.545
 1965SOL    HW1 6794   6.134   4.339   3.593
 1965SOL    HW2 6795   6.072   4.449   3.489
 1966SOL     OW 6796   0.741   5.328   6.653
 1966SOL    HW1 6797   0.788   5.410   6.684
 1966SOL    HW2 6798   0.720   5.270   6.732
 1967SOL     OW 6799   6.675   3.411   5.221
 1967SOL    HW1 6800   6.633   3.320   5.228
 1967SOL    HW2 6801   6.669   3.457   5.309
 1968SOL     OW 6802   2.215   1.046   5.765
 1968SOL    HW1 6803   2.251   1.116   5.704
 1968SOL    HW2 6804   2.285   0.977   5.782
 1969SOL     OW 6805   1.255   5.650   0.587
 1969SOL    HW1 6806   1.333   5.706   0.558
 1969SOL    HW2 6807   1.268   5.557   0.554
 1970SOL     OW 6808   5.444   4.503   3.955
 1970SOL    HW1 6809   5.462   4.530   4.050
 1970SOL    HW2 6810   5.345   4.490   3.943
 1971SOL     OW 6811   1.729   4.666   4.700
 1971SOL    HW1 6812   1.786   4.627   4.626
 1971SOL    HW2 6813   1.633   4.659   4.674
 1972SOL     OW 6814   6.230   2.363   2.630
 1972SOL    HW1 6815   6.193   2.294   2.693
 1972SOL    HW2 6816   6.306   2.323   2.580
 1973SOL     OW 6817   3.464   2.217   0.993
 1973SOL    HW1 6818   3.540   2.193   0.933
 1973SOL    HW2 6819   3.402   2.139   1.002
 1974SOL     OW 6820   2.444   6.540   4.770
 1974SOL    HW1 6821   2.538   6.514   4.747
 1974SOL    HW2 6822   2.434   6.639   4.761
 1975SOL     OW 6823   1.960   2.832   2.524
 1975SOL    HW1 6824   1.967   2.766   2.449
 1975SOL    HW2 6825   2.005   2.918   2.498
 1976SOL     OW 6826   1.462   0.705   5.250
 1976SOL    HW1 6827   1.511   0.652   5.320
 1976SOL    HW2 6828   1.496   0.680   5.160
 1977SOL     OW 6829   1.084   3.863   6.538
 1977SOL    HW1 6830   1.108   3.935   6.474
 1977SOL    HW2 6831   1.124   3.882   6.627
 1978SOL     OW 6832   3.249   0.287   2.067
 1978SOL    HW1 6833   3.163   0.236   2.075
 1978SOL    HW2 6834   3.228   0.384   2.051
 1979SOL     OW 6835   5.493   4.510   6.485
 1979SOL    HW1 6836   5.446   4.592   6.518
 1979SOL    HW2 6837   5.531   4.527   6.394
 1980SOL     OW 6838   4.054   0.113   0.862
 1980SOL    HW1 6839   3.980   0.118   0.929
 1980SOL    HW2 6840   4.097   0.023   0.867
 1981SOL     OW 6841   4.248   2.238   2.434
 1981SOL    HW1 6842   4.161   2.214   2.391
 1981SOL    HW2 6843   4.291   2.312   2.382
 1982SOL     OW 6844   1.398   3.163   6.168
 1982SOL    HW1 6845   1.393   3.068   6.138
 1982SOL    HW2 6846   1.391   3.167   6.268
 1983SOL     OW 6847   6.856   1.310   1.905
 1983SOL    HW1 6848   6.774   1.253   1.921
 1983SOL    HW2 6849   6.936   1.263   1.943
 1984SOL     OW 6850   4.975   3.706   5.868
 1984SOL    HW1 6851   5.057   3.751   5.832
 1984SOL    HW2 6852   4.953   3.744   5.958
 1985SOL     OW 6853   6.122   4.315   4.005
 1985SOL    HW1 6854   6.144   4.290   3.911
 1985SOL    HW2 6855   6.134   4.414   4.017
 1986SOL     OW 6856   2.806   3.458   2.153
 1986SOL    HW1 6857   2.722   3.427   2.197
 1986SOL    HW2 6858   2.787   3.486   2.059
 1987SOL     OW 6859   2.697   0.837   2.117
 1987SOL    HW1 6860   2.766   0.820   2.187
 1987SOL    HW2 6861   2.738   0.886   2.040
 1988SOL     OW 6862   0.717   1.985   2.691
 1988SOL    HW1 6863   0.776   2.066   2.703
 1988SOL    HW2 6864   0.642   1.989   2.758
 1989SOL     OW 6865   2.848   5.524   5.017
 1989SOL    HW1 6866   2.947   5.532   5.010
 1989SOL    HW2 6867   2.811   5.604   5.066
 1990SOL     OW 6868   4.228   0.006   0.209
 1990SOL    HW1 6869   4.188   0.082   0.259
 1990SOL    HW2 6870   4.302   0.040   0.150
 1991SOL     OW 6871   2.145   5.649   2.170
 1991SOL    HW1 6872   2.171   5.637   2.266
 1991SOL    HW2 6873   2.214   5.605   2.112
 1992SOL     OW 6874   1.072   6.733   3.016
 1992SOL    HW1 6875   1.077   6.823   3.060
 1992SOL    HW2 6876   1.041   6.665   3.082
 1993SOL     OW 6877   1.921   1.868   2.768
 1993SOL    HW1 6878   1.923   1.787   2.708
 1993SOL    HW2 6879   1.918   1.951   2.712
 1994SOL     OW 6880   3.870   3.383   1.435
 1994SOL    HW1 6881   3.947   3.350   1.380
 1994SOL    HW2 6882   3.903   3.448   1.503
 1995SOL     OW 6883   5.890   1.765   4.489
 1995SOL    HW1 6884   5.977   1.752   4.442
 1995SOL    HW2 6885   5.820   1.792   4.423
 1996SOL     OW 6886   5.037   0.598   0.604
 1996SOL    HW1 6887   4.960   0.659   0.585
 1996SOL    HW2 6888   5.123   0.645   0.586
 1997SOL     OW 6889   3.794   1.329   3.789
 1997SOL    HW1 6890   3.796   1.423   3.755
 1997SOL    HW2 6891   3.712   1.283   3.753
 1998SOL     OW 6892   2.440   3.873   1.401
 1998SOL    HW1 6893   2.444   3.822   1.315
 1998SOL    HW2 6894   2.345   3.896   1.422
 1999SOL     OW 6895   0.731   6.780   6.592
 1999SOL    HW1 6896   0.787   6.698   6.603
 1999SOL    HW2 6897   0.744   6.840   6.672
 2000SOL     OW 6898   4.251   4.344   5.924
 2000SOL    HW1 6899   4.291   4.299   5.844
 2000SOL    HW2 6900   4.322   4.394   5.973
 2001SOL     OW 6901   1.464   2.233   0.907
 2001SOL    HW1 6902   1.470   2.142   0.947
 2001SOL    HW2 6903   1.555   2.276   0.907
 2002SOL     OW 6904   6.195   5.396   0.904
 2002SOL    HW1 6905   6.110   5.353   0.936
 2002SOL    HW2 6906   6.256   5.410   0.982
 2003SOL     OW 6907   5.979   5.614   1.232
 2003SOL    HW1 6908   5.882   5.600   1.217
 2003SOL    HW2 6909   6.008   5.697   1.185
 2004SOL     OW 6910   4.020   0.073   3.376
 2004SOL    HW1 6911   4.094   0.096   3.438
 2004SOL    HW2 6912   4.049   7.023   3.316
 2005SOL     OW 6913   1.316   6.825   0.299
 2005SOL    HW1 6914   1.302   6.838   0.397
 2005SOL    HW2 6915   1.360   6.906   0.260
 2006SOL     OW 6916   5.792   0.051   2.077
 2006SOL    HW1 6917   5.766   6.987   2.040
 2006SOL    HW2 6918   5.862   0.038   2.148
 2007SOL     OW 6919   5.654   5.039   5.690
 2007SOL    HW1 6920   5.680   4.942   5.687
 2007SOL    HW2 6921   5.566   5.047   5.736
 2008SOL     OW 6922   1.621   3.178   2.432
 2008SOL    HW1 6923   1.718   3.197   2.419
 2008SOL    HW2 6924   1.608   3.081   2.453
 2009SOL     OW 6925   6.095   0.031   2.603
 2009SOL    HW1 6926   6.162   0.096   2.565
 2009SOL    HW2 6927   6.061   0.066   2.690
 2010SOL     OW 6928   0.068   1.482   1.469
 2010SOL    HW1 6929   7.014   1.539   1.486
 2010SOL    HW2 6930   0.148   1.521   1.516
 2011SOL     OW 6931   0.804   6.838   4.823
 2011SOL    HW1 6932   0.742   6.818   4.898
 2011SOL    HW2 6933   0.879   6.772   4.824
 2012SOL     OW 6934   0.525   2.753   1.014
 2012SOL    HW1 6935   0.492   2.809   0.939
 2012SOL    HW2 6936   0.484   2.662   1.008
 2013SOL     OW 6937   0.743   2.386   2.390
 2013SOL    HW1 6938   0.800   2.303   2.392
 2013SOL    HW2 6939   0.668   2.373   2.325
 2014SOL     OW 6940   3.890   1.640   4.073
 2014SOL    HW1 6941   3.853   1.559   4.119
 2014SOL    HW2 6942   3.869   1.721   4.127
 2015SOL     OW 6943   3.813   6.290   2.035
 2015SOL    HW1 6944   3.759   6.355   2.090
 2015SOL    HW2 6945   3.795   6.197   2.066
 2016SOL     OW 6946   1.854   0.753   5.464
 2016SOL    HW1 6947   1.938   0.763   5.411
 2016SOL    HW2 6948   1.847   0.828   5.529
 2017SOL     OW 6949   2.545   6.486   4.221
 2017SOL    HW1 6950   2.529   6.577   4.260
 2017SOL    HW2 6951   2.491   6.475   4.137
 2018SOL     OW 6952   0.337   0.232   4.434
 2018SOL    HW1 6953   0.248   0.211   4.473
 2018SOL    HW2 6954   0.398   0.154   4.447
 2019SOL     OW 6955   6.477   5.091   6.913
 2019SOL    HW1 6956   6.521   5.155   6.976
 2019SOL    HW2 6957   6.515   5.000   6.927
 2020SOL     OW 6958   1.777   6.823   1.117
 2020SOL    HW1 6959   1.752   6.755   1.186
 2020SOL    HW2 6960   1.866   6.863   1.141
 2021SOL     OW 6961   0.347   6.061   4.360
 2021SOL    HW1 6962   0.333   6.151   4.402
 2021SOL    HW2 6963   0.395   6.073   4.273
 2022SOL     OW 6964   1.295   3.287   4.127
 2022SOL    HW1 6965   1.210   3.261   4.173
 2022SOL    HW2 6966   1.288   3.269   4.029
 2023SOL     OW 6967   6.774   5.789   6.760
 2023SOL    HW1 6968   6.679   5.758   6.765
 2023SOL    HW2 6969   6.784   5.851   6.682
 2024SOL     OW 6970   6.958   5.440   3.579
 2024SOL    HW1 6971   6.889   5.449   3.651
 2024SOL    HW2 6972   7.003   5.528   3.566
 2025SOL     OW 6973   1.884   6.392   4.690
 2025SOL    HW1 6974   1.899   6.458   4.616
 2025SOL    HW2 6975   1.954   6.321   4.686
 2026SOL     OW 6976   1.145   6.976   5.262
 2026SOL    HW1 6977   1.189   0.025   5.314
 2026SOL    HW2 6978   1.046   6.990   5.262
 2027SOL     OW 6979   6.915   5.899   2.360
 2027SOL    HW1 6980   6.897   5.826   2.295
 2027SOL    HW2 6981   6.829   5.938   2.392
 2028SOL     OW 6982   2.561   5.836   4.921
 2028SOL    HW1 6983   2.590   5.742   4.906
 2028SOL    HW2 6984   2.593   5.893   4.846
 2029SOL     OW 6985   6.130   2.293   6.724
 2029SOL    HW1 6986   6.186   2.312   6.804
 2029SOL    HW2 6987   6.102   2.196   6.725
 2030SOL     OW 6988   2.041   6.778   2.610
 2030SOL    HW1 6989   1.989   6.831   2.677
 2030SOL    HW2 6990   2.100   6.713   2.657
 2031SOL     OW 6991   0.349   6.102   5.430
 2031SOL    HW1 6992   0.408   6.180   5.411
 2031SOL    HW2 6993   0.372   6.063   5.519
 2032SOL     OW 6994   2.220   3.179   6.035
 2032SOL    HW1 6995   2.296   3.166   5.971
 2032SOL    HW2 6996   2.243   3.138   6.123
 2033SOL     OW 6997   2.354   1.129   1.040
 2033SOL    HW1 6998   2.392   1.221   1.055
 2033SOL    HW2 6999   2.281   1.112   1.106
 2034SOL     OW 7000   0.579   4.633   4.837
 2034SOL    HW1 7001   0.648   4.605   4.904
 2034SOL    HW2 7002   0.520   4.556   4.815
 2035SOL     OW 7003   5.696   5.474   2.905
 2035SOL    HW1 7004   5.702   5.379   2.937
 2035SOL    HW2 7005   5.651   5.529   2.975
 2036SOL     OW 7006   0.324   4.163   6.407
 2036SOL    HW1 7007   0.325   4.137   6.504
 2036SOL    HW2 7008   0.395   4.231   6.390
 2037SOL     OW 7009   0.917   3.019   6.847
 2037SOL    HW1 7010   1.006   2.985   6.818
 2037SOL    HW2 7011   0.851   2.945   6.848
 2038SOL     OW 7012   1.335   1.220   6.039
 2038SOL    HW1 7013   1.299   1.313   6.034
 2038SOL    HW2 7014   1.378   1.196   5.952
 2039SOL     OW 7015   5.654   5.866   3.305
 2039SOL    HW1 7016   5.694   5.875   3.214
 2039SOL    HW2 7017   5.610   5.953   3.330
 2040SOL     OW 7018   2.629   2.047   0.281
 2040SOL    HW1 7019   2.531   2.035   0.268
 2040SOL    HW2 7020   2.651   2.036   0.378
 2041SOL     OW 7021   2.479   6.728   0.266
 2041SOL    HW1 7022   2.443   6.659   0.202
 2041SOL    HW2 7023   2.508   6.684   0.350
 2042SOL     OW 7024   6.756   6.899   6.179
 2042SOL    HW1 7025   6.746   6.840   6.259
 2042SOL    HW2 7026   6.706   6.859   6.102
 2043SOL     OW 7027   0.455   4.175   0.247
 2043SOL    HW1 7028   0.524   4.240   0.213
 2043SOL    HW2 7029   0.364   4.206   0.218
 2044SOL     OW 7030   3.947   0.482   1.765
 2044SOL    HW1 7031   3.979   0.576   1.773
 2044SOL    HW2 7032   3.866   0.468   1.823
 2045SOL     OW 7033   1.989   6.155   3.755
 2045SOL    HW1 7034   2.035   6.221   3.696
 2045SOL    HW2 7035   1.932   6.094   3.700
 2046SOL     OW 7036   0.876   2.926   5.686
 2046SOL    HW1 7037   0.878   2.839   5.736
 2046SOL    HW2 7038   0.798   2.980   5.718
 2047SOL     OW 7039   6.638   6.803   1.720
 2047SOL    HW1 7040   6.697   6.880   1.696
 2047SOL    HW2 7041   6.604   6.760   1.637
 2048SOL     OW 7042   2.400   0.790   3.779
 2048SOL    HW1 7043   2.398   0.858   3.706
 2048SOL    HW2 7044   2.374   0.833   3.866
 2049SOL     OW 7045   4.714   2.458   5.288
 2049SOL    HW1 7046   4.625   2.451   5.243
 2049SOL    HW2 7047   4.783   2.487   5.221
 2050SOL     OW 7048   0.563   1.065   2.611
 2050SOL    HW1 7049   0.499   1.015   2.668
 2050SOL    HW2 7050   0.571   1.020   2.522
 2051SOL     OW 7051   3.151   6.713   6.657
 2051SOL    HW1 7052   3.094   6.792   6.635
 2051SOL    HW2 7053   3.111   6.663   6.734
 2052SOL     OW 7054   0.481   3.678   0.924
 2052SOL    HW1 7055   0.459   3.752   0.861
 2052SOL    HW2 7056   0.572   3.643   0.905
 2053SOL     OW 7057   6.124   4.893   2.845
 2053SOL    HW1 7058   6.172   4.827   2.788
 2053SOL    HW2 7059   6.082   4.845   2.923
 2054SOL     OW 7060   3.174   4.019   2.597
 2054SOL    HW1 7061   3.117   3.953   2.548
 2054SOL    HW2 7062   3.130   4.044   2.683
 2055SOL     OW 7063   4.085   2.663   5.664
 2055SOL    HW1 7064   4.180   2.638   5.684
 2055SOL    HW2 7065   4.078   2.696   5.569
 2056SOL     OW 7066   2.787   4.806   1.812
 2056SOL    HW1 7067   2.825   4.743   1.879
 2056SOL    HW2 7068   2.794   4.765   1.721
 2057SOL     OW 7069   5.614   3.005   4.113
 2057SOL    HW1 7070   5.529   2.970   4.074
 2057SOL    HW2 7071   5.667   3.050   4.041
 2058SOL     OW 7072   5.582   6.826   3.582
 2058SOL    HW1 7073   5.672   6.859   3.553
 2058SOL    HW2 7074   5.514   6.896   3.562
 2059SOL     OW 7075   2.106   2.161   5.667
 2059SOL    HW1 7076   2.146   2.232   5.610
 2059SOL    HW2 7077   2.145   2.072   5.643
 2060SOL     OW 7078   1.491   2.502   6.295
 2060SOL    HW1 7079   1.584   2.527   6.322
 2060SOL    HW2 7080   1.493   2.412   6.250
 2061SOL     OW 7081   2.022   1.979   3.769
 2061SOL    HW1 7082   1.975   2.058   3.727
 2061SOL    HW2 7083   2.083   2.011   3.841
 2062SOL     OW 7084   5.781   5.075   4.385
 2062SOL    HW1 7085   5.787   5.162   4.434
 2062SOL    HW2 7086   5.689   5.037   4.397
 2063SOL     OW 7087   1.001   1.814   4.182
 2063SOL    HW1 7088   1.091   1.827   4.140
 2063SOL    HW2 7089   0.983   1.717   4.193
 2064SOL     OW 7090   0.452   4.167   4.587
 2064SOL    HW1 7091   0.481   4.187   4.681
 2064SOL    HW2 7092   0.527   4.120   4.539
 2065SOL     OW 7093   3.831   3.393   5.064
 2065SOL    HW1 7094   3.884   3.384   4.980
 2065SOL    HW2 7095   3.777   3.309   5.078
 2066SOL     OW 7096   1.725   2.651   4.741
 2066SOL    HW1 7097   1.734   2.647   4.642
 2066SOL    HW2 7098   1.630   2.631   4.766
 2067SOL     OW 7099   6.398   4.458   2.450
 2067SOL    HW1 7100   6.469   4.388   2.461
 2067SOL    HW2 7101   6.313   4.416   2.421
 2068SOL     OW 7102   3.681   6.416   4.207
 2068SOL    HW1 7103   3.720   6.372   4.126
 2068SOL    HW2 7104   3.749   6.477   4.247
 2069SOL     OW 7105   6.170   1.299   3.660
 2069SOL    HW1 7106   6.209   1.353   3.735
 2069SOL    HW2 7107   6.146   1.208   3.694
 2070SOL     OW 7108   0.675   4.797   1.409
 2070SOL    HW1 7109   0.699   4.721   1.470
 2070SOL    HW2 7110   0.752   4.815   1.347
 2071SOL     OW 7111   6.778   2.336   4.960
 2071SOL    HW1 7112   6.722   2.418   4.945
 2071SOL    HW2 7113   6.830   2.315   4.876
 2072SOL     OW 7114   5.475   3.659   5.192
 2072SOL    HW1 7115   5.424   3.734   5.149
 2072SOL    HW2 7116   5.439   3.642   5.283
 2073SOL     OW 7117   3.435   5.367   6.462
 2073SOL    HW1 7118   3.433   5.453   6.513
 2073SOL    HW2 7119   3.473   5.382   6.371
 2074SOL     OW 7120   3.481   4.676   5.321
 2074SOL    HW1 7121   3.574   4.709   5.309
 2074SOL    HW2 7122   3.417   4.751   5.303
 2075SOL     OW 7123   5.430   2.245   1.459
 2075SOL    HW1 7124   5.447   2.243   1.558
 2075SOL    HW2 7125   5.332   2.237   1.442
 2076SOL     OW 7126   6.827   6.484   3.992
 2076SOL    HW1 7127   6.909   6.542   3.990
 2076SOL    HW2 7128   6.847   6.401   4.044
 2077SOL     OW 7129   0.100   4.471   0.909
 2077SOL    HW1 7130   0.187   4.445   0.950
 2077SOL    HW2 7131   0.115   4.545   0.843
 2078SOL     OW 7132   0.705   2.785   6.593
 2078SOL    HW1 7133   0.637   2.858   6.581
 2078SOL    HW2 7134   0.664   2.709   6.642
 2079SOL     OW 7135   5.651   1.473   3.208
 2079SOL    HW1 7136   5.574   1.515   3.160
 2079SOL    HW2 7137   5.736   1.521   3.184
 2080SOL     OW 7138   2.491   3.783   6.260
 2080SOL    HW1 7139   2.478   3.784   6.360
 2080SOL    HW2 7140   2.588   3.788   6.240
 2081SOL     OW 7141   0.621   5.952   2.353
 2081SOL    HW1 7142   0.639   5.925   2.448
 2081SOL    HW2 7143   0.707   5.964   2.304
 2082SOL     OW 7144   0.003   5.735   3.620
 2082SOL    HW1 7145   6.963   5.804   3.589
 2082SOL    HW2 7146   0.096   5.765   3.598
 2083SOL     OW 7147   0.458   5.684   4.139
 2083SOL    HW1 7148   0.512   5.672   4.222
 2083SOL    HW2 7149   0.515   5.724   4.068
 2084SOL     OW 7150   6.591   2.347   1.356
 2084SOL    HW1 7151   6.588   2.446   1.346
 2084SOL    HW2 7152   6.637   2.307   1.276
 2085SOL     OW 7153   6.198   5.825   0.150
 2085SOL    HW1 7154   6.274   5.779   0.103
 2085SOL    HW2 7155   6.218   5.830   0.248
 2086SOL     OW 7156   6.019   0.000   6.166
 2086SOL    HW1 7157   6.042   6.936   6.129
 2086SOL    HW2 7158   6.027   0.069   6.094
 2087SOL     OW 7159   4.729   0.962   6.882
 2087SOL    HW1 7160   4.712   1.060   6.892
 2087SOL    HW2 7161   4.770   0.945   6.792
 2088SOL     OW 7162   0.395   3.992   6.183
 2088SOL    HW1 7163   0.367   4.040   6.265
 2088SOL    HW2 7164   0.494   4.003   6.170
 2089SOL     OW 7165   2.790   4.904   5.689
 2089SOL    HW1 7166   2.837   4.872   5.771
 2089SOL    HW2 7167   2.853   4.904   5.611
 2090SOL     OW 7168   4.917   2.667   6.908
 2090SOL    HW1 7169   4.952   2.656   7.001
 2090SOL    HW2 7170   4.980   2.725   6.856
 2091SOL     OW 7171   5.357   6.356   1.175
 2091SOL    HW1 7172   5.336   6.452   1.154
 2091SOL    HW2 7173   5.271   6.306   1.188
 2092SOL     OW 7174   3.380   3.293   1.950
 2092SOL    HW1 7175   3.359   3.290   1.852
 2092SOL    HW2 7176   3.326   3.223   1.997
 2093SOL     OW 7177   4.424   6.954   0.586
 2093SOL    HW1 7178   4.512   6.969   0.542
 2093SOL    HW2 7179   4.365   6.901   0.526
 2094SOL     OW 7180   5.193   2.410   1.074
 2094SOL    HW1 7181   5.122   2.423   1.005
 2094SOL    HW2 7182   5.246   2.327   1.052
 2095SOL     OW 7183   5.440   5.076   4.016
 2095SOL    HW1 7184   5.426   5.148   4.084
 2095SOL    HW2 7185   5.361   5.014   4.016
 2096SOL     OW 7186   4.284   6.770   2.826
 2096SOL    HW1 7187   4.218   6.841   2.800
 2096SOL    HW2 7188   4.372   6.789   2.782
 2097SOL     OW 7189   0.947   5.950   5.494
 2097SOL    HW1 7190   0.922   5.858   5.525
 2097SOL    HW2 7191   0.905   5.968   5.405
 2098SOL     OW 7192   1.894   0.059   3.606
 2098SOL    HW1 7193   1.796   0.040   3.601
 2098SOL    HW2 7194   1.912   0.125   3.679
 2099SOL     OW 7195   4.520   1.519   7.003
 2099SOL    HW1 7196   4.528   1.613   6.969
 2099SOL    HW2 7197   4.583   1.505   0.054
 2100SOL     OW 7198   4.960   0.425   0.069
 2100SOL    HW1 7199   4.900   0.504   0.077
 2100SOL    HW2 7200   5.039   0.437   0.129
 2101SOL     OW 7201   2.107   0.419   2.665
 2101SOL    HW1 7202   2.040   0.362   2.616
 2101SOL    HW2 7203   2.138   0.492   2.606
 2102SOL     OW 7204   3.834   2.868   1.840
 2102SOL    HW1 7205   3.792   2.932   1.775
 2102SOL    HW2 7206   3.894   2.918   1.902
 2103SOL     OW 7207   1.587   6.783   0.839
 2103SOL    HW1 7208   1.574   6.767   0.937
 2103SOL    HW2 7209   1.499   6.803   0.796
 2104SOL     OW 7210   1.262   4.468   2.419
 2104SOL    HW1 7211   1.317   4.494   2.340
 2104SOL    HW2 7212   1.320   4.468   2.501
 2105SOL     OW 7213   5.393   6.659   5.130
 2105SOL    HW1 7214   5.393   6.652   5.030
 2105SOL    HW2 7215   5.477   6.619   5.166
 2106SOL     OW 7216   3.403   2.356   1.233
 2106SOL    HW1 7217   3.402   2.287   1.305
 2106SOL    HW2 7218   3.407   2.310   1.144
 2107SOL     OW 7219   4.937   4.288   4.563
 2107SOL    HW1 7220   4.995   4.325   4.636
 2107SOL    HW2 7221   4.944   4.188   4.563
 2108SOL     OW 7222   4.536   6.753   4.704
 2108SOL    HW1 7223   4.578   6.841   4.681
 2108SOL    HW2 7224   4.462   6.767   4.769
 2109SOL     OW 7225   2.479   5.893   2.049
 2109SOL    HW1 7226   2.477   5.794   2.060
 2109SOL    HW2 7227   2.385   5.928   2.042
 2110SOL     OW 7228   3.838   5.999   6.835
 2110SOL    HW1 7229   3.782   5.990   6.918
 2110SOL    HW2 7230   3.843   5.910   6.789
 2111SOL     OW 7231   0.779   2.486   0.036
 2111SOL    HW1 7232   0.697   2.543   0.025
 2111SOL    HW2 7233   0.856   2.531   7.017
 2112SOL     OW 7234   0.750   0.172   6.641
 2112SOL    HW1 7235   0.783   0.133   6.726
 2112SOL    HW2 7236   0.775   0.113   6.564
 2113SOL     OW 7237   6.898   1.594   4.842
 2113SOL    HW1 7238   6.852   1.524   4.898
 2113SOL    HW2 7239   6.836   1.671   4.827
 2114SOL     OW 7240   2.850   1.527   5.148
 2114SOL    HW1 7241   2.873   1.535   5.051
 2114SOL    HW2 7242   2.751   1.534   5.160
 2115SOL     OW 7243   6.907   6.284   3.747
 2115SOL    HW1 7244   6.823   6.262   3.796
 2115SOL    HW2 7245   6.969   6.334   3.807
 2116SOL     OW 7246   2.241   1.533   6.252
 2116SOL    HW1 7247   2.252   1.620   6.204
 2116SOL    HW2 7248   2.301   1.531   6.332
 2117SOL     OW 7249   5.826   2.699   2.189
 2117SOL    HW1 7250   5.771   2.701   2.105
 2117SOL    HW2 7251   5.912   2.746   2.173
 2118SOL     OW 7252   0.469   3.180   2.535
 2118SOL    HW1 7253   0.382   3.229   2.546
 2118SOL    HW2 7254   0.518   3.179   2.622
 2119SOL     OW 7255   1.257   3.153   0.632
 2119SOL    HW1 7256   1.273   3.230   0.694
 2119SOL    HW2 7257   1.160   3.148   0.609
 2120SOL     OW 7258   5.420   2.162   0.312
 2120SOL    HW1 7259   5.420   2.082   0.372
 2120SOL    HW2 7260   5.333   2.210   0.322
 2121SOL     OW 7261   2.731   6.724   1.342
 2121SOL    HW1 7262   2.754   6.668   1.422
 2121SOL    HW2 7263   2.666   6.674   1.285
 2122SOL     OW 7264   6.729   0.477   4.686
 2122SOL    HW1 7265   6.703   0.561   4.638
 2122SOL    HW2 7266   6.670   0.465   4.766
 2123SOL     OW 7267   1.120   5.111   3.271
 2123SOL    HW1 7268   1.144   5.055   3.192
 2123SOL    HW2 7269   1.049   5.177   3.246
 2124SOL     OW 7270   4.836   3.112   6.079
 2124SOL    HW1 7271   4.775   3.139   6.005
 2124SOL    HW2 7272   4.791   3.127   6.167
 2125SOL     OW 7273   1.377   5.699   4.943
 2125SOL    HW1 7274   1.412   5.606   4.957
 2125SOL    HW2 7275   1.405   5.756   5.020
 2126SOL     OW 7276   2.928   4.952   0.989
 2126SOL    HW1 7277   2.861   4.946   0.915
 2126SOL    HW2 7278   2.885   4.928   1.076
 2127SOL     OW 7279   1.421   3.733   4.459
 2127SOL    HW1 7280   1.422   3.668   4.383
 2127SOL    HW2 7281   1.488   3.704   4.528
 2128SOL     OW 7282   5.214   3.265   1.718
 2128SOL    HW1 7283   5.141   3.322   1.680
 2128SOL    HW2 7284   5.212   3.269   1.817
 2129SOL     OW 7285   5.565   3.970   3.886
 2129SOL    HW1 7286   5.507   4.003   3.961
 2129SOL    HW2 7287   5.600   4.048   3.834
 2130SOL     OW 7288   2.360   0.641   2.317
 2130SOL    HW1 7289   2.387   0.559   2.268
 2130SOL    HW2 7290   2.423   0.715   2.295
 2131SOL     OW 7291   6.018   0.958   6.803
 2131SOL    HW1 7292   6.091   0.983   6.866
 2131SOL    HW2 7293   5.978   0.870   6.830
 2132SOL     OW 7294   2.602   2.699   0.332
 2132SOL    HW1 7295   2.508   2.708   0.363
 2132SOL    HW2 7296   2.636   2.788   0.301
 2133SOL     OW 7297   4.258   2.477   1.617
 2133SOL    HW1 7298   4.301   2.392   1.648
 2133SOL    HW2 7299   4.185   2.456   1.552
 2134SOL     OW 7300   2.491   0.264   5.297
 2134SOL    HW1 7301   2.457   0.188   5.353
 2134SOL    HW2 7302   2.518   0.340   5.356
 2135SOL     OW 7303   0.965   5.973   4.409
 2135SOL    HW1 7304   1.008   5.893   4.450
 2135SOL    HW2 7305   1.032   6.047   4.401
 2136SOL     OW 7306   0.863   5.197   3.567
 2136SOL    HW1 7307   0.875   5.280   3.621
 2136SOL    HW2 7308   0.804   5.216   3.489
 2137SOL     OW 7309   0.514   0.023   4.553
 2137SOL    HW1 7310   0.557   7.002   4.475
 2137SOL    HW2 7311   0.472   6.980   4.613
 2138SOL     OW 7312   1.550   2.257   6.209
 2138SOL    HW1 7313   1.646   2.236   6.229
 2138SOL    HW2 7314   1.527   2.222   6.118
 2139SOL     OW 7315   3.007   6.464   4.294
 2139SOL    HW1 7316   3.012   6.420   4.384
 2139SOL    HW2 7317   2.928   6.428   4.244
 2140SOL     OW 7318   1.298   5.811   3.832
 2140SOL    HW1 7319   1.366   5.747   3.796
 2140SOL    HW2 7320   1.342   5.875   3.894
 2141SOL     OW 7321   6.939   1.511   6.751
 2141SOL    HW1 7322   6.894   1.592   6.715
 2141SOL    HW2 7323   0.011   1.512   6.726
 2142SOL     OW 7324   4.104   1.328   3.342
 2142SOL    HW1 7325   4.160   1.246   3.331
 2142SOL    HW2 7326   4.091   1.372   3.253
 2143SOL     OW 7327   3.133   5.889   0.520
 2143SOL    HW1 7328   3.084   5.886   0.607
 2143SOL    HW2 7329   3.095   5.821   0.457
 2144SOL     OW 7330   1.344   1.128   1.764
 2144SOL    HW1 7331   1.251   1.137   1.799
 2144SOL    HW2 7332   1.409   1.141   1.839
 2145SOL     OW 7333   2.623   5.652   3.065
 2145SOL    HW1 7334   2.621   5.737   3.012
 2145SOL    HW2 7335   2.678   5.666   3.147
 2146SOL     OW 7336   2.705   2.817   0.765
 2146SOL    HW1 7337   2.680   2.862   0.679
 2146SOL    HW2 7338   2.771   2.744   0.747
 2147SOL     OW 7339   0.307   0.281   4.976
 2147SOL    HW1 7340   0.250   0.205   4.945
 2147SOL    HW2 7341   0.278   0.308   5.068
 2148SOL     OW 7342   6.546   3.594   4.490
 2148SOL    HW1 7343   6.625   3.642   4.527
 2148SOL    HW2 7344   6.576   3.528   4.422
 2149SOL     OW 7345   2.983   0.986   3.188
 2149SOL    HW1 7346   2.946   0.990   3.281
 2149SOL    HW2 7347   2.913   0.951   3.126
 2150SOL     OW 7348   5.180   6.804   2.978
 2150SOL    HW1 7349   5.098   6.809   3.034
 2150SOL    HW2 7350   5.190   6.889   2.926
 2151SOL     OW 7351   5.054   4.741   6.161
 2151SOL    HW1 7352   5.033   4.722   6.257
 2151SOL    HW2 7353   5.043   4.658   6.107
 2152SOL     OW 7354   0.242   6.516   2.447
 2152SOL    HW1 7355   0.151   6.476   2.441
 2152SOL    HW2 7356   0.235   6.616   2.444
 2153SOL     OW 7357   4.592   1.632   4.029
 2153SOL    HW1 7358   4.640   1.665   4.110
 2153SOL    HW2 7359   4.498   1.608   4.054
 2154SOL     OW 7360   3.503   6.452   5.058
 2154SOL    HW1 7361   3.465   6.417   4.972
 2154SOL    HW2 7362   3.428   6.480   5.118
 2155SOL     OW 7363   5.808   3.343   0.369
 2155SOL    HW1 7364   5.772   3.369   0.279
 2155SOL    HW2 7365   5.764   3.259   0.400
 2156SOL     OW 7366   6.793   6.910   2.541
 2156SOL    HW1 7367   6.774   6.923   2.444
 2156SOL    HW2 7368   6.816   6.814   2.558
 2157SOL     OW 7369   6.162   1.151   4.128
 2157SOL    HW1 7370   6.083   1.176   4.072
 2157SOL    HW2 7371   6.192   1.058   4.106
 2158SOL     OW 7372   4.528   0.245   3.821
 2158SOL    HW1 7373   4.459   0.318   3.822
 2158SOL    HW2 7374   4.594   0.261   3.894
 2159SOL     OW 7375   2.469   0.728   5.079
 2159SOL    HW1 7376   2.453   0.817   5.035
 2159SOL    HW2 7377   2.494   0.742   5.175
 2160SOL     OW 7378   2.429   3.496   0.954
 2160SOL    HW1 7379   2.470   3.418   1.001
 2160SOL    HW2 7380   2.449   3.490   0.856
 2161SOL     OW 7381   4.674   2.757   3.610
 2161SOL    HW1 7382   4.702   2.663   3.630
 2161SOL    HW2 7383   4.602   2.785   3.673
 2162SOL     OW 7384   2.563   1.496   1.785
 2162SOL    HW1 7385   2.542   1.425   1.718
 2162SOL    HW2 7386   2.575   1.454   1.875
 2163SOL     OW 7387   3.513   1.752   1.111
 2163SOL    HW1 7388   3.572   1.674   1.133
 2163SOL    HW2 7389   3.476   1.791   1.195
 2164SOL     OW 7390   6.793   0.772   1.246
 2164SOL    HW1 7391   6.707   0.755   1.294
 2164SOL    HW2 7392   6.776   0.776   1.148
 2165SOL     OW 7393   2.806   0.100   1.971
 2165SOL    HW1 7394   2.737   0.056   2.027
 2165SOL    HW2 7395   2.762   0.164   1.907
 2166SOL     OW 7396   5.444   2.599   5.435
 2166SOL    HW1 7397   5.487   2.510   5.452
 2166SOL    HW2 7398   5.375   2.590   5.363
 2167SOL     OW 7399   3.682   1.134   1.051
 2167SOL    HW1 7400   3.667   1.194   0.972
 2167SOL    HW2 7401   3.724   1.048   1.020
 2168SOL     OW 7402   5.924   6.246   4.384
 2168SOL    HW1 7403   5.977   6.330   4.382
 2168SOL    HW2 7404   5.976   6.172   4.341
 2169SOL     OW 7405   5.601   1.290   5.767
 2169SOL    HW1 7406   5.502   1.304   5.761
 2169SOL    HW2 7407   5.641   1.298   5.676
 2170SOL     OW 7408   5.091   4.946   4.174
 2170SOL    HW1 7409   5.136   4.988   4.254
 2170SOL    HW2 7410   5.005   4.904   4.203
 2171SOL     OW 7411   6.990   3.732   0.012
 2171SOL    HW1 7412   0.002   3.817   7.000
 2171SOL    HW2 7413   6.894   3.745   0.036
 2172SOL     OW 7414   2.514   0.432   1.986
 2172SOL    HW1 7415   2.504   0.406   2.082
 2172SOL    HW2 7416   2.587   0.378   1.944
 2173SOL     OW 7417   4.670   2.048   5.010
 2173SOL    HW1 7418   4.725   2.092   5.081
 2173SOL    HW2 7419   4.577   2.085   5.012
 2174SOL     OW 7420   1.156   5.586   4.803
 2174SOL    HW1 7421   1.224   5.616   4.870
 2174SOL    HW2 7422   1.203   5.545   4.725
 2175SOL     OW 7423   1.688   6.688   5.794
 2175SOL    HW1 7424   1.663   6.715   5.701
 2175SOL    HW2 7425   1.624   6.620   5.828
 2176SOL     OW 7426   2.150   2.492   2.888
 2176SOL    HW1 7427   2.177   2.401   2.858
 2176SOL    HW2 7428   2.079   2.528   2.827
 2177SOL     OW 7429   1.464   1.465   1.341
 2177SOL    HW1 7430   1.483   1.504   1.251
 2177SOL    HW2 7431   1.374   1.496   1.373
 2178SOL     OW 7432   6.301   6.582   0.543
 2178SOL    HW1 7433   6.363   6.617   0.613
 2178SOL    HW2 7434   6.351   6.521   0.481
 2179SOL     OW 7435   2.085   3.840   4.064
 2179SOL    HW1 7436   2.135   3.924   4.083
 2179SOL    HW2 7437   2.105   3.810   3.970
 2180SOL     OW 7438   3.347   2.837   1.817
 2180SOL    HW1 7439   3.290   2.862   1.895
 2180SOL    HW2 7440   3.320   2.747   1.783
 2181SOL     OW 7441   3.364   6.782   1.381
 2181SOL    HW1 7442   3.410   6.824   1.459
 2181SOL    HW2 7443   3.286   6.840   1.354
 2182SOL     OW 7444   4.581   2.942   0.687
 2182SOL    HW1 7445   4.608   3.025   0.639
 2182SOL    HW2 7446   4.643   2.927   0.765
 2183SOL     OW 7447   3.670   2.452   0.714
 2183SOL    HW1 7448   3.713   2.453   0.624
 2183SOL    HW2 7449   3.571   2.453   0.703
 2184SOL     OW 7450   5.317   3.034   6.290
 2184SOL    HW1 7451   5.232   3.086   6.283
 2184SOL    HW2 7452   5.386   3.076   6.231
 2185SOL     OW 7453   6.753   6.951   2.278
 2185SOL    HW1 7454   6.738   7.023   2.210
 2185SOL    HW2 7455   6.710   6.866   2.247
 2186SOL     OW 7456   0.489   4.278   3.050
 2186SOL    HW1 7457   0.419   4.310   2.987
 2186SOL    HW2 7458   0.463   4.302   3.144
 2187SOL     OW 7459   6.437   1.498   0.354
 2187SOL    HW1 7460   6.516   1.465   0.405
 2187SOL    HW2 7461   6.356   1.446   0.380
 2188SOL     OW 7462   5.219   1.437   4.101
 2188SOL    HW1 7463   5.199   1.430   4.199
 2188SOL    HW2 7464   5.204   1.531   4.071
 2189SOL     OW 7465   3.558   6.884   0.074
 2189SOL    HW1 7466   3.491   6.958   0.062
 2189SOL    HW2 7467   3.629   6.914   0.137
 2190SOL     OW 7468   5.287   3.018   0.377
 2190SOL    HW1 7469   5.193   3.046   0.361
 2190SOL    HW2 7470   5.291   2.955   0.455
 2191SOL     OW 7471   3.080   1.221   6.586
 2191SOL    HW1 7472   3.135   1.171   6.653
 2191SOL    HW2 7473   3.136   1.291   6.543
 2192SOL     OW 7474   3.818   5.839   2.290
 2192SOL    HW1 7475   3.847   5.877   2.202
 2192SOL    HW2 7476   3.749   5.768   2.274
 2193SOL     OW 7477   6.642   6.111   4.642
 2193SOL    HW1 7478   6.715   6.046   4.620
 2193SOL    HW2 7479   6.617   6.102   4.739
 2194SOL     OW 7480   2.713   6.921   1.796
 2194SOL    HW1 7481   2.796   6.954   1.840
 2194SOL    HW2 7482   2.718   6.940   1.698
 2195SOL     OW 7483   0.470   4.591   1.975
 2195SOL    HW1 7484   0.473   4.491   1.974
 2195SOL    HW2 7485   0.404   4.622   2.044
 2196SOL     OW 7486   4.472   3.796   0.213
 2196SOL    HW1 7487   4.567   3.780   0.187
 2196SOL    HW2 7488   4.469   3.832   0.306
 2197SOL     OW 7489   4.736   3.363   6.972
 2197SOL    HW1 7490   4.746   3.463   6.974
 2197SOL    HW2 7491   4.783   3.323   0.025
 2198SOL     OW 7492   6.704   4.623   0.014
 2198SOL    HW1 7493   6.716   4.572   0.099
 2198SOL    HW2 7494   6.695   4.720   0.034
 2199SOL     OW 7495   4.415   1.371   3.578
 2199SOL    HW1 7496   4.322   1.360   3.612
 2199SOL    HW2 7497   4.425   1.462   3.538
 2200SOL     OW 7498   3.187   6.941   4.255
 2200SOL    HW1 7499   3.256   6.974   4.319
 2200SOL    HW2 7500   3.205   6.978   4.164
 2201SOL     OW 7501   4.766   4.391   4.171
 2201SOL    HW1 7502   4.737   4.345   4.254
 2201SOL    HW2 7503   4.847   4.448   4.190
 2202SOL     OW 7504   4.681   5.284   3.765
 2202SOL    HW1 7505   4.587   5.295   3.798
 2202SOL    HW2 7506   4.687   5.315   3.671
 2203SOL     OW 7507   2.679   2.185   2.683
 2203SOL    HW1 7508   2.610   2.121   2.716
 2203SOL    HW2 7509   2.767   2.165   2.727
 2204SOL     OW 7510   2.901   2.259   0.935
 2204SOL    HW1 7511   2.963   2.332   0.906
 2204SOL    HW2 7512   2.922   2.175   0.884
 2205SOL     OW 7513   3.317   1.224   2.477
 2205SOL    HW1 7514   3.346   1.276   2.557
 2205SOL    HW2 7515   3.274   1.286   2.411
 2206SOL     OW 7516   1.521   3.759   0.592
 2206SOL    HW1 7517   1.464   3.742   0.511
 2206SOL    HW2 7518   1.541   3.672   0.636
 2207SOL     OW 7519   6.499   4.868   5.036
 2207SOL    HW1 7520   6.508   4.785   4.980
 2207SOL    HW2 7521   6.409   4.870   5.078
 2208SOL     OW 7522   6.544   5.539   1.801
 2208SOL    HW1 7523   6.493   5.611   1.755
 2208SOL    HW2 7524   6.489   5.500   1.875
 2209SOL     OW 7525   0.107   6.386   1.687
 2209SOL    HW1 7526   0.156   6.310   1.644
 2209SOL    HW2 7527   0.064   6.442   1.616
 2210SOL     OW 7528   2.043   5.117   4.127
 2210SOL    HW1 7529   2.001   5.082   4.211
 2210SOL    HW2 7530   2.069   5.212   4.140
 2211SOL     OW 7531   6.899   1.387   5.075
 2211SOL    HW1 7532   6.938   1.326   5.145
 2211SOL    HW2 7533   6.939   1.365   4.986
 2212SOL     OW 7534   3.323   0.130   5.962
 2212SOL    HW1 7535   3.268   0.047   5.959
 2212SOL    HW2 7536   3.308   0.176   6.050
 2213SOL     OW 7537   4.933   0.463   3.141
 2213SOL    HW1 7538   4.891   0.546   3.179
 2213SOL    HW2 7539   4.940   0.394   3.213
 2214SOL     OW 7540   3.691   0.071   5.121
 2214SOL    HW1 7541   3.635   0.082   5.203
 2214SOL    HW2 7542   3.774   0.020   5.145
 2215SOL     OW 7543   5.862   2.182   5.344
 2215SOL    HW1 7544   5.928   2.240   5.298
 2215SOL    HW2 7545   5.892   2.164   5.437
 2216SOL     OW 7546   3.322   1.818   2.665
 2216SOL    HW1 7547   3.278   1.818   2.576
 2216SOL    HW2 7548   3.383   1.739   2.672
 2217SOL     OW 7549   3.526   0.160   1.688
 2217SOL    HW1 7550   3.462   0.214   1.742
 2217SOL    HW2 7551   3.560   0.215   1.612
 2218SOL     OW 7552   0.373   0.502   2.611
 2218SOL    HW1 7553   0.331   0.442   2.543
 2218SOL    HW2 7554   0.452   0.548   2.570
 2219SOL     OW 7555   2.893   2.127   2.846
 2219SOL    HW1 7556   2.947   2.072   2.782
 2219SOL    HW2 7557   2.955   2.173   2.910
 2220SOL     OW 7558   1.199   0.306   2.086
 2220SOL    HW1 7559   1.152   0.394   2.083
 2220SOL    HW2 7560   1.297   0.319   2.072
 2221SOL     OW 7561   0.369   0.084   5.697
 2221SOL    HW1 7562   0.451   0.141   5.694
 2221SOL    HW2 7563   0.357   0.049   5.790
 2222SOL     OW 7564   6.155   4.996   3.936
 2222SOL    HW1 7565   6.119   5.047   3.858
 2222SOL    HW2 7566   6.080   4.973   3.999
 2223SOL     OW 7567   6.736   6.490   1.638
 2223SOL    HW1 7568   6.810   6.554   1.616
 2223SOL    HW2 7569   6.772   6.417   1.696
 2224SOL     OW 7570   0.674   5.410   0.497
 2224SOL    HW1 7571   0.756   5.410   0.439
 2224SOL    HW2 7572   0.631   5.320   0.493
 2225SOL     OW 7573   0.315   4.117   0.488
 2225SOL    HW1 7574   0.313   4.020   0.509
 2225SOL    HW2 7575   0.379   4.134   0.413
 2226SOL     OW 7576   4.162   3.314   2.419
 2226SOL    HW1 7577   4.125   3.252   2.349
 2226SOL    HW2 7578   4.199   3.396   2.374
 2227SOL     OW 7579   0.584   1.874   4.258
 2227SOL    HW1 7580   0.569   1.814   4.337
 2227SOL    HW2 7581   0.497   1.911   4.227
 2228SOL     OW 7582   2.725   4.716   3.988
 2228SOL    HW1 7583   2.640   4.740   4.036
 2228SOL    HW2 7584   2.803   4.750   4.039
 2229SOL     OW 7585   6.447   6.235   3.120
 2229SOL    HW1 7586   6.542   6.258   3.142
 2229SOL    HW2 7587   6.438   6.218   3.022
 2230SOL     OW 7588   1.711   5.245   2.507
 2230SOL    HW1 7589   1.741   5.274   2.416
 2230SOL    HW2 7590   1.706   5.145   2.510
 2231SOL     OW 7591   2.186   5.749   1.146
 2231SOL    HW1 7592   2.233   5.826   1.188
 2231SOL    HW2 7593   2.088   5.770   1.139
 2232SOL     OW 7594   5.693   2.172   3.884
 2232SOL    HW1 7595   5.747   2.094   3.855
 2232SOL    HW2 7596   5.639   2.147   3.965
 2233SOL     OW 7597   3.525   1.440   0.043
 2233SOL    HW1 7598   3.619   1.405   0.047
 2233SOL    HW2 7599   3.473   1.386   7.001
 2234SOL     OW 7600   3.775   2.841   1.308
 2234SOL    HW1 7601   3.728   2.836   1.396
 2234SOL    HW2 7602   3.711   2.873   1.238
 2235SOL     OW 7603   2.051   1.849   2.395
 2235SOL    HW1 7604   2.105   1.878   2.315
 2235SOL    HW2 7605   1.971   1.907   2.404
 2236SOL     OW 7606   1.135   4.310   5.208
 2236SOL    HW1 7607   1.181   4.380   5.262
 2236SOL    HW2 7608   1.139   4.222   5.255
 2237SOL     OW 7609   6.604   2.818   4.342
 2237SOL    HW1 7610   6.558   2.868   4.415
 2237SOL    HW2 7611   6.703   2.821   4.357
 2238SOL     OW 7612   5.421   6.301   0.014
 2238SOL    HW1 7613   5.423   6.224   0.077
 2238SOL    HW2 7614   5.410   6.268   6.945
 2239SOL     OW 7615   6.344   5.724   1.411
 2239SOL    HW1 7616   6.400   5.689   1.336
 2239SOL    HW2 7617   6.305   5.648   1.463
 2240SOL     OW 7618   6.336   3.756   1.510
 2240SOL    HW1 7619   6.408   3.825   1.524
 2240SOL    HW2 7620   6.291   3.737   1.597
 2241SOL     OW 7621   1.309   0.651   4.134
 2241SOL    HW1 7622   1.402   0.641   4.170
 2241SOL    HW2 7623   1.243   0.635   4.207
 2242SOL     OW 7624   2.953   1.357   3.095
 2242SOL    HW1 7625   2.976   1.271   3.142
 2242SOL    HW2 7626   3.034   1.392   3.048
 2243SOL     OW 7627   2.053   7.000   4.950
 2243SOL    HW1 7628   1.959   6.977   4.977
 2243SOL    HW2 7629   2.085   6.933   4.883
 2244SOL     OW 7630   4.061   0.700   5.114
 2244SOL    HW1 7631   4.057   0.705   5.214
 2244SOL    HW2 7632   4.111   0.617   5.087
 2245SOL     OW 7633   0.409   2.295   2.665
 2245SOL    HW1 7634   0.457   2.224   2.614
 2245SOL    HW2 7635   0.329   2.326   2.614
 2246SOL     OW 7636   1.077   4.151   5.593
 2246SOL    HW1 7637   1.165   4.151   5.545
 2246SOL    HW2 7638   1.003   4.167   5.528
 2247SOL     OW 7639   1.749   1.328   4.642
 2247SOL    HW1 7640   1.717   1.410   4.595
 2247SOL    HW2 7641   1.787   1.264   4.576
 2248SOL     OW 7642   5.519   4.273   6.084
 2248SOL    HW1 7643   5.564   4.248   5.998
 2248SOL    HW2 7644   5.568   4.230   6.161
 2249SOL     OW 7645   5.011   5.710   5.564
 2249SOL    HW1 7646   4.970   5.731   5.476
 2249SOL    HW2 7647   5.110   5.698   5.553
 2250SOL     OW 7648   4.876   5.130   1.637
 2250SOL    HW1 7649   4.868   5.217   1.685
 2250SOL    HW2 7650   4.812   5.064   1.677
 2251SOL     OW 7651   0.567   0.899   5.869
 2251SOL    HW1 7652   0.542   0.805   5.889
 2251SOL    HW2 7653   0.658   0.919   5.907
 2252SOL     OW 7654   3.628   1.075   6.453
 2252SOL    HW1 7655   3.584   1.100   6.367
 2252SOL    HW2 7656   3.592   0.987   6.485
 2253SOL     OW 7657   0.644   4.285   0.053
 2253SOL    HW1 7658   0.579   4.345   0.006
 2253SOL    HW2 7659   0.629   4.191   0.024
 2254SOL     OW 7660   2.073   5.054   6.283
 2254SOL    HW1 7661   2.090   5.148   6.254
 2254SOL    HW2 7662   1.986   5.023   6.246
 2255SOL     OW 7663   6.646   3.729   6.560
 2255SOL    HW1 7664   6.620   3.635   6.580
 2255SOL    HW2 7665   6.732   3.750   6.606
 2256SOL     OW 7666   2.555   4.916   1.955
 2256SOL    HW1 7667   2.518   4.994   1.904
 2256SOL    HW2 7668   2.628   4.873   1.903
 2257SOL     OW 7669   1.528   4.139   5.169
 2257SOL    HW1 7670   1.541   4.044   5.139
 2257SOL    HW2 7671   1.470   4.187   5.102
 2258SOL     OW 7672   2.012   5.481   5.028
 2258SOL    HW1 7673   1.918   5.476   4.995
 2258SOL    HW2 7674   2.075   5.448   4.958
 2259SOL     OW 7675   6.406   2.062   6.107
 2259SOL    HW1 7676   6.370   1.979   6.150
 2259SOL    HW2 7677   6.501   2.048   6.080
 2260SOL     OW 7678   3.949   3.389   0.618
 2260SOL    HW1 7679   3.966   3.368   0.522
 2260SOL    HW2 7680   4.030   3.366   0.672
 2261SOL     OW 7681   2.224   6.055   5.222
 2261SOL    HW1 7682   2.296   6.070   5.156
 2261SOL    HW2 7683   2.248   5.977   5.281
 2262SOL     OW 7684   3.325   1.804   2.941
 2262SOL    HW1 7685   3.346   1.789   2.845
 2262SOL    HW2 7686   3.365   1.891   2.971
 2263SOL     OW 7687   1.164   4.494   5.871
 2263SOL    HW1 7688   1.203   4.408   5.903
 2263SOL    HW2 7689   1.087   4.519   5.929
 2264SOL     OW 7690   3.814   3.724   3.125
 2264SOL    HW1 7691   3.774   3.813   3.103
 2264SOL    HW2 7692   3.880   3.735   3.199
 2265SOL     OW 7693   0.804   6.767   4.007
 2265SOL    HW1 7694   0.780   6.815   3.923
 2265SOL    HW2 7695   0.901   6.780   4.027
 2266SOL     OW 7696   0.002   0.549   6.079
 2266SOL    HW1 7697   0.094   0.528   6.046
 2266SOL    HW2 7698   6.995   0.634   6.038
 2267SOL     OW 7699   5.480   1.907   5.289
 2267SOL    HW1 7700   5.503   1.848   5.366
 2267SOL    HW2 7701   5.551   1.977   5.279
 2268SOL     OW 7702   6.787   5.726   0.060
 2268SOL    HW1 7703   6.886   5.716   0.052
 2268SOL    HW2 7704   6.751   5.770   7.003
 2269SOL     OW 7705   7.020   6.683   2.868
 2269SOL    HW1 7706   0.077   6.713   2.820
 2269SOL    HW2 7707   0.015   6.671   2.965
 2270SOL     OW 7708   3.653   3.285   3.395
 2270SOL    HW1 7709   3.674   3.381   3.410
 2270SOL    HW2 7710   3.557   3.274   3.370
 2271SOL     OW 7711   1.319   4.596   2.962
 2271SOL    HW1 7712   1.353   4.657   3.034
 2271SOL    HW2 7713   1.221   4.610   2.950
 2272SOL     OW 7714   5.194   0.814   5.430
 2272SOL    HW1 7715   5.144   0.877   5.372
 2272SOL    HW2 7716   5.131   0.773   5.497
 2273SOL     OW 7717   0.782   1.513   2.335
 2273SOL    HW1 7718   0.725   1.565   2.271
 2273SOL    HW2 7719   0.772   1.416   2.316
 2274SOL     OW 7720   0.993   4.341   3.689
 2274SOL    HW1 7721   0.966   4.290   3.607
 2274SOL    HW2 7722   1.046   4.282   3.749
 2275SOL     OW 7723   4.805   6.610   3.271
 2275SOL    HW1 7724   4.796   6.580   3.366
 2275SOL    HW2 7725   4.812   6.530   3.211
 2276SOL     OW 7726   3.276   5.701   2.252
 2276SOL    HW1 7727   3.336   5.723   2.175
 2276SOL    HW2 7728   3.210   5.632   2.224
 2277SOL     OW 7729   3.224   2.873   2.267
 2277SOL    HW1 7730   3.199   2.917   2.354
 2277SOL    HW2 7731   3.323   2.869   2.259
 2278SOL     OW 7732   3.764   5.225   1.037
 2278SOL    HW1 7733   3.722   5.142   1.074
 2278SOL    HW2 7734   3.747   5.301   1.099
 2279SOL     OW 7735   5.652   4.200   5.848
 2279SOL    HW1 7736   5.646   4.201   5.748
 2279SOL    HW2 7737   5.648   4.105   5.880
 2280SOL     OW 7738   5.802   0.368   6.003
 2280SOL    HW1 7739   5.858   0.396   5.925
 2280SOL    HW2 7740   5.849   0.392   6.088
 2281SOL     OW 7741   2.127   1.187   0.278
 2281SOL    HW1 7742   2.086   1.132   0.350
 2281SOL    HW2 7743   2.218   1.152   0.258
 2282SOL     OW 7744   4.016   5.986   2.672
 2282SOL    HW1 7745   3.952   5.974   2.596
 2282SOL    HW2 7746   4.107   6.007   2.635
 2283SOL     OW 7747   0.723   3.723   1.434
 2283SOL    HW1 7748   0.779   3.699   1.513
 2283SOL    HW2 7749   0.639   3.768   1.465
 2284SOL     OW 7750   2.274   2.381   1.229
 2284SOL    HW1 7751   2.320   2.407   1.314
 2284SOL    HW2 7752   2.186   2.428   1.222
 2285SOL     OW 7753   1.522   3.296   6.823
 2285SOL    HW1 7754   1.571   3.268   6.906
 2285SOL    HW2 7755   1.509   3.216   6.765
 2286SOL     OW 7756   6.630   6.659   4.063
 2286SOL    HW1 7757   6.671   6.733   4.116
 2286SOL    HW2 7758   6.702   6.610   4.014
 2287SOL     OW 7759   2.988   1.773   1.102
 2287SOL    HW1 7760   2.908   1.777   1.162
 2287SOL    HW2 7761   3.028   1.864   1.093
 2288SOL     OW 7762   2.483   6.206   4.615
 2288SOL    HW1 7763   2.422   6.135   4.649
 2288SOL    HW2 7764   2.480   6.208   4.515
 2289SOL     OW 7765   4.217   0.191   6.757
 2289SOL    HW1 7766   4.274   0.222   6.833
 2289SOL    HW2 7767   4.152   0.263   6.733
 2290SOL     OW 7768   3.145   3.283   4.394
 2290SOL    HW1 7769   3.182   3.324   4.311
 2290SOL    HW2 7770   3.101   3.354   4.450
 2291SOL     OW 7771   2.678   2.302   0.182
 2291SOL    HW1 7772   2.734   2.351   0.249
 2291SOL    HW2 7773   2.686   2.204   0.197
 2292SOL     OW 7774   4.869   2.353   3.444
 2292SOL    HW1 7775   4.952   2.408   3.446
 2292SOL    HW2 7776   4.809   2.380   3.520
 2293SOL     OW 7777   1.077   1.012   6.943
 2293SOL    HW1 7778   1.053   1.109   6.936
 2293SOL    HW2 7779   1.066   0.982   0.013
 2294SOL     OW 7780   6.341   2.055   4.997
 2294SOL    HW1 7781   6.426   2.086   5.040
 2294SOL    HW2 7782   6.355   2.044   4.899
 2295SOL     OW 7783   5.394   6.164   0.262
 2295SOL    HW1 7784   5.356   6.224   0.332
 2295SOL    HW2 7785   5.393   6.070   0.295
 2296SOL     OW 7786   3.519   5.493   4.985
 2296SOL    HW1 7787   3.480   5.583   4.966
 2296SOL    HW2 7788   3.593   5.475   4.921
 2297SOL     OW 7789   6.187   2.972   6.357
 2297SOL    HW1 7790   6.221   2.993   6.449
 2297SOL    HW2 7791   6.207   2.876   6.335
 2298SOL     OW 7792   2.755   3.754   5.404
 2298SOL    HW1 7793   2.759   3.769   5.503
 2298SOL    HW2 7794   2.742   3.842   5.359
 2299SOL     OW 7795   5.774   3.662   4.878
 2299SOL    HW1 7796   5.734   3.595   4.941
 2299SOL    HW2 7797   5.873   3.652   4.878
 2300SOL     OW 7798   5.185   0.037   2.786
 2300SOL    HW1 7799   5.252   0.107   2.806
 2300SOL    HW2 7800   5.225   6.994   2.724
 2301SOL     OW 7801   3.890   3.076   5.148
 2301SOL    HW1 7802   3.794   3.102   5.143
 2301SOL    HW2 7803   3.924   3.058   5.055
 2302SOL     OW 7804   6.712   3.717   5.659
 2302SOL    HW1 7805   6.640   3.761   5.713
 2302SOL    HW2 7806   6.670   3.658   5.590
 2303SOL     OW 7807   2.715   1.524   6.366
 2303SOL    HW1 7808   2.786   1.458   6.392
 2303SOL    HW2 7809   2.756   1.601   6.318
 2304SOL     OW 7810   5.557   0.109   2.181
 2304SOL    HW1 7811   5.570   0.054   2.264
 2304SOL    HW2 7812   5.644   0.118   2.132
 2305SOL     OW 7813   3.161   6.815   5.062
 2305SOL    HW1 7814   3.077   6.859   5.096
 2305SOL    HW2 7815   3.239   6.875   5.079
 2306SOL     OW 7816   0.703   4.336   4.462
 2306SOL    HW1 7817   0.772   4.264   4.453
 2306SOL    HW2 7818   0.688   4.357   4.559
 2307SOL     OW 7819   5.942   3.942   4.879
 2307SOL    HW1 7820   5.963   4.011   4.810
 2307SOL    HW2 7821   5.845   3.919   4.874
 2308SOL     OW 7822   1.045   5.902   1.997
 2308SOL    HW1 7823   1.015   5.822   1.946
 2308SOL    HW2 7824   1.034   5.885   2.095
 2309SOL     OW 7825   1.980   0.742   4.589
 2309SOL    HW1 7826   1.987   0.667   4.655
 2309SOL    HW2 7827   2.058   0.737   4.526
 2310SOL     OW 7828   4.235   6.507   0.081
 2310SOL    HW1 7829   4.222   6.602   0.109
 2310SOL    HW2 7830   4.158   6.477   0.025
 2311SOL     OW 7831   2.364   5.877   0.684
 2311SOL    HW1 7832   2.398   5.935   0.611
 2311SOL    HW2 7833   2.280   5.916   0.722
 2312SOL     OW 7834   2.791   4.835   3.155
 2312SOL    HW1 7835   2.755   4.762   3.214
 2312SOL    HW2 7836   2.791   4.921   3.206
 2313SOL     OW 7837   4.522   5.218   1.635
 2313SOL    HW1 7838   4.575   5.239   1.717
 2313SOL    HW2 7839   4.431   5.259   1.644
 2314SOL     OW 7840   2.208   4.259   3.077
 2314SOL    HW1 7841   2.237   4.191   3.145
 2314SOL    HW2 7842   2.236   4.350   3.107
 2315SOL     OW 7843   4.383   2.060   6.424
 2315SOL    HW1 7844   4.286   2.037   6.436
 2315SOL    HW2 7845   4.433   2.039   6.508
 2316SOL     OW 7846   4.845   3.143   1.756
 2316SOL    HW1 7847   4.898   3.058   1.756
 2316SOL    HW2 7848   4.757   3.126   1.801
 2317SOL     OW 7849   0.648   5.774   3.912
 2317SOL    HW1 7850   0.678   5.853   3.965
 2317SOL    HW2 7851   0.680   5.783   3.818
 2318SOL     OW 7852   6.752   1.610   3.669
 2318SOL    HW1 7853   6.826   1.566   3.617
 2318SOL    HW2 7854   6.679   1.544   3.684
 2319SOL     OW 7855   1.455   5.136   1.602
 2319SOL    HW1 7856   1.414   5.071   1.538
 2319SOL    HW2 7857   1.495   5.212   1.550
 2320SOL     OW 7858   6.171   4.559   4.110
 2320SOL    HW1 7859   6.243   4.569   4.179
 2320SOL    HW2 7860   6.198   4.610   4.028
 2321SOL     OW 7861   3.637   4.963   4.186
 2321SOL    HW1 7862   3.639   5.055   4.146
 2321SOL    HW2 7863   3.602   4.967   4.279
 2322SOL     OW 7864   2.601   1.017   4.501
 2322SOL    HW1 7865   2.529   1.080   4.530
 2322SOL    HW2 7866   2.684   1.069   4.481
 2323SOL     OW 7867   5.349   3.538   1.825
 2323SOL    HW1 7868   5.363   3.573   1.917
 2323SOL    HW2 7869   5.267   3.580   1.785
 2324SOL     OW 7870   0.142   5.211   3.896
 2324SOL    HW1 7871   0.231   5.256   3.904
 2324SOL    HW2 7872   0.155   5.112   3.898
 2325SOL     OW 7873   6.853   2.437   0.078
 2325SOL    HW1 7874   6.798   2.520   0.077
 2325SOL    HW2 7875   6.947   2.459   0.050
 2326SOL     OW 7876   0.377   4.551   0.569
 2326SOL    HW1 7877   0.419   4.617   0.507
 2326SOL    HW2 7878   0.335   4.477   0.517
 2327SOL     OW 7879   4.760   1.208   3.433
 2327SOL    HW1 7880   4.849   1.221   3.478
 2327SOL    HW2 7881   4.757   1.263   3.349
 2328SOL     OW 7882   6.030   5.127   3.690
 2328SOL    HW1 7883   6.054   5.052   3.629
 2328SOL    HW2 7884   6.034   5.214   3.640
 2329SOL     OW 7885   1.087   6.187   3.164
 2329SOL    HW1 7886   1.121   6.152   3.252
 2329SOL    HW2 7887   1.149   6.159   3.091
 2330SOL     OW 7888   1.285   4.474   0.060
 2330SOL    HW1 7889   1.252   4.442   0.149
 2330SOL    HW2 7890   1.383   4.457   0.053
 2331SOL     OW 7891   1.012   5.055   4.932
 2331SOL    HW1 7892   1.063   5.140   4.945
 2331SOL    HW2 7893   0.923   5.075   4.891
 2332SOL     OW 7894   5.944   3.290   5.728
 2332SOL    HW1 7895   6.009   3.333   5.665
 2332SOL    HW2 7896   5.992   3.263   5.812
 2333SOL     OW 7897   2.382   4.746   3.619
 2333SOL    HW1 7898   2.433   4.665   3.588
 2333SOL    HW2 7899   2.356   4.734   3.715
 2334SOL     OW 7900   2.428   0.539   5.791
 2334SOL    HW1 7901   2.367   0.617   5.778
 2334SOL    HW2 7902   2.373   0.455   5.799
 2335SOL     OW 7903   4.880   4.739   4.288
 2335SOL    HW1 7904   4.904   4.642   4.297
 2335SOL    HW2 7905   4.810   4.763   4.355
 2336SOL     OW 7906   4.239   2.239   5.858
 2336SOL    HW1 7907   4.328   2.281   5.876
 2336SOL    HW2 7908   4.249   2.173   5.784
 2337SOL     OW 7909   5.593   0.721   4.650
 2337SOL    HW1 7910   5.675   0.666   4.668
 2337SOL    HW2 7911   5.613   0.788   4.579
 2338SOL     OW 7912   1.275   0.140   6.526
 2338SOL    HW1 7913   1.318   0.150   6.616
 2338SOL    HW2 7914   1.210   0.064   6.529
 2339SOL     OW 7915   4.248   4.761   6.944
 2339SOL    HW1 7916   4.296   4.787   6.860
 2339SOL    HW2 7917   4.150   4.755   6.926
 2340SOL     OW 7918   3.572   5.287   4.625
 2340SOL    HW1 7919   3.585   5.196   4.665
 2340SOL    HW2 7920   3.493   5.286   4.564
 2341SOL     OW 7921   6.509   4.568   6.617
 2341SOL    HW1 7922   6.494   4.524   6.529
 2341SOL    HW2 7923   6.490   4.665   6.610
 2342SOL     OW 7924   6.667   1.560   5.785
 2342SOL    HW1 7925   6.684   1.461   5.790
 2342SOL    HW2 7926   6.637   1.584   5.693
 2343SOL     OW 7927   1.596   6.365   0.256
 2343SOL    HW1 7928   1.579   6.307   0.176
 2343SOL    HW2 7929   1.620   6.307   0.335
 2344SOL     OW 7930   2.842   0.889   2.986
 2344SOL    HW1 7931   2.841   0.798   2.944
 2344SOL    HW2 7932   2.863   0.957   2.916
 2345SOL     OW 7933   1.207   1.987   2.074
 2345SOL    HW1 7934   1.157   1.908   2.109
 2345SOL    HW2 7935   1.294   1.996   2.123
 2346SOL     OW 7936   4.839   2.920   5.418
 2346SOL    HW1 7937   4.909   2.970   5.367
 2346SOL    HW2 7938   4.772   2.985   5.454
 2347SOL     OW 7939   1.743   3.897   0.606
 2347SOL    HW1 7940   1.660   3.842   0.599
 2347SOL    HW2 7941   1.820   3.839   0.633
 2348SOL     OW 7942   2.428   0.104   1.195
 2348SOL    HW1 7943   2.371   0.121   1.114
 2348SOL    HW2 7944   2.395   0.160   1.271
 2349SOL     OW 7945   5.415   3.255   6.835
 2349SOL    HW1 7946   5.474   3.226   6.910
 2349SOL    HW2 7947   5.371   3.174   6.795
 2350SOL     OW 7948   1.720   6.469   4.892
 2350SOL    HW1 7949   1.778   6.436   4.818
 2350SOL    HW2 7950   1.731   6.410   4.972
 2351SOL     OW 7951   1.368   4.946   2.477
 2351SOL    HW1 7952   1.304   4.888   2.528
 2351SOL    HW2 7953   1.415   5.007   2.541
 2352SOL     OW 7954   5.638   5.403   0.016
 2352SOL    HW1 7955   5.692   5.464   0.075
 2352SOL    HW2 7956   5.689   5.386   6.956
 2353SOL     OW 7957   2.443   3.089   5.873
 2353SOL    HW1 7958   2.485   3.140   5.798
 2353SOL    HW2 7959   2.474   2.994   5.870
 2354SOL     OW 7960   4.180   1.726   2.442
 2354SOL    HW1 7961   4.118   1.745   2.366
 2354SOL    HW2 7962   4.229   1.810   2.467
 2355SOL     OW 7963   0.742   1.508   1.854
 2355SOL    HW1 7964   0.650   1.541   1.834
 2355SOL    HW2 7965   0.787   1.481   1.769
 2356SOL     OW 7966   3.272   5.256   4.526
 2356SOL    HW1 7967   3.259   5.311   4.609
 2356SOL    HW2 7968   3.234   5.305   4.448
 2357SOL     OW 7969   1.176   5.256   0.946
 2357SOL    HW1 7970   1.224   5.209   1.020
 2357SOL    HW2 7971   1.166   5.352   0.969
 2358SOL     OW 7972   2.800   0.664   5.160
 2358SOL    HW1 7973   2.706   0.653   5.194
 2358SOL    HW2 7974   2.797   0.693   5.064
 2359SOL     OW 7975   2.648   2.012   5.807
 2359SOL    HW1 7976   2.619   2.107   5.795
 2359SOL    HW2 7977   2.745   2.004   5.784
 2360SOL     OW 7978   3.294   5.291   0.456
 2360SOL    HW1 7979   3.204   5.319   0.422
 2360SOL    HW2 7980   3.289   5.197   0.491
 2361SOL     OW 7981   3.444   5.092   1.387
 2361SOL    HW1 7982   3.377   5.048   1.447
 2361SOL    HW2 7983   3.410   5.090   1.293
 2362SOL     OW 7984   2.659   5.147   4.792
 2362SOL    HW1 7985   2.602   5.191   4.722
 2362SOL    HW2 7986   2.686   5.056   4.760
 2363SOL     OW 7987   2.110   3.867   1.066
 2363SOL    HW1 7988   2.108   3.952   1.012
 2363SOL    HW2 7989   2.019   3.850   1.104
 2364SOL     OW 7990   4.692   0.752   2.187
 2364SOL    HW1 7991   4.764   0.717   2.128
 2364SOL    HW2 7992   4.707   0.850   2.203
 2365SOL     OW 7993   5.577   4.630   3.013
 2365SOL    HW1 7994   5.577   4.545   2.961
 2365SOL    HW2 7995   5.509   4.625   3.086
 2366SOL     OW 7996   3.270   5.394   5.206
 2366SOL    HW1 7997   3.309   5.484   5.222
 2366SOL    HW2 7998   3.287   5.366   5.111
 2367SOL     OW 7999   6.339   5.183   5.341
 2367SOL    HW1 8000   6.437   5.204   5.346
 2367SOL    HW2 8001   6.305   5.204   5.249
 2368SOL     OW 8002   5.518   0.136   4.975
 2368SOL    HW1 8003   5.510   0.056   5.033
 2368SOL    HW2 8004   5.443   0.199   4.994
 2369SOL     OW 8005   4.135   1.776   4.536
 2369SOL    HW1 8006   4.036   1.790   4.526
 2369SOL    HW2 8007   4.179   1.864   4.555
 2370SOL     OW 8008   4.671   1.553   1.782
 2370SOL    HW1 8009   4.628   1.578   1.696
 2370SOL    HW2 8010   4.610   1.574   1.858
 2371SOL     OW 8011   1.594   0.102   1.866
 2371SOL    HW1 8012   1.606   0.126   1.962
 2371SOL    HW2 8013   1.529   0.165   1.824
 2372SOL     OW 8014   6.814   6.944   5.353
 2372SOL    HW1 8015   6.723   6.904   5.366
 2372SOL    HW2 8016   6.834   7.008   5.427
 2373SOL     OW 8017   5.846   4.354   5.964
 2373SOL    HW1 8018   5.920   4.360   5.898
 2373SOL    HW2 8019   5.768   4.307   5.923
 2374SOL     OW 8020   0.233   6.226   2.260
 2374SOL    HW1 8021   0.210   6.131   2.282
 2374SOL    HW2 8022   0.181   6.287   2.319
 2375SOL     OW 8023   1.790   0.093   3.963
 2375SOL    HW1 8024   1.755   7.025   3.975
 2375SOL    HW2 8025   1.728   0.145   3.904
 2376SOL     OW 8026   4.909   3.293   3.403
 2376SOL    HW1 8027   4.854   3.257   3.479
 2376SOL    HW2 8028   4.919   3.222   3.334
 2377SOL     OW 8029   3.577   3.742   5.703
 2377SOL    HW1 8030   3.648   3.733   5.772
 2377SOL    HW2 8031   3.522   3.659   5.701
 2378SOL     OW 8032   0.473   0.470   0.676
 2378SOL    HW1 8033   0.403   0.464   0.605
 2378SOL    HW2 8034   0.429   0.483   0.765
 2379SOL     OW 8035   0.577   4.967   2.454
 2379SOL    HW1 8036   0.635   5.019   2.517
 2379SOL    HW2 8037   0.613   4.874   2.443
 2380SOL     OW 8038   4.171   5.186   6.448
 2380SOL    HW1 8039   4.093   5.143   6.402
 2380SOL    HW2 8040   4.147   5.280   6.472
 2381SOL     OW 8041   2.019   3.725   4.316
 2381SOL    HW1 8042   2.026   3.764   4.225
 2381SOL    HW2 8043   1.952   3.777   4.369
 2382SOL     OW 8044   6.905   5.428   3.095
 2382SOL    HW1 8045   6.842   5.394   3.025
 2382SOL    HW2 8046   6.877   5.520   3.123
 2383SOL     OW 8047   4.875   4.007   5.961
 2383SOL    HW1 8048   4.900   4.019   5.865
 2383SOL    HW2 8049   4.916   4.079   6.016
 2384SOL     OW 8050   0.527   2.728   3.039
 2384SOL    HW1 8051   0.496   2.735   2.944
 2384SOL    HW2 8052   0.448   2.717   3.098
 2385SOL     OW 8053   0.371   1.203   0.262
 2385SOL    HW1 8054   0.291   1.262   0.258
 2385SOL    HW2 8055   0.348   1.120   0.314
 2386SOL     OW 8056   6.661   5.572   5.064
 2386SOL    HW1 8057   6.689   5.631   4.987
 2386SOL    HW2 8058   6.742   5.532   5.106
 2387SOL     OW 8059   0.443   0.911   3.383
 2387SOL    HW1 8060   0.387   0.984   3.420
 2387SOL    HW2 8061   0.422   0.825   3.429
 2388SOL     OW 8062   0.894   3.457   5.047
 2388SOL    HW1 8063   0.851   3.391   5.108
 2388SOL    HW2 8064   0.887   3.425   4.952
 2389SOL     OW 8065   3.573   6.339   3.306
 2389SOL    HW1 8066   3.508   6.342   3.382
 2389SOL    HW2 8067   3.644   6.409   3.320
 2390SOL     OW 8068   5.318   2.292   5.875
 2390SOL    HW1 8069   5.398   2.247   5.835
 2390SOL    HW2 8070   5.335   2.309   5.972
 2391SOL     OW 8071   2.981   3.876   6.830
 2391SOL    HW1 8072   3.035   3.809   6.780
 2391SOL    HW2 8073   2.930   3.933   6.766
 2392SOL     OW 8074   4.249   5.083   5.698
 2392SOL    HW1 8075   4.283   5.110   5.788
 2392SOL    HW2 8076   4.149   5.085   5.698
 2393SOL     OW 8077   3.889   4.530   0.354
 2393SOL    HW1 8078   3.921   4.441   0.383
 2393SOL    HW2 8079   3.829   4.520   0.274
 2394SOL     OW 8080   6.354   1.901   4.038
 2394SOL    HW1 8081   6.445   1.893   3.996
 2394SOL    HW2 8082   6.285   1.869   3.972
 2395SOL     OW 8083   1.595   2.523   3.785
 2395SOL    HW1 8084   1.537   2.458   3.833
 2395SOL    HW2 8085   1.653   2.571   3.850
 2396SOL     OW 8086   6.864   0.250   6.578
 2396SOL    HW1 8087   6.857   0.165   6.526
 2396SOL    HW2 8088   6.830   0.235   6.671
 2397SOL     OW 8089   2.175   4.589   5.587
 2397SOL    HW1 8090   2.112   4.667   5.578
 2397SOL    HW2 8091   2.195   4.552   5.496
 2398SOL     OW 8092   4.129   5.732   5.164
 2398SOL    HW1 8093   4.078   5.694   5.242
 2398SOL    HW2 8094   4.175   5.658   5.115
 2399SOL     OW 8095   2.954   1.299   2.353
 2399SOL    HW1 8096   2.870   1.346   2.327
 2399SOL    HW2 8097   2.957   1.290   2.452
 2400SOL     OW 8098   1.033   2.562   0.437
 2400SOL    HW1 8099   0.952   2.606   0.400
 2400SOL    HW2 8100   1.009   2.471   0.471
 2401SOL     OW 8101   1.515   6.130   0.122
 2401SOL    HW1 8102   1.557   6.043   0.149
 2401SOL    HW2 8103   1.429   6.143   0.172
 2402SOL     OW 8104   0.653   3.734   1.928
 2402SOL    HW1 8105   0.593   3.762   1.854
 2402SOL    HW2 8106   0.612   3.657   1.978
 2403SOL     OW 8107   3.116   4.153   5.247
 2403SOL    HW1 8108   3.192   4.206   5.209
 2403SOL    HW2 8109   3.042   4.214   5.274
 2404SOL     OW 8110   6.220   1.537   1.679
 2404SOL    HW1 8111   6.138   1.587   1.704
 2404SOL    HW2 8112   6.210   1.440   1.704
 2405SOL     OW 8113   1.499   2.984   1.073
 2405SOL    HW1 8114   1.464   2.890   1.069
 2405SOL    HW2 8115   1.564   2.993   1.148
 2406SOL     OW 8116   4.014   5.736   4.899
 2406SOL    HW1 8117   4.011   5.741   4.999
 2406SOL    HW2 8118   4.110   5.736   4.869
 2407SOL     OW 8119   2.045   1.544   4.052
 2407SOL    HW1 8120   2.071   1.545   3.955
 2407SOL    HW2 8121   2.008   1.633   4.078
 2408SOL     OW 8122   3.762   0.327   6.302
 2408SOL    HW1 8123   3.769   0.408   6.361
 2408SOL    HW2 8124   3.666   0.301   6.292
 2409SOL     OW 8125   0.528   3.091   6.757
 2409SOL    HW1 8126   0.557   3.125   6.668
 2409SOL    HW2 8127   0.527   3.165   6.824
 2410SOL     OW 8128   6.963   3.465   4.445
 2410SOL    HW1 8129   7.025   3.449   4.369
 2410SOL    HW2 8130   6.930   3.377   4.480
 2411SOL     OW 8131   2.889   1.494   0.398
 2411SOL    HW1 8132   2.961   1.458   0.339
 2411SOL    HW2 8133   2.848   1.419   0.450
 2412SOL     OW 8134   3.408   2.011   6.668
 2412SOL    HW1 8135   3.436   1.973   6.580
 2412SOL    HW2 8136   3.316   1.978   6.691
 2413SOL     OW 8137   6.867   4.113   6.831
 2413SOL    HW1 8138   6.853   4.180   6.759
 2413SOL    HW2 8139   6.778   4.080   6.865
 2414SOL     OW 8140   0.198   1.491   5.247
 2414SOL    HW1 8141   0.205   1.409   5.190
 2414SOL    HW2 8142   0.289   1.520   5.275
 2415SOL     OW 8143   3.370   4.181   6.367
 2415SOL    HW1 8144   3.345   4.142   6.456
 2415SOL    HW2 8145   3.469   4.196   6.364
 2416SOL     OW 8146   0.184   3.155   3.676
 2416SOL    HW1 8147   0.126   3.207   3.613
 2416SOL    HW2 8148   0.230   3.081   3.626
 2417SOL     OW 8149   3.425   2.524   1.616
 2417SOL    HW1 8150   3.362   2.581   1.669
 2417SOL    HW2 8151   3.519   2.547   1.639
 2418SOL     OW 8152   5.358   4.100   6.459
 2418SOL    HW1 8153   5.414   4.100   6.542
 2418SOL    HW2 8154   5.283   4.164   6.469
 2419SOL     OW 8155   3.727   1.006   3.206
 2419SOL    HW1 8156   3.751   0.915   3.239
 2419SOL    HW2 8157   3.627   1.012   3.193
 2420SOL     OW 8158   1.271   3.792   2.460
 2420SOL    HW1 8159   1.238   3.701   2.487
 2420SOL    HW2 8160   1.337   3.825   2.528
 2421SOL     OW 8161   2.505   6.540   3.164
 2421SOL    HW1 8162   2.475   6.491   3.247
 2421SOL    HW2 8163   2.585   6.596   3.186
 2422SOL     OW 8164   3.736   6.113   0.465
 2422SOL    HW1 8165   3.683   6.072   0.391
 2422SOL    HW2 8166   3.781   6.197   0.432
 2423SOL     OW 8167   3.219   4.985   4.565
 2423SOL    HW1 8168   3.259   4.980   4.657
 2423SOL    HW2 8169   3.200   5.080   4.542
 2424SOL     OW 8170   5.077   6.586   6.411
 2424SOL    HW1 8171   5.022   6.549   6.486
 2424SOL    HW2 8172   5.165   6.538   6.408
 2425SOL     OW 8173   4.020   5.327   5.214
 2425SOL    HW1 8174   3.986   5.342   5.121
 2425SOL    HW2 8175   3.966   5.382   5.278
 2426SOL     OW 8176   3.100   2.442   5.447
 2426SOL    HW1 8177   3.119   2.404   5.356
 2426SOL    HW2 8178   3.055   2.531   5.437
 2427SOL     OW 8179   4.234   1.802   0.576
 2427SOL    HW1 8180   4.206   1.881   0.630
 2427SOL    HW2 8181   4.260   1.727   0.637
 2428SOL     OW 8182   1.823   1.497   2.843
 2428SOL    HW1 8183   1.815   1.502   2.943
 2428SOL    HW2 8184   1.736   1.467   2.804
 2429SOL     OW 8185   5.885   6.013   1.141
 2429SOL    HW1 8186   5.847   6.102   1.165
 2429SOL    HW2 8187   5.882   6.001   1.042
 2430SOL     OW 8188   6.551   0.119   6.889
 2430SOL    HW1 8189   6.498   0.172   6.955
 2430SOL    HW2 8190   6.630   0.172   6.859
 2431SOL     OW 8191   2.125   3.221   2.014
 2431SOL    HW1 8192   2.152   3.174   2.098
 2431SOL    HW2 8193   2.145   3.318   2.022
 2432SOL     OW 8194   2.690   5.924   2.229
 2432SOL    HW1 8195   2.677   5.827   2.251
 2432SOL    HW2 8196   2.643   5.945   2.143
 2433SOL     OW 8197   6.923   4.157   4.699
 2433SOL    HW1 8198   6.895   4.061   4.703
 2433SOL    HW2 8199   6.932   4.186   4.604
 2434SOL     OW 8200   4.545   1.695   3.091
 2434SOL    HW1 8201   4.639   1.698   3.056
 2434SOL    HW2 8202   4.482   1.722   3.018
 2435SOL     OW 8203   6.263   6.832   6.872
 2435SOL    HW1 8204   6.234   6.879   6.788
 2435SOL    HW2 8205   6.232   6.737   6.869
 2436SOL     OW 8206   6.924   2.790   0.689
 2436SOL    HW1 8207   6.887   2.701   0.662
 2436SOL    HW2 8208   6.863   2.863   0.657
 2437SOL     OW 8209   0.482   4.524   1.232
 2437SOL    HW1 8210   0.514   4.464   1.305
 2437SOL    HW2 8211   0.407   4.480   1.183
 2438SOL     OW 8212   3.762   1.501   4.935
 2438SOL    HW1 8213   3.795   1.416   4.975
 2438SOL    HW2 8214   3.799   1.512   4.843
 2439SOL     OW 8215   0.138   5.560   0.350
 2439SOL    HW1 8216   0.141   5.592   0.444
 2439SOL    HW2 8217   0.214   5.497   0.333
 2440SOL     OW 8218   6.296   1.763   5.536
 2440SOL    HW1 8219   6.347   1.798   5.458
 2440SOL    HW2 8220   6.201   1.746   5.509
 2441SOL     OW 8221   5.961   1.093   0.544
 2441SOL    HW1 8222   5.973   1.021   0.475
 2441SOL    HW2 8223   6.030   1.164   0.532
 2442SOL     OW 8224   5.135   2.924   2.230
 2442SOL    HW1 8225   5.091   2.869   2.301
 2442SOL    HW2 8226   5.199   2.867   2.179
 2443SOL     OW 8227   0.014   3.111   1.411
 2443SOL    HW1 8228   0.028   3.207   1.437
 2443SOL    HW2 8229   0.103   3.067   1.398
 2444SOL     OW 8230   3.319   4.988   3.274
 2444SOL    HW1 8231   3.352   5.060   3.213
 2444SOL    HW2 8232   3.328   5.019   3.369
 2445SOL     OW 8233   0.756   2.159   0.960
 2445SOL    HW1 8234   0.717   2.166   1.052
 2445SOL    HW2 8235   0.853   2.136   0.967
 2446SOL     OW 8236   0.162   5.586   1.750
 2446SOL    HW1 8237   0.244   5.556   1.701
 2446SOL    HW2 8238   0.187   5.610   1.844
 2447SOL     OW 8239   1.742   6.989   0.744
 2447SOL    HW1 8240   1.734   6.983   0.644
 2447SOL    HW2 8241   1.687   6.917   0.786
 2448SOL     OW 8242   5.422   1.141   3.909
 2448SOL    HW1 8243   5.452   1.074   3.977
 2448SOL    HW2 8244   5.418   1.232   3.951
 2449SOL     OW 8245   1.963   4.199   1.178
 2449SOL    HW1 8246   1.960   4.230   1.083
 2449SOL    HW2 8247   1.896   4.250   1.232
 2450SOL     OW 8248   0.660   6.463   5.019
 2450SOL    HW1 8249   0.742   6.485   5.071
 2450SOL    HW2 8250   0.636   6.540   4.960
 2451SOL     OW 8251   2.227   6.798   6.249
 2451SOL    HW1 8252   2.130   6.823   6.246
 2451SOL    HW2 8253   2.252   6.749   6.166
 2452SOL     OW 8254   1.993   1.885   4.572
 2452SOL    HW1 8255   2.072   1.927   4.528
 2452SOL    HW2 8256   2.002   1.891   4.671
 2453SOL     OW 8257   1.419   1.864   6.045
 2453SOL    HW1 8258   1.431   1.922   6.126
 2453SOL    HW2 8259   1.490   1.793   6.045
 2454SOL     OW 8260   3.073   6.271   0.686
 2454SOL    HW1 8261   3.059   6.265   0.587
 2454SOL    HW2 8262   3.058   6.365   0.716
 2455SOL     OW 8263   4.160   2.041   0.696
 2455SOL    HW1 8264   4.081   2.073   0.643
 2455SOL    HW2 8265   4.149   2.067   0.792
 2456SOL     OW 8266   0.640   3.845   6.418
 2456SOL    HW1 8267   0.610   3.811   6.507
 2456SOL    HW2 8268   0.650   3.769   6.355
 2457SOL     OW 8269   4.647   1.727   5.622
 2457SOL    HW1 8270   4.692   1.785   5.554
 2457SOL    HW2 8271   4.553   1.758   5.636
 2458SOL     OW 8272   0.840   0.489   2.335
 2458SOL    HW1 8273   0.920   0.467   2.390
 2458SOL    HW2 8274   0.839   0.587   2.314
 2459SOL     OW 8275   2.195   6.561   1.491
 2459SOL    HW1 8276   2.114   6.596   1.445
 2459SOL    HW2 8277   2.249   6.638   1.526
 2460SOL     OW 8278   0.813   0.857   4.090
 2460SOL    HW1 8279   0.761   0.919   4.149
 2460SOL    HW2 8280   0.750   0.802   4.036
 2461SOL     OW 8281   3.489   1.484   3.877
 2461SOL    HW1 8282   3.584   1.459   3.858
 2461SOL    HW2 8283   3.429   1.444   3.809
 2462SOL     OW 8284   0.543   5.853   0.788
 2462SOL    HW1 8285   0.491   5.938   0.781
 2462SOL    HW2 8286   0.594   5.838   0.703
 2463SOL     OW 8287   6.815   6.891   0.958
 2463SOL    HW1 8288   6.773   6.836   0.887
 2463SOL    HW2 8289   6.762   6.884   1.042
 2464SOL     OW 8290   0.904   3.021   4.544
 2464SOL    HW1 8291   0.876   2.935   4.502
 2464SOL    HW2 8292   0.926   3.005   4.641
 2465SOL     OW 8293   6.067   1.189   0.189
 2465SOL    HW1 8294   5.978   1.145   0.204
 2465SOL    HW2 8295   6.138   1.119   0.185
 2466SOL     OW 8296   0.817   2.495   1.657
 2466SOL    HW1 8297   0.877   2.556   1.605
 2466SOL    HW2 8298   0.791   2.539   1.743
 2467SOL     OW 8299   4.665   2.771   4.930
 2467SOL    HW1 8300   4.669   2.793   4.833
 2467SOL    HW2 8301   4.576   2.730   4.951
 2468SOL     OW 8302   3.743   0.389   5.076
 2468SOL    HW1 8303   3.646   0.380   5.097
 2468SOL    HW2 8304   3.773   0.312   5.020
 2469SOL     OW 8305   3.131   2.303   6.158
 2469SOL    HW1 8306   3.114   2.239   6.083
 2469SOL    HW2 8307   3.152   2.252   6.242
 2470SOL     OW 8308   2.081   6.160   6.466
 2470SOL    HW1 8309   2.024   6.183   6.544
 2470SOL    HW2 8310   2.139   6.238   6.443
 2471SOL     OW 8311   2.952   5.494   2.481
 2471SOL    HW1 8312   3.026   5.464   2.421
 2471SOL    HW2 8313   2.990   5.552   2.553
 2472SOL     OW 8314   4.710   0.934   2.913
 2472SOL    HW1 8315   4.677   0.928   3.007
 2472SOL    HW2 8316   4.774   0.859   2.895
 2473SOL     OW 8317   0.413   4.391   3.774
 2473SOL    HW1 8318   0.473   4.322   3.813
 2473SOL    HW2 8319   0.324   4.350   3.754
 2474SOL     OW 8320   1.342   6.702   1.666
 2474SOL    HW1 8321   1.371   6.620   1.716
 2474SOL    HW2 8322   1.244   6.697   1.649
 2475SOL     OW 8323   5.199   1.836   0.588
 2475SOL    HW1 8324   5.119   1.802   0.638
 2475SOL    HW2 8325   5.217   1.775   0.510
 2476SOL     OW 8326   4.304   6.756   0.392
 2476SOL    HW1 8327   4.272   6.714   0.478
 2476SOL    HW2 8328   4.227   6.766   0.329
 2477SOL     OW 8329   3.965   0.120   3.802
 2477SOL    HW1 8330   3.999   0.030   3.830
 2477SOL    HW2 8331   3.888   0.146   3.859
 2478SOL     OW 8332   3.511   0.521   4.786
 2478SOL    HW1 8333   3.416   0.543   4.807
 2478SOL    HW2 8334   3.518   0.424   4.761
 2479SOL     OW 8335   5.090   3.341   1.036
 2479SOL    HW1 8336   5.179   3.321   0.994
 2479SOL    HW2 8337   5.102   3.367   1.131
 2480SOL     OW 8338   3.415   2.184   1.455
 2480SOL    HW1 8339   3.322   2.155   1.475
 2480SOL    HW2 8340   3.465   2.200   1.540
 2481SOL     OW 8341   3.660   0.189   2.121
 2481SOL    HW1 8342   3.579   0.175   2.178
 2481SOL    HW2 8343   3.738   0.215   2.178
 2482SOL     OW 8344   6.454   3.216   0.454
 2482SOL    HW1 8345   6.393   3.296   0.459
 2482SOL    HW2 8346   6.438   3.158   0.534
 2483SOL     OW 8347   2.419   2.301   0.671
 2483SOL    HW1 8348   2.321   2.295   0.693
 2483SOL    HW2 8349   2.430   2.309   0.572
 2484SOL     OW 8350   4.050   0.693   0.135
 2484SOL    HW1 8351   4.009   0.734   0.054
 2484SOL    HW2 8352   4.143   0.661   0.115
 2485SOL     OW 8353   0.277   2.225   5.898
 2485SOL    HW1 8354   0.339   2.299   5.923
 2485SOL    HW2 8355   0.331   2.142   5.881
 2486SOL     OW 8356   0.053   5.618   3.350
 2486SOL    HW1 8357   0.087   5.537   3.301
 2486SOL    HW2 8358   0.124   5.651   3.413
 2487SOL     OW 8359   4.028   6.199   0.203
 2487SOL    HW1 8360   4.065   6.267   0.140
 2487SOL    HW2 8361   4.102   6.157   0.255
 2488SOL     OW 8362   6.867   3.730   0.493
 2488SOL    HW1 8363   6.792   3.771   0.442
 2488SOL    HW2 8364   6.899   3.648   0.446
 2489SOL     OW 8365   6.190   5.048   4.362
 2489SOL    HW1 8366   6.111   4.987   4.350
 2489SOL    HW2 8367   6.228   5.072   4.273
 2490SOL     OW 8368   2.489   5.919   2.959
 2490SOL    HW1 8369   2.458   5.951   3.049
 2490SOL    HW2 8370   2.496   5.997   2.896
 2491SOL     OW 8371   3.852   4.656   1.498
 2491SOL    HW1 8372   3.913   4.689   1.425
 2491SOL    HW2 8373   3.783   4.596   1.459
 2492SOL     OW 8374   6.341   5.190   1.291
 2492SOL    HW1 8375   6.440   5.185   1.307
 2492SOL    HW2 8376   6.299   5.250   1.359
 2493SOL     OW 8377   5.530   6.728   0.819
 2493SOL    HW1 8378   5.548   6.745   0.722
 2493SOL    HW2 8379   5.431   6.715   0.832
 2494SOL     OW 8380   6.728   3.708   0.952
 2494SOL    HW1 8381   6.673   3.633   0.915
 2494SOL    HW2 8382   6.819   3.674   0.974
 2495SOL     OW 8383   0.467   3.716   1.588
 2495SOL    HW1 8384   0.391   3.699   1.526
 2495SOL    HW2 8385   0.462   3.810   1.623
 2496SOL     OW 8386   5.447   4.561   6.767
 2496SOL    HW1 8387   5.483   4.524   6.682
 2496SOL    HW2 8388   5.521   4.602   6.820
 2497SOL     OW 8389   0.019   6.962   2.265
 2497SOL    HW1 8390   0.069   6.956   2.179
 2497SOL    HW2 8391   6.946   6.958   2.247
 2498SOL     OW 8392   1.866   3.385   5.050
 2498SOL    HW1 8393   1.793   3.338   5.001
 2498SOL    HW2 8394   1.850   3.379   5.149
 2499SOL     OW 8395   6.787   3.621   2.372
 2499SOL    HW1 8396   6.706   3.603   2.316
 2499SOL    HW2 8397   6.836   3.700   2.334
 2500SOL     OW 8398   4.049   3.166   1.728
 2500SOL    HW1 8399   4.127   3.226   1.709
 2500SOL    HW2 8400   4.064   3.077   1.685
 2501SOL     OW 8401   6.407   5.586   6.046
 2501SOL    HW1 8402   6.447   5.655   6.107
 2501SOL    HW2 8403   6.352   5.522   6.100
 2502SOL     OW 8404   2.000   6.587   4.479
 2502SOL    HW1 8405   1.941   6.536   4.416
 2502SOL    HW2 8406   2.093   6.553   4.474
 2503SOL     OW 8407   2.790   0.291   5.632
 2503SOL    HW1 8408   2.692   0.273   5.639
 2503SOL    HW2 8409   2.840   0.203   5.633
 2504SOL     OW 8410   3.723   0.352   3.578
 2504SOL    HW1 8411   3.764   0.423   3.634
 2504SOL    HW2 8412   3.659   0.299   3.634
 2505SOL     OW 8413   6.763   4.142   3.750
 2505SOL    HW1 8414   6.741   4.238   3.731
 2505SOL    HW2 8415   6.861   4.134   3.769
 2506SOL     OW 8416   5.571   5.391   6.334
 2506SOL    HW1 8417   5.482   5.361   6.299
 2506SOL    HW2 8418   5.569   5.390   6.434
 2507SOL     OW 8419   0.235   3.334   2.589
 2507SOL    HW1 8420   0.271   3.411   2.641
 2507SOL    HW2 8421   0.138   3.320   2.612
 2508SOL     OW 8422   6.154   0.937   4.325
 2508SOL    HW1 8423   6.127   1.008   4.259
 2508SOL    HW2 8424   6.246   0.956   4.359
 2509SOL     OW 8425   0.628   3.056   5.887
 2509SOL    HW1 8426   0.566   2.980   5.868
 2509SOL    HW2 8427   0.617   3.126   5.816
 2510SOL     OW 8428   3.038   3.891   2.379
 2510SOL    HW1 8429   2.974   3.910   2.453
 2510SOL    HW2 8430   3.001   3.819   2.320
 2511SOL     OW 8431   2.026   0.649   4.166
 2511SOL    HW1 8432   2.073   0.625   4.251
 2511SOL    HW2 8433   2.027   0.748   4.154
 2512SOL     OW 8434   4.204   4.786   3.888
 2512SOL    HW1 8435   4.185   4.819   3.981
 2512SOL    HW2 8436   4.133   4.821   3.827
 2513SOL     OW 8437   1.863   5.844   5.897
 2513SOL    HW1 8438   1.958   5.842   5.865
 2513SOL    HW2 8439   1.825   5.935   5.883
 2514SOL     OW 8440   1.478   1.565   3.214
 2514SOL    HW1 8441   1.489   1.580   3.312
 2514SOL    HW2 8442   1.431   1.644   3.173
 2515SOL     OW 8443   0.794   2.151   1.539
 2515SOL    HW1 8444   0.804   2.251   1.543
 2515SOL    HW2 8445   0.880   2.108   1.567
 2516SOL     OW 8446   5.834   2.730   4.828
 2516SOL    HW1 8447   5.890   2.691   4.756
 2516SOL    HW2 8448   5.762   2.787   4.787
 2517SOL     OW 8449   1.124   1.163   3.728
 2517SOL    HW1 8450   1.137   1.251   3.682
 2517SOL    HW2 8451   1.164   1.090   3.672
 2518SOL     OW 8452   2.173   4.474   1.055
 2518SOL    HW1 8453   2.202   4.563   1.091
 2518SOL    HW2 8454   2.180   4.405   1.127
 2519SOL     OW 8455   1.279   1.428   0.766
 2519SOL    HW1 8456   1.219   1.359   0.724
 2519SOL    HW2 8457   1.332   1.385   0.839
 2520SOL     OW 8458   2.638   1.990   0.810
 2520SOL    HW1 8459   2.586   2.067   0.847
 2520SOL    HW2 8460   2.603   1.905   0.849
 2521SOL     OW 8461   5.367   0.545   4.799
 2521SOL    HW1 8462   5.442   0.607   4.775
 2521SOL    HW2 8463   5.374   0.521   4.896
 2522SOL     OW 8464   1.128   1.864   6.699
 2522SOL    HW1 8465   1.217   1.820   6.686
 2522SOL    HW2 8466   1.125   1.948   6.645
 2523SOL     OW 8467   1.359   5.114   6.661
 2523SOL    HW1 8468   1.356   5.014   6.648
 2523SOL    HW2 8469   1.298   5.158   6.596
 2524SOL     OW 8470   0.754   0.680   4.456
 2524SOL    HW1 8471   0.743   0.776   4.427
 2524SOL    HW2 8472   0.741   0.620   4.377
 2525SOL     OW 8473   6.364   2.707   5.752
 2525SOL    HW1 8474   6.332   2.787   5.700
 2525SOL    HW2 8475   6.400   2.738   5.841
 2526SOL     OW 8476   1.710   0.178   1.113
 2526SOL    HW1 8477   1.785   0.206   1.173
 2526SOL    HW2 8478   1.643   0.126   1.166
 2527SOL     OW 8479   4.356   5.107   5.963
 2527SOL    HW1 8480   4.426   5.138   6.028
 2527SOL    HW2 8481   4.300   5.036   6.006
 2528SOL     OW 8482   4.528   5.657   6.264
 2528SOL    HW1 8483   4.446   5.692   6.218
 2528SOL    HW2 8484   4.582   5.603   6.199
 2529SOL     OW 8485   0.768   6.654   6.210
 2529SOL    HW1 8486   0.748   6.698   6.298
 2529SOL    HW2 8487   0.865   6.666   6.188
 2530SOL     OW 8488   2.509   6.037   6.668
 2530SOL    HW1 8489   2.589   6.081   6.627
 2530SOL    HW2 8490   2.535   5.995   6.755
 2531SOL     OW 8491   6.729   5.420   6.304
 2531SOL    HW1 8492   6.763   5.458   6.390
 2531SOL    HW2 8493   6.661   5.349   6.323
 2532SOL     OW 8494   5.670   6.245   1.709
 2532SOL    HW1 8495   5.647   6.338   1.682
 2532SOL    HW2 8496   5.711   6.196   1.632
 2533SOL     OW 8497   4.740   0.648   3.811
 2533SOL    HW1 8498   4.745   0.722   3.879
 2533SOL    HW2 8499   4.646   0.639   3.780
 2534SOL     OW 8500   4.094   1.328   2.711
 2534SOL    HW1 8501   4.141   1.352   2.797
 2534SOL    HW2 8502   4.134   1.244   2.674
 2535SOL     OW 8503   3.862   2.733   6.133
 2535SOL    HW1 8504   3.923   2.744   6.055
 2535SOL    HW2 8505   3.867   2.639   6.167
 2536SOL     OW 8506   1.574   1.145   1.478
 2536SOL    HW1 8507   1.477   1.124   1.460
 2536SOL    HW2 8508   1.621   1.061   1.505
 2537SOL     OW 8509   3.926   0.627   5.983
 2537SOL    HW1 8510   3.830   0.645   6.004
 2537SOL    HW2 8511   3.964   0.566   6.052
 2538SOL     OW 8512   6.333   3.270   4.033
 2538SOL    HW1 8513   6.251   3.289   3.979
 2538SOL    HW2 8514   6.406   3.239   3.972
 2539SOL     OW 8515   5.164   2.363   5.583
 2539SOL    HW1 8516   5.102   2.438   5.561
 2539SOL    HW2 8517   5.113   2.288   5.624
 2540SOL     OW 8518   2.742   1.713   1.704
 2540SOL    HW1 8519   2.688   1.629   1.703
 2540SOL    HW2 8520   2.838   1.691   1.726
 2541SOL     OW 8521   3.435   6.564   4.218
 2541SOL    HW1 8522   3.523   6.517   4.207
 2541SOL    HW2 8523   3.361   6.505   4.186
 2542SOL     OW 8524   2.284   5.539   6.090
 2542SOL    HW1 8525   2.366   5.545   6.147
 2542SOL    HW2 8526   2.308   5.559   5.995
 2543SOL     OW 8527   0.728   1.060   4.268
 2543SOL    HW1 8528   0.645   1.112   4.251
 2543SOL    HW2 8529   0.754   1.068   4.364
 2544SOL     OW 8530   0.631   5.159   6.838
 2544SOL    HW1 8531   0.590   5.068   6.829
 2544SOL    HW2 8532   0.564   5.222   6.877
 2545SOL     OW 8533   2.930   5.655   3.600
 2545SOL    HW1 8534   2.886   5.578   3.554
 2545SOL    HW2 8535   2.896   5.660   3.695
 2546SOL     OW 8536   6.978   1.331   1.272
 2546SOL    HW1 8537   7.023   1.375   1.350
 2546SOL    HW2 8538   6.905   1.272   1.305
 2547SOL     OW 8539   0.866   3.736   5.048
 2547SOL    HW1 8540   0.883   3.637   5.053
 2547SOL    HW2 8541   0.812   3.764   5.127
 2548SOL     OW 8542   0.869   6.952   5.215
 2548SOL    HW1 8543   0.811   7.017   5.264
 2548SOL    HW2 8544   0.885   6.984   5.122
 2549SOL     OW 8545   6.149   3.210   2.172
 2549SOL    HW1 8546   6.060   3.178   2.205
 2549SOL    HW2 8547   6.201   3.249   2.248
 2550SOL     OW 8548   6.177   5.573   6.937
 2550SOL    HW1 8549   6.207   5.537   6.848
 2550SOL    HW2 8550   6.241   5.543   7.008
 2551SOL     OW 8551   1.209   4.377   0.319
 2551SOL    HW1 8552   1.265   4.371   0.402
 2551SOL    HW2 8553   1.152   4.459   0.324
 2552SOL     OW 8554   1.914   5.551   3.495
 2552SOL    HW1 8555   1.877   5.476   3.441
 2552SOL    HW2 8556   1.853   5.630   3.489
 2553SOL     OW 8557   4.166   3.829   6.661
 2553SOL    HW1 8558   4.200   3.748   6.709
 2553SOL    HW2 8559   4.204   3.911   6.704
 2554SOL     OW 8560   1.532   1.401   0.451
 2554SOL    HW1 8561   1.539   1.384   0.549
 2554SOL    HW2 8562   1.444   1.366   0.417
 2555SOL     OW 8563   5.987   0.482   6.896
 2555SOL    HW1 8564   6.075   0.529   6.889
 2555SOL    HW2 8565   5.919   0.528   6.839
 2556SOL     OW 8566   3.451   5.263   0.940
 2556SOL    HW1 8567   3.382   5.193   0.958
 2556SOL    HW2 8568   3.520   5.226   0.877
 2557SOL     OW 8569   2.134   4.736   6.725
 2557SOL    HW1 8570   2.129   4.696   6.633
 2557SOL    HW2 8571   2.176   4.670   6.788
 2558SOL     OW 8572   4.255   0.702   5.693
 2558SOL    HW1 8573   4.324   0.630   5.682
 2558SOL    HW2 8574   4.164   0.661   5.696
 2559SOL     OW 8575   0.287   4.769   4.690
 2559SOL    HW1 8576   0.295   4.683   4.640
 2559SOL    HW2 8577   0.367   4.826   4.669
 2560SOL     OW 8578   6.086   1.660   0.030
 2560SOL    HW1 8579   6.132   1.581   7.015
 2560SOL    HW2 8580   6.011   1.630   0.089
 2561SOL     OW 8581   2.795   5.548   4.765
 2561SOL    HW1 8582   2.698   5.567   4.746
 2561SOL    HW2 8583   2.807   5.532   4.863
 2562SOL     OW 8584   2.638   3.994   6.530
 2562SOL    HW1 8585   2.673   3.999   6.623
 2562SOL    HW2 8586   2.562   3.930   6.526
 2563SOL     OW 8587   2.437   1.017   0.795
 2563SOL    HW1 8588   2.424   1.051   0.888
 2563SOL    HW2 8589   2.459   0.920   0.798
 2564SOL     OW 8590   1.505   6.658   2.320
 2564SOL    HW1 8591   1.507   6.744   2.268
 2564SOL    HW2 8592   1.515   6.678   2.417
 2565SOL     OW 8593   1.129   0.780   1.474
 2565SOL    HW1 8594   1.076   0.824   1.403
 2565SOL    HW2 8595   1.194   0.715   1.433
 2566SOL     OW 8596   2.535   0.199   5.708
 2566SOL    HW1 8597   2.444   0.238   5.692
 2566SOL    HW2 8598   2.550   0.188   5.806
 2567SOL     OW 8599   1.267   0.621   0.498
 2567SOL    HW1 8600   1.215   0.576   0.425
 2567SOL    HW2 8601   1.254   0.720   0.491
 2568SOL     OW 8602   5.283   4.027   0.065
 2568SOL    HW1 8603   5.268   4.126   0.075
 2568SOL    HW2 8604   5.194   3.981   0.055
 2569SOL     OW 8605   3.037   0.745   2.720
 2569SOL    HW1 8606   3.110   0.807   2.748
 2569SOL    HW2 8607   2.985   0.786   2.646
 2570SOL     OW 8608   5.577   2.716   6.020
 2570SOL    HW1 8609   5.631   2.662   6.084
 2570SOL    HW2 8610   5.515   2.655   5.970
 2571SOL     OW 8611   0.740   3.753   4.603
 2571SOL    HW1 8612   0.824   3.707   4.631
 2571SOL    HW2 8613   0.709   3.716   4.516
 2572SOL     OW 8614   1.229   4.823   4.014
 2572SOL    HW1 8615   1.206   4.920   4.020
 2572SOL    HW2 8616   1.145   4.769   4.014
 2573SOL     OW 8617   1.138   0.344   1.184
 2573SOL    HW1 8618   1.092   0.259   1.158
 2573SOL    HW2 8619   1.151   0.402   1.103
 2574SOL     OW 8620   6.326   3.582   0.845
 2574SOL    HW1 8621   6.250   3.563   0.907
 2574SOL    HW2 8622   6.309   3.538   0.757
 2575SOL     OW 8623   0.324   6.119   6.253
 2575SOL    HW1 8624   0.424   6.116   6.253
 2575SOL    HW2 8625   0.290   6.089   6.165
 2576SOL     OW 8626   4.090   6.067   4.641
 2576SOL    HW1 8627   4.152   6.020   4.578
 2576SOL    HW2 8628   4.143   6.112   4.713
 2577SOL     OW 8629   2.069   3.948   2.376
 2577SOL    HW1 8630   2.069   4.046   2.397
 2577SOL    HW2 8631   1.976   3.920   2.353
 2578SOL     OW 8632   4.123   1.716   2.925
 2578SOL    HW1 8633   4.115   1.711   3.025
 2578SOL    HW2 8634   4.033   1.733   2.885
 2579SOL     OW 8635   0.335   6.538   3.247
 2579SOL    HW1 8636   0.355   6.583   3.160
 2579SOL    HW2 8637   0.237   6.519   3.253
 2580SOL     OW 8638   2.433   2.250   5.846
 2580SOL    HW1 8639   2.496   2.323   5.819
 2580SOL    HW2 8640   2.352   2.253   5.788
 2581SOL     OW 8641   3.526   1.061   5.041
 2581SOL    HW1 8642   3.579   1.097   4.964
 2581SOL    HW2 8643   3.520   0.962   5.033
 2582SOL     OW 8644   6.742   3.218   1.585
 2582SOL    HW1 8645   6.826   3.210   1.638
 2582SOL    HW2 8646   6.765   3.239   1.490
 2583SOL     OW 8647   6.132   0.333   0.793
 2583SOL    HW1 8648   6.174   0.322   0.884
 2583SOL    HW2 8649   6.082   0.420   0.790
 2584SOL     OW 8650   3.689   4.321   6.048
 2584SOL    HW1 8651   3.757   4.279   5.989
 2584SOL    HW2 8652   3.624   4.373   5.993
 2585SOL     OW 8653   3.301   4.577   6.605
 2585SOL    HW1 8654   3.231   4.567   6.675
 2585SOL    HW2 8655   3.280   4.656   6.547
 2586SOL     OW 8656   2.824   0.890   3.733
 2586SOL    HW1 8657   2.779   0.801   3.724
 2586SOL    HW2 8658   2.755   0.962   3.728
 2587SOL     OW 8659   6.750   0.652   4.192
 2587SOL    HW1 8660   6.689   0.731   4.182
 2587SOL    HW2 8661   6.844   0.679   4.175
 2588SOL     OW 8662   4.756   0.653   6.656
 2588SOL    HW1 8663   4.850   0.686   6.643
 2588SOL    HW2 8664   4.738   0.642   6.754
 2589SOL     OW 8665   2.098   6.844   0.638
 2589SOL    HW1 8666   2.174   6.779   0.638
 2589SOL    HW2 8667   2.036   6.822   0.713
 2590SOL     OW 8668   2.837   5.929   0.450
 2590SOL    HW1 8669   2.899   5.944   0.373
 2590SOL    HW2 8670   2.883   5.955   0.535
 2591SOL     OW 8671   5.603   5.361   3.204
 2591SOL    HW1 8672   5.548   5.293   3.252
 2591SOL    HW2 8673   5.549   5.444   3.191
 2592SOL     OW 8674   2.793   4.138   1.050
 2592SOL    HW1 8675   2.819   4.226   1.010
 2592SOL    HW2 8676   2.809   4.065   0.984
 2593SOL     OW 8677   3.490   4.430   0.694
 2593SOL    HW1 8678   3.501   4.528   0.710
 2593SOL    HW2 8679   3.429   4.392   0.763
 2594SOL     OW 8680   2.022   3.063   4.183
 2594SOL    HW1 8681   2.069   3.146   4.152
 2594SOL    HW2 8682   2.075   2.983   4.155
 2595SOL     OW 8683   2.318   1.418   2.995
 2595SOL    HW1 8684   2.306   1.515   2.978
 2595SOL    HW2 8685   2.371   1.377   2.920
 2596SOL     OW 8686   0.926   1.472   0.440
 2596SOL    HW1 8687   0.998   1.524   0.393
 2596SOL    HW2 8688   0.849   1.533   0.459
 2597SOL     OW 8689   6.514   6.782   0.167
 2597SOL    HW1 8690   6.535   6.879   0.156
 2597SOL    HW2 8691   6.420   6.771   0.201
 2598SOL     OW 8692   5.294   2.437   2.492
 2598SOL    HW1 8693   5.285   2.534   2.516
 2598SOL    HW2 8694   5.382   2.421   2.448
 2599SOL     OW 8695   2.430   6.007   2.389
 2599SOL    HW1 8696   2.493   5.998   2.312
 2599SOL    HW2 8697   2.393   5.917   2.413
 2600SOL     OW 8698   5.689   3.955   4.250
 2600SOL    HW1 8699   5.713   4.025   4.317
 2600SOL    HW2 8700   5.645   3.997   4.171
 2601SOL     OW 8701   6.510   1.427   3.683
 2601SOL    HW1 8702   6.547   1.400   3.772
 2601SOL    HW2 8703   6.462   1.514   3.692
 2602SOL     OW 8704   0.900   4.786   2.644
 2602SOL    HW1 8705   0.941   4.700   2.674
 2602SOL    HW2 8706   0.843   4.769   2.563
 2603SOL     OW 8707   2.487   6.555   2.897
 2603SOL    HW1 8708   2.575   6.565   2.852
 2603SOL    HW2 8709   2.499   6.557   2.996
 2604SOL     OW 8710   4.639   2.621   3.861
 2604SOL    HW1 8711   4.550   2.599   3.903
 2604SOL    HW2 8712   4.664   2.549   3.797
 2605SOL     OW 8713   1.417   4.055   1.849
 2605SOL    HW1 8714   1.330   4.054   1.800
 2605SOL    HW2 8715   1.492   4.038   1.786
 2606SOL     OW 8716   5.184   4.066   1.200
 2606SOL    HW1 8717   5.108   4.007   1.173
 2606SOL    HW2 8718   5.207   4.128   1.124
 2607SOL     OW 8719   2.520   2.755   1.456
 2607SOL    HW1 8720   2.519   2.855   1.463
 2607SOL    HW2 8721   2.473   2.727   1.373
 2608SOL     OW 8722   2.675   5.269   5.614
 2608SOL    HW1 8723   2.740   5.215   5.561
 2608SOL    HW2 8724   2.582   5.240   5.591
 2609SOL     OW 8725   0.720   2.506   1.118
 2609SOL    HW1 8726   0.692   2.467   1.030
 2609SOL    HW2 8727   0.681   2.453   1.193
 2610SOL     OW 8728   1.478   4.000   4.830
 2610SOL    HW1 8729   1.555   4.046   4.785
 2610SOL    HW2 8730   1.494   3.902   4.832
 2611SOL     OW 8731   5.282   0.115   6.008
 2611SOL    HW1 8732   5.327   0.200   5.983
 2611SOL    HW2 8733   5.216   0.089   5.938
 2612SOL     OW 8734   6.414   6.608   6.605
 2612SOL    HW1 8735   6.372   6.697   6.594
 2612SOL    HW2 8736   6.392   6.550   6.527
 2613SOL     OW 8737   1.115   6.907   6.837
 2613SOL    HW1 8738   1.111   6.836   6.767
 2613SOL    HW2 8739   1.131   6.865   6.926
 2614SOL     OW 8740   5.929   2.074   0.013
 2614SOL    HW1 8741   5.901   2.153   0.067
 2614SOL    HW2 8742   6.026   2.083   7.015
 2615SOL     OW 8743   0.234   3.345   6.791
 2615SOL    HW1 8744   0.315   3.404   6.797
 2615SOL    HW2 8745   0.244   3.285   6.712
 2616SOL     OW 8746   1.280   0.942   5.199
 2616SOL    HW1 8747   1.353   0.880   5.173
 2616SOL    HW2 8748   1.203   0.889   5.237
 2617SOL     OW 8749   5.118   6.942   1.742
 2617SOL    HW1 8750   5.100   0.001   1.793
 2617SOL    HW2 8751   5.139   6.964   1.647
 2618SOL     OW 8752   1.344   7.009   6.178
 2618SOL    HW1 8753   1.408   6.945   6.222
 2618SOL    HW2 8754   1.358   0.076   6.215
 2619SOL     OW 8755   4.906   1.180   2.865
 2619SOL    HW1 8756   4.848   1.261   2.860
 2619SOL    HW2 8757   4.850   1.100   2.887
 2620SOL     OW 8758   6.146   2.040   2.012
 2620SOL    HW1 8759   6.097   1.953   2.019
 2620SOL    HW2 8760   6.093   2.105   1.957
 2621SOL     OW 8761   2.246   6.294   1.362
 2621SOL    HW1 8762   2.266   6.292   1.264
 2621SOL    HW2 8763   2.232   6.388   1.391
 2622SOL     OW 8764   2.709   3.876   0.198
 2622SOL    HW1 8765   2.627   3.868   0.255
 2622SOL    HW2 8766   2.775   3.935   0.244
 2623SOL     OW 8767   0.004   0.246   3.553
 2623SOL    HW1 8768   0.097   0.283   3.562
 2623SOL    HW2 8769   0.009   0.151   3.524
 2624SOL     OW 8770   0.927   1.423   5.380
 2624SOL    HW1 8771   0.899   1.422   5.284
 2624SOL    HW2 8772   0.946   1.330   5.410
 2625SOL     OW 8773   2.556   5.589   5.954
 2625SOL    HW1 8774   2.590   5.496   5.942
 2625SOL    HW2 8775   2.471   5.601   5.902
 2626SOL     OW 8776   6.713   6.670   6.662
 2626SOL    HW1 8777   6.618   6.643   6.681
 2626SOL    HW2 8778   6.725   6.766   6.686
 2627SOL     OW 8779   2.251   0.726   5.854
 2627SOL    HW1 8780   2.167   0.754   5.808
 2627SOL    HW2 8781   2.241   0.742   5.953
 2628SOL     OW 8782   0.308   5.050   1.344
 2628SOL    HW1 8783   0.384   5.098   1.300
 2628SOL    HW2 8784   0.340   4.963   1.381
 2629SOL     OW 8785   3.454   3.806   2.537
 2629SOL    HW1 8786   3.409   3.842   2.455
 2629SOL    HW2 8787   3.539   3.761   2.512
 2630SOL     OW 8788   3.809   0.506   3.782
 2630SOL    HW1 8789   3.734   0.570   3.766
 2630SOL    HW2 8790   3.880   0.550   3.837
 2631SOL     OW 8791   5.706   6.407   6.956
 2631SOL    HW1 8792   5.704   6.504   6.979
 2631SOL    HW2 8793   5.624   6.362   6.992
 2632SOL     OW 8794   5.843   4.785   1.791
 2632SOL    HW1 8795   5.858   4.814   1.885
 2632SOL    HW2 8796   5.918   4.818   1.734
 2633SOL     OW 8797   0.336   3.333   5.967
 2633SOL    HW1 8798   0.423   3.360   5.925
 2633SOL    HW2 8799   0.316   3.394   6.045
 2634SOL     OW 8800   1.185   1.481   5.513
 2634SOL    HW1 8801   1.107   1.457   5.456
 2634SOL    HW2 8802   1.161   1.468   5.610
 2635SOL     OW 8803   3.960   5.128   3.550
 2635SOL    HW1 8804   3.888   5.192   3.522
 2635SOL    HW2 8805   4.026   5.176   3.608
 2636SOL     OW 8806   3.482   6.458   6.033
 2636SOL    HW1 8807   3.504   6.534   5.972
 2636SOL    HW2 8808   3.480   6.491   6.128
 2637SOL     OW 8809   0.487   0.683   3.016
 2637SOL    HW1 8810   0.441   0.671   2.928
 2637SOL    HW2 8811   0.586   0.670   3.003
 2638SOL     OW 8812   0.565   6.668   4.400
 2638SOL    HW1 8813   0.627   6.653   4.477
 2638SOL    HW2 8814   0.470   6.673   4.434
 2639SOL     OW 8815   4.825   4.967   4.748
 2639SOL    HW1 8816   4.825   5.007   4.839
 2639SOL    HW2 8817   4.887   4.888   4.746
 2640SOL     OW 8818   2.766   1.232   3.542
 2640SOL    HW1 8819   2.678   1.207   3.583
 2640SOL    HW2 8820   2.752   1.309   3.480
 2641SOL     OW 8821   4.994   2.023   0.257
 2641SOL    HW1 8822   4.964   2.093   0.192
 2641SOL    HW2 8823   5.057   2.064   0.323
 2642SOL     OW 8824   0.109   6.774   2.475
 2642SOL    HW1 8825   0.077   6.858   2.431
 2642SOL    HW2 8826   0.032   6.712   2.489
 2643SOL     OW 8827   1.249   4.700   4.490
 2643SOL    HW1 8828   1.290   4.790   4.504
 2643SOL    HW2 8829   1.150   4.706   4.508
 2644SOL     OW 8830   5.513   5.624   4.320
 2644SOL    HW1 8831   5.436   5.600   4.380
 2644SOL    HW2 8832   5.489   5.600   4.226
 2645SOL     OW 8833   4.892   5.885   3.291
 2645SOL    HW1 8834   4.943   5.957   3.245
 2645SOL    HW2 8835   4.927   5.796   3.262
 2646SOL     OW 8836   0.907   2.364   6.467
 2646SOL    HW1 8837   0.834   2.352   6.400
 2646SOL    HW2 8838   0.996   2.359   6.420
 2647SOL     OW 8839   4.533   6.820   2.744
 2647SOL    HW1 8840   4.604   6.873   2.698
 2647SOL    HW2 8841   4.571   6.733   2.775
 2648SOL     OW 8842   1.431   0.254   6.132
 2648SOL    HW1 8843   1.493   0.313   6.081
 2648SOL    HW2 8844   1.364   0.309   6.181
 2649SOL     OW 8845   5.192   1.571   3.556
 2649SOL    HW1 8846   5.130   1.513   3.503
 2649SOL    HW2 8847   5.142   1.651   3.589
 2650SOL     OW 8848   2.128   0.069   3.814
 2650SOL    HW1 8849   2.212   0.112   3.780
 2650SOL    HW2 8850   2.051   0.131   3.799
 2651SOL     OW 8851   4.354   2.084   4.162
 2651SOL    HW1 8852   4.280   2.024   4.195
 2651SOL    HW2 8853   4.441   2.035   4.168
 2652SOL     OW 8854   5.136   4.288   5.209
 2652SOL    HW1 8855   5.060   4.346   5.235
 2652SOL    HW2 8856   5.161   4.306   5.114
 2653SOL     OW 8857   2.341   6.514   6.816
 2653SOL    HW1 8858   2.263   6.536   6.874
 2653SOL    HW2 8859   2.330   6.422   6.778
 2654SOL     OW 8860   0.088   1.185   0.816
 2654SOL    HW1 8861   0.082   1.284   0.829
 2654SOL    HW2 8862   0.071   1.139   0.903
 2655SOL     OW 8863   5.698   6.069   2.906
 2655SOL    HW1 8864   5.658   6.099   2.819
 2655SOL    HW2 8865   5.745   6.145   2.950
 2656SOL     OW 8866   4.710   5.535   3.910
 2656SOL    HW1 8867   4.643   5.600   3.872
 2656SOL    HW2 8868   4.707   5.450   3.859
 2657SOL     OW 8869   1.300   3.476   6.671
 2657SOL    HW1 8870   1.266   3.387   6.701
 2657SOL    HW2 8871   1.261   3.547   6.730
 2658SOL     OW 8872   3.800   5.027   6.950
 2658SOL    HW1 8873   3.795   5.020   6.851
 2658SOL    HW2 8874   3.708   5.019   6.989
 2659SOL     OW 8875   0.168   1.984   5.451
 2659SOL    HW1 8876   0.205   1.892   5.464
 2659SOL    HW2 8877   0.208   2.045   5.519
 2660SOL     OW 8878   0.560   1.161   1.003
 2660SOL    HW1 8879   0.566   1.152   1.102
 2660SOL    HW2 8880   0.634   1.220   0.970
 2661SOL     OW 8881   1.809   1.301   1.469
 2661SOL    HW1 8882   1.727   1.244   1.467
 2661SOL    HW2 8883   1.890   1.243   1.465
 2662SOL     OW 8884   2.572   1.956   1.740
 2662SOL    HW1 8885   2.606   1.864   1.757
 2662SOL    HW2 8886   2.637   2.023   1.776
 2663SOL     OW 8887   3.520   0.341   0.915
 2663SOL    HW1 8888   3.445   0.400   0.945
 2663SOL    HW2 8889   3.561   0.380   0.833
 2664SOL     OW 8890   4.929   3.405   5.423
 2664SOL    HW1 8891   4.906   3.333   5.358
 2664SOL    HW2 8892   4.845   3.445   5.460
 2665SOL     OW 8893   1.594   2.946   3.675
 2665SOL    HW1 8894   1.582   3.008   3.598
 2665SOL    HW2 8895   1.591   2.997   3.760
 2666SOL     OW 8896   2.045   4.132   1.919
 2666SOL    HW1 8897   1.947   4.114   1.911
 2666SOL    HW2 8898   2.063   4.179   2.006
 2667SOL     OW 8899   6.525   2.659   5.047
 2667SOL    HW1 8900   6.622   2.681   5.046
 2667SOL    HW2 8901   6.511   2.575   5.100
 2668SOL     OW 8902   6.154   0.747   3.822
 2668SOL    HW1 8903   6.207   0.813   3.875
 2668SOL    HW2 8904   6.210   0.666   3.806
 2669SOL     OW 8905   2.800   0.986   1.297
 2669SOL    HW1 8906   2.775   1.080   1.317
 2669SOL    HW2 8907   2.749   0.954   1.216
 2670SOL     OW 8908   0.159   0.312   0.047
 2670SOL    HW1 8909   0.253   0.345   0.052
 2670SOL    HW2 8910   0.149   0.252   6.993
 2671SOL     OW 8911   5.459   4.635   5.907
 2671SOL    HW1 8912   5.401   4.717   5.907
 2671SOL    HW2 8913   5.549   4.658   5.944
 2672SOL     OW 8914   2.583   1.138   2.387
 2672SOL    HW1 8915   2.614   1.052   2.426
 2672SOL    HW2 8916   2.549   1.198   2.460
 2673SOL     OW 8917   3.594   6.875   2.734
 2673SOL    HW1 8918   3.667   6.834   2.788
 2673SOL    HW2 8919   3.577   6.968   2.766
 2674SOL     OW 8920   7.017   5.874   3.099
 2674SOL    HW1 8921   6.984   5.967   3.118
 2674SOL    HW2 8922   6.953   5.808   3.138
 2675SOL     OW 8923   4.702   0.737   4.616
 2675SOL    HW1 8924   4.768   0.762   4.546
 2675SOL    HW2 8925   4.609   0.746   4.580
 2676SOL     OW 8926   4.030   3.686   4.080
 2676SOL    HW1 8927   4.107   3.698   4.017
 2676SOL    HW2 8928   3.954   3.744   4.051
 2677SOL     OW 8929   2.028   6.173   0.345
 2677SOL    HW1 8930   2.032   6.260   0.396
 2677SOL    HW2 8931   1.942   6.168   0.295
 2678SOL     OW 8932   3.666   2.053   2.471
 2678SOL    HW1 8933   3.598   2.100   2.527
 2678SOL    HW2 8934   3.628   2.035   2.380
 2679SOL     OW 8935   1.766   3.499   2.462
 2679SOL    HW1 8936   1.770   3.530   2.367
 2679SOL    HW2 8937   1.678   3.455   2.480
 2680SOL     OW 8938   5.366   2.649   7.002
 2680SOL    HW1 8939   5.370   2.747   6.984
 2680SOL    HW2 8940   5.443   2.604   6.955
 2681SOL     OW 8941   2.330   2.331   3.638
 2681SOL    HW1 8942   2.349   2.425   3.666
 2681SOL    HW2 8943   2.395   2.304   3.566
 2682SOL     OW 8944   3.588   3.829   1.587
 2682SOL    HW1 8945   3.587   3.858   1.682
 2682SOL    HW2 8946   3.614   3.732   1.582
 2683SOL     OW 8947   2.209   4.155   1.605
 2683SOL    HW1 8948   2.161   4.144   1.692
 2683SOL    HW2 8949   2.258   4.242   1.605
 2684SOL     OW 8950   6.441   0.742   3.695
 2684SOL    HW1 8951   6.462   0.781   3.606
 2684SOL    HW2 8952   6.481   0.799   3.767
 2685SOL     OW 8953   1.013   6.579   5.840
 2685SOL    HW1 8954   0.978   6.492   5.805
 2685SOL    HW2 8955   1.028   6.642   5.763
 2686SOL     OW 8956   1.280   0.784   5.668
 2686SOL    HW1 8957   1.213   0.836   5.721
 2686SOL    HW2 8958   1.345   0.847   5.626
 2687SOL     OW 8959   4.577   1.596   1.535
 2687SOL    HW1 8960   4.509   1.647   1.482
 2687SOL    HW2 8961   4.664   1.596   1.487
 2688SOL     OW 8962   4.110   2.604   6.845
 2688SOL    HW1 8963   4.168   2.579   6.923
 2688SOL    HW2 8964   4.014   2.594   6.871
 2689SOL     OW 8965   0.193   4.276   2.715
 2689SOL    HW1 8966   0.173   4.282   2.813
 2689SOL    HW2 8967   0.290   4.299   2.700
 2690SOL     OW 8968   5.409   1.211   5.267
 2690SOL    HW1 8969   5.426   1.113   5.275
 2690SOL    HW2 8970   5.450   1.246   5.183
 2691SOL     OW 8971   0.163   3.589   5.001
 2691SOL    HW1 8972   0.173   3.501   5.047
 2691SOL    HW2 8973   0.229   3.654   5.038
 2692SOL     OW 8974   2.422   5.597   2.022
 2692SOL    HW1 8975   2.488   5.528   2.049
 2692SOL    HW2 8976   2.455   5.646   1.941
 2693SOL     OW 8977   1.142   5.198   2.655
 2693SOL    HW1 8978   1.110   5.137   2.583
 2693SOL    HW2 8979   1.078   5.195   2.732
 2694SOL     OW 8980   2.487   0.369   2.283
 2694SOL    HW1 8981   2.497   0.438   2.355
 2694SOL    HW2 8982   2.504   0.278   2.320
 2695SOL     OW 8983   6.824   5.076   3.276
 2695SOL    HW1 8984   6.739   5.064   3.225
 2695SOL    HW2 8985   6.808   5.056   3.373
 2696SOL     OW 8986   4.400   4.586   6.599
 2696SOL    HW1 8987   4.368   4.581   6.504
 2696SOL    HW2 8988   4.418   4.682   6.623
 2697SOL     OW 8989   3.700   2.109   0.486
 2697SOL    HW1 8990   3.734   2.017   0.505
 2697SOL    HW2 8991   3.679   2.117   0.388
 2698SOL     OW 8992   1.388   5.778   6.095
 2698SOL    HW1 8993   1.328   5.697   6.093
 2698SOL    HW2 8994   1.459   5.765   6.164
 2699SOL     OW 8995   2.684   6.639   2.467
 2699SOL    HW1 8996   2.680   6.584   2.550
 2699SOL    HW2 8997   2.714   6.582   2.391
 2700SOL     OW 8998   4.307   2.070   1.508
 2700SOL    HW1 8999   4.211   2.053   1.532
 2700SOL    HW2 9000   4.349   2.127   1.578
 2701SOL     OW 9001   5.211   4.060   5.383
 2701SOL    HW1 9002   5.209   4.100   5.475
 2701SOL    HW2 9003   5.188   4.130   5.316
 2702SOL     OW 9004   2.783   1.586   4.655
 2702SOL    HW1 9005   2.732   1.636   4.585
 2702SOL    HW2 9006   2.747   1.609   4.746
 2703SOL     OW 9007   2.205   6.416   3.030
 2703SOL    HW1 9008   2.272   6.446   2.962
 2703SOL    HW2 9009   2.253   6.370   3.105
 2704SOL     OW 9010   4.551   0.528   3.398
 2704SOL    HW1 9011   4.523   0.597   3.331
 2704SOL    HW2 9012   4.589   0.574   3.478
 2705SOL     OW 9013   1.637   0.360   5.193
 2705SOL    HW1 9014   1.609   0.264   5.200
 2705SOL    HW2 9015   1.737   0.365   5.188
 2706SOL     OW 9016   0.019   4.491   3.968
 2706SOL    HW1 9017   6.950   4.504   3.999
 2706SOL    HW2 9018   0.049   4.399   3.991
 2707SOL     OW 9019   4.518   1.143   3.538
 2707SOL    HW1 9020   4.612   1.165   3.510
 2707SOL    HW2 9021   4.462   1.225   3.532
 2708SOL     OW 9022   5.051   3.468   5.757
 2708SOL    HW1 9023   5.010   3.550   5.797
 2708SOL    HW2 9024   5.127   3.438   5.814
 2709SOL     OW 9025   4.950   1.671   5.494
 2709SOL    HW1 9026   4.921   1.605   5.425
 2709SOL    HW2 9027   4.887   1.748   5.496
 2710SOL     OW 9028   1.339   2.577   4.096
 2710SOL    HW1 9029   1.339   2.485   4.136
 2710SOL    HW2 9030   1.416   2.629   4.133
 2711SOL     OW 9031   4.219   0.568   1.532
 2711SOL    HW1 9032   4.187   0.526   1.617
 2711SOL    HW2 9033   4.257   0.497   1.473
 2712SOL     OW 9034   5.756   6.107   1.484
 2712SOL    HW1 9035   5.686   6.037   1.494
 2712SOL    HW2 9036   5.747   6.150   1.394
 2713SOL     OW 9037   3.892   5.156   5.657
 2713SOL    HW1 9038   3.932   5.094   5.589
 2713SOL    HW2 9039   3.825   5.215   5.613
 2714SOL     OW 9040   3.357   4.397   5.673
 2714SOL    HW1 9041   3.416   4.318   5.690
 2714SOL    HW2 9042   3.414   4.478   5.660
 2715SOL     OW 9043   4.727   6.443   6.782
 2715SOL    HW1 9044   4.662   6.367   6.788
 2715SOL    HW2 9045   4.727   6.494   6.868
 2716SOL     OW 9046   4.363   0.493   2.831
 2716SOL    HW1 9047   4.406   0.563   2.773
 2716SOL    HW2 9048   4.421   0.475   2.911
 2717SOL     OW 9049   1.187   1.930   2.377
 2717SOL    HW1 9050   1.126   1.877   2.319
 2717SOL    HW2 9051   1.265   1.873   2.405
 2718SOL     OW 9052   6.058   1.314   5.937
 2718SOL    HW1 9053   6.075   1.296   5.841
 2718SOL    HW2 9054   5.988   1.251   5.971
 2719SOL     OW 9055   1.367   4.872   3.759
 2719SOL    HW1 9056   1.309   4.818   3.820
 2719SOL    HW2 9057   1.310   4.939   3.711
 2720SOL     OW 9058   2.179   5.677   6.343
 2720SOL    HW1 9059   2.160   5.772   6.319
 2720SOL    HW2 9060   2.224   5.632   6.266
 2721SOL     OW 9061   2.235   6.946   1.992
 2721SOL    HW1 9062   2.301   7.001   1.942
 2721SOL    HW2 9063   2.218   6.861   1.942
 2722SOL     OW 9064   3.568   4.439   6.418
 2722SOL    HW1 9065   3.561   4.434   6.518
 2722SOL    HW2 9066   3.594   4.349   6.383
 2723SOL     OW 9067   4.113   5.800   6.260
 2723SOL    HW1 9068   4.064   5.729   6.311
 2723SOL    HW2 9069   4.141   5.873   6.323
 2724SOL     OW 9070   6.660   5.939   1.362
 2724SOL    HW1 9071   6.758   5.936   1.343
 2724SOL    HW2 9072   6.628   5.847   1.388
 2725SOL     OW 9073   5.979   4.571   3.345
 2725SOL    HW1 9074   5.936   4.617   3.267
 2725SOL    HW2 9075   5.910   4.516   3.393
 2726SOL     OW 9076   6.436   1.949   2.755
 2726SOL    HW1 9077   6.426   1.956   2.656
 2726SOL    HW2 9078   6.493   1.870   2.777
 2727SOL     OW 9079   1.578   5.520   3.361
 2727SOL    HW1 9080   1.637   5.460   3.415
 2727SOL    HW2 9081   1.482   5.498   3.378
 2728SOL     OW 9082   4.692   5.935   6.027
 2728SOL    HW1 9083   4.610   5.992   6.019
 2728SOL    HW2 9084   4.685   5.858   5.964
 2729SOL     OW 9085   6.263   0.263   0.167
 2729SOL    HW1 9086   6.314   0.222   0.243
 2729SOL    HW2 9087   6.326   0.292   0.096
 2730SOL     OW 9088   1.454   5.929   2.497
 2730SOL    HW1 9089   1.449   5.835   2.531
 2730SOL    HW2 9090   1.525   5.935   2.426
 2731SOL     OW 9091   3.447   4.190   4.810
 2731SOL    HW1 9092   3.433   4.249   4.889
 2731SOL    HW2 9093   3.361   4.183   4.758
 2732SOL     OW 9094   4.957   0.691   1.538
 2732SOL    HW1 9095   5.031   0.710   1.474
 2732SOL    HW2 9096   4.956   0.594   1.560
 2733SOL     OW 9097   0.669   6.606   0.036
 2733SOL    HW1 9098   0.719   6.665   0.100
 2733SOL    HW2 9099   0.721   6.523   0.019
 2734SOL     OW 9100   3.884   6.320   2.490
 2734SOL    HW1 9101   3.891   6.227   2.452
 2734SOL    HW2 9102   3.832   6.316   2.575
 2735SOL     OW 9103   1.075   1.759   2.203
 2735SOL    HW1 9104   1.100   1.673   2.157
 2735SOL    HW2 9105   0.987   1.790   2.168
 2736SOL     OW 9106   5.493   4.095   2.658
 2736SOL    HW1 9107   5.464   4.163   2.590
 2736SOL    HW2 9108   5.417   4.032   2.677
 2737SOL     OW 9109   2.966   0.620   5.378
 2737SOL    HW1 9110   2.909   0.639   5.458
 2737SOL    HW2 9111   2.921   0.655   5.296
 2738SOL     OW 9112   4.999   5.681   0.962
 2738SOL    HW1 9113   4.919   5.647   0.912
 2738SOL    HW2 9114   5.010   5.628   1.046
 2739SOL     OW 9115   6.831   5.657   1.353
 2739SOL    HW1 9116   6.876   5.728   1.406
 2739SOL    HW2 9117   6.844   5.568   1.397
 2740SOL     OW 9118   0.047   4.941   3.854
 2740SOL    HW1 9119   7.008   4.889   3.910
 2740SOL    HW2 9120   0.093   4.880   3.789
 2741SOL     OW 9121   1.285   6.687   5.803
 2741SOL    HW1 9122   1.195   6.645   5.796
 2741SOL    HW2 9123   1.282   6.779   5.763
 2742SOL     OW 9124   3.242   5.295   3.350
 2742SOL    HW1 9125   3.199   5.207   3.372
 2742SOL    HW2 9126   3.264   5.298   3.252
 2743SOL     OW 9127   5.214   1.896   3.027
 2743SOL    HW1 9128   5.119   1.906   2.998
 2743SOL    HW2 9129   5.219   1.897   3.127
 2744SOL     OW 9130   3.562   4.106   2.000
 2744SOL    HW1 9131   3.607   4.092   2.089
 2744SOL    HW2 9132   3.463   4.108   2.013
 2745SOL     OW 9133   0.854   5.808   0.242
 2745SOL    HW1 9134   0.771   5.801   0.187
 2745SOL    HW2 9135   0.839   5.765   0.331
 2746SOL     OW 9136   1.715   0.962   3.612
 2746SOL    HW1 9137   1.632   0.907   3.618
 2746SOL    HW2 9138   1.748   0.963   3.517
 2747SOL     OW 9139   4.149   4.597   0.362
 2747SOL    HW1 9140   4.050   4.589   0.373
 2747SOL    HW2 9141   4.188   4.507   0.341
 2748SOL     OW 9142   4.013   0.351   0.719
 2748SOL    HW1 9143   3.956   0.418   0.766
 2748SOL    HW2 9144   4.016   0.267   0.774
 2749SOL     OW 9145   3.696   1.384   0.898
 2749SOL    HW1 9146   3.641   1.394   0.981
 2749SOL    HW2 9147   3.670   1.454   0.832
 2750SOL     OW 9148   3.140   5.864   3.262
 2750SOL    HW1 9149   3.136   5.767   3.238
 2750SOL    HW2 9150   3.047   5.899   3.274
 2751SOL     OW 9151   6.324   4.684   1.213
 2751SOL    HW1 9152   6.410   4.723   1.244
 2751SOL    HW2 9153   6.270   4.754   1.167
 2752SOL     OW 9154   3.765   5.550   6.655
 2752SOL    HW1 9155   3.806   5.631   6.612
 2752SOL    HW2 9156   3.783   5.553   6.754
 2753SOL     OW 9157   5.273   5.757   5.451
 2753SOL    HW1 9158   5.303   5.837   5.399
 2753SOL    HW2 9159   5.349   5.722   5.505
 2754SOL     OW 9160   1.175   0.464   5.801
 2754SOL    HW1 9161   1.088   0.457   5.849
 2754SOL    HW2 9162   1.201   0.560   5.793
 2755SOL     OW 9163   3.554   6.857   2.475
 2755SOL    HW1 9164   3.584   6.837   2.568
 2755SOL    HW2 9165   3.526   6.772   2.431
 2756SOL     OW 9166   4.214   6.045   0.333
 2756SOL    HW1 9167   4.281   6.048   0.406
 2756SOL    HW2 9168   4.161   5.960   0.339
 2757SOL     OW 9169   0.715   5.012   0.604
 2757SOL    HW1 9170   0.783   4.938   0.610
 2757SOL    HW2 9171   0.739   5.073   0.529
 2758SOL     OW 9172   5.401   0.462   5.056
 2758SOL    HW1 9173   5.430   0.486   5.149
 2758SOL    HW2 9174   5.363   0.370   5.056
 2759SOL     OW 9175   4.805   5.310   4.178
 2759SOL    HW1 9176   4.786   5.230   4.236
 2759SOL    HW2 9177   4.720   5.357   4.156
 2760SOL     OW 9178   1.105   6.733   3.754
 2760SOL    HW1 9179   1.197   6.697   3.771
 2760SOL    HW2 9180   1.108   6.800   3.681
 2761SOL     OW 9181   2.470   4.794   4.045
 2761SOL    HW1 9182   2.434   4.884   4.022
 2761SOL    HW2 9183   2.412   4.751   4.114
 2762SOL     OW 9184   2.110   0.859   5.353
 2762SOL    HW1 9185   2.127   0.948   5.310
 2762SOL    HW2 9186   2.197   0.820   5.385
 2763SOL     OW 9187   5.083   1.176   2.279
 2763SOL    HW1 9188   5.116   1.116   2.206
 2763SOL    HW2 9189   4.983   1.173   2.282
 2764SOL     OW 9190   6.232   0.560   1.712
 2764SOL    HW1 9191   6.204   0.656   1.712
 2764SOL    HW2 9192   6.329   0.553   1.690
 2765SOL     OW 9193   5.057   2.292   2.963
 2765SOL    HW1 9194   5.094   2.223   2.901
 2765SOL    HW2 9195   5.130   2.326   3.023
 2766SOL     OW 9196   5.803   0.078   2.599
 2766SOL    HW1 9197   5.900   0.083   2.572
 2766SOL    HW2 9198   5.750   0.043   2.522
 2767SOL     OW 9199   6.306   4.334   5.888
 2767SOL    HW1 9200   6.405   4.327   5.894
 2767SOL    HW2 9201   6.278   4.331   5.792
 2768SOL     OW 9202   6.071   1.507   6.625
 2768SOL    HW1 9203   6.006   1.521   6.699
 2768SOL    HW2 9204   6.100   1.595   6.588
 2769SOL     OW 9205   0.734   4.437   0.895
 2769SOL    HW1 9206   0.710   4.374   0.820
 2769SOL    HW2 9207   0.696   4.403   0.981
 2770SOL     OW 9208   6.033   5.740   2.053
 2770SOL    HW1 9209   5.994   5.811   1.995
 2770SOL    HW2 9210   6.031   5.771   2.148
 2771SOL     OW 9211   4.923   1.013   1.303
 2771SOL    HW1 9212   4.940   1.072   1.382
 2771SOL    HW2 9213   4.866   0.936   1.331
 2772SOL     OW 9214   3.575   2.258   6.686
 2772SOL    HW1 9215   3.526   2.172   6.674
 2772SOL    HW2 9216   3.638   2.250   6.764
 2773SOL     OW 9217   3.181   5.036   0.783
 2773SOL    HW1 9218   3.113   5.072   0.847
 2773SOL    HW2 9219   3.170   4.937   0.776
 2774SOL     OW 9220   5.622   3.110   1.855
 2774SOL    HW1 9221   5.550   3.068   1.799
 2774SOL    HW2 9222   5.584   3.189   1.904
 2775SOL     OW 9223   6.990   0.002   1.910
 2775SOL    HW1 9224   6.912   7.019   1.848
 2775SOL    HW2 9225   0.033   0.064   1.870
 2776SOL     OW 9226   3.018   6.183   6.507
 2776SOL    HW1 9227   3.004   6.280   6.524
 2776SOL    HW2 9228   3.104   6.170   6.458
 2777SOL     OW 9229   2.332   2.005   3.849
 2777SOL    HW1 9230   2.409   1.981   3.909
 2777SOL    HW2 9231   2.292   2.091   3.880
 2778SOL     OW 9232   2.618   2.512   4.833
 2778SOL    HW1 9233   2.633   2.452   4.753
 2778SOL    HW2 9234   2.688   2.584   4.834
 2779SOL     OW 9235   6.406   1.647   1.296
 2779SOL    HW1 9236   6.374   1.682   1.384
 2779SOL    HW2 9237   6.380   1.710   1.223
 2780SOL     OW 9238   3.680   5.896   0.081
 2780SOL    HW1 9239   3.636   5.973   0.127
 2780SOL    HW2 9240   3.777   5.892   0.108
 2781SOL     OW 9241   4.830   4.008   6.524
 2781SOL    HW1 9242   4.795   4.063   6.600
 2781SOL    HW2 9243   4.906   3.953   6.555
 2782SOL     OW 9244   3.114   1.416   5.850
 2782SOL    HW1 9245   3.202   1.461   5.839
 2782SOL    HW2 9246   3.087   1.415   5.946
 2783SOL     OW 9247   0.391   4.054   5.734
 2783SOL    HW1 9248   0.475   4.033   5.784
 2783SOL    HW2 9249   0.399   4.144   5.691
 2784SOL     OW 9250   2.270   2.589   1.827
 2784SOL    HW1 9251   2.263   2.621   1.733
 2784SOL    HW2 9252   2.351   2.531   1.837
 2785SOL     OW 9253   5.896   1.400   1.841
 2785SOL    HW1 9254   5.915   1.489   1.801
 2785SOL    HW2 9255   5.825   1.354   1.789
 2786SOL     OW 9256   3.174   0.670   0.083
 2786SOL    HW1 9257   3.269   0.682   0.053
 2786SOL    HW2 9258   3.155   0.573   0.096
 2787SOL     OW 9259   1.735   3.455   6.025
 2787SOL    HW1 9260   1.803   3.381   6.022
 2787SOL    HW2 9261   1.781   3.543   6.011
 2788SOL     OW 9262   7.017   3.517   6.711
 2788SOL    HW1 9263   7.017   3.606   6.756
 2788SOL    HW2 9264   0.074   3.467   6.736
 2789SOL     OW 9265   0.211   2.816   4.374
 2789SOL    HW1 9266   0.178   2.902   4.414
 2789SOL    HW2 9267   0.311   2.812   4.382
 2790SOL     OW 9268   3.002   6.214   4.534
 2790SOL    HW1 9269   2.915   6.193   4.489
 2790SOL    HW2 9270   3.077   6.191   4.472
 2791SOL     OW 9271   1.770   3.816   2.814
 2791SOL    HW1 9272   1.752   3.914   2.816
 2791SOL    HW2 9273   1.855   3.797   2.865
 2792SOL     OW 9274   1.293   2.193   4.781
 2792SOL    HW1 9275   1.317   2.270   4.841
 2792SOL    HW2 9276   1.282   2.110   4.837
 2793SOL     OW 9277   4.974   0.773   4.190
 2793SOL    HW1 9278   5.040   0.699   4.184
 2793SOL    HW2 9279   4.919   0.777   4.107
 2794SOL     OW 9280   0.963   1.428   1.621
 2794SOL    HW1 9281   0.964   1.526   1.598
 2794SOL    HW2 9282   1.035   1.409   1.688
 2795SOL     OW 9283   1.670   4.383   1.674
 2795SOL    HW1 9284   1.766   4.356   1.664
 2795SOL    HW2 9285   1.611   4.304   1.659
 2796SOL     OW 9286   5.430   3.957   2.274
 2796SOL    HW1 9287   5.423   3.860   2.297
 2796SOL    HW2 9288   5.439   3.967   2.175
 2797SOL     OW 9289   4.567   4.483   4.541
 2797SOL    HW1 9290   4.500   4.538   4.489
 2797SOL    HW2 9291   4.592   4.402   4.488
 2798SOL     OW 9292   1.624   3.608   3.396
 2798SOL    HW1 9293   1.657   3.685   3.451
 2798SOL    HW2 9294   1.613   3.637   3.301
 2799SOL     OW 9295   6.237   5.731   5.885
 2799SOL    HW1 9296   6.291   5.814   5.904
 2799SOL    HW2 9297   6.286   5.651   5.919
 2800SOL     OW 9298   2.823   1.882   6.650
 2800SOL    HW1 9299   2.748   1.901   6.714
 2800SOL    HW2 9300   2.871   1.799   6.678
 2801SOL     OW 9301   4.239   5.644   2.756
 2801SOL    HW1 9302   4.262   5.659   2.659
 2801SOL    HW2 9303   4.211   5.550   2.769
 2802SOL     OW 9304   6.246   0.363   6.097
 2802SOL    HW1 9305   6.283   0.395   6.184
 2802SOL    HW2 9306   6.157   0.404   6.081
 2803SOL     OW 9307   2.140   6.024   5.621
 2803SOL    HW1 9308   2.207   6.040   5.549
 2803SOL    HW2 9309   2.132   6.106   5.678
 2804SOL     OW 9310   0.323   4.924   2.013
 2804SOL    HW1 9311   0.298   4.837   2.057
 2804SOL    HW2 9312   0.334   4.910   1.915
 2805SOL     OW 9313   5.248   3.736   6.754
 2805SOL    HW1 9314   5.265   3.718   6.657
 2805SOL    HW2 9315   5.272   3.656   6.808
 2806SOL     OW 9316   6.373   5.505   2.516
 2806SOL    HW1 9317   6.289   5.482   2.467
 2806SOL    HW2 9318   6.437   5.429   2.509
 2807SOL     OW 9319   4.175   4.808   4.173
 2807SOL    HW1 9320   4.252   4.832   4.231
 2807SOL    HW2 9321   4.093   4.855   4.206
 2808SOL     OW 9322   4.275   5.976   4.448
 2808SOL    HW1 9323   4.286   6.069   4.413
 2808SOL    HW2 9324   4.267   5.913   4.371
 2809SOL     OW 9325   5.498   3.205   0.289
 2809SOL    HW1 9326   5.551   3.213   0.374
 2809SOL    HW2 9327   5.418   3.148   0.306
 2810SOL     OW 9328   1.272   0.823   6.070
 2810SOL    HW1 9329   1.297   0.875   6.152
 2810SOL    HW2 9330   1.199   0.758   6.093
 2811SOL     OW 9331   0.002   0.995   3.760
 2811SOL    HW1 9332   0.068   0.949   3.701
 2811SOL    HW2 9333   0.032   1.089   3.776
 2812SOL     OW 9334   4.923   4.248   2.254
 2812SOL    HW1 9335   4.885   4.192   2.181
 2812SOL    HW2 9336   5.006   4.294   2.222
 2813SOL     OW 9337   6.041   1.757   6.128
 2813SOL    HW1 9338   6.134   1.727   6.105
 2813SOL    HW2 9339   5.975   1.698   6.083
 2814SOL     OW 9340   5.351   4.509   4.790
 2814SOL    HW1 9341   5.425   4.574   4.806
 2814SOL    HW2 9342   5.351   4.481   4.694
 2815SOL     OW 9343   0.038   1.056   4.882
 2815SOL    HW1 9344   6.982   0.998   4.876
 2815SOL    HW2 9345   0.119   0.999   4.888
 2816SOL     OW 9346   5.567   6.485   3.061
 2816SOL    HW1 9347   5.629   6.515   2.988
 2816SOL    HW2 9348   5.475   6.473   3.024
 2817SOL     OW 9349   1.251   1.564   1.470
 2817SOL    HW1 9350   1.187   1.632   1.435
 2817SOL    HW2 9351   1.227   1.541   1.565
 2818SOL     OW 9352   0.661   3.455   6.612
 2818SOL    HW1 9353   0.751   3.499   6.602
 2818SOL    HW2 9354   0.648   3.391   6.536
 2819SOL     OW 9355   5.976   3.194   1.062
 2819SOL    HW1 9356   5.987   3.211   0.964
 2819SOL    HW2 9357   6.008   3.274   1.114
 2820SOL     OW 9358   5.490   2.364   3.754
 2820SOL    HW1 9359   5.548   2.300   3.705
 2820SOL    HW2 9360   5.496   2.347   3.852
 2821SOL     OW 9361   1.618   3.457   3.859
 2821SOL    HW1 9362   1.625   3.427   3.954
 2821SOL    HW2 9363   1.589   3.380   3.802
 2822SOL     OW 9364   2.845   1.862   0.701
 2822SOL    HW1 9365   2.814   1.829   0.612
 2822SOL    HW2 9366   2.775   1.922   0.741
 2823SOL     OW 9367   2.245   6.593   3.813
 2823SOL    HW1 9368   2.277   6.686   3.827
 2823SOL    HW2 9369   2.225   6.579   3.716
 2824SOL     OW 9370   2.923   2.229   5.541
 2824SOL    HW1 9371   2.972   2.310   5.509
 2824SOL    HW2 9372   2.895   2.174   5.462
 2825SOL     OW 9373   6.387   6.172   0.952
 2825SOL    HW1 9374   6.288   6.176   0.957
 2825SOL    HW2 9375   6.422   6.115   1.027
 2826SOL     OW 9376   4.808   2.780   4.290
 2826SOL    HW1 9377   4.796   2.699   4.233
 2826SOL    HW2 9378   4.901   2.780   4.327
 2827SOL     OW 9379   6.464   0.357   7.023
 2827SOL    HW1 9380   6.449   0.410   6.939
 2827SOL    HW2 9381   6.531   0.404   0.055
 2828SOL     OW 9382   3.711   2.166   6.906
 2828SOL    HW1 9383   3.745   2.072   6.892
 2828SOL    HW2 9384   3.658   2.170   6.990
 2829SOL     OW 9385   2.778   0.535   6.592
 2829SOL    HW1 9386   2.700   0.497   6.643
 2829SOL    HW2 9387   2.817   0.612   6.642
 2830SOL     OW 9388   3.317   3.623   6.606
 2830SOL    HW1 9389   3.289   3.714   6.578
 2830SOL    HW2 9390   3.241   3.559   6.593
 2831SOL     OW 9391   6.665   5.918   3.812
 2831SOL    HW1 9392   6.724   5.839   3.831
 2831SOL    HW2 9393   6.582   5.913   3.867
 2832SOL     OW 9394   0.242   1.329   1.835
 2832SOL    HW1 9395   0.279   1.310   1.744
 2832SOL    HW2 9396   0.183   1.410   1.831
 2833SOL     OW 9397   6.445   3.501   2.625
 2833SOL    HW1 9398   6.533   3.519   2.668
 2833SOL    HW2 9399   6.445   3.410   2.585
 2834SOL     OW 9400   4.460   0.891   5.662
 2834SOL    HW1 9401   4.491   0.916   5.754
 2834SOL    HW2 9402   4.387   0.823   5.669
 2835SOL     OW 9403   0.114   6.203   3.256
 2835SOL    HW1 9404   0.212   6.213   3.273
 2835SOL    HW2 9405   0.070   6.166   3.337
 2836SOL     OW 9406   6.455   0.565   0.634
 2836SOL    HW1 9407   6.414   0.555   0.544
 2836SOL    HW2 9408   6.498   0.479   0.661
 2837SOL     OW 9409   6.570   3.031   3.601
 2837SOL    HW1 9410   6.483   3.074   3.624
 2837SOL    HW2 9411   6.596   2.968   3.674
 2838SOL     OW 9412   1.772   4.531   3.868
 2838SOL    HW1 9413   1.672   4.535   3.857
 2838SOL    HW2 9414   1.794   4.543   3.965
 2839SOL     OW 9415   4.804   2.652   0.593
 2839SOL    HW1 9416   4.902   2.671   0.597
 2839SOL    HW2 9417   4.772   2.618   0.681
 2840SOL     OW 9418   6.346   2.912   5.032
 2840SOL    HW1 9419   6.403   2.834   5.058
 2840SOL    HW2 9420   6.312   2.899   4.939
 2841SOL     OW 9421   0.355   6.315   1.265
 2841SOL    HW1 9422   0.431   6.300   1.328
 2841SOL    HW2 9423   0.290   6.379   1.307
 2842SOL     OW 9424   5.754   3.091   2.890
 2842SOL    HW1 9425   5.763   3.087   2.990
 2842SOL    HW2 9426   5.751   2.998   2.853
 2843SOL     OW 9427   4.121   1.207   4.701
 2843SOL    HW1 9428   4.059   1.129   4.710
 2843SOL    HW2 9429   4.203   1.178   4.651
 2844SOL     OW 9430   0.626   3.952   5.839
 2844SOL    HW1 9431   0.705   3.913   5.792
 2844SOL    HW2 9432   0.617   3.912   5.930
 2845SOL     OW 9433   6.983   4.353   5.962
 2845SOL    HW1 9434   6.961   4.261   5.995
 2845SOL    HW2 9435   6.937   4.368   5.875
 2846SOL     OW 9436   4.903   0.960   5.789
 2846SOL    HW1 9437   4.835   0.892   5.760
 2846SOL    HW2 9438   4.859   1.031   5.844
 2847SOL     OW 9439   4.677   4.797   4.095
 2847SOL    HW1 9440   4.753   4.817   4.157
 2847SOL    HW2 9441   4.665   4.698   4.088
 2848SOL     OW 9442   1.980   6.486   5.728
 2848SOL    HW1 9443   1.940   6.394   5.723
 2848SOL    HW2 9444   1.977   6.528   5.638
 2849SOL     OW 9445   2.102   2.957   1.632
 2849SOL    HW1 9446   2.130   2.940   1.537
 2849SOL    HW2 9447   2.175   3.005   1.680
 2850SOL     OW 9448   3.920   0.856   0.619
 2850SOL    HW1 9449   3.960   0.924   0.681
 2850SOL    HW2 9450   3.982   0.778   0.611
 2851SOL     OW 9451   2.672   5.299   6.328
 2851SOL    HW1 9452   2.579   5.263   6.319
 2851SOL    HW2 9453   2.731   5.253   6.261
 2852SOL     OW 9454   0.453   2.922   6.500
 2852SOL    HW1 9455   0.377   2.871   6.541
 2852SOL    HW2 9456   0.458   2.901   6.402
 2853SOL     OW 9457   3.899   2.659   1.567
 2853SOL    HW1 9458   3.833   2.601   1.615
 2853SOL    HW2 9459   3.862   2.752   1.558
 2854SOL     OW 9460   1.086   0.972   3.557
 2854SOL    HW1 9461   1.116   0.878   3.567
 2854SOL    HW2 9462   1.116   1.008   3.469
 2855SOL     OW 9463   2.866   1.150   5.284
 2855SOL    HW1 9464   2.884   1.247   5.302
 2855SOL    HW2 9465   2.873   1.132   5.186
 2856SOL     OW 9466   2.068   1.611   5.234
 2856SOL    HW1 9467   2.015   1.575   5.310
 2856SOL    HW2 9468   2.016   1.681   5.186
 2857SOL     OW 9469   3.464   3.776   3.101
 2857SOL    HW1 9470   3.385   3.744   3.153
 2857SOL    HW2 9471   3.480   3.873   3.120
 2858SOL     OW 9472   5.502   2.442   2.990
 2858SOL    HW1 9473   5.556   2.358   3.003
 2858SOL    HW2 9474   5.444   2.432   2.909
 2859SOL     OW 9475   5.177   6.503   0.334
 2859SOL    HW1 9476   5.163   6.582   0.393
 2859SOL    HW2 9477   5.247   6.524   0.266
 2860SOL     OW 9478   4.192   2.101   0.937
 2860SOL    HW1 9479   4.127   2.099   1.013
 2860SOL    HW2 9480   4.239   2.189   0.936
 2861SOL     OW 9481   4.183   5.431   6.053
 2861SOL    HW1 9482   4.147   5.472   5.969
 2861SOL    HW2 9483   4.283   5.431   6.050
 2862SOL     OW 9484   6.279   0.050   4.176
 2862SOL    HW1 9485   6.273   0.114   4.253
 2862SOL    HW2 9486   6.373   0.047   4.143
 2863SOL     OW 9487   6.948   1.480   0.086
 2863SOL    HW1 9488   6.902   1.436   0.009
 2863SOL    HW2 9489   6.881   1.500   0.158
 2864SOL     OW 9490   3.469   1.346   0.333
 2864SOL    HW1 9491   3.464   1.351   0.233
 2864SOL    HW2 9492   3.469   1.250   0.361
 2865SOL     OW 9493   4.739   5.038   5.342
 2865SOL    HW1 9494   4.647   5.060   5.309
 2865SOL    HW2 9495   4.803   5.038   5.264
 2866SOL     OW 9496   0.053   6.927   6.481
 2866SOL    HW1 9497   0.085   6.832   6.486
 2866SOL    HW2 9498   6.988   6.934   6.525
 2867SOL     OW 9499   6.785   4.018   3.467
 2867SOL    HW1 9500   6.737   3.938   3.501
 2867SOL    HW2 9501   6.721   4.094   3.457
 2868SOL     OW 9502   1.626   5.022   5.009
 2868SOL    HW1 9503   1.679   5.034   5.093
 2868SOL    HW2 9504   1.615   4.924   4.990
 2869SOL     OW 9505   6.031   0.617   2.098
 2869SOL    HW1 9506   5.980   0.573   2.024
 2869SOL    HW2 9507   5.968   0.648   2.169
 2870SOL     OW 9508   4.773   2.004   2.476
 2870SOL    HW1 9509   4.694   1.948   2.452
 2870SOL    HW2 9510   4.764   2.094   2.434
 2871SOL     OW 9511   2.032   1.637   6.413
 2871SOL    HW1 9512   1.966   1.681   6.352
 2871SOL    HW2 9513   2.117   1.620   6.363
 2872SOL     OW 9514   1.863   6.495   3.952
 2872SOL    HW1 9515   1.940   6.469   4.012
 2872SOL    HW2 9516   1.889   6.575   3.899
 2873SOL     OW 9517   0.161   5.872   1.708
 2873SOL    HW1 9518   0.166   5.774   1.688
 2873SOL    HW2 9519   0.140   5.886   1.805
 2874SOL     OW 9520   5.736   1.236   2.408
 2874SOL    HW1 9521   5.787   1.193   2.483
 2874SOL    HW2 9522   5.799   1.288   2.350
 2875SOL     OW 9523   2.817   4.944   1.487
 2875SOL    HW1 9524   2.839   5.041   1.471
 2875SOL    HW2 9525   2.737   4.937   1.546
 2876SOL     OW 9526   6.944   2.097   2.144
 2876SOL    HW1 9527   6.918   2.103   2.047
 2876SOL    HW2 9528   6.959   2.189   2.180
 2877SOL     OW 9529   2.624   4.178   5.849
 2877SOL    HW1 9530   2.648   4.112   5.778
 2877SOL    HW2 9531   2.682   4.259   5.840
 2878SOL     OW 9532   3.494   5.258   0.257
 2878SOL    HW1 9533   3.416   5.283   0.314
 2878SOL    HW2 9534   3.578   5.285   0.302
 2879SOL     OW 9535   4.534   4.813   0.181
 2879SOL    HW1 9536   4.550   4.715   0.197
 2879SOL    HW2 9537   4.438   4.827   0.156
 2880SOL     OW 9538   1.209   0.050   1.628
 2880SOL    HW1 9539   1.146   0.077   1.555
 2880SOL    HW2 9540   1.292   0.105   1.623
 2881SOL     OW 9541   0.436   0.212   6.733
 2881SOL    HW1 9542   0.392   0.125   6.756
 2881SOL    HW2 9543   0.525   0.194   6.690
 2882SOL     OW 9544   6.852   3.162   3.722
 2882SOL    HW1 9545   6.889   3.073   3.693
 2882SOL    HW2 9546   6.871   3.231   3.653
 2883SOL     OW 9547   4.799   6.032   2.453
 2883SOL    HW1 9548   4.865   6.091   2.407
 2883SOL    HW2 9549   4.707   6.049   2.417
 2884SOL     OW 9550   1.654   5.932   2.742
 2884SOL    HW1 9551   1.695   5.852   2.787
 2884SOL    HW2 9552   1.683   5.935   2.647
 2885SOL     OW 9553   0.619   2.732   4.150
 2885SOL    HW1 9554   0.587   2.797   4.220
 2885SOL    HW2 9555   0.656   2.782   4.072
 2886SOL     OW 9556   2.572   3.160   6.165
 2886SOL    HW1 9557   2.656   3.120   6.202
 2886SOL    HW2 9558   2.532   3.098   6.097
 2887SOL     OW 9559   2.695   1.654   4.892
 2887SOL    HW1 9560   2.627   1.727   4.878
 2887SOL    HW2 9561   2.762   1.684   4.960
 2888SOL     OW 9562   6.989   5.032   0.039
 2888SOL    HW1 9563   0.022   5.037   6.983
 2888SOL    HW2 9564   0.021   5.044   0.121
 2889SOL     OW 9565   0.479   6.947   0.759
 2889SOL    HW1 9566   0.418   6.886   0.708
 2889SOL    HW2 9567   0.456   0.017   0.739
 2890SOL     OW 9568   2.836   0.244   0.501
 2890SOL    HW1 9569   2.881   0.176   0.560
 2890SOL    HW2 9570   2.884   0.331   0.508
 2891SOL     OW 9571   3.006   4.889   4.709
 2891SOL    HW1 9572   3.032   4.892   4.806
 2891SOL    HW2 9573   3.088   4.891   4.652
 2892SOL     OW 9574   4.445   4.323   5.403
 2892SOL    HW1 9575   4.360   4.278   5.430
 2892SOL    HW2 9576   4.493   4.356   5.485
 2893SOL     OW 9577   3.094   0.947   5.902
 2893SOL    HW1 9578   2.999   0.969   5.924
 2893SOL    HW2 9579   3.109   0.849   5.916
 2894SOL     OW 9580   3.369   2.601   1.366
 2894SOL    HW1 9581   3.394   2.569   1.458
 2894SOL    HW2 9582   3.398   2.533   1.299
 2895SOL     OW 9583   3.046   3.221   6.885
 2895SOL    HW1 9584   3.108   3.296   6.862
 2895SOL    HW2 9585   3.073   3.180   6.972
 2896SOL     OW 9586   2.149   5.445   0.932
 2896SOL    HW1 9587   2.193   5.507   0.867
 2896SOL    HW2 9588   2.220   5.401   0.988
 2897SOL     OW 9589   1.504   6.761   3.555
 2897SOL    HW1 9590   1.459   6.697   3.617
 2897SOL    HW2 9591   1.566   6.710   3.495
 2898SOL     OW 9592   2.599   4.562   2.728
 2898SOL    HW1 9593   2.598   4.620   2.810
 2898SOL    HW2 9594   2.685   4.574   2.680
 2899SOL     OW 9595   6.234   1.267   0.650
 2899SOL    HW1 9596   6.221   1.307   0.559
 2899SOL    HW2 9597   6.227   1.340   0.719
 2900SOL     OW 9598   2.848   5.603   6.492
 2900SOL    HW1 9599   2.831   5.526   6.553
 2900SOL    HW2 9600   2.801   5.587   6.405
 2901SOL     OW 9601   2.917   0.207   1.300
 2901SOL    HW1 9602   2.884   0.156   1.220
 2901SOL    HW2 9603   3.005   0.170   1.329
 2902SOL     OW 9604   5.539   5.083   1.160
 2902SOL    HW1 9605   5.540   4.989   1.193
 2902SOL    HW2 9606   5.575   5.085   1.067
 2903SOL     OW 9607   2.780   2.489   1.685
 2903SOL    HW1 9608   2.712   2.552   1.723
 2903SOL    HW2 9609   2.857   2.482   1.747
 2904SOL     OW 9610   2.343   2.760   4.420
 2904SOL    HW1 9611   2.399   2.678   4.418
 2904SOL    HW2 9612   2.251   2.739   4.386
 2905SOL     OW 9613   1.310   2.030   1.823
 2905SOL    HW1 9614   1.304   2.032   1.923
 2905SOL    HW2 9615   1.281   2.118   1.786
 2906SOL     OW 9616   5.163   5.552   2.128
 2906SOL    HW1 9617   5.220   5.516   2.202
 2906SOL    HW2 9618   5.079   5.590   2.167
 2907SOL     OW 9619   6.368   0.423   4.556
 2907SOL    HW1 9620   6.403   0.390   4.643
 2907SOL    HW2 9621   6.424   0.500   4.524
 2908SOL     OW 9622   4.208   6.338   5.163
 2908SOL    HW1 9623   4.293   6.380   5.195
 2908SOL    HW2 9624   4.136   6.355   5.230
 2909SOL     OW 9625   1.500   6.079   5.334
 2909SOL    HW1 9626   1.561   6.154   5.359
 2909SOL    HW2 9627   1.459   6.040   5.417
 2910SOL     OW 9628   4.965   6.370   5.190
 2910SOL    HW1 9629   5.036   6.401   5.128
 2910SOL    HW2 9630   5.003   6.302   5.253
 2911SOL     OW 9631   2.233   4.280   3.584
 2911SOL    HW1 9632   2.305   4.319   3.642
 2911SOL    HW2 9633   2.172   4.353   3.554
 2912SOL     OW 9634   2.725   5.243   0.819
 2912SOL    HW1 9635   2.757   5.306   0.748
 2912SOL    HW2 9636   2.744   5.149   0.791
 2913SOL     OW 9637   1.202   3.536   2.571
 2913SOL    HW1 9638   1.126   3.486   2.530
 2913SOL    HW2 9639   1.286   3.483   2.562
 2914SOL     OW 9640   5.243   4.699   5.624
 2914SOL    HW1 9641   5.311   4.746   5.567
 2914SOL    HW2 9642   5.165   4.672   5.567
 2915SOL     OW 9643   4.019   1.212   4.443
 2915SOL    HW1 9644   4.075   1.279   4.394
 2915SOL    HW2 9645   4.034   1.223   4.542
 2916SOL     OW 9646   4.402   5.945   4.780
 2916SOL    HW1 9647   4.454   5.900   4.707
 2916SOL    HW2 9648   4.334   5.881   4.817
 2917SOL     OW 9649   4.711   0.631   1.880
 2917SOL    HW1 9650   4.748   0.722   1.866
 2917SOL    HW2 9651   4.656   0.605   1.800
 2918SOL     OW 9652   0.464   3.468   4.196
 2918SOL    HW1 9653   0.474   3.526   4.277
 2918SOL    HW2 9654   0.474   3.372   4.223
 2919SOL     OW 9655   6.130   6.147   0.361
 2919SOL    HW1 9656   6.163   6.195   0.280
 2919SOL    HW2 9657   6.139   6.207   0.441
 2920SOL     OW 9658   4.467   2.112   3.158
 2920SOL    HW1 9659   4.376   2.073   3.171
 2920SOL    HW2 9660   4.460   2.195   3.102
 2921SOL     OW 9661   0.081   0.123   1.486
 2921SOL    HW1 9662   0.046   0.199   1.541
 2921SOL    HW2 9663   0.120   0.159   1.401
 2922SOL     OW 9664   4.595   6.703   5.170
 2922SOL    HW1 9665   4.660   6.683   5.097
 2922SOL    HW2 9666   4.626   6.662   5.255
 2923SOL     OW 9667   6.985   4.347   0.303
 2923SOL    HW1 9668   6.966   4.401   0.385
 2923SOL    HW2 9669   6.999   4.251   0.329
 2924SOL     OW 9670   6.104   6.943   5.758
 2924SOL    HW1 9671   6.034   7.008   5.788
 2924SOL    HW2 9672   6.156   6.911   5.838
 2925SOL     OW 9673   5.677   3.421   1.296
 2925SOL    HW1 9674   5.670   3.389   1.390
 2925SOL    HW2 9675   5.664   3.520   1.294
 2926SOL     OW 9676   6.917   1.464   3.518
 2926SOL    HW1 9677   6.997   1.434   3.570
 2926SOL    HW2 9678   6.851   1.389   3.513
 2927SOL     OW 9679   0.950   3.043   2.456
 2927SOL    HW1 9680   0.855   3.075   2.460
 2927SOL    HW2 9681   1.011   3.116   2.485
 2928SOL     OW 9682   5.407   6.027   1.262
 2928SOL    HW1 9683   5.454   6.033   1.351
 2928SOL    HW2 9684   5.470   5.990   1.194
 2929SOL     OW 9685   0.750   0.298   6.029
 2929SOL    HW1 9686   0.838   0.261   6.058
 2929SOL    HW2 9687   0.765   0.367   5.958
 2930SOL     OW 9688   3.186   6.425   4.082
 2930SOL    HW1 9689   3.161   6.488   4.008
 2930SOL    HW2 9690   3.137   6.449   4.165
 2931SOL     OW 9691   3.978   4.944   6.658
 2931SOL    HW1 9692   3.958   4.900   6.571
 2931SOL    HW2 9693   3.919   5.024   6.669
 2932SOL     OW 9694   1.336   4.496   1.913
 2932SOL    HW1 9695   1.358   4.399   1.919
 2932SOL    HW2 9696   1.237   4.508   1.907
 2933SOL     OW 9697   4.801   1.793   3.577
 2933SOL    HW1 9698   4.759   1.743   3.654
 2933SOL    HW2 9699   4.738   1.793   3.499
 2934SOL     OW 9700   2.018   1.005   0.457
 2934SOL    HW1 9701   1.952   0.932   0.441
 2934SOL    HW2 9702   2.101   0.968   0.498
 2935SOL     OW 9703   6.706   1.869   1.402
 2935SOL    HW1 9704   6.668   1.792   1.351
 2935SOL    HW2 9705   6.797   1.891   1.367
 2936SOL     OW 9706   3.194   5.871   0.876
 2936SOL    HW1 9707   3.124   5.939   0.855
 2936SOL    HW2 9708   3.283   5.902   0.843
 2937SOL     OW 9709   2.415   4.404   0.200
 2937SOL    HW1 9710   2.423   4.341   0.277
 2937SOL    HW2 9711   2.319   4.425   0.184
 2938SOL     OW 9712   5.223   4.743   5.297
 2938SOL    HW1 9713   5.255   4.820   5.351
 2938SOL    HW2 9714   5.124   4.732   5.309
 2939SOL     OW 9715   0.158   6.641   6.360
 2939SOL    HW1 9716   0.183   6.546   6.344
 2939SOL    HW2 9717   0.240   6.698   6.358
 2940SOL     OW 9718   4.371   0.303   5.406
 2940SOL    HW1 9719   4.275   0.288   5.430
 2940SOL    HW2 9720   4.429   0.254   5.472
 2941SOL     OW 9721   3.205   1.696   5.549
 2941SOL    HW1 9722   3.249   1.661   5.466
 2941SOL    HW2 9723   3.118   1.649   5.564
 2942SOL     OW 9724   3.558   6.440   4.591
 2942SOL    HW1 9725   3.560   6.529   4.546
 2942SOL    HW2 9726   3.651   6.412   4.613
 2943SOL     OW 9727   5.134   3.673   2.610
 2943SOL    HW1 9728   5.230   3.647   2.616
 2943SOL    HW2 9729   5.090   3.619   2.538
 2944SOL     OW 9730   4.437   6.133   7.014
 2944SOL    HW1 9731   4.414   6.195   0.064
 2944SOL    HW2 9732   4.354   6.090   6.978
 2945SOL     OW 9733   3.241   4.087   2.881
 2945SOL    HW1 9734   3.285   4.154   2.821
 2945SOL    HW2 9735   3.293   4.079   2.966
 2946SOL     OW 9736   0.118   5.744   5.944
 2946SOL    HW1 9737   0.163   5.753   6.033
 2946SOL    HW2 9738   0.128   5.651   5.910
 2947SOL     OW 9739   0.360   5.183   0.155
 2947SOL    HW1 9740   0.267   5.192   0.190
 2947SOL    HW2 9741   0.371   5.093   0.114
 2948SOL     OW 9742   5.898   4.187   5.580
 2948SOL    HW1 9743   5.876   4.240   5.498
 2948SOL    HW2 9744   5.854   4.097   5.574
 2949SOL     OW 9745   0.990   6.001   0.550
 2949SOL    HW1 9746   0.913   6.055   0.518
 2949SOL    HW2 9747   0.976   5.975   0.645
 2950SOL     OW 9748   5.125   3.680   4.657
 2950SOL    HW1 9749   5.117   3.627   4.573
 2950SOL    HW2 9750   5.034   3.702   4.691
 2951SOL     OW 9751   6.121   0.865   1.084
 2951SOL    HW1 9752   6.094   0.783   1.134
 2951SOL    HW2 9753   6.125   0.846   0.986
 2952SOL     OW 9754   1.077   4.050   2.180
 2952SOL    HW1 9755   1.069   4.090   2.271
 2952SOL    HW2 9756   1.141   3.974   2.182
 2953SOL     OW 9757   5.470   1.041   2.453
 2953SOL    HW1 9758   5.380   0.999   2.443
 2953SOL    HW2 9759   5.459   1.134   2.488
 2954SOL     OW 9760   6.092   5.851   1.083
 2954SOL    HW1 9761   6.022   5.915   1.116
 2954SOL    HW2 9762   6.176   5.864   1.136
 2955SOL     OW 9763   6.488   2.382   0.491
 2955SOL    HW1 9764   6.389   2.372   0.501
 2955SOL    HW2 9765   6.533   2.307   0.538
 2956SOL     OW 9766   6.613   4.995   2.590
 2956SOL    HW1 9767   6.713   4.994   2.582
 2956SOL    HW2 9768   6.580   4.905   2.616
 2957SOL     OW 9769   0.897   5.173   1.277
 2957SOL    HW1 9770   0.898   5.238   1.201
 2957SOL    HW2 9771   0.991   5.157   1.308
 2958SOL     OW 9772   3.596   4.869   6.499
 2958SOL    HW1 9773   3.603   4.870   6.400
 2958SOL    HW2 9774   3.632   4.783   6.535
 2959SOL     OW 9775   4.144   5.639   0.479
 2959SOL    HW1 9776   4.082   5.693   0.422
 2959SOL    HW2 9777   4.239   5.663   0.457
 2960SOL     OW 9778   2.898   1.646   6.760
 2960SOL    HW1 9779   2.939   1.588   6.691
 2960SOL    HW2 9780   2.818   1.601   6.799
 2961SOL     OW 9781   5.758   1.996   4.329
 2961SOL    HW1 9782   5.795   2.072   4.276
 2961SOL    HW2 9783   5.713   2.031   4.411
 2962SOL     OW 9784   4.123   0.852   2.997
 2962SOL    HW1 9785   4.094   0.838   3.092
 2962SOL    HW2 9786   4.161   0.767   2.961
 2963SOL     OW 9787   2.103   3.260   5.231
 2963SOL    HW1 9788   2.191   3.285   5.270
 2963SOL    HW2 9789   2.081   3.322   5.156
 2964SOL     OW 9790   2.992   6.351   0.118
 2964SOL    HW1 9791   3.068   6.287   0.112
 2964SOL    HW2 9792   3.024   6.444   0.099
 2965SOL     OW 9793   0.460   2.379   6.024
 2965SOL    HW1 9794   0.527   2.411   5.957
 2965SOL    HW2 9795   0.498   2.303   6.076
 2966SOL     OW 9796   4.861   4.399   3.201
 2966SOL    HW1 9797   4.779   4.373   3.252
 2966SOL    HW2 9798   4.887   4.493   3.225
 2967SOL     OW 9799   5.886   2.388   3.821
 2967SOL    HW1 9800   5.808   2.340   3.862
 2967SOL    HW2 9801   5.853   2.456   3.755
 2968SOL     OW 9802   6.709   3.870   3.712
 2968SOL    HW1 9803   6.783   3.809   3.743
 2968SOL    HW2 9804   6.735   3.965   3.728
 2969SOL     OW 9805   4.307   1.123   4.504
 2969SOL    HW1 9806   4.345   1.031   4.493
 2969SOL    HW2 9807   4.276   1.157   4.415
 2970SOL     OW 9808   1.035   4.712   6.265
 2970SOL    HW1 9809   0.979   4.793   6.249
 2970SOL    HW2 9810   1.030   4.651   6.185
 2971SOL     OW 9811   5.276   3.485   2.997
 2971SOL    HW1 9812   5.194   3.531   2.964
 2971SOL    HW2 9813   5.301   3.522   3.087
 2972SOL     OW 9814   1.264   4.039   5.957
 2972SOL    HW1 9815   1.307   3.975   6.021
 2972SOL    HW2 9816   1.187   3.994   5.911
 2973SOL     OW 9817   5.771   0.188   4.293
 2973SOL    HW1 9818   5.784   0.199   4.194
 2973SOL    HW2 9819   5.688   0.135   4.309
 2974SOL     OW 9820   0.215   4.183   2.071
 2974SOL    HW1 9821   0.216   4.242   1.990
 2974SOL    HW2 9822   0.225   4.240   2.153
 2975SOL     OW 9823   0.392   1.651   4.068
 2975SOL    HW1 9824   0.463   1.582   4.055
 2975SOL    HW2 9825   0.362   1.651   4.163
 2976SOL     OW 9826   2.477   6.117   1.752
 2976SOL    HW1 9827   2.528   6.095   1.836
 2976SOL    HW2 9828   2.404   6.050   1.739
 2977SOL     OW 9829   3.642   6.093   3.822
 2977SOL    HW1 9830   3.645   6.057   3.729
 2977SOL    HW2 9831   3.547   6.099   3.853
 2978SOL     OW 9832   3.708   6.826   6.894
 2978SOL    HW1 9833   3.637   6.838   6.963
 2978SOL    HW2 9834   3.676   6.861   6.806
 2979SOL     OW 9835   3.479   1.130   3.362
 2979SOL    HW1 9836   3.430   1.083   3.289
 2979SOL    HW2 9837   3.524   1.211   3.325
 2980SOL     OW 9838   6.682   6.172   3.890
 2980SOL    HW1 9839   6.693   6.076   3.866
 2980SOL    HW2 9840   6.594   6.185   3.935
 2981SOL     OW 9841   1.866   1.563   5.456
 2981SOL    HW1 9842   1.802   1.569   5.380
 2981SOL    HW2 9843   1.844   1.632   5.524
 2982SOL     OW 9844   4.933   6.789   2.737
 2982SOL    HW1 9845   4.930   6.771   2.835
 2982SOL    HW2 9846   4.875   6.868   2.716
 2983SOL     OW 9847   6.796   7.014   2.792
 2983SOL    HW1 9848   6.795   6.977   2.700
 2983SOL    HW2 9849   6.848   0.074   2.794
 2984SOL     OW 9850   6.047   4.770   1.546
 2984SOL    HW1 9851   5.998   4.759   1.459
 2984SOL    HW2 9852   6.142   4.794   1.528
 2985SOL     OW 9853   6.519   1.796   3.113
 2985SOL    HW1 9854   6.459   1.720   3.087
 2985SOL    HW2 9855   6.582   1.815   3.037
 2986SOL     OW 9856   2.170   3.916   5.249
 2986SOL    HW1 9857   2.264   3.932   5.221
 2986SOL    HW2 9858   2.112   3.903   5.169
 2987SOL     OW 9859   5.257   1.494   5.071
 2987SOL    HW1 9860   5.264   1.576   5.016
 2987SOL    HW2 9861   5.314   1.421   5.032
 2988SOL     OW 9862   0.775   0.219   1.768
 2988SOL    HW1 9863   0.782   0.121   1.787
 2988SOL    HW2 9864   0.860   0.265   1.793
 2989SOL     OW 9865   6.246   5.879   0.808
 2989SOL    HW1 9866   6.201   5.966   0.827
 2989SOL    HW2 9867   6.184   5.820   0.757
 2990SOL     OW 9868   3.074   0.739   1.155
 2990SOL    HW1 9869   3.065   0.815   1.220
 2990SOL    HW2 9870   3.123   0.771   1.074
 2991SOL     OW 9871   6.285   4.841   0.242
 2991SOL    HW1 9872   6.271   4.914   0.175
 2991SOL    HW2 9873   6.197   4.811   0.278
 2992SOL     OW 9874   4.283   4.226   6.730
 2992SOL    HW1 9875   4.345   4.226   6.652
 2992SOL    HW2 9876   4.235   4.314   6.734
 2993SOL     OW 9877   1.978   4.920   0.174
 2993SOL    HW1 9878   1.905   4.922   0.243
 2993SOL    HW2 9879   1.939   4.941   0.085
 2994SOL     OW 9880   3.925   6.516   0.021
 2994SOL    HW1 9881   3.860   6.520   6.970
 2994SOL    HW2 9882   3.926   6.604   0.069
 2995SOL     OW 9883   2.595   1.165   5.297
 2995SOL    HW1 9884   2.695   1.157   5.292
 2995SOL    HW2 9885   2.570   1.261   5.314
 2996SOL     OW 9886   4.056   5.933   5.649
 2996SOL    HW1 9887   3.966   5.925   5.692
 2996SOL    HW2 9888   4.079   5.846   5.605
 2997SOL     OW 9889   4.597   6.135   0.315
 2997SOL    HW1 9890   4.530   6.190   0.266
 2997SOL    HW2 9891   4.662   6.194   0.362
 2998SOL     OW 9892   6.055   5.033   5.045
 2998SOL    HW1 9893   6.040   4.971   5.122
 2998SOL    HW2 9894   6.140   5.084   5.059
 2999SOL     OW 9895   3.131   0.124   2.350
 2999SOL    HW1 9896   3.064   0.162   2.285
 2999SOL    HW2 9897   3.112   0.027   2.365
 3000SOL     OW 9898   1.419   2.118   4.526
 3000SOL    HW1 9899   1.391   2.153   4.615
 3000SOL    HW2 9900   1.385   2.179   4.454
 3001SOL     OW 9901   4.745   6.853   5.794
 3001SOL    HW1 9902   4.776   6.942   5.761
 3001SOL    HW2 9903   4.665   6.865   5.852
 3002SOL     OW 9904   3.111   1.008   5.384
 3002SOL    HW1 9905   3.143   0.976   5.295
 3002SOL    HW2 9906   3.022   1.053   5.374
 3003SOL     OW 9907   2.556   0.072   5.963
 3003SOL    HW1 9908   2.610   0.095   6.043
 3003SOL    HW2 9909   2.461   0.054   5.990
 3004SOL     OW 9910   6.335   3.312   5.360
 3004SOL    HW1 9911   6.270   3.345   5.428
 3004SOL    HW2 9912   6.288   3.301   5.272
 3005SOL     OW 9913   4.323   2.262   1.286
 3005SOL    HW1 9914   4.387   2.241   1.212
 3005SOL    HW2 9915   4.360   2.230   1.373
 3006SOL     OW 9916   4.931   0.443   1.054
 3006SOL    HW1 9917   4.964   0.534   1.028
 3006SOL    HW2 9918   4.860   0.452   1.124
 3007SOL     OW 9919   6.358   5.328   1.915
 3007SOL    HW1 9920   6.350   5.390   1.994
 3007SOL    HW2 9921   6.386   5.238   1.947
 3008SOL     OW 9922   4.782   5.835   5.682
 3008SOL    HW1 9923   4.873   5.820   5.643
 3008SOL    HW2 9924   4.762   5.763   5.749
 3009SOL     OW 9925   1.645   0.912   2.328
 3009SOL    HW1 9926   1.653   1.011   2.345
 3009SOL    HW2 9927   1.604   0.868   2.408
 3010SOL     OW 9928   2.725   6.546   2.765
 3010SOL    HW1 9929   2.780   6.629   2.757
 3010SOL    HW2 9930   2.777   6.468   2.732
 3011SOL     OW 9931   5.687   0.618   0.086
 3011SOL    HW1 9932   5.676   0.684   0.011
 3011SOL    HW2 9933   5.633   0.536   0.066
 3012SOL     OW 9934   0.052   4.551   1.981
 3012SOL    HW1 9935   7.024   4.585   1.903
 3012SOL    HW2 9936   0.094   4.628   2.028
 3013SOL     OW 9937   6.209   3.906   2.183
 3013SOL    HW1 9938   6.213   3.815   2.142
 3013SOL    HW2 9939   6.250   3.903   2.274
 3014SOL     OW 9940   5.270   0.260   4.963
 3014SOL    HW1 9941   5.269   0.226   4.869
 3014SOL    HW2 9942   5.177   0.258   5.000
 3015SOL     OW 9943   3.152   2.104   0.107
 3015SOL    HW1 9944   3.186   2.020   0.149
 3015SOL    HW2 9945   3.069   2.133   0.153
 3016SOL     OW 9946   3.966   6.249   3.586
 3016SOL    HW1 9947   4.033   6.225   3.515
 3016SOL    HW2 9948   3.949   6.169   3.644
 3017SOL     OW 9949   6.872   6.271   1.026
 3017SOL    HW1 9950   6.862   6.363   0.987
 3017SOL    HW2 9951   6.813   6.207   0.978
 3018SOL     OW 9952   3.633   6.824   6.357
 3018SOL    HW1 9953   3.691   6.788   6.284
 3018SOL    HW2 9954   3.545   6.775   6.357
 3019SOL     OW 9955   5.166   6.548   2.143
 3019SOL    HW1 9956   5.261   6.549   2.177
 3019SOL    HW2 9957   5.163   6.585   2.050
 3020SOL     OW 9958   2.301   0.987   1.408
 3020SOL    HW1 9959   2.262   0.986   1.316
 3020SOL    HW2 9960   2.240   1.037   1.470
 3021SOL     OW 9961   4.183   0.706   6.258
 3021SOL    HW1 9962   4.176   0.610   6.283
 3021SOL    HW2 9963   4.211   0.715   6.163
 3022SOL     OW 9964   6.084   0.036   1.682
 3022SOL    HW1 9965   5.988   0.030   1.656
 3022SOL    HW2 9966   6.131   6.978   1.653
 3023SOL     OW 9967   5.489   0.049   1.309
 3023SOL    HW1 9968   5.508   0.002   1.223
 3023SOL    HW2 9969   5.446   0.137   1.289
 3024SOL     OW 9970   2.876   6.675   6.919
 3024SOL    HW1 9971   2.831   6.664   7.007
 3024SOL    HW2 9972   2.885   6.772   6.897
 3025SOL     OW 9973   1.931   2.405   2.081
 3025SOL    HW1 9974   2.026   2.437   2.082
 3025SOL    HW2 9975   1.896   2.404   2.175
 3026SOL     OW 9976   1.891   5.252   0.262
 3026SOL    HW1 9977   1.969   5.232   0.203
 3026SOL    HW2 9978   1.923   5.292   0.348
 3027SOL     OW 9979   1.449   1.463   3.940
 3027SOL    HW1 9980   1.373   1.465   3.875
 3027SOL    HW2 9981   1.529   1.506   3.899
 3028SOL     OW 9982   1.433   0.850   4.494
 3028SOL    HW1 9983   1.383   0.927   4.454
 3028SOL    HW2 9984   1.441   0.778   4.425
 3029SOL     OW 9985   5.572   5.137   6.048
 3029SOL    HW1 9986   5.618   5.059   6.092
 3029SOL    HW2 9987   5.536   5.198   6.118
 3030SOL     OW 9988   1.049   1.293   5.711
 3030SOL    HW1 9989   1.021   1.214   5.657
 3030SOL    HW2 9990   1.141   1.278   5.748
 3031SOL     OW 9991   0.849   5.101   7.019
 3031SOL    HW1 9992   0.932   5.082   6.966
 3031SOL    HW2 9993   0.774   5.124   6.957
 3032SOL     OW 9994   4.103   0.300   5.466
 3032SOL    HW1 9995   4.074   0.211   5.501
 3032SOL    HW2 9996   4.040   0.330   5.394
 3033SOL     OW 9997   5.291   4.848   5.860
 3033SOL    HW1 9998   5.284   4.821   5.764
 3033SOL    HW2 9999   5.341   4.934   5.867
 3034SOL     OW10000   2.519   0.010   4.259
 3034SOL    HW110001   2.430   0.033   4.299
 3034SOL    HW210002   2.592   0.046   4.316
 3035SOL     OW10003   6.607   6.855   6.893
 3035SOL    HW110004   6.518   6.816   6.870
 3035SOL    HW210005   6.600   6.954   6.902
 3036SOL     OW10006   0.917   4.798   5.898
 3036SOL    HW110007   0.922   4.699   5.899
 3036SOL    HW210008   0.836   4.828   5.949
 3037SOL     OW10009   6.526   6.856   5.692
 3037SOL    HW110010   6.580   6.779   5.658
 3037SOL    HW210011   6.429   6.838   5.676
 3038SOL     OW10012   5.960   6.486   5.818
 3038SOL    HW110013   5.941   6.439   5.904
 3038SOL    HW210014   5.964   6.420   5.744
 3039SOL     OW10015   6.964   4.724   0.137
 3039SOL    HW110016   6.973   4.722   0.037
 3039SOL    HW210017   7.005   4.641   0.175
 3040SOL     OW10018   2.451   2.034   0.042
 3040SOL    HW110019   2.429   1.981   6.985
 3040SOL    HW210020   2.543   2.071   0.035
 3041SOL     OW10021   1.508   2.175   5.945
 3041SOL    HW110022   1.605   2.193   5.959
 3041SOL    HW210023   1.495   2.134   5.855
 3042SOL     OW10024   5.307   6.798   1.890
 3042SOL    HW110025   5.239   6.850   1.838
 3042SOL    HW210026   5.291   6.700   1.878
 3043SOL     OW10027   6.599   5.220   0.113
 3043SOL    HW110028   6.593   5.317   0.087
 3043SOL    HW210029   6.688   5.202   0.156
 3044SOL     OW10030   3.146   3.674   5.632
 3044SOL    HW110031   3.065   3.626   5.668
 3044SOL    HW210032   3.117   3.752   5.577
 3045SOL     OW10033   5.251   2.204   4.389
 3045SOL    HW110034   5.317   2.224   4.461
 3045SOL    HW210035   5.277   2.254   4.306
 3046SOL     OW10036   2.154   2.442   6.126
 3046SOL    HW110037   2.220   2.501   6.174
 3046SOL    HW210038   2.135   2.479   6.036
 3047SOL     OW10039   0.214   4.759   1.601
 3047SOL    HW110040   0.167   4.848   1.591
 3047SOL    HW210041   0.180   4.696   1.532
 3048SOL     OW10042   3.177   2.597   1.734
 3048SOL    HW110043   3.127   2.607   1.648
 3048SOL    HW210044   3.121   2.546   1.800
 3049SOL     OW10045   0.912   0.210   1.045
 3049SOL    HW110046   0.864   0.130   1.010
 3049SOL    HW210047   0.859   0.293   1.026
 3050SOL     OW10048   2.126   6.395   4.042
 3050SOL    HW110049   2.157   6.300   4.036
 3050SOL    HW210050   2.159   6.446   3.963
 3051SOL     OW10051   2.541   4.429   5.311
 3051SOL    HW110052   2.455   4.434   5.361
 3051SOL    HW210053   2.606   4.493   5.352
 3052SOL     OW10054   5.285   6.527   2.945
 3052SOL    HW110055   5.202   6.471   2.957
 3052SOL    HW210056   5.264   6.622   2.966
 3053SOL     OW10057   5.006   6.560   1.320
 3053SOL    HW110058   4.969   6.491   1.382
 3053SOL    HW210059   5.067   6.621   1.371
 3054SOL     OW10060   1.944   4.397   5.664
 3054SOL    HW110061   1.971   4.301   5.653
 3054SOL    HW210062   2.022   4.456   5.643
 3055SOL     OW10063   5.730   6.564   2.845
 3055SOL    HW110064   5.792   6.643   2.837
 3055SOL    HW210065   5.668   6.563   2.767
 3056SOL     OW10066   6.019   0.619   1.198
 3056SOL    HW110067   6.046   0.531   1.158
 3056SOL    HW210068   5.964   0.603   1.280
 3057SOL     OW10069   6.673   6.013   2.402
 3057SOL    HW110070   6.601   5.951   2.431
 3057SOL    HW210071   6.702   6.069   2.480
 3058SOL     OW10072   6.398   5.321   1.634
 3058SOL    HW110073   6.494   5.338   1.614
 3058SOL    HW210074   6.383   5.325   1.733
 3059SOL     OW10075   2.075   2.700   5.103
 3059SOL    HW110076   2.172   2.720   5.115
 3059SOL    HW210077   2.037   2.664   5.188
 3060SOL     OW10078   6.760   6.470   0.425
 3060SOL    HW110079   6.687   6.529   0.459
 3060SOL    HW210080   6.841   6.482   0.482
 3061SOL     OW10081   0.533   0.626   5.950
 3061SOL    HW110082   0.539   0.566   6.030
 3061SOL    HW210083   0.505   0.572   5.870
 3062SOL     OW10084   2.965   5.567   6.034
 3062SOL    HW110085   3.063   5.574   6.052
 3062SOL    HW210086   2.924   5.503   6.099
 3063SOL     OW10087   2.239   5.846   0.341
 3063SOL    HW110088   2.221   5.900   0.259
 3063SOL    HW210089   2.214   5.900   0.422
 3064SOL     OW10090   0.063   4.232   3.404
 3064SOL    HW110091   0.047   4.150   3.459
 3064SOL    HW210092   0.118   4.208   3.324
 3065SOL     OW10093   2.797   1.266   1.233
 3065SOL    HW110094   2.892   1.267   1.203
 3065SOL    HW210095   2.782   1.341   1.298
 3066SOL     OW10096   5.405   5.754   0.652
 3066SOL    HW110097   5.502   5.770   0.669
 3066SOL    HW210098   5.354   5.767   0.737
 3067SOL     OW10099   4.502   6.807   3.231
 3067SOL    HW110100   4.566   6.861   3.176
 3067SOL    HW210101   4.408   6.830   3.205
 3068SOL     OW10102   5.607   4.732   0.429
 3068SOL    HW110103   5.576   4.823   0.402
 3068SOL    HW210104   5.633   4.680   0.348
 3069SOL     OW10105   0.842   5.391   3.785
 3069SOL    HW110106   0.774   5.447   3.831
 3069SOL    HW210107   0.870   5.315   3.844
 3070SOL     OW10108   3.829   1.557   4.607
 3070SOL    HW110109   3.833   1.655   4.584
 3070SOL    HW210110   3.921   1.520   4.610
 3071SOL     OW10111   5.541   0.070   3.917
 3071SOL    HW110112   5.548   7.001   3.884
 3071SOL    HW210113   5.562   0.133   3.843
 3072SOL     OW10114   1.002   0.825   2.008
 3072SOL    HW110115   1.085   0.864   2.047
 3072SOL    HW210116   1.015   0.810   1.910
 3073SOL     OW10117   1.833   2.638   4.254
 3073SOL    HW110118   1.913   2.582   4.234
 3073SOL    HW210119   1.862   2.724   4.296
 3074SOL     OW10120   4.814   3.422   6.133
 3074SOL    HW110121   4.776   3.371   6.056
 3074SOL    HW210122   4.904   3.457   6.110
 3075SOL     OW10123   6.941   5.881   0.786
 3075SOL    HW110124   6.908   5.913   0.698
 3075SOL    HW210125   7.019   5.820   0.773
 3076SOL     OW10126   0.890   0.615   5.102
 3076SOL    HW110127   0.823   0.690   5.098
 3076SOL    HW210128   0.842   0.528   5.090
 3077SOL     OW10129   5.165   4.357   4.168
 3077SOL    HW110130   5.119   4.384   4.084
 3077SOL    HW210131   5.237   4.424   4.190
 3078SOL     OW10132   2.301   3.284   0.517
 3078SOL    HW110133   2.291   3.199   0.569
 3078SOL    HW210134   2.327   3.262   0.423
 3079SOL     OW10135   5.441   2.799   6.353
 3079SOL    HW110136   5.389   2.714   6.345
 3079SOL    HW210137   5.382   2.877   6.333
 3080SOL     OW10138   5.922   6.010   0.874
 3080SOL    HW110139   5.982   5.939   0.837
 3080SOL    HW210140   5.866   6.049   0.800
 3081SOL     OW10141   6.713   4.780   5.876
 3081SOL    HW110142   6.614   4.787   5.863
 3081SOL    HW210143   6.760   4.823   5.799
 3082SOL     OW10144   2.592   6.962   2.047
 3082SOL    HW110145   2.554   6.873   2.072
 3082SOL    HW210146   2.636   6.955   1.958
 3083SOL     OW10147   3.420   0.526   2.312
 3083SOL    HW110148   3.374   0.452   2.263
 3083SOL    HW210149   3.510   0.495   2.343
 3084SOL     OW10150   4.437   6.638   4.066
 3084SOL    HW110151   4.454   6.707   3.995
 3084SOL    HW210152   4.458   6.547   4.030
 3085SOL     OW10153   1.079   5.852   1.550
 3085SOL    HW110154   1.096   5.922   1.619
 3085SOL    HW210155   1.097   5.762   1.589
 3086SOL     OW10156   5.915   1.646   3.828
 3086SOL    HW110157   5.936   1.600   3.914
 3086SOL    HW210158   5.835   1.705   3.840
 3087SOL     OW10159   5.274   3.182   2.306
 3087SOL    HW110160   5.234   3.092   2.284
 3087SOL    HW210161   5.322   3.217   2.226
 3088SOL     OW10162   2.726   3.868   6.150
 3088SOL    HW110163   2.699   3.959   6.119
 3088SOL    HW210164   2.817   3.846   6.117
 3089SOL     OW10165   2.668   2.113   0.560
 3089SOL    HW110166   2.676   2.042   0.629
 3089SOL    HW210167   2.653   2.201   0.605
 3090SOL     OW10168   0.390   1.727   1.162
 3090SOL    HW110169   0.385   1.641   1.214
 3090SOL    HW210170   0.419   1.801   1.223
 3091SOL     OW10171   2.536   6.929   0.751
 3091SOL    HW110172   2.495   6.876   0.825
 3091SOL    HW210173   2.465   6.955   0.685
 3092SOL     OW10174   3.853   6.282   0.961
 3092SOL    HW110175   3.843   6.263   0.863
 3092SOL    HW210176   3.941   6.246   0.993
 3093SOL     OW10177   5.071   5.927   3.734
 3093SOL    HW110178   5.080   5.986   3.814
 3093SOL    HW210179   5.152   5.937   3.676
 3094SOL     OW10180   3.234   5.382   5.701
 3094SOL    HW110181   3.292   5.461   5.724
 3094SOL    HW210182   3.175   5.405   5.624
 3095SOL     OW10183   2.472   4.926   4.836
 3095SOL    HW110184   2.551   4.866   4.830
 3095SOL    HW210185   2.445   4.937   4.932
 3096SOL     OW10186   6.691   0.755   5.569
 3096SOL    HW110187   6.717   0.658   5.571
 3096SOL    HW210188   6.665   0.784   5.660
 3097SOL     OW10189   2.070   2.589   0.279
 3097SOL    HW110190   2.044   2.570   0.373
 3097SOL    HW210191   1.988   2.603   0.223
 3098SOL     OW10192   3.918   2.148   0.623
 3098SOL    HW110193   3.839   2.170   0.566
 3098SOL    HW210194   3.927   2.217   0.695
 3099SOL     OW10195   1.090   6.023   5.138
 3099SOL    HW110196   1.077   6.102   5.197
 3099SOL    HW210197   1.138   5.951   5.188
 3100SOL     OW10198   5.986   6.163   6.700
 3100SOL    HW110199   5.908   6.199   6.649
 3100SOL    HW210200   5.959   6.081   6.750
 3101SOL     OW10201   4.467   6.827   1.032
 3101SOL    HW110202   4.548   6.808   1.088
 3101SOL    HW210203   4.413   6.743   1.022
 3102SOL     OW10204   0.366   5.893   0.437
 3102SOL    HW110205   0.398   5.917   0.345
 3102SOL    HW210206   0.384   5.796   0.454
 3103SOL     OW10207   4.167   3.733   1.725
 3103SOL    HW110208   4.127   3.724   1.634
 3103SOL    HW210209   4.229   3.811   1.727
 3104SOL     OW10210   6.341   5.516   3.859
 3104SOL    HW110211   6.413   5.481   3.919
 3104SOL    HW210212   6.271   5.562   3.913
 3105SOL     OW10213   6.161   5.852   3.295
 3105SOL    HW110214   6.165   5.887   3.201
 3105SOL    HW210215   6.066   5.850   3.326
 3106SOL     OW10216   6.893   3.005   4.636
 3106SOL    HW110217   6.804   3.044   4.609
 3106SOL    HW210218   6.940   3.069   4.696
 3107SOL     OW10219   2.990   6.518   3.655
 3107SOL    HW110220   2.926   6.485   3.586
 3107SOL    HW210221   2.957   6.604   3.694
 3108SOL     OW10222   3.456   0.998   3.104
 3108SOL    HW110223   3.358   0.980   3.111
 3108SOL    HW210224   3.473   1.057   3.025
 3109SOL     OW10225   4.640   5.707   3.294
 3109SOL    HW110226   4.576   5.782   3.277
 3109SOL    HW210227   4.708   5.736   3.362
 3110SOL     OW10228   1.157   2.800   1.949
 3110SOL    HW110229   1.175   2.719   1.893
 3110SOL    HW210230   1.216   2.875   1.919
 3111SOL     OW10231   6.793   4.827   2.981
 3111SOL    HW110232   6.797   4.809   3.080
 3111SOL    HW210233   6.820   4.921   2.964
 3112SOL     OW10234   2.848   3.757   6.430
 3112SOL    HW110235   2.765   3.702   6.430
 3112SOL    HW210236   2.865   3.792   6.338
 3113SOL     OW10237   4.352   6.881   4.222
 3113SOL    HW110238   4.367   6.787   4.191
 3113SOL    HW210239   4.375   6.944   4.148
 3114SOL     OW10240   5.650   5.743   0.779
 3114SOL    HW110241   5.654   5.653   0.823
 3114SOL    HW210242   5.629   5.813   0.848
 3115SOL     OW10243   2.605   3.463   1.775
 3115SOL    HW110244   2.671   3.491   1.844
 3115SOL    HW210245   2.512   3.482   1.808
 3116SOL     OW10246   0.505   1.847   6.784
 3116SOL    HW110247   0.517   1.917   6.713
 3116SOL    HW210248   0.577   1.778   6.775
 3117SOL     OW10249   3.389   3.971   5.306
 3117SOL    HW110250   3.451   3.894   5.317
 3117SOL    HW210251   3.300   3.948   5.345
 3118SOL     OW10252   5.758   5.109   6.902
 3118SOL    HW110253   5.799   5.028   6.945
 3118SOL    HW210254   5.663   5.118   6.933
 3119SOL     OW10255   2.243   4.893   6.439
 3119SOL    HW110256   2.327   4.943   6.461
 3119SOL    HW210257   2.178   4.955   6.394
 3120SOL     OW10258   2.481   5.979   5.591
 3120SOL    HW110259   2.497   5.888   5.630
 3120SOL    HW210260   2.532   5.988   5.506
 3121SOL     OW10261   0.405   6.041   3.024
 3121SOL    HW110262   0.420   6.125   3.077
 3121SOL    HW210263   0.432   6.057   2.929
 3122SOL     OW10264   2.772   5.645   0.422
 3122SOL    HW110265   2.764   5.743   0.437
 3122SOL    HW210266   2.708   5.596   0.482
 3123SOL     OW10267   3.494   6.676   4.457
 3123SOL    HW110268   3.452   6.654   4.369
 3123SOL    HW210269   3.541   6.764   4.450
 3124SOL     OW10270   4.124   0.453   6.340
 3124SOL    HW110271   4.153   0.375   6.396
 3124SOL    HW210272   4.026   0.469   6.354
 3125SOL     OW10273   6.964   2.052   5.823
 3125SOL    HW110274   7.018   2.033   5.741
 3125SOL    HW210275   6.974   2.149   5.847
 3126SOL     OW10276   3.360   6.752   0.464
 3126SOL    HW110277   3.271   6.711   0.481
 3126SOL    HW210278   3.426   6.680   0.444
 3127SOL     OW10279   1.486   1.106   3.728
 3127SOL    HW110280   1.574   1.095   3.682
 3127SOL    HW210281   1.500   1.105   3.827
 3128SOL     OW10282   1.372   0.666   0.735
 3128SOL    HW110283   1.288   0.713   0.764
 3128SOL    HW210284   1.365   0.643   0.638
 3129SOL     OW10285   1.852   3.274   3.870
 3129SOL    HW110286   1.841   3.328   3.787
 3129SOL    HW210287   1.940   3.225   3.867
 3130SOL     OW10288   1.975   5.885   3.378
 3130SOL    HW110289   1.923   5.853   3.457
 3130SOL    HW210290   1.920   5.874   3.295
 3131SOL     OW10291   0.740   3.328   4.118
 3131SOL    HW110292   0.652   3.284   4.102
 3131SOL    HW210293   0.776   3.300   4.207
 3132SOL     OW10294   5.227   5.968   5.130
 3132SOL    HW110295   5.266   6.022   5.056
 3132SOL    HW210296   5.257   5.873   5.123
 3133SOL     OW10297   2.516   1.975   3.107
 3133SOL    HW110298   2.573   1.908   3.153
 3133SOL    HW210299   2.470   2.033   3.174
 3134SOL     OW10300   5.413   2.926   1.722
 3134SOL    HW110301   5.431   2.841   1.673
 3134SOL    HW210302   5.332   2.915   1.780
 3135SOL     OW10303   2.680   1.779   3.220
 3135SOL    HW110304   2.744   1.725   3.165
 3135SOL    HW210305   2.604   1.721   3.248
 3136SOL     OW10306   6.508   0.147   5.482
 3136SOL    HW110307   6.497   0.047   5.479
 3136SOL    HW210308   6.573   0.176   5.412
 3137SOL     OW10309   0.033   1.331   4.852
 3137SOL    HW110310   0.046   1.237   4.883
 3137SOL    HW210311   7.008   1.331   4.765
 3138SOL     OW10312   5.713   1.854   4.674
 3138SOL    HW110313   5.708   1.932   4.611
 3138SOL    HW210314   5.794   1.800   4.653
 3139SOL     OW10315   4.957   5.991   5.195
 3139SOL    HW110316   4.913   6.033   5.115
 3139SOL    HW210317   5.056   5.998   5.186
 3140SOL     OW10318   6.458   5.845   6.184
 3140SOL    HW110319   6.526   5.800   6.242
 3140SOL    HW210320   6.497   5.930   6.148
 3141SOL     OW10321   0.754   5.380   0.780
 3141SOL    HW110322   0.811   5.358   0.701
 3141SOL    HW210323   0.716   5.472   0.769
 3142SOL     OW10324   3.276   0.176   6.411
 3142SOL    HW110325   3.287   0.175   6.510
 3142SOL    HW210326   3.197   0.232   6.387
 3143SOL     OW10327   0.308   1.315   1.036
 3143SOL    HW110328   0.393   1.265   1.021
 3143SOL    HW210329   0.316   1.368   1.121
 3144SOL     OW10330   1.610   3.404   6.595
 3144SOL    HW110331   1.574   3.393   6.687
 3144SOL    HW210332   1.546   3.456   6.539
 3145SOL     OW10333   2.989   5.351   4.049
 3145SOL    HW110334   2.919   5.323   3.983
 3145SOL    HW210335   3.054   5.412   4.005
 3146SOL     OW10336   2.290   0.354   3.574
 3146SOL    HW110337   2.350   0.373   3.497
 3146SOL    HW210338   2.225   0.429   3.585
 3147SOL     OW10339   3.404   4.465   0.440
 3147SOL    HW110340   3.461   4.447   0.521
 3147SOL    HW210341   3.461   4.500   0.366
 3148SOL     OW10342   3.469   5.751   4.903
 3148SOL    HW110343   3.460   5.806   4.986
 3148SOL    HW210344   3.514   5.805   4.832
 3149SOL     OW10345   3.120   6.307   6.163
 3149SOL    HW110346   3.199   6.286   6.105
 3149SOL    HW210347   3.069   6.384   6.123
 3150SOL     OW10348   0.202   0.299   4.050
 3150SOL    HW110349   0.206   0.232   3.975
 3150SOL    HW210350   0.129   0.273   4.113
 3151SOL     OW10351   4.025   6.837   0.687
 3151SOL    HW110352   4.021   6.870   0.593
 3151SOL    HW210353   4.117   6.851   0.724
 3152SOL     OW10354   1.880   4.616   6.756
 3152SOL    HW110355   1.895   4.571   6.844
 3152SOL    HW210356   1.951   4.684   6.741
 3153SOL     OW10357   0.042   4.756   2.988
 3153SOL    HW110358   6.968   4.771   2.985
 3153SOL    HW210359   0.083   4.816   3.057
 3154SOL     OW10360   5.445   2.375   6.524
 3154SOL    HW110361   5.495   2.347   6.442
 3154SOL    HW210362   5.486   2.333   6.605
 3155SOL     OW10363   3.800   6.340   0.287
 3155SOL    HW110364   3.864   6.277   0.243
 3155SOL    HW210365   3.852   6.410   0.337
 3156SOL     OW10366   3.604   3.489   3.070
 3156SOL    HW110367   3.595   3.585   3.099
 3156SOL    HW210368   3.513   3.453   3.049
 3157SOL     OW10369   1.908   3.083   4.859
 3157SOL    HW110370   1.904   3.138   4.776
 3157SOL    HW210371   2.002   3.079   4.892
 3158SOL     OW10372   4.638   6.134   1.408
 3158SOL    HW110373   4.612   6.227   1.383
 3158SOL    HW210374   4.684   6.090   1.330
 3159SOL     OW10375   5.354   4.568   0.530
 3159SOL    HW110376   5.449   4.597   0.518
 3159SOL    HW210377   5.350   4.498   0.601
 3160SOL     OW10378   5.881   4.785   0.537
 3160SOL    HW110379   5.909   4.835   0.455
 3160SOL    HW210380   5.813   4.716   0.512
 3161SOL     OW10381   0.683   1.906   3.123
 3161SOL    HW110382   0.634   1.980   3.077
 3161SOL    HW210383   0.709   1.936   3.215
 3162SOL     OW10384   6.402   0.032   6.146
 3162SOL    HW110385   6.450   0.091   6.081
 3162SOL    HW210386   6.459   0.019   6.227
 3163SOL     OW10387   1.970   4.776   5.524
 3163SOL    HW110388   1.950   4.736   5.435
 3163SOL    HW210389   1.922   4.863   5.533
 3164SOL     OW10390   6.112   5.258   6.033
 3164SOL    HW110391   6.028   5.249   6.085
 3164SOL    HW210392   6.095   5.236   5.937
 3165SOL     OW10393   0.190   2.541   1.763
 3165SOL    HW110394   0.275   2.513   1.720
 3165SOL    HW210395   0.121   2.558   1.693
 3166SOL     OW10396   4.730   3.060   6.330
 3166SOL    HW110397   4.758   2.964   6.331
 3166SOL    HW210398   4.641   3.069   6.374
 3167SOL     OW10399   0.181   3.992   1.326
 3167SOL    HW110400   0.154   3.968   1.233
 3167SOL    HW210401   0.113   4.055   1.366
 3168SOL     OW10402   5.438   3.184   0.657
 3168SOL    HW110403   5.502   3.221   0.589
 3168SOL    HW210404   5.479   3.106   0.704
 3169SOL     OW10405   1.943   2.190   5.043
 3169SOL    HW110406   2.024   2.247   5.035
 3169SOL    HW210407   1.940   2.148   5.133
 3170SOL     OW10408   4.466   0.515   5.580
 3170SOL    HW110409   4.479   0.603   5.533
 3170SOL    HW210410   4.427   0.449   5.517
 3171SOL     OW10411   6.478   0.097   3.237
 3171SOL    HW110412   6.432   0.011   3.261
 3171SOL    HW210413   6.540   0.081   3.160
 3172SOL     OW10414   5.763   6.932   5.717
 3172SOL    HW110415   5.803   6.870   5.784
 3172SOL    HW210416   5.802   7.024   5.729
 3173SOL     OW10417   2.352   1.318   1.670
 3173SOL    HW110418   2.303   1.244   1.625
 3173SOL    HW210419   2.300   1.351   1.749
 3174SOL     OW10420   2.004   3.379   6.700
 3174SOL    HW110421   1.951   3.352   6.619
 3174SOL    HW210422   2.094   3.336   6.696
 3175SOL     OW10423   6.497   6.117   0.178
 3175SOL    HW110424   6.583   6.147   0.137
 3175SOL    HW210425   6.495   6.142   0.275
 3176SOL     OW10426   1.243   5.714   6.580
 3176SOL    HW110427   1.197   5.777   6.642
 3176SOL    HW210428   1.271   5.632   6.631
 3177SOL     OW10429   1.260   7.024   4.285
 3177SOL    HW110430   1.194   7.015   4.360
 3177SOL    HW210431   1.223   0.062   4.216
 3178SOL     OW10432   2.458   3.925   0.384
 3178SOL    HW110433   2.511   3.912   0.469
 3178SOL    HW210434   2.441   3.836   0.341
 3179SOL     OW10435   1.085   2.442   3.752
 3179SOL    HW110436   1.011   2.385   3.789
 3179SOL    HW210437   1.171   2.391   3.756
 3180SOL     OW10438   5.828   1.272   6.195
 3180SOL    HW110439   5.875   1.299   6.279
 3180SOL    HW210440   5.873   1.192   6.156
 3181SOL     OW10441   0.956   1.563   2.840
 3181SOL    HW110442   0.875   1.610   2.874
 3181SOL    HW210443   0.943   1.539   2.744
 3182SOL     OW10444   1.648   4.847   5.685
 3182SOL    HW110445   1.657   4.769   5.622
 3182SOL    HW210446   1.593   4.819   5.764
 3183SOL     OW10447   4.857   2.865   1.499
 3183SOL    HW110448   4.916   2.880   1.420
 3183SOL    HW210449   4.764   2.842   1.468
 3184SOL     OW10450   0.731   2.231   3.648
 3184SOL    HW110451   0.753   2.139   3.614
 3184SOL    HW210452   0.794   2.255   3.721
 3185SOL     OW10453   0.604   6.170   6.796
 3185SOL    HW110454   0.573   6.136   6.885
 3185SOL    HW210455   0.631   6.092   6.739
 3186SOL     OW10456   3.429   0.816   1.670
 3186SOL    HW110457   3.334   0.794   1.647
 3186SOL    HW210458   3.434   0.907   1.711
 3187SOL     OW10459   2.733   4.343   0.140
 3187SOL    HW110460   2.820   4.346   0.189
 3187SOL    HW210461   2.666   4.291   0.193
 3188SOL     OW10462   4.215   6.963   3.204
 3188SOL    HW110463   4.305   7.007   3.200
 3188SOL    HW210464   4.171   6.969   3.115
 3189SOL     OW10465   6.691   6.712   2.168
 3189SOL    HW110466   6.703   6.642   2.097
 3189SOL    HW210467   6.644   6.672   2.246
 3190SOL     OW10468   0.701   0.001   0.910
 3190SOL    HW110469   0.679   0.016   1.006
 3190SOL    HW210470   0.618   7.002   0.860
 3191SOL     OW10471   3.061   0.277   0.275
 3191SOL    HW110472   3.099   0.331   0.200
 3191SOL    HW210473   2.967   0.252   0.253
 3192SOL     OW10474   6.091   1.888   3.553
 3192SOL    HW110475   6.064   1.810   3.497
 3192SOL    HW210476   6.128   1.961   3.495
 3193SOL     OW10477   4.805   4.298   0.956
 3193SOL    HW110478   4.808   4.259   1.048
 3193SOL    HW210479   4.798   4.398   0.962
 3194SOL     OW10480   1.449   4.939   5.307
 3194SOL    HW110481   1.458   4.986   5.395
 3194SOL    HW210482   1.528   4.879   5.294
 3195SOL     OW10483   0.363   3.984   3.473
 3195SOL    HW110484   0.273   4.007   3.510
 3195SOL    HW210485   0.353   3.913   3.403
 3196SOL     OW10486   0.149   6.776   5.764
 3196SOL    HW110487   0.244   6.747   5.755
 3196SOL    HW210488   0.125   6.785   5.861
 3197SOL     OW10489   0.308   4.145   4.174
 3197SOL    HW110490   0.399   4.126   4.210
 3197SOL    HW210491   0.297   4.101   4.086
 3198SOL     OW10492   5.433   6.474   0.215
 3198SOL    HW110493   5.467   6.447   0.305
 3198SOL    HW210494   5.400   6.394   0.166
 3199SOL     OW10495   3.681   1.671   3.250
 3199SOL    HW110496   3.765   1.717   3.280
 3199SOL    HW210497   3.608   1.689   3.317
 3200SOL     OW10498   6.975   2.393   0.313
 3200SOL    HW110499   6.898   2.361   0.258
 3200SOL    HW210500   0.023   2.426   0.254
 3201SOL     OW10501   4.663   4.683   3.155
 3201SOL    HW110502   4.572   4.716   3.133
 3201SOL    HW210503   4.657   4.616   3.230
 3202SOL     OW10504   1.061   6.243   1.464
 3202SOL    HW110505   1.125   6.207   1.532
 3202SOL    HW210506   1.028   6.168   1.406
 3203SOL     OW10507   5.119   0.276   1.152
 3203SOL    HW110508   5.110   0.213   1.075
 3203SOL    HW210509   5.046   0.345   1.148
 3204SOL     OW10510   6.222   5.981   2.058
 3204SOL    HW110511   6.287   6.052   2.088
 3204SOL    HW210512   6.129   6.012   2.076
 3205SOL     OW10513   0.901   3.917   3.719
 3205SOL    HW110514   0.916   3.819   3.736
 3205SOL    HW210515   0.946   3.944   3.634
 3206SOL     OW10516   1.633   0.002   0.473
 3206SOL    HW110517   1.533   0.001   0.479
 3206SOL    HW210518   1.662   0.074   0.410
 3207SOL     OW10519   1.406   1.772   2.459
 3207SOL    HW110520   1.488   1.771   2.403
 3207SOL    HW210521   1.420   1.832   2.538
 3208SOL     OW10522   6.237   0.233   4.398
 3208SOL    HW110523   6.265   0.290   4.475
 3208SOL    HW210524   6.160   0.174   4.426
 3209SOL     OW10525   2.176   0.320   2.927
 3209SOL    HW110526   2.102   0.264   2.965
 3209SOL    HW210527   2.163   0.329   2.828
 3210SOL     OW10528   0.543   5.076   1.970
 3210SOL    HW110529   0.514   5.166   1.938
 3210SOL    HW210530   0.474   5.008   1.944
 3211SOL     OW10531   0.459   4.315   2.695
 3211SOL    HW110532   0.442   4.389   2.631
 3211SOL    HW210533   0.530   4.342   2.760
 3212SOL     OW10534   5.158   2.879   5.601
 3212SOL    HW110535   5.153   2.975   5.631
 3212SOL    HW210536   5.132   2.873   5.505
 3213SOL     OW10537   5.244   7.015   1.474
 3213SOL    HW110538   5.332   7.011   1.427
 3213SOL    HW210539   5.170   7.003   1.408
 3214SOL     OW10540   4.046   4.220   6.348
 3214SOL    HW110541   3.981   4.152   6.382
 3214SOL    HW210542   4.050   4.216   6.248
 3215SOL     OW10543   6.177   1.344   0.381
 3215SOL    HW110544   6.160   1.289   0.299
 3215SOL    HW210545   6.098   1.402   0.400
 3216SOL     OW10546   5.341   6.636   4.864
 3216SOL    HW110547   5.247   6.646   4.832
 3216SOL    HW210548   5.398   6.706   4.822
 3217SOL     OW10549   6.711   4.199   0.283
 3217SOL    HW110550   6.622   4.242   0.264
 3217SOL    HW210551   6.772   4.265   0.327
 3218SOL     OW10552   3.688   1.532   1.942
 3218SOL    HW110553   3.607   1.586   1.918
 3218SOL    HW210554   3.664   1.435   1.942
 3219SOL     OW10555   0.322   0.146   3.848
 3219SOL    HW110556   0.316   0.056   3.890
 3219SOL    HW210557   0.398   0.197   3.889
 3220SOL     OW10558   6.011   3.190   6.277
 3220SOL    HW110559   5.934   3.173   6.338
 3220SOL    HW210560   6.070   3.109   6.275
 3221SOL     OW10561   3.847   0.461   2.142
 3221SOL    HW110562   3.787   0.531   2.180
 3221SOL    HW210563   3.806   0.423   2.060
 3222SOL     OW10564   6.513   4.000   2.208
 3222SOL    HW110565   6.437   4.021   2.146
 3222SOL    HW210566   6.580   4.073   2.206
 3223SOL     OW10567   2.252   4.067   4.026
 3223SOL    HW110568   2.344   4.076   3.989
 3223SOL    HW210569   2.196   4.145   3.998
 3224SOL     OW10570   2.925   5.970   1.363
 3224SOL    HW110571   2.872   5.886   1.371
 3224SOL    HW210572   2.933   5.996   1.267
 3225SOL     OW10573   1.842   2.631   1.069
 3225SOL    HW110574   1.799   2.721   1.078
 3225SOL    HW210575   1.911   2.635   0.996
 3226SOL     OW10576   0.356   0.660   4.069
 3226SOL    HW110577   0.279   0.617   4.023
 3226SOL    HW210578   0.335   0.756   4.086
 3227SOL     OW10579   1.926   2.370   5.727
 3227SOL    HW110580   1.974   2.287   5.700
 3227SOL    HW210581   1.885   2.413   5.646
 3228SOL     OW10582   4.962   3.446   4.851
 3228SOL    HW110583   4.907   3.510   4.904
 3228SOL    HW210584   5.057   3.450   4.882
 3229SOL     OW10585   4.823   1.292   5.119
 3229SOL    HW110586   4.862   1.239   5.044
 3229SOL    HW210587   4.744   1.244   5.157
 3230SOL     OW10588   1.638   0.274   3.826
 3230SOL    HW110589   1.543   0.249   3.807
 3230SOL    HW210590   1.640   0.358   3.881
 3231SOL     OW10591   4.668   4.466   0.670
 3231SOL    HW110592   4.724   4.489   0.750
 3231SOL    HW210593   4.711   4.391   0.620
 3232SOL     OW10594   1.348   4.308   2.678
 3232SOL    HW110595   1.365   4.297   2.776
 3232SOL    HW210596   1.434   4.297   2.629
 3233SOL     OW10597   1.929   4.404   0.961
 3233SOL    HW110598   1.905   4.442   0.872
 3233SOL    HW210599   2.008   4.453   0.998
 3234SOL     OW10600   6.600   2.153   5.073
 3234SOL    HW110601   6.657   2.233   5.055
 3234SOL    HW210602   6.647   2.091   5.136
 3235SOL     OW10603   5.545   0.763   2.307
 3235SOL    HW110604   5.575   0.857   2.318
 3235SOL    HW210605   5.575   0.728   2.218
 3236SOL     OW10606   0.138   2.557   1.480
 3236SOL    HW110607   0.227   2.563   1.435
 3236SOL    HW210608   0.112   2.647   1.515
 3237SOL     OW10609   3.200   6.065   4.854
 3237SOL    HW110610   3.256   6.040   4.775
 3237SOL    HW210611   3.209   6.163   4.871
 3238SOL     OW10612   6.621   6.199   6.309
 3238SOL    HW110613   6.621   6.100   6.294
 3238SOL    HW210614   6.708   6.236   6.278
 3239SOL     OW10615   0.871   6.355   5.383
 3239SOL    HW110616   0.898   6.411   5.305
 3239SOL    HW210617   0.822   6.411   5.449
 3240SOL     OW10618   0.618   2.315   4.812
 3240SOL    HW110619   0.578   2.331   4.722
 3240SOL    HW210620   0.547   2.317   4.881
 3241SOL     OW10621   4.129   6.805   4.966
 3241SOL    HW110622   4.142   6.901   4.939
 3241SOL    HW210623   4.218   6.761   4.979
 3242SOL     OW10624   3.217   0.002   0.679
 3242SOL    HW110625   3.223   0.055   0.594
 3242SOL    HW210626   3.303   0.010   0.730
 3243SOL     OW10627   3.340   5.054   1.132
 3243SOL    HW110628   3.336   4.977   1.068
 3243SOL    HW210629   3.263   5.116   1.114
 3244SOL     OW10630   0.932   6.344   5.700
 3244SOL    HW110631   0.890   6.290   5.626
 3244SOL    HW210632   1.002   6.289   5.745
 3245SOL     OW10633   3.200   2.040   5.824
 3245SOL    HW110634   3.280   2.083   5.865
 3245SOL    HW210635   3.118   2.093   5.846
 3246SOL     OW10636   5.444   6.106   3.451
 3246SOL    HW110637   5.425   6.152   3.538
 3246SOL    HW210638   5.382   6.141   3.381
 3247SOL     OW10639   6.609   2.932   5.651
 3247SOL    HW110640   6.607   2.881   5.737
 3247SOL    HW210641   6.515   2.945   5.618
 3248SOL     OW10642   4.858   3.819   2.921
 3248SOL    HW110643   4.877   3.830   2.823
 3248SOL    HW210644   4.838   3.909   2.961
 3249SOL     OW10645   3.330   4.707   5.816
 3249SOL    HW110646   3.424   4.681   5.797
 3249SOL    HW210647   3.289   4.641   5.879
 3250SOL     OW10648   4.703   5.015   1.214
 3250SOL    HW110649   4.640   5.061   1.278
 3250SOL    HW210650   4.732   4.928   1.253
 3251SOL     OW10651   3.595   0.719   3.840
 3251SOL    HW110652   3.495   0.716   3.843
 3251SOL    HW210653   3.624   0.783   3.769
 3252SOL     OW10654   3.650   1.843   3.658
 3252SOL    HW110655   3.608   1.917   3.710
 3252SOL    HW210656   3.613   1.843   3.565
 3253SOL     OW10657   4.926   4.305   1.348
 3253SOL    HW110658   4.961   4.286   1.440
 3253SOL    HW210659   4.860   4.235   1.323
 3254SOL     OW10660   6.514   4.080   2.652
 3254SOL    HW110661   6.530   4.164   2.600
 3254SOL    HW210662   6.429   4.089   2.704
 3255SOL     OW10663   3.629   5.149   0.753
 3255SOL    HW110664   3.549   5.112   0.705
 3255SOL    HW210665   3.650   5.240   0.718
 3256SOL     OW10666   6.638   6.420   5.399
 3256SOL    HW110667   6.560   6.360   5.415
 3256SOL    HW210668   6.660   6.420   5.301
 3257SOL     OW10669   2.780   1.491   1.388
 3257SOL    HW110670   2.837   1.547   1.328
 3257SOL    HW210671   2.718   1.550   1.439
 3258SOL     OW10672   4.790   6.256   1.121
 3258SOL    HW110673   4.885   6.247   1.094
 3258SOL    HW210674   4.774   6.204   1.205
 3259SOL     OW10675   5.905   5.909   3.433
 3259SOL    HW110676   5.918   5.820   3.476
 3259SOL    HW210677   5.817   5.911   3.386
 3260SOL     OW10678   2.302   1.720   1.489
 3260SOL    HW110679   2.297   1.809   1.534
 3260SOL    HW210680   2.221   1.706   1.433
 3261SOL     OW10681   4.735   6.565   3.776
 3261SOL    HW110682   4.670   6.492   3.754
 3261SOL    HW210683   4.803   6.572   3.703
 3262SOL     OW10684   4.155   1.944   4.293
 3262SOL    HW110685   4.090   1.882   4.251
 3262SOL    HW210686   4.145   1.941   4.392
 3263SOL     OW10687   3.118   4.836   3.181
 3263SOL    HW110688   3.066   4.796   3.257
 3263SOL    HW210689   3.195   4.889   3.218
 3264SOL     OW10690   5.665   4.900   6.209
 3264SOL    HW110691   5.591   4.837   6.232
 3264SOL    HW210692   5.753   4.857   6.229
 3265SOL     OW10693   5.566   0.148   5.800
 3265SOL    HW110694   5.522   0.216   5.858
 3265SOL    HW210695   5.500   0.114   5.733
 3266SOL     OW10696   1.433   2.764   6.370
 3266SOL    HW110697   1.474   2.673   6.362
 3266SOL    HW210698   1.505   2.831   6.390
 3267SOL     OW10699   5.163   2.939   1.872
 3267SOL    HW110700   5.179   2.870   1.942
 3267SOL    HW210701   5.084   2.912   1.817
 3268SOL     OW10702   1.582   5.137   6.489
 3268SOL    HW110703   1.620   5.226   6.514
 3268SOL    HW210704   1.496   5.122   6.538
 3269SOL     OW10705   4.543   3.321   0.985
 3269SOL    HW110706   4.481   3.251   0.950
 3269SOL    HW210707   4.606   3.279   1.051
 3270SOL     OW10708   6.543   5.151   3.526
 3270SOL    HW110709   6.581   5.111   3.609
 3270SOL    HW210710   6.447   5.124   3.518
 3271SOL     OW10711   4.653   0.063   1.259
 3271SOL    HW110712   4.627   0.013   1.176
 3271SOL    HW210713   4.746   0.097   1.250
 3272SOL     OW10714   5.019   6.190   6.831
 3272SOL    HW110715   4.954   6.132   6.783
 3272SOL    HW210716   5.083   6.230   6.764
 3273SOL     OW10717   1.217   0.858   3.174
 3273SOL    HW110718   1.171   0.877   3.088
 3273SOL    HW210719   1.233   0.944   3.222
 3274SOL     OW10720   2.666   1.525   6.819
 3274SOL    HW110721   2.585   1.580   6.841
 3274SOL    HW210722   2.645   1.465   6.742
 3275SOL     OW10723   4.637   0.562   6.914
 3275SOL    HW110724   4.571   0.585   6.843
 3275SOL    HW210725   4.681   0.475   6.893
 3276SOL     OW10726   2.000   6.260   6.704
 3276SOL    HW110727   1.951   6.241   6.789
 3276SOL    HW210728   2.096   6.279   6.724
 3277SOL     OW10729   0.000   5.995   6.854
 3277SOL    HW110730   6.942   6.014   6.802
 3277SOL    HW210731   7.004   5.994   6.951
 3278SOL     OW10732   0.801   0.756   6.978
 3278SOL    HW110733   0.745   0.839   6.983
 3278SOL    HW210734   0.886   0.770   0.003
 3279SOL     OW10735   2.159   6.723   1.158
 3279SOL    HW110736   2.153   6.656   1.084
 3279SOL    HW210737   2.207   6.804   1.125
 3280SOL     OW10738   2.738   6.174   4.001
 3280SOL    HW110739   2.751   6.239   4.076
 3280SOL    HW210740   2.676   6.102   4.031
 3281SOL     OW10741   1.803   6.813   0.454
 3281SOL    HW110742   1.735   6.885   0.440
 3281SOL    HW210743   1.894   6.850   0.437
 3282SOL     OW10744   2.081   5.056   2.460
 3282SOL    HW110745   2.039   4.981   2.510
 3282SOL    HW210746   2.012   5.124   2.437
 3283SOL     OW10747   2.275   6.858   3.341
 3283SOL    HW110748   2.204   6.896   3.282
 3283SOL    HW210749   2.365   6.883   3.304
 3284SOL     OW10750   1.385   5.024   5.568
 3284SOL    HW110751   1.463   5.078   5.536
 3284SOL    HW210752   1.300   5.071   5.545
 3285SOL     OW10753   0.295   2.908   4.103
 3285SOL    HW110754   0.239   2.988   4.078
 3285SOL    HW210755   0.266   2.876   4.193
 3286SOL     OW10756   4.544   4.289   6.351
 3286SOL    HW110757   4.511   4.294   6.445
 3286SOL    HW210758   4.475   4.326   6.289
 3287SOL     OW10759   6.945   3.207   1.765
 3287SOL    HW110760   6.990   3.296   1.765
 3287SOL    HW210761   6.861   3.212   1.821
 3288SOL     OW10762   0.855   7.008   6.793
 3288SOL    HW110763   0.833   0.041   6.871
 3288SOL    HW210764   0.949   6.973   6.803
 3289SOL     OW10765   1.211   6.596   4.117
 3289SOL    HW110766   1.296   6.571   4.071
 3289SOL    HW210767   1.201   6.542   4.200
 3290SOL     OW10768   0.131   4.772   3.664
 3290SOL    HW110769   0.080   4.802   3.584
 3290SOL    HW210770   0.213   4.721   3.635
 3291SOL     OW10771   1.946   1.473   2.162
 3291SOL    HW110772   1.949   1.410   2.239
 3291SOL    HW210773   2.011   1.548   2.178
 3292SOL     OW10774   0.511   5.988   4.718
 3292SOL    HW110775   0.456   5.925   4.772
 3292SOL    HW210776   0.553   6.056   4.779
 3293SOL     OW10777   5.966   0.664   3.184
 3293SOL    HW110778   5.943   0.589   3.246
 3293SOL    HW210779   5.993   0.626   3.095
 3294SOL     OW10780   0.053   6.889   0.876
 3294SOL    HW110781   0.111   6.860   0.952
 3294SOL    HW210782   6.982   6.870   0.897
 3295SOL     OW10783   1.858   3.006   6.090
 3295SOL    HW110784   1.951   2.969   6.096
 3295SOL    HW210785   1.827   3.002   5.995
 3296SOL     OW10786   0.978   6.500   2.386
 3296SOL    HW110787   0.983   6.403   2.362
 3296SOL    HW210788   1.058   6.548   2.349
 3297SOL     OW10789   3.519   1.310   5.763
 3297SOL    HW110790   3.525   1.392   5.707
 3297SOL    HW210791   3.471   1.331   5.848
 3298SOL     OW10792   0.338   4.597   2.653
 3298SOL    HW110793   0.316   4.582   2.750
 3298SOL    HW210794   0.257   4.579   2.598
 3299SOL     OW10795   0.710   1.343   4.416
 3299SOL    HW110796   0.642   1.348   4.343
 3299SOL    HW210797   0.799   1.320   4.377
 3300SOL     OW10798   6.979   0.093   5.115
 3300SOL    HW110799   0.044   0.069   5.079
 3300SOL    HW210800   6.929   0.010   5.138
 3301SOL     OW10801   6.725   3.694   2.622
 3301SOL    HW110802   6.786   3.770   2.646
 3301SOL    HW210803   6.738   3.670   2.526
 3302SOL     OW10804   0.802   6.090   5.316
 3302SOL    HW110805   0.779   6.130   5.227
 3302SOL    HW210806   0.815   6.163   5.383
 3303SOL     OW10807   2.900   3.474   3.908
 3303SOL    HW110808   2.931   3.508   3.820
 3303SOL    HW210809   2.823   3.412   3.895
 3304SOL     OW10810   1.545   0.441   3.461
 3304SOL    HW110811   1.490   0.485   3.389
 3304SOL    HW210812   1.610   0.507   3.498
 3305SOL     OW10813   1.021   3.054   0.505
 3305SOL    HW110814   0.934   3.011   0.528
 3305SOL    HW210815   1.006   3.127   0.438
 3306SOL     OW10816   1.353   2.632   1.834
 3306SOL    HW110817   1.394   2.541   1.826
 3306SOL    HW210818   1.414   2.692   1.885
 3307SOL     OW10819   0.722   0.169   6.966
 3307SOL    HW110820   0.678   0.131   0.022
 3307SOL    HW210821   0.658   0.227   6.917
 3308SOL     OW10822   4.743   5.987   1.188
 3308SOL    HW110823   4.700   5.947   1.107
 3308SOL    HW210824   4.764   5.915   1.254
 3309SOL     OW10825   1.570   4.823   1.838
 3309SOL    HW110826   1.545   4.920   1.848
 3309SOL    HW210827   1.668   4.813   1.852
 3310SOL     OW10828   1.545   6.918   2.225
 3310SOL    HW110829   1.525   6.954   2.134
 3310SOL    HW210830   1.583   6.991   2.282
 3311SOL     OW10831   4.086   5.488   0.712
 3311SOL    HW110832   4.184   5.482   0.731
 3311SOL    HW210833   4.072   5.536   0.625
 3312SOL     OW10834   1.371   2.863   6.095
 3312SOL    HW110835   1.308   2.792   6.063
 3312SOL    HW210836   1.403   2.840   6.186
 3313SOL     OW10837   5.934   6.728   4.498
 3313SOL    HW110838   5.941   6.712   4.399
 3313SOL    HW210839   5.988   6.807   4.523
 3314SOL     OW10840   0.589   4.353   6.696
 3314SOL    HW110841   0.578   4.427   6.630
 3314SOL    HW210842   0.684   4.323   6.697
 3315SOL     OW10843   6.716   2.850   3.768
 3315SOL    HW110844   6.669   2.839   3.855
 3315SOL    HW210845   6.767   2.767   3.746
 3316SOL     OW10846   4.323   0.939   6.910
 3316SOL    HW110847   4.398   0.910   6.970
 3316SOL    HW210848   4.271   1.012   6.955
 3317SOL     OW10849   4.129   2.442   1.362
 3317SOL    HW110850   4.202   2.397   1.311
 3317SOL    HW210851   4.094   2.519   1.310
 3318SOL     OW10852   2.574   5.307   5.886
 3318SOL    HW110853   2.511   5.231   5.869
 3318SOL    HW210854   2.647   5.306   5.817
 3319SOL     OW10855   6.968   6.331   6.460
 3319SOL    HW110856   6.967   6.391   6.380
 3319SOL    HW210857   7.006   6.242   6.434
 3320SOL     OW10858   0.923   0.767   1.031
 3320SOL    HW110859   0.911   0.863   1.004
 3320SOL    HW210860   0.848   0.712   0.994
 3321SOL     OW10861   3.691   3.675   4.465
 3321SOL    HW110862   3.762   3.610   4.439
 3321SOL    HW210863   3.725   3.734   4.539
 3322SOL     OW10864   4.749   2.255   2.395
 3322SOL    HW110865   4.773   2.312   2.317
 3322SOL    HW210866   4.698   2.310   2.462
 3323SOL     OW10867   1.911   4.760   0.416
 3323SOL    HW110868   1.828   4.712   0.443
 3323SOL    HW210869   1.985   4.738   0.481
 3324SOL     OW10870   6.345   3.198   1.753
 3324SOL    HW110871   6.301   3.256   1.822
 3324SOL    HW210872   6.281   3.182   1.678
 3325SOL     OW10873   0.884   4.952   5.655
 3325SOL    HW110874   0.916   4.898   5.734
 3325SOL    HW210875   0.798   4.913   5.622
 3326SOL     OW10876   5.607   0.454   2.324
 3326SOL    HW110877   5.540   0.399   2.373
 3326SOL    HW210878   5.561   0.532   2.282
 3327SOL     OW10879   4.899   6.021   1.861
 3327SOL    HW110880   4.945   6.009   1.949
 3327SOL    HW210881   4.894   6.119   1.840
 3328SOL     OW10882   5.933   6.688   4.233
 3328SOL    HW110883   5.841   6.691   4.193
 3328SOL    HW210884   5.992   6.753   4.186
 3329SOL     OW10885   5.724   0.718   5.985
 3329SOL    HW110886   5.781   0.778   5.930
 3329SOL    HW210887   5.692   0.768   6.066
 3330SOL     OW10888   6.516   6.757   2.716
 3330SOL    HW110889   6.580   6.733   2.789
 3330SOL    HW210890   6.530   6.696   2.639
 3331SOL     OW10891   1.401   3.927   2.663
 3331SOL    HW110892   1.491   3.969   2.653
 3331SOL    HW210893   1.332   3.998   2.675
 3332SOL     OW10894   4.069   5.126   0.315
 3332SOL    HW110895   4.057   5.079   0.228
 3332SOL    HW210896   4.117   5.067   0.380
 3333SOL     OW10897   1.649   3.872   0.995
 3333SOL    HW110898   1.653   3.810   0.917
 3333SOL    HW210899   1.694   3.958   0.972
 3334SOL     OW10900   1.413   2.200   2.288
 3334SOL    HW110901   1.313   2.195   2.288
 3334SOL    HW210902   1.451   2.120   2.241
 3335SOL     OW10903   3.830   4.202   5.820
 3335SOL    HW110904   3.861   4.259   5.744
 3335SOL    HW210905   3.906   4.146   5.853
 3336SOL     OW10906   3.815   5.868   5.807
 3336SOL    HW110907   3.857   5.866   5.897
 3336SOL    HW210908   3.774   5.958   5.791
 3337SOL     OW10909   3.176   3.144   3.546
 3337SOL    HW110910   3.143   3.100   3.630
 3337SOL    HW210911   3.105   3.203   3.509
 3338SOL     OW10912   2.734   3.327   1.565
 3338SOL    HW110913   2.804   3.366   1.504
 3338SOL    HW210914   2.689   3.401   1.615
 3339SOL     OW10915   1.016   6.696   6.665
 3339SOL    HW110916   1.038   6.653   6.578
 3339SOL    HW210917   0.984   6.627   6.729
 3340SOL     OW10918   4.853   1.193   5.941
 3340SOL    HW110919   4.945   1.230   5.936
 3340SOL    HW210920   4.788   1.261   5.909
 3341SOL     OW10921   1.592   4.485   1.287
 3341SOL    HW110922   1.618   4.408   1.345
 3341SOL    HW210923   1.520   4.458   1.224
 3342SOL     OW10924   5.812   6.988   1.667
 3342SOL    HW110925   5.713   7.003   1.662
 3342SOL    HW210926   5.830   6.892   1.685
 3343SOL     OW10927   3.303   5.578   0.836
 3343SOL    HW110928   3.381   5.589   0.898
 3343SOL    HW210929   3.267   5.668   0.810
 3344SOL     OW10930   1.275   3.446   1.591
 3344SOL    HW110931   1.293   3.537   1.629
 3344SOL    HW210932   1.338   3.429   1.516
 3345SOL     OW10933   5.249   5.115   1.026
 3345SOL    HW110934   5.333   5.103   1.078
 3345SOL    HW210935   5.221   5.028   0.986
 3346SOL     OW10936   1.265   0.762   6.925
 3346SOL    HW110937   1.246   0.707   7.006
 3346SOL    HW210938   1.182   0.811   6.898
 3347SOL     OW10939   0.998   4.231   5.854
 3347SOL    HW110940   1.082   4.249   5.904
 3347SOL    HW210941   1.019   4.186   5.767
 3348SOL     OW10942   3.534   4.222   5.836
 3348SOL    HW110943   3.630   4.200   5.821
 3348SOL    HW210944   3.509   4.204   5.931
 3349SOL     OW10945   1.717   5.726   1.698
 3349SOL    HW110946   1.733   5.739   1.600
 3349SOL    HW210947   1.628   5.765   1.723
 3350SOL     OW10948   2.645   5.248   5.206
 3350SOL    HW110949   2.618   5.211   5.295
 3350SOL    HW210950   2.649   5.175   5.139
 3351SOL     OW10951   5.216   6.707   1.424
 3351SOL    HW110952   5.174   6.784   1.375
 3351SOL    HW210953   5.306   6.735   1.458
 3352SOL     OW10954   5.166   1.400   6.771
 3352SOL    HW110955   5.203   1.437   6.686
 3352SOL    HW210956   5.231   1.417   6.846
 3353SOL     OW10957   4.008   0.700   6.656
 3353SOL    HW110958   4.095   0.742   6.682
 3353SOL    HW210959   3.935   0.769   6.662
 3354SOL     OW10960   2.324   2.751   0.269
 3354SOL    HW110961   2.318   2.656   0.238
 3354SOL    HW210962   2.275   2.810   0.204
 3355SOL     OW10963   1.187   1.112   5.019
 3355SOL    HW110964   1.209   1.093   4.924
 3355SOL    HW210965   1.229   1.044   5.078
 3356SOL     OW10966   3.260   1.151   6.066
 3356SOL    HW110967   3.192   1.088   6.029
 3356SOL    HW210968   3.227   1.245   6.056
 3357SOL     OW10969   2.945   3.722   3.310
 3357SOL    HW110970   2.849   3.749   3.300
 3357SOL    HW210971   2.976   3.744   3.402
 3358SOL     OW10972   6.975   1.916   1.327
 3358SOL    HW110973   0.003   1.843   1.285
 3358SOL    HW210974   7.025   1.952   1.406
 3359SOL     OW10975   1.145   0.180   4.104
 3359SOL    HW110976   1.110   0.130   4.025
 3359SOL    HW210977   1.210   0.250   4.073
 3360SOL     OW10978   1.442   5.454   4.977
 3360SOL    HW110979   1.434   5.387   4.904
 3360SOL    HW210980   1.493   5.414   5.053
 3361SOL     OW10981   7.012   6.947   4.223
 3361SOL    HW110982   6.931   6.922   4.275
 3361SOL    HW210983   6.988   7.013   4.152
 3362SOL     OW10984   3.942   0.483   4.333
 3362SOL    HW110985   4.019   0.532   4.290
 3362SOL    HW210986   3.879   0.549   4.374
 3363SOL     OW10987   4.971   3.515   0.380
 3363SOL    HW110988   5.057   3.490   0.424
 3363SOL    HW210989   4.898   3.514   0.448
 3364SOL     OW10990   1.662   3.688   1.561
 3364SOL    HW110991   1.680   3.606   1.507
 3364SOL    HW210992   1.695   3.675   1.654
 3365SOL     OW10993   1.140   2.614   2.940
 3365SOL    HW110994   1.223   2.560   2.930
 3365SOL    HW210995   1.149   2.700   2.890
 3366SOL     OW10996   5.915   2.718   4.114
 3366SOL    HW110997   5.940   2.813   4.133
 3366SOL    HW210998   5.992   2.672   4.068
 3367SOL     OW10999   3.415   2.998   3.738
 3367SOL    HW111000   3.423   2.921   3.674
 3367SOL    HW211001   3.330   3.047   3.719
 3368SOL     OW11002   2.334   1.064   3.651
 3368SOL    HW111003   2.400   1.100   3.585
 3368SOL    HW211004   2.242   1.090   3.623
 3369SOL     OW11005   4.795   2.608   1.197
 3369SOL    HW111006   4.885   2.591   1.237
 3369SOL    HW211007   4.805   2.628   1.099
 3370SOL     OW11008   0.878   5.809   2.817
 3370SOL    HW111009   0.919   5.887   2.865
 3370SOL    HW211010   0.779   5.808   2.835
 3371SOL     OW11011   2.417   2.709   1.207
 3371SOL    HW111012   2.366   2.770   1.147
 3371SOL    HW211013   2.500   2.677   1.160
 3372SOL     OW11014   5.676   2.566   3.421
 3372SOL    HW111015   5.615   2.643   3.408
 3372SOL    HW211016   5.623   2.481   3.423
 3373SOL     OW11017   6.927   4.516   0.545
 3373SOL    HW111018   7.008   4.570   0.566
 3373SOL    HW211019   6.846   4.575   0.544
 3374SOL     OW11020   1.151   5.546   4.095
 3374SOL    HW111021   1.126   5.642   4.111
 3374SOL    HW211022   1.161   5.531   3.997
 3375SOL     OW11023   0.162   6.086   5.670
 3375SOL    HW111024   0.078   6.137   5.649
 3375SOL    HW211025   0.237   6.149   5.687
 3376SOL     OW11026   3.310   3.995   4.995
 3376SOL    HW111027   3.316   4.079   5.048
 3376SOL    HW211028   3.230   3.999   4.936
 3377SOL     OW11029   0.017   5.696   4.053
 3377SOL    HW111030   0.002   5.604   4.016
 3377SOL    HW211031   0.051   5.756   3.981
 3378SOL     OW11032   1.388   5.750   0.074
 3378SOL    HW111033   1.384   5.654   0.102
 3378SOL    HW211034   1.297   5.790   0.079
 3379SOL     OW11035   5.843   4.155   3.976
 3379SOL    HW111036   5.784   4.176   3.898
 3379SOL    HW211037   5.915   4.224   3.983
 3380SOL     OW11038   1.892   5.396   1.948
 3380SOL    HW111039   1.898   5.491   1.917
 3380SOL    HW211040   1.958   5.382   2.022
 3381SOL     OW11041   2.902   4.026   6.624
 3381SOL    HW111042   2.904   3.956   6.553
 3381SOL    HW211043   2.821   4.084   6.612
 3382SOL     OW11044   0.200   3.924   6.716
 3382SOL    HW111045   0.201   4.018   6.681
 3382SOL    HW211046   0.157   3.922   6.806
 3383SOL     OW11047   2.919   6.002   0.712
 3383SOL    HW111048   2.976   6.083   0.724
 3383SOL    HW211049   2.833   6.014   0.760
 3384SOL     OW11050   2.714   2.924   6.498
 3384SOL    HW111051   2.749   2.844   6.448
 3384SOL    HW211052   2.752   2.925   6.590
 3385SOL     OW11053   5.585   2.851   4.837
 3385SOL    HW111054   5.569   2.804   4.924
 3385SOL    HW211055   5.562   2.948   4.847
 3386SOL     OW11056   0.149   5.402   5.051
 3386SOL    HW111057   0.188   5.377   4.962
 3386SOL    HW211058   0.088   5.330   5.082
 3387SOL     OW11059   6.219   0.234   2.485
 3387SOL    HW111060   6.277   0.308   2.451
 3387SOL    HW211061   6.125   0.248   2.453
 3388SOL     OW11062   0.682   4.003   0.264
 3388SOL    HW111063   0.603   4.064   0.261
 3388SOL    HW211064   0.662   3.920   0.213
 3389SOL     OW11065   6.455   5.088   5.858
 3389SOL    HW111066   6.411   5.147   5.789
 3389SOL    HW211067   6.454   5.134   5.947
 3390SOL     OW11068   2.964   5.501   0.623
 3390SOL    HW111069   3.034   5.445   0.667
 3390SOL    HW211070   3.004   5.551   0.546
 3391SOL     OW11071   5.562   4.128   5.585
 3391SOL    HW111072   5.575   4.184   5.504
 3391SOL    HW211073   5.528   4.037   5.558
 3392SOL     OW11074   5.211   6.299   5.643
 3392SOL    HW111075   5.165   6.239   5.708
 3392SOL    HW211076   5.219   6.253   5.555
 3393SOL     OW11077   3.732   0.176   0.783
 3393SOL    HW111078   3.783   0.094   0.810
 3393SOL    HW211079   3.687   0.215   0.863
 3394SOL     OW11080   2.738   5.844   1.596
 3394SOL    HW111081   2.688   5.897   1.664
 3394SOL    HW211082   2.732   5.747   1.616
 3395SOL     OW11083   1.975   6.543   3.285
 3395SOL    HW111084   1.981   6.547   3.185
 3395SOL    HW211085   2.062   6.572   3.325
 3396SOL     OW11086   4.496   0.642   4.471
 3396SOL    HW111087   4.479   0.648   4.373
 3396SOL    HW211088   4.527   0.549   4.494
 3397SOL     OW11089   2.183   6.524   0.957
 3397SOL    HW111090   2.096   6.477   0.943
 3397SOL    HW211091   2.219   6.556   0.869
 3398SOL     OW11092   6.598   1.218   6.584
 3398SOL    HW111093   6.647   1.191   6.666
 3398SOL    HW211094   6.602   1.318   6.574
 3399SOL     OW11095   0.502   5.779   2.171
 3399SOL    HW111096   0.410   5.779   2.132
 3399SOL    HW211097   0.500   5.822   2.261
 3400SOL     OW11098   3.601   3.154   5.854
 3400SOL    HW111099   3.574   3.149   5.758
 3400SOL    HW211100   3.536   3.212   5.903
 3401SOL     OW11101   6.705   3.310   4.131
 3401SOL    HW111102   6.676   3.232   4.075
 3401SOL    HW211103   6.767   3.368   4.079
 3402SOL     OW11104   5.680   3.395   0.114
 3402SOL    HW111105   5.705   3.465   0.047
 3402SOL    HW211106   5.656   3.310   0.066
 3403SOL     OW11107   5.476   6.667   4.538
 3403SOL    HW111108   5.563   6.617   4.539
 3403SOL    HW211109   5.479   6.742   4.604
 3404SOL     OW11110   5.402   5.137   3.204
 3404SOL    HW111111   5.461   5.059   3.185
 3404SOL    HW211112   5.342   5.153   3.125
 3405SOL     OW11113   4.401   5.869   1.364
 3405SOL    HW111114   4.459   5.945   1.333
 3405SOL    HW211115   4.306   5.890   1.343
 3406SOL     OW11116   4.270   5.101   1.297
 3406SOL    HW111117   4.180   5.138   1.272
 3406SOL    HW211118   4.268   5.001   1.291
 3407SOL     OW11119   1.591   2.918   0.411
 3407SOL    HW111120   1.551   2.833   0.379
 3407SOL    HW211121   1.689   2.905   0.429
 3408SOL     OW11122   3.826   6.486   3.927
 3408SOL    HW111123   3.798   6.396   3.960
 3408SOL    HW211124   3.753   6.526   3.872
 3409SOL     OW11125   4.493   1.787   6.887
 3409SOL    HW111126   4.467   1.789   6.983
 3409SOL    HW211127   4.592   1.799   6.879
 3410SOL     OW11128   6.800   0.670   2.175
 3410SOL    HW111129   6.827   0.582   2.137
 3410SOL    HW211130   6.839   0.744   2.119
 3411SOL     OW11131   5.943   3.552   6.140
 3411SOL    HW111132   5.982   3.528   6.229
 3411SOL    HW211133   5.897   3.473   6.100
 3412SOL     OW11134   5.140   3.042   3.609
 3412SOL    HW111135   5.043   3.039   3.587
 3412SOL    HW211136   5.190   3.088   3.535
 3413SOL     OW11137   0.337   2.666   1.299
 3413SOL    HW111138   0.264   2.716   1.252
 3413SOL    HW211139   0.413   2.651   1.235
 3414SOL     OW11140   3.910   3.105   1.991
 3414SOL    HW111141   3.930   3.130   1.897
 3414SOL    HW211142   3.812   3.106   2.006
 3415SOL     OW11143   2.648   1.014   6.251
 3415SOL    HW111144   2.639   1.113   6.257
 3415SOL    HW211145   2.682   0.979   6.338
 3416SOL     OW11146   5.286   6.451   5.930
 3416SOL    HW111147   5.336   6.516   5.873
 3416SOL    HW211148   5.297   6.359   5.893
 3417SOL     OW11149   5.783   0.611   2.494
 3417SOL    HW111150   5.707   0.587   2.434
 3417SOL    HW211151   5.838   0.682   2.450
 3418SOL     OW11152   3.895   5.906   0.757
 3418SOL    HW111153   3.871   5.877   0.850
 3418SOL    HW211154   3.864   5.836   0.692
 3419SOL     OW11155   3.084   4.634   5.315
 3419SOL    HW111156   3.028   4.600   5.240
 3419SOL    HW211157   3.132   4.558   5.358
 3420SOL     OW11158   4.221   0.824   1.514
 3420SOL    HW111159   4.318   0.848   1.520
 3420SOL    HW211160   4.213   0.727   1.490
 3421SOL     OW11161   0.257   1.250   4.398
 3421SOL    HW111162   0.305   1.166   4.371
 3421SOL    HW211163   0.307   1.295   4.472
 3422SOL     OW11164   3.444   5.516   1.906
 3422SOL    HW111165   3.347   5.537   1.919
 3422SOL    HW211166   3.473   5.445   1.970
 3423SOL     OW11167   2.638   4.839   6.201
 3423SOL    HW111168   2.660   4.799   6.290
 3423SOL    HW211169   2.715   4.827   6.139
 3424SOL     OW11170   5.321   6.939   2.403
 3424SOL    HW111171   5.331   6.933   2.303
 3424SOL    HW211172   5.229   6.968   2.426
 3425SOL     OW11173   5.475   3.305   6.436
 3425SOL    HW111174   5.570   3.315   6.463
 3425SOL    HW211175   5.416   3.358   6.498
 3426SOL     OW11176   6.763   5.476   6.566
 3426SOL    HW111177   6.771   5.406   6.637
 3426SOL    HW211178   6.727   5.560   6.605
 3427SOL     OW11179   2.023   1.587   6.668
 3427SOL    HW111180   1.931   1.591   6.707
 3427SOL    HW211181   2.019   1.598   6.569
 3428SOL     OW11182   4.697   0.214   4.064
 3428SOL    HW111183   4.753   0.165   4.130
 3428SOL    HW211184   4.752   0.287   4.021
 3429SOL     OW11185   3.987   6.156   0.674
 3429SOL    HW111186   3.892   6.176   0.698
 3429SOL    HW211187   4.000   6.057   0.670
 3430SOL     OW11188   2.916   4.525   6.686
 3430SOL    HW111189   2.974   4.507   6.606
 3430SOL    HW211190   2.849   4.595   6.664
 3431SOL     OW11191   1.093   4.583   2.674
 3431SOL    HW111192   1.063   4.488   2.662
 3431SOL    HW211193   1.134   4.593   2.765
 3432SOL     OW11194   0.360   5.244   6.649
 3432SOL    HW111195   0.290   5.296   6.698
 3432SOL    HW211196   0.385   5.163   6.702
 3433SOL     OW11197   0.694   0.452   0.469
 3433SOL    HW111198   0.609   0.455   0.521
 3433SOL    HW211199   0.766   0.413   0.525
 3434SOL     OW11200   4.439   2.479   2.574
 3434SOL    HW111201   4.519   2.421   2.591
 3434SOL    HW211202   4.428   2.544   2.650
 3435SOL     OW11203   1.938   3.028   1.258
 3435SOL    HW111204   1.931   2.969   1.339
 3435SOL    HW211205   1.896   2.982   1.180
 3436SOL     OW11206   4.212   6.099   5.794
 3436SOL    HW111207   4.162   6.038   5.732
 3436SOL    HW211208   4.156   6.116   5.876
 3437SOL     OW11209   1.445   0.022   0.196
 3437SOL    HW111210   1.540   7.016   0.188
 3437SOL    HW211211   1.437   0.113   0.155
 3438SOL     OW11212   2.014   4.252   0.561
 3438SOL    HW111213   2.055   4.292   0.479
 3438SOL    HW211214   1.967   4.168   0.537
 3439SOL     OW11215   2.559   6.123   1.187
 3439SOL    HW111216   2.575   6.074   1.273
 3439SOL    HW211217   2.610   6.209   1.189
 3440SOL     OW11218   3.816   3.787   5.883
 3440SOL    HW111219   3.731   3.779   5.935
 3440SOL    HW211220   3.857   3.696   5.871
 3441SOL     OW11221   6.809   5.217   4.707
 3441SOL    HW111222   6.751   5.219   4.789
 3441SOL    HW211223   6.829   5.311   4.678
 3442SOL     OW11224   1.122   1.835   0.652
 3442SOL    HW111225   1.089   1.850   0.559
 3442SOL    HW211226   1.044   1.832   0.715
 3443SOL     OW11227   0.148   5.548   2.400
 3443SOL    HW111228   0.073   5.486   2.422
 3443SOL    HW211229   0.173   5.600   2.481
 3444SOL     OW11230   1.221   4.127   6.487
 3444SOL    HW111231   1.255   4.118   6.394
 3444SOL    HW211232   1.158   4.205   6.492
 3445SOL     OW11233   5.807   5.550   4.308
 3445SOL    HW111234   5.708   5.549   4.319
 3445SOL    HW211235   5.833   5.630   4.252
 3446SOL     OW11236   5.089   1.459   0.160
 3446SOL    HW111237   5.029   1.512   0.099
 3446SOL    HW211238   5.042   1.441   0.246
 3447SOL     OW11239   5.375   1.479   5.769
 3447SOL    HW111240   5.305   1.478   5.698
 3447SOL    HW211241   5.424   1.567   5.767
 3448SOL     OW11242   0.648   5.071   5.135
 3448SOL    HW111243   0.646   5.012   5.054
 3448SOL    HW211244   0.729   5.051   5.189
 3449SOL     OW11245   1.457   3.725   4.892
 3449SOL    HW111246   1.547   3.687   4.912
 3449SOL    HW211247   1.392   3.651   4.875
 3450SOL     OW11248   2.529   6.311   2.079
 3450SOL    HW111249   2.529   6.357   1.991
 3450SOL    HW211250   2.439   6.321   2.122
 3451SOL     OW11251   1.741   1.771   0.569
 3451SOL    HW111252   1.670   1.730   0.513
 3451SOL    HW211253   1.699   1.823   0.644
 3452SOL     OW11254   4.510   1.143   5.998
 3452SOL    HW111255   4.519   1.101   6.088
 3452SOL    HW211256   4.496   1.242   6.009
 3453SOL     OW11257   4.324   6.249   5.612
 3453SOL    HW111258   4.298   6.186   5.685
 3453SOL    HW211259   4.358   6.198   5.533
 3454SOL     OW11260   1.073   2.796   3.366
 3454SOL    HW111261   1.118   2.873   3.412
 3454SOL    HW211262   0.993   2.830   3.316
 3455SOL     OW11263   1.308   4.480   6.288
 3455SOL    HW111264   1.340   4.575   6.280
 3455SOL    HW211265   1.237   4.474   6.358
 3456SOL     OW11266   4.348   5.272   3.582
 3456SOL    HW111267   4.442   5.301   3.561
 3456SOL    HW211268   4.303   5.242   3.498
 3457SOL     OW11269   3.935   4.110   7.019
 3457SOL    HW111270   3.936   4.111   0.094
 3457SOL    HW211271   3.937   4.203   6.984
 3458SOL     OW11272   4.496   2.009   0.836
 3458SOL    HW111273   4.438   1.932   0.862
 3458SOL    HW211274   4.523   2.000   0.740
 3459SOL     OW11275   6.876   6.651   2.624
 3459SOL    HW111276   6.921   6.639   2.712
 3459SOL    HW211277   6.871   6.563   2.577
 3460SOL     OW11278   4.163   1.116   5.345
 3460SOL    HW111279   4.141   1.211   5.368
 3460SOL    HW211280   4.172   1.063   5.430
 3461SOL     OW11281   4.744   4.202   3.433
 3461SOL    HW111282   4.725   4.191   3.530
 3461SOL    HW211283   4.764   4.114   3.392
 3462SOL     OW11284   1.281   4.783   6.379
 3462SOL    HW111285   1.193   4.773   6.333
 3462SOL    HW211286   1.267   4.780   6.478
 3463SOL     OW11287   5.710   4.146   0.009
 3463SOL    HW111288   5.733   4.120   6.941
 3463SOL    HW211289   5.611   4.138   0.022
 3464SOL     OW11290   6.935   4.582   3.726
 3464SOL    HW111291   6.991   4.629   3.657
 3464SOL    HW211292   6.990   4.563   3.807
 3465SOL     OW11293   0.891   3.001   1.341
 3465SOL    HW111294   0.826   2.975   1.412
 3465SOL    HW211295   0.913   3.098   1.349
 3466SOL     OW11296   6.132   3.814   3.467
 3466SOL    HW111297   6.072   3.873   3.412
 3466SOL    HW211298   6.199   3.770   3.407
 3467SOL     OW11299   1.576   2.654   5.805
 3467SOL    HW111300   1.596   2.659   5.707
 3467SOL    HW211301   1.552   2.560   5.829
 3468SOL     OW11302   4.619   5.655   1.723
 3468SOL    HW111303   4.620   5.755   1.721
 3468SOL    HW211304   4.628   5.624   1.818
 3469SOL     OW11305   4.939   4.108   0.298
 3469SOL    HW111306   4.976   4.178   0.237
 3469SOL    HW211307   5.007   4.035   0.310
 3470SOL     OW11308   6.445   5.263   0.857
 3470SOL    HW111309   6.520   5.315   0.899
 3470SOL    HW211310   6.365   5.323   0.847
 3471SOL     OW11311   3.968   6.552   4.559
 3471SOL    HW111312   3.896   6.596   4.612
 3471SOL    HW211313   4.040   6.618   4.538
 3472SOL     OW11314   4.145   0.441   5.086
 3472SOL    HW111315   4.058   0.399   5.112
 3472SOL    HW211316   4.206   0.372   5.049
 3473SOL     OW11317   4.417   6.353   3.982
 3473SOL    HW111318   4.501   6.329   3.934
 3473SOL    HW211319   4.348   6.382   3.917
 3474SOL     OW11320   4.260   4.816   0.194
 3474SOL    HW111321   4.249   4.817   0.094
 3474SOL    HW211322   4.201   4.746   0.233
 3475SOL     OW11323   1.116   5.087   5.534
 3475SOL    HW111324   1.065   5.053   5.612
 3475SOL    HW211325   1.054   5.131   5.469
 3476SOL     OW11326   4.055   1.569   3.713
 3476SOL    HW111327   3.955   1.566   3.710
 3476SOL    HW211328   4.086   1.661   3.689
 3477SOL     OW11329   4.784   5.384   2.305
 3477SOL    HW111330   4.713   5.353   2.242
 3477SOL    HW211331   4.792   5.320   2.381
 3478SOL     OW11332   3.487   4.140   0.520
 3478SOL    HW111333   3.394   4.105   0.503
 3478SOL    HW211334   3.542   4.068   0.562
 3479SOL     OW11335   1.729   0.488   0.156
 3479SOL    HW111336   1.746   0.566   0.096
 3479SOL    HW211337   1.766   0.507   0.247
 3480SOL     OW11338   1.287   6.512   4.365
 3480SOL    HW111339   1.353   6.580   4.397
 3480SOL    HW211340   1.325   6.420   4.375
 3481SOL     OW11341   2.387   5.631   0.371
 3481SOL    HW111342   2.399   5.575   0.289
 3481SOL    HW211343   2.324   5.706   0.352
 3482SOL     OW11344   0.070   2.023   1.556
 3482SOL    HW111345   0.063   2.001   1.653
 3482SOL    HW211346   0.082   2.122   1.545
 3483SOL     OW11347   3.803   0.873   1.007
 3483SOL    HW111348   3.737   0.847   1.078
 3483SOL    HW211349   3.760   0.865   0.917
 3484SOL     OW11350   3.847   4.032   2.951
 3484SOL    HW111351   3.916   3.978   2.903
 3484SOL    HW211352   3.774   4.058   2.887
 3485SOL     OW11353   6.115   2.194   5.093
 3485SOL    HW111354   6.193   2.160   5.040
 3485SOL    HW211355   6.074   2.119   5.144
 3486SOL     OW11356   5.794   1.044   3.291
 3486SOL    HW111357   5.872   1.090   3.333
 3486SOL    HW211358   5.732   1.113   3.253
 3487SOL     OW11359   1.406   0.056   0.811
 3487SOL    HW111360   1.422   0.013   0.900
 3487SOL    HW211361   1.350   0.138   0.823
 3488SOL     OW11362   6.281   3.887   5.184
 3488SOL    HW111363   6.326   3.835   5.112
 3488SOL    HW211364   6.208   3.943   5.145
 3489SOL     OW11365   3.239   5.447   6.681
 3489SOL    HW111366   3.324   5.496   6.663
 3489SOL    HW211367   3.187   5.438   6.596
 3490SOL     OW11368   4.735   3.820   0.105
 3490SOL    HW111369   4.733   3.891   0.035
 3490SOL    HW211370   4.759   3.861   0.193
 3491SOL     OW11371   5.393   2.857   5.159
 3491SOL    HW111372   5.453   2.935   5.176
 3491SOL    HW211373   5.434   2.798   5.089
 3492SOL     OW11374   6.482   4.396   6.411
 3492SOL    HW111375   6.420   4.328   6.447
 3492SOL    HW211376   6.552   4.352   6.354
 3493SOL     OW11377   6.468   4.368   1.024
 3493SOL    HW111378   6.369   4.358   1.025
 3493SOL    HW211379   6.507   4.317   0.948
 3494SOL     OW11380   3.463   6.502   1.402
 3494SOL    HW111381   3.553   6.471   1.369
 3494SOL    HW211382   3.465   6.601   1.413
 3495SOL     OW11383   6.094   4.592   6.092
 3495SOL    HW111384   6.049   4.542   6.166
 3495SOL    HW211385   6.029   4.653   6.047
 3496SOL     OW11386   0.449   6.092   0.834
 3496SOL    HW111387   0.450   6.181   0.788
 3496SOL    HW211388   0.355   6.058   0.839
 3497SOL     OW11389   3.475   0.406   5.146
 3497SOL    HW111390   3.483   0.477   5.215
 3497SOL    HW211391   3.381   0.371   5.145
 3498SOL     OW11392   0.744   1.804   0.228
 3498SOL    HW111393   0.751   1.902   0.215
 3498SOL    HW211394   0.835   1.762   0.220
 3499SOL     OW11395   6.783   3.904   4.181
 3499SOL    HW111396   6.718   3.861   4.242
 3499SOL    HW211397   6.741   3.983   4.136
 3500SOL     OW11398   5.960   2.754   0.871
 3500SOL    HW111399   6.012   2.801   0.943
 3500SOL    HW211400   6.008   2.762   0.784
 3501SOL     OW11401   0.548   5.354   3.095
 3501SOL    HW111402   0.575   5.402   3.011
 3501SOL    HW211403   0.454   5.320   3.085
 3502SOL     OW11404   1.261   5.731   1.001
 3502SOL    HW111405   1.334   5.723   0.933
 3502SOL    HW211406   1.209   5.645   1.004
 3503SOL     OW11407   3.441   6.962   3.649
 3503SOL    HW111408   3.499   6.895   3.602
 3503SOL    HW211409   3.368   6.992   3.587
 3504SOL     OW11410   2.089   3.369   2.581
 3504SOL    HW111411   2.031   3.436   2.534
 3504SOL    HW211412   2.105   3.399   2.674
 3505SOL     OW11413   4.384   6.406   4.762
 3505SOL    HW111414   4.429   6.455   4.687
 3505SOL    HW211415   4.452   6.349   4.809
 3506SOL     OW11416   6.909   4.545   2.280
 3506SOL    HW111417   6.957   4.470   2.326
 3506SOL    HW211418   6.975   4.613   2.249
 3507SOL     OW11419   6.917   0.172   5.932
 3507SOL    HW111420   6.840   0.126   5.889
 3507SOL    HW211421   6.885   0.255   5.977
 3508SOL     OW11422   6.481   4.508   6.890
 3508SOL    HW111423   6.563   4.544   6.936
 3508SOL    HW211424   6.489   4.524   6.792
 3509SOL     OW11425   5.525   0.047   6.868
 3509SOL    HW111426   5.429   0.027   6.891
 3509SOL    HW211427   5.531   0.080   6.774
 3510SOL     OW11428   2.627   1.157   2.125
 3510SOL    HW111429   2.673   1.081   2.079
 3510SOL    HW211430   2.611   1.133   2.221
 3511SOL     OW11431   0.904   0.996   4.524
 3511SOL    HW111432   0.938   1.089   4.509
 3511SOL    HW211433   0.950   0.933   4.461
 3512SOL     OW11434   4.021   2.998   1.307
 3512SOL    HW111435   4.101   2.969   1.358
 3512SOL    HW211436   3.947   2.933   1.320
 3513SOL     OW11437   6.407   4.281   1.407
 3513SOL    HW111438   6.490   4.303   1.355
 3513SOL    HW211439   6.430   4.213   1.477
 3514SOL     OW11440   2.651   5.974   2.573
 3514SOL    HW111441   2.606   6.023   2.498
 3514SOL    HW211442   2.743   5.946   2.544
 3515SOL     OW11443   3.897   5.645   3.351
 3515SOL    HW111444   3.938   5.679   3.266
 3515SOL    HW211445   3.947   5.564   3.382
 3516SOL     OW11446   1.626   1.088   0.460
 3516SOL    HW111447   1.534   1.128   0.458
 3516SOL    HW211448   1.622   0.999   0.507
 3517SOL     OW11449   0.249   0.669   6.895
 3517SOL    HW111450   0.303   0.747   6.928
 3517SOL    HW211451   0.311   0.603   6.851
 3518SOL     OW11452   4.236   3.288   6.008
 3518SOL    HW111453   4.292   3.337   6.074
 3518SOL    HW211454   4.142   3.280   6.042
 3519SOL     OW11455   3.228   0.237   0.511
 3519SOL    HW111456   3.282   0.318   0.491
 3519SOL    HW211457   3.158   0.225   0.441
 3520SOL     OW11458   3.627   4.883   1.526
 3520SOL    HW111459   3.713   4.931   1.511
 3520SOL    HW211460   3.583   4.865   1.438
 3521SOL     OW11461   6.702   2.059   5.744
 3521SOL    HW111462   6.715   2.019   5.654
 3521SOL    HW211463   6.791   2.075   5.787
 3522SOL     OW11464   2.671   0.567   0.359
 3522SOL    HW111465   2.684   0.667   0.358
 3522SOL    HW211466   2.726   0.528   0.433
 3523SOL     OW11467   2.363   4.580   4.814
 3523SOL    HW111468   2.358   4.507   4.882
 3523SOL    HW211469   2.438   4.642   4.836
 3524SOL     OW11470   2.834   1.724   3.486
 3524SOL    HW111471   2.791   1.636   3.464
 3524SOL    HW211472   2.869   1.721   3.580
 3525SOL     OW11473   1.557   3.103   3.456
 3525SOL    HW111474   1.578   3.025   3.397
 3525SOL    HW211475   1.558   3.187   3.400
 3526SOL     OW11476   3.566   6.328   3.597
 3526SOL    HW111477   3.628   6.406   3.587
 3526SOL    HW211478   3.526   6.328   3.689
 3527SOL     OW11479   5.767   3.605   6.964
 3527SOL    HW111480   5.706   3.668   6.916
 3527SOL    HW211481   5.808   3.541   6.899
 3528SOL     OW11482   1.603   6.908   4.477
 3528SOL    HW111483   1.690   6.957   4.475
 3528SOL    HW211484   1.557   6.917   4.388
 3529SOL     OW11485   3.941   5.883   0.112
 3529SOL    HW111486   3.988   5.954   0.166
 3529SOL    HW211487   3.978   5.793   0.136
 3530SOL     OW11488   1.881   5.973   3.120
 3530SOL    HW111489   1.848   6.013   3.206
 3530SOL    HW211490   1.866   6.039   3.045
 3531SOL     OW11491   4.877   4.706   6.959
 3531SOL    HW111492   4.887   4.802   6.987
 3531SOL    HW211493   4.892   4.699   6.860
 3532SOL     OW11494   2.541   6.604   0.752
 3532SOL    HW111495   2.506   6.656   0.830
 3532SOL    HW211496   2.641   6.610   0.750
 3533SOL     OW11497   1.755   0.726   3.315
 3533SOL    HW111498   1.814   0.713   3.235
 3533SOL    HW211499   1.662   0.696   3.293
 3534SOL     OW11500   5.199   6.831   4.128
 3534SOL    HW111501   5.229   6.798   4.218
 3534SOL    HW211502   5.231   6.925   4.116
 3535SOL     OW11503   4.649   5.835   0.314
 3535SOL    HW111504   4.632   5.933   0.300
 3535SOL    HW211505   4.713   5.822   0.390
 3536SOL     OW11506   1.407   3.363   2.518
 3536SOL    HW111507   1.478   3.364   2.447
 3536SOL    HW211508   1.355   3.278   2.512
 3537SOL     OW11509   3.187   4.989   2.152
 3537SOL    HW111510   3.154   4.915   2.093
 3537SOL    HW211511   3.181   4.961   2.248
 3538SOL     OW11512   4.095   0.592   3.620
 3538SOL    HW111513   4.065   0.623   3.711
 3538SOL    HW211514   4.071   0.496   3.608
 3539SOL     OW11515   4.829   5.507   5.207
 3539SOL    HW111516   4.758   5.490   5.138
 3539SOL    HW211517   4.811   5.451   5.288
 3540SOL     OW11518   4.262   4.501   6.344
 3540SOL    HW111519   4.239   4.409   6.376
 3540SOL    HW211520   4.247   4.508   6.246
 3541SOL     OW11521   0.366   2.907   2.532
 3541SOL    HW111522   0.415   2.859   2.459
 3541SOL    HW211523   0.396   3.002   2.536
 3542SOL     OW11524   5.750   1.820   0.114
 3542SOL    HW111525   5.726   1.904   0.065
 3542SOL    HW211526   5.835   1.834   0.165
 3543SOL     OW11527   6.822   3.069   4.009
 3543SOL    HW111528   6.822   3.084   3.910
 3543SOL    HW211529   6.773   2.985   4.030
 3544SOL     OW11530   3.153   4.646   6.041
 3544SOL    HW111531   3.054   4.641   6.025
 3544SOL    HW211532   3.174   4.731   6.089
 3545SOL     OW11533   3.283   6.652   1.151
 3545SOL    HW111534   3.318   6.665   1.244
 3545SOL    HW211535   3.283   6.740   1.103
 3546SOL     OW11536   6.483   4.651   1.590
 3546SOL    HW111537   6.576   4.672   1.557
 3546SOL    HW211538   6.439   4.588   1.526
 3547SOL     OW11539   1.046   3.600   4.320
 3547SOL    HW111540   1.003   3.690   4.315
 3547SOL    HW211541   1.142   3.607   4.292
 3548SOL     OW11542   6.625   0.503   5.926
 3548SOL    HW111543   6.625   0.449   5.841
 3548SOL    HW211544   6.704   0.477   5.982
 3549SOL     OW11545   2.259   6.827   6.848
 3549SOL    HW111546   2.169   6.817   6.805
 3549SOL    HW211547   2.330   6.795   6.785
 3550SOL     OW11548   5.797   1.763   5.702
 3550SOL    HW111549   5.874   1.825   5.721
 3550SOL    HW211550   5.824   1.697   5.633
 3551SOL     OW11551   5.794   1.434   4.967
 3551SOL    HW111552   5.839   1.515   5.007
 3551SOL    HW211553   5.815   1.354   5.023
 3552SOL     OW11554   0.203   0.555   3.241
 3552SOL    HW111555   0.267   0.481   3.222
 3552SOL    HW211556   0.128   0.552   3.174
 3553SOL     OW11557   5.678   6.052   6.465
 3553SOL    HW111558   5.748   5.987   6.437
 3553SOL    HW211559   5.715   6.145   6.459
 3554SOL     OW11560   5.186   4.481   6.269
 3554SOL    HW111561   5.260   4.464   6.203
 3554SOL    HW211562   5.125   4.402   6.270
 3555SOL     OW11563   2.472   1.400   5.478
 3555SOL    HW111564   2.520   1.455   5.546
 3555SOL    HW211565   2.427   1.460   5.413
 3556SOL     OW11566   5.927   1.449   0.452
 3556SOL    HW111567   5.849   1.438   0.514
 3556SOL    HW211568   5.973   1.535   0.471
 3557SOL     OW11569   4.940   6.107   1.564
 3557SOL    HW111570   4.881   6.116   1.644
 3557SOL    HW211571   4.991   6.021   1.570
 3558SOL     OW11572   4.402   5.498   2.221
 3558SOL    HW111573   4.348   5.540   2.148
 3558SOL    HW211574   4.341   5.471   2.295
 3559SOL     OW11575   4.042   6.378   6.013
 3559SOL    HW111576   3.953   6.383   5.966
 3559SOL    HW211577   4.028   6.384   6.112
 3560SOL     OW11578   2.131   5.860   4.530
 3560SOL    HW111579   2.103   5.818   4.616
 3560SOL    HW211580   2.103   5.802   4.453
 3561SOL     OW11581   3.799   3.171   6.048
 3561SOL    HW111582   3.886   3.135   6.015
 3561SOL    HW211583   3.731   3.167   5.975
 3562SOL     OW11584   3.177   1.248   0.694
 3562SOL    HW111585   3.183   1.267   0.596
 3562SOL    HW211586   3.269   1.242   0.732
 3563SOL     OW11587   0.309   2.226   6.864
 3563SOL    HW111588   0.384   2.186   6.917
 3563SOL    HW211589   0.280   2.312   6.905
 3564SOL     OW11590   6.370   3.717   3.336
 3564SOL    HW111591   6.334   3.695   3.245
 3564SOL    HW211592   6.450   3.777   3.326
 3565SOL     OW11593   4.964   6.639   4.867
 3565SOL    HW111594   4.882   6.588   4.891
 3565SOL    HW211595   4.943   6.737   4.864
 3566SOL     OW11596   0.832   0.955   5.923
 3566SOL    HW111597   0.889   1.026   5.964
 3566SOL    HW211598   0.884   0.870   5.919
 3567SOL     OW11599   0.175   4.784   7.022
 3567SOL    HW111600   0.112   4.810   0.069
 3567SOL    HW211601   0.130   4.721   6.959
 3568SOL     OW11602   3.569   4.149   5.444
 3568SOL    HW111603   3.492   4.092   5.416
 3568SOL    HW211604   3.565   4.237   5.397
 3569SOL     OW11605   1.908   0.645   3.104
 3569SOL    HW111606   1.891   0.675   3.010
 3569SOL    HW211607   2.004   0.620   3.114
 3570SOL     OW11608   6.383   1.479   4.409
 3570SOL    HW111609   6.463   1.513   4.458
 3570SOL    HW211610   6.412   1.421   4.333
 3571SOL     OW11611   6.360   5.427   4.346
 3571SOL    HW111612   6.290   5.493   4.371
 3571SOL    HW211613   6.382   5.434   4.249
 3572SOL     OW11614   5.661   6.771   5.521
 3572SOL    HW111615   5.698   6.831   5.592
 3572SOL    HW211616   5.715   6.781   5.438
 3573SOL     OW11617   0.352   2.257   1.378
 3573SOL    HW111618   0.416   2.206   1.436
 3573SOL    HW211619   0.270   2.279   1.431
 3574SOL     OW11620   6.321   3.471   0.512
 3574SOL    HW111621   6.312   3.570   0.515
 3574SOL    HW211622   6.230   3.429   0.511
 3575SOL     OW11623   6.270   6.957   2.073
 3575SOL    HW111624   6.278   0.016   2.019
 3575SOL    HW211625   6.323   6.884   2.030
 3576SOL     OW11626   0.301   0.939   0.367
 3576SOL    HW111627   0.315   0.907   0.461
 3576SOL    HW211628   0.319   0.864   0.304
 3577SOL     OW11629   2.700   4.952   6.870
 3577SOL    HW111630   2.702   5.051   6.879
 3577SOL    HW211631   2.626   4.926   6.807
 3578SOL     OW11632   3.403   4.449   1.647
 3578SOL    HW111633   3.469   4.494   1.708
 3578SOL    HW211634   3.316   4.498   1.651
 3579SOL     OW11635   1.878   3.828   5.576
 3579SOL    HW111636   1.871   3.729   5.565
 3579SOL    HW211637   1.786   3.868   5.574
 3580SOL     OW11638   5.752   2.184   0.983
 3580SOL    HW111639   5.698   2.226   1.056
 3580SOL    HW211640   5.696   2.119   0.932
 3581SOL     OW11641   6.973   0.816   3.011
 3581SOL    HW111642   6.935   0.900   2.971
 3581SOL    HW211643   6.969   0.822   3.111
 3582SOL     OW11644   0.333   6.978   5.952
 3582SOL    HW111645   0.274   6.899   5.970
 3582SOL    HW211646   0.366   7.015   6.039
 3583SOL     OW11647   0.946   5.995   1.372
 3583SOL    HW111648   0.918   5.931   1.300
 3583SOL    HW211649   0.987   5.944   1.448
 3584SOL     OW11650   5.790   0.698   5.134
 3584SOL    HW111651   5.731   0.765   5.178
 3584SOL    HW211652   5.833   0.640   5.203
 3585SOL     OW11653   2.648   4.582   3.614
 3585SOL    HW111654   2.744   4.604   3.627
 3585SOL    HW211655   2.615   4.528   3.692
 3586SOL     OW11656   1.101   1.236   6.490
 3586SOL    HW111657   1.184   1.239   6.435
 3586SOL    HW211658   1.099   1.151   6.543
 3587SOL     OW11659   3.487   6.557   6.287
 3587SOL    HW111660   3.490   6.479   6.349
 3587SOL    HW211661   3.417   6.621   6.317
 3588SOL     OW11662   2.513   2.225   5.521
 3588SOL    HW111663   2.585   2.228   5.452
 3588SOL    HW211664   2.525   2.300   5.586
 3589SOL     OW11665   3.176   6.335   4.726
 3589SOL    HW111666   3.116   6.373   4.796
 3589SOL    HW211667   3.121   6.286   4.658
 3590SOL     OW11668   1.423   5.468   6.675
 3590SOL    HW111669   1.359   5.405   6.632
 3590SOL    HW211670   1.511   5.423   6.687
 3591SOL     OW11671   5.281   1.235   5.498
 3591SOL    HW111672   5.316   1.232   5.404
 3591SOL    HW211673   5.185   1.208   5.499
 3592SOL     OW11674   5.625   1.948   2.038
 3592SOL    HW111675   5.576   1.962   2.124
 3592SOL    HW211676   5.679   1.864   2.043
 3593SOL     OW11677   1.165   5.408   4.322
 3593SOL    HW111678   1.170   5.447   4.230
 3593SOL    HW211679   1.079   5.434   4.365
 3594SOL     OW11680   4.163   1.349   4.199
 3594SOL    HW111681   4.212   1.262   4.205
 3594SOL    HW211682   4.106   1.350   4.117
 3595SOL     OW11683   2.469   6.517   5.948
 3595SOL    HW111684   2.442   6.427   5.913
 3595SOL    HW211685   2.389   6.577   5.949
 3596SOL     OW11686   0.149   3.607   3.209
 3596SOL    HW111687   0.242   3.588   3.176
 3596SOL    HW211688   0.091   3.528   3.190
 3597SOL     OW11689   3.976   0.150   4.458
 3597SOL    HW111690   3.877   0.160   4.469
 3597SOL    HW211691   4.010   0.079   4.518
 3598SOL     OW11692   1.744   0.200   0.011
 3598SOL    HW111693   1.823   0.192   6.976
 3598SOL    HW211694   1.738   0.293   0.047
 3599SOL     OW11695   0.141   1.709   4.877
 3599SOL    HW111696   0.062   1.652   4.900
 3599SOL    HW211697   0.224   1.667   4.914
 3600SOL     OW11698   6.314   6.757   1.187
 3600SOL    HW111699   6.305   6.787   1.282
 3600SOL    HW211700   6.321   6.658   1.184
 3601SOL     OW11701   6.619   3.804   6.301
 3601SOL    HW111702   6.675   3.884   6.284
 3601SOL    HW211703   6.644   3.764   6.389
 3602SOL     OW11704   3.099   2.174   1.121
 3602SOL    HW111705   3.042   2.187   1.040
 3602SOL    HW211706   3.186   2.131   1.093
 3603SOL     OW11707   3.850   4.936   4.817
 3603SOL    HW111708   3.908   5.017   4.826
 3603SOL    HW211709   3.897   4.867   4.763
 3604SOL     OW11710   6.367   4.026   3.054
 3604SOL    HW111711   6.322   4.028   2.965
 3604SOL    HW211712   6.303   4.057   3.124
 3605SOL     OW11713   6.075   1.804   6.402
 3605SOL    HW111714   6.001   1.739   6.414
 3605SOL    HW211715   6.070   1.844   6.310
 3606SOL     OW11716   1.979   4.076   3.104
 3606SOL    HW111717   2.028   3.993   3.131
 3606SOL    HW211718   2.045   4.147   3.081
 3607SOL     OW11719   4.563   0.217   6.342
 3607SOL    HW111720   4.543   0.263   6.429
 3607SOL    HW211721   4.478   0.206   6.290
 3608SOL     OW11722   0.692   2.986   3.334
 3608SOL    HW111723   0.667   3.021   3.424
 3608SOL    HW211724   0.614   2.995   3.272
 3609SOL     OW11725   0.191   0.540   3.900
 3609SOL    HW111726   0.183   0.461   3.960
 3609SOL    HW211727   0.152   0.518   3.810
 3610SOL     OW11728   1.440   5.311   5.804
 3610SOL    HW111729   1.533   5.299   5.840
 3610SOL    HW211730   1.445   5.353   5.713
 3611SOL     OW11731   4.814   5.532   5.608
 3611SOL    HW111732   4.818   5.454   5.545
 3611SOL    HW211733   4.899   5.584   5.602
 3612SOL     OW11734   2.150   6.000   0.874
 3612SOL    HW111735   2.099   6.084   0.890
 3612SOL    HW211736   2.089   5.929   0.839
 3613SOL     OW11737   5.330   5.266   6.210
 3613SOL    HW111738   5.233   5.250   6.192
 3613SOL    HW211739   5.370   5.187   6.256
 3614SOL     OW11740   3.498   2.872   4.256
 3614SOL    HW111741   3.473   2.884   4.160
 3614SOL    HW211742   3.442   2.800   4.297
 3615SOL     OW11743   5.189   6.821   5.844
 3615SOL    HW111744   5.118   6.801   5.912
 3615SOL    HW211745   5.185   6.753   5.771
 3616SOL     OW11746   6.315   0.758   4.572
 3616SOL    HW111747   6.294   0.854   4.551
 3616SOL    HW211748   6.389   0.754   4.639
 3617SOL     OW11749   0.059   1.058   0.343
 3617SOL    HW111750   0.147   1.012   0.354
 3617SOL    HW211751   0.071   1.142   0.290
 3618SOL     OW11752   3.276   6.243   6.391
 3618SOL    HW111753   3.222   6.241   6.307
 3618SOL    HW211754   3.271   6.335   6.431
 3619SOL     OW11755   5.343   3.570   3.707
 3619SOL    HW111756   5.284   3.500   3.666
 3619SOL    HW211757   5.376   3.632   3.636
 3620SOL     OW11758   6.016   1.631   5.249
 3620SOL    HW111759   5.978   1.646   5.158
 3620SOL    HW211760   6.030   1.533   5.264
 3621SOL     OW11761   1.468   2.668   5.486
 3621SOL    HW111762   1.483   2.763   5.513
 3621SOL    HW211763   1.522   2.647   5.405
 3622SOL     OW11764   0.775   3.828   0.949
 3622SOL    HW111765   0.816   3.820   1.040
 3622SOL    HW211766   0.680   3.856   0.958
 3623SOL     OW11767   6.478   4.870   4.156
 3623SOL    HW111768   6.559   4.820   4.184
 3623SOL    HW211769   6.398   4.833   4.202
 3624SOL     OW11770   2.415   0.657   1.562
 3624SOL    HW111771   2.442   0.750   1.536
 3624SOL    HW211772   2.404   0.601   1.480
 3625SOL     OW11773   1.024   2.741   4.252
 3625SOL    HW111774   1.037   2.705   4.159
 3625SOL    HW211775   1.085   2.819   4.266
 3626SOL     OW11776   2.648   4.036   5.631
 3626SOL    HW111777   2.612   4.102   5.565
 3626SOL    HW211778   2.575   3.975   5.661
 3627SOL     OW11779   3.392   3.261   4.083
 3627SOL    HW111780   3.444   3.315   4.149
 3627SOL    HW211781   3.440   3.175   4.065
 3628SOL     OW11782   2.579   5.933   4.178
 3628SOL    HW111783   2.672   5.908   4.153
 3628SOL    HW211784   2.570   5.932   4.278
 3629SOL     OW11785   5.688   3.528   5.102
 3629SOL    HW111786   5.694   3.461   5.176
 3629SOL    HW211787   5.630   3.604   5.131
 3630SOL     OW11788   5.660   1.040   4.923
 3630SOL    HW111789   5.667   0.971   4.851
 3630SOL    HW211790   5.744   1.040   4.978
 3631SOL     OW11791   2.325   0.956   3.988
 3631SOL    HW111792   2.329   1.042   3.938
 3631SOL    HW211793   2.235   0.947   4.031
 3632SOL     OW11794   4.506   6.742   6.070
 3632SOL    HW111795   4.461   6.659   6.037
 3632SOL    HW211796   4.565   6.720   6.148
 3633SOL     OW11797   1.201   2.613   5.634
 3633SOL    HW111798   1.155   2.701   5.629
 3633SOL    HW211799   1.295   2.622   5.602
 3634SOL     OW11800   3.146   5.112   6.049
 3634SOL    HW111801   3.174   5.208   6.043
 3634SOL    HW211802   3.180   5.062   5.969
 3635SOL     OW11803   2.237   1.758   4.872
 3635SOL    HW111804   2.224   1.662   4.848
 3635SOL    HW211805   2.151   1.797   4.904
 3636SOL     OW11806   1.445   6.385   1.021
 3636SOL    HW111807   1.381   6.439   1.076
 3636SOL    HW211808   1.406   6.295   1.002
 3637SOL     OW11809   4.862   0.944   1.676
 3637SOL    HW111810   4.874   0.854   1.635
 3637SOL    HW211811   4.848   0.935   1.775
 3638SOL     OW11812   6.547   4.609   3.431
 3638SOL    HW111813   6.566   4.658   3.346
 3638SOL    HW211814   6.537   4.512   3.412
 3639SOL     OW11815   2.844   6.596   0.363
 3639SOL    HW111816   2.802   6.584   0.273
 3639SOL    HW211817   2.890   6.684   0.368
 3640SOL     OW11818   2.324   0.067   1.666
 3640SOL    HW111819   2.410   0.100   1.628
 3640SOL    HW211820   2.249   0.086   1.602
 3641SOL     OW11821   2.015   0.517   4.741
 3641SOL    HW111822   1.987   0.449   4.810
 3641SOL    HW211823   2.033   0.470   4.655
 3642SOL     OW11824   6.069   6.641   2.106
 3642SOL    HW111825   5.999   6.713   2.097
 3642SOL    HW211826   6.135   6.649   2.031
 3643SOL     OW11827   3.589   5.955   4.728
 3643SOL    HW111828   3.553   6.005   4.807
 3643SOL    HW211829   3.688   5.967   4.723
 3644SOL     OW11830   6.750   6.960   1.484
 3644SOL    HW111831   6.846   6.935   1.501
 3644SOL    HW211832   6.747   0.016   1.426
 3645SOL     OW11833   4.360   5.833   3.104
 3645SOL    HW111834   4.403   5.843   3.194
 3645SOL    HW211835   4.421   5.783   3.043
 3646SOL     OW11836   0.310   5.053   4.900
 3646SOL    HW111837   0.264   5.140   4.882
 3646SOL    HW211838   0.254   4.998   4.962
 3647SOL     OW11839   2.846   2.812   1.204
 3647SOL    HW111840   2.896   2.754   1.140
 3647SOL    HW211841   2.868   2.908   1.186
 3648SOL     OW11842   3.055   6.824   3.109
 3648SOL    HW111843   3.154   6.836   3.107
 3648SOL    HW211844   3.027   6.796   3.201
 3649SOL     OW11845   3.176   2.964   2.011
 3649SOL    HW111846   3.086   3.000   1.988
 3649SOL    HW211847   3.168   2.898   2.085
 3650SOL     OW11848   5.815   6.987   1.208
 3650SOL    HW111849   5.749   6.953   1.142
 3650SOL    HW211850   5.904   6.998   1.165
 3651SOL     OW11851   1.669   6.325   2.354
 3651SOL    HW111852   1.626   6.317   2.443
 3651SOL    HW211853   1.727   6.406   2.352
 3652SOL     OW11854   4.539   5.344   3.068
 3652SOL    HW111855   4.478   5.265   3.060
 3652SOL    HW211856   4.630   5.320   3.035
 3653SOL     OW11857   6.560   2.743   4.740
 3653SOL    HW111858   6.532   2.768   4.833
 3653SOL    HW211859   6.507   2.664   4.709
 3654SOL     OW11860   1.823   0.117   1.734
 3654SOL    HW111861   1.756   0.102   1.807
 3654SOL    HW211862   1.912   0.137   1.775
 3655SOL     OW11863   6.489   1.282   3.327
 3655SOL    HW111864   6.420   1.291   3.255
 3655SOL    HW211865   6.567   1.342   3.306
 3656SOL     OW11866   2.387   1.732   2.965
 3656SOL    HW111867   2.343   1.728   3.054
 3656SOL    HW211868   2.474   1.782   2.973
 3657SOL     OW11869   4.562   5.291   2.131
 3657SOL    HW111870   4.499   5.364   2.158
 3657SOL    HW211871   4.516   5.203   2.140
 3658SOL     OW11872   2.194   5.379   5.679
 3658SOL    HW111873   2.283   5.356   5.639
 3658SOL    HW211874   2.136   5.298   5.678
 3659SOL     OW11875   1.333   3.714   0.369
 3659SOL    HW111876   1.340   3.627   0.321
 3659SOL    HW211877   1.252   3.713   0.427
 3660SOL     OW11878   4.004   4.794   1.016
 3660SOL    HW111879   3.940   4.848   0.961
 3660SOL    HW211880   4.095   4.835   1.010
 3661SOL     OW11881   5.666   1.928   1.500
 3661SOL    HW111882   5.619   1.843   1.473
 3661SOL    HW211883   5.652   1.997   1.430
 3662SOL     OW11884   1.580   6.101   4.638
 3662SOL    HW111885   1.490   6.133   4.612
 3662SOL    HW211886   1.585   6.091   4.738
 3663SOL     OW11887   1.375   3.506   5.471
 3663SOL    HW111888   1.376   3.501   5.571
 3663SOL    HW211889   1.458   3.465   5.435
 3664SOL     OW11890   4.009   6.748   2.486
 3664SOL    HW111891   4.040   6.791   2.401
 3664SOL    HW211892   4.039   6.653   2.489
 3665SOL     OW11893   1.915   1.261   5.349
 3665SOL    HW111894   1.857   1.205   5.290
 3665SOL    HW211895   1.886   1.357   5.342
 3666SOL     OW11896   0.920   4.538   4.020
 3666SOL    HW111897   0.972   4.592   3.955
 3666SOL    HW211898   0.850   4.485   3.972
 3667SOL     OW11899   0.658   1.620   6.702
 3667SOL    HW111900   0.755   1.612   6.678
 3667SOL    HW211901   0.603   1.596   6.622
 3668SOL     OW11902   2.188   6.741   1.817
 3668SOL    HW111903   2.095   6.712   1.794
 3668SOL    HW211904   2.234   6.776   1.735
 3669SOL     OW11905   5.648   1.629   4.047
 3669SOL    HW111906   5.585   1.562   4.008
 3669SOL    HW211907   5.645   1.713   3.993
 3670SOL     OW11908   2.458   5.527   6.320
 3670SOL    HW111909   2.485   5.566   6.408
 3670SOL    HW211910   2.452   5.427   6.328
 3671SOL     OW11911   2.151   0.798   3.434
 3671SOL    HW111912   2.117   0.825   3.524
 3671SOL    HW211913   2.241   0.755   3.443
 3672SOL     OW11914   6.475   0.141   0.571
 3672SOL    HW111915   6.395   0.188   0.532
 3672SOL    HW211916   6.542   0.124   0.500
 3673SOL     OW11917   4.487   0.127   6.612
 3673SOL    HW111918   4.515   0.217   6.644
 3673SOL    HW211919   4.388   0.117   6.620
 3674SOL     OW11920   1.191   6.216   0.530
 3674SOL    HW111921   1.112   6.155   0.538
 3674SOL    HW211922   1.168   6.305   0.570
 3675SOL     OW11923   2.001   2.418   4.375
 3675SOL    HW111924   1.941   2.353   4.328
 3675SOL    HW211925   1.974   2.425   4.471
 3676SOL     OW11926   1.465   4.664   2.721
 3676SOL    HW111927   1.427   4.618   2.802
 3676SOL    HW211928   1.535   4.607   2.679
 3677SOL     OW11929   6.215   0.359   3.516
 3677SOL    HW111930   6.190   0.364   3.613
 3677SOL    HW211931   6.220   0.451   3.478
 3678SOL     OW11932   1.151   1.814   3.822
 3678SOL    HW111933   1.204   1.883   3.772
 3678SOL    HW211934   1.204   1.730   3.830
 3679SOL     OW11935   0.027   0.387   1.562
 3679SOL    HW111936   6.968   0.429   1.527
 3679SOL    HW211937   0.106   0.441   1.532
 3680SOL     OW11938   5.912   4.294   4.652
 3680SOL    HW111939   5.911   4.385   4.692
 3680SOL    HW211940   5.844   4.289   4.579
 3681SOL     OW11941   5.426   6.258   4.285
 3681SOL    HW111942   5.405   6.343   4.331
 3681SOL    HW211943   5.506   6.215   4.328
 3682SOL     OW11944   0.931   2.714   6.993
 3682SOL    HW111945   0.842   2.754   6.969
 3682SOL    HW211946   1.000   2.746   6.929
 3683SOL     OW11947   5.302   6.466   3.557
 3683SOL    HW111948   5.348   6.395   3.610
 3683SOL    HW211949   5.364   6.543   3.543
 3684SOL     OW11950   1.726   3.389   1.078
 3684SOL    HW111951   1.710   3.315   1.012
 3684SOL    HW211952   1.738   3.350   1.169
 3685SOL     OW11953   5.541   6.670   6.223
 3685SOL    HW111954   5.447   6.639   6.207
 3685SOL    HW211955   5.551   6.697   6.319
 3686SOL     OW11956   6.839   4.174   0.992
 3686SOL    HW111957   6.804   4.259   0.953
 3686SOL    HW211958   6.891   4.123   0.923
 3687SOL     OW11959   3.765   1.301   0.100
 3687SOL    HW111960   3.816   1.289   0.185
 3687SOL    HW211961   3.826   1.337   0.029
 3688SOL     OW11962   6.656   3.185   0.256
 3688SOL    HW111963   6.600   3.160   0.177
 3688SOL    HW211964   6.596   3.206   0.334
 3689SOL     OW11965   2.055   6.852   3.559
 3689SOL    HW111966   2.130   6.845   3.493
 3689SOL    HW211967   2.010   6.941   3.548
 3690SOL     OW11968   4.627   5.693   5.165
 3690SOL    HW111969   4.685   5.709   5.086
 3690SOL    HW211970   4.546   5.751   5.160
 3691SOL     OW11971   2.979   2.918   6.292
 3691SOL    HW111972   3.051   2.925   6.224
 3691SOL    HW211973   3.018   2.922   6.384
 3692SOL     OW11974   0.151   6.776   6.040
 3692SOL    HW111975   0.190   6.703   6.095
 3692SOL    HW211976   0.111   6.846   6.100
 3693SOL     OW11977   1.854   1.442   3.615
 3693SOL    HW111978   1.927   1.462   3.550
 3693SOL    HW211979   1.786   1.383   3.572
 3694SOL     OW11980   2.048   5.548   3.027
 3694SOL    HW111981   2.044   5.620   2.958
 3694SOL    HW211982   2.056   5.590   3.118
 3695SOL     OW11983   1.632   2.291   1.240
 3695SOL    HW111984   1.717   2.238   1.248
 3695SOL    HW211985   1.562   2.252   1.299
 3696SOL     OW11986   2.984   6.306   5.649
 3696SOL    HW111987   2.905   6.337   5.701
 3696SOL    HW211988   3.060   6.288   5.712
 3697SOL     OW11989   5.369   0.440   4.017
 3697SOL    HW111990   5.403   0.386   3.941
 3697SOL    HW211991   5.404   0.402   4.103
 3698SOL     OW11992   3.907   0.267   6.616
 3698SOL    HW111993   3.870   0.192   6.671
 3698SOL    HW211994   3.920   0.237   6.522
 3699SOL     OW11995   0.789   4.833   1.749
 3699SOL    HW111996   0.757   4.918   1.708
 3699SOL    HW211997   0.774   4.835   1.848
 3700SOL     OW11998   0.076   0.540   3.636
 3700SOL    HW111999   0.121   0.627   3.616
 3700SOL    HW212000   0.055   0.493   3.551
 3701SOL     OW12001   5.537   0.633   3.916
 3701SOL    HW112002   5.487   0.680   3.844
 3701SOL    HW212003   5.481   0.558   3.952
 3702SOL     OW12004   5.349   1.013   5.972
 3702SOL    HW112005   5.343   0.914   5.977
 3702SOL    HW212006   5.294   1.046   5.894
 3703SOL     OW12007   3.308   4.863   0.440
 3703SOL    HW112008   3.215   4.826   0.448
 3703SOL    HW212009   3.357   4.815   0.367
 3704SOL     OW12010   2.614   6.652   1.695
 3704SOL    HW112011   2.606   6.750   1.710
 3704SOL    HW212012   2.709   6.629   1.672
 3705SOL     OW12013   6.446   1.283   4.087
 3705SOL    HW112014   6.348   1.262   4.086
 3705SOL    HW212015   6.475   1.309   3.995
 3706SOL     OW12016   3.099   2.026   3.581
 3706SOL    HW112017   3.055   2.026   3.491
 3706SOL    HW212018   3.045   2.082   3.644
 3707SOL     OW12019   4.097   2.412   5.509
 3707SOL    HW112020   4.062   2.483   5.571
 3707SOL    HW212021   4.028   2.341   5.497
 3708SOL     OW12022   6.743   0.313   6.806
 3708SOL    HW112023   6.830   0.358   6.826
 3708SOL    HW212024   6.671   0.383   6.800
 3709SOL     OW12025   6.036   0.114   0.174
 3709SOL    HW112026   6.052   0.028   0.127
 3709SOL    HW212027   6.122   0.165   0.181
 3710SOL     OW12028   0.122   4.508   0.165
 3710SOL    HW112029   0.064   4.441   0.210
 3710SOL    HW212030   0.121   4.492   0.066
 3711SOL     OW12031   6.896   5.351   2.492
 3711SOL    HW112032   6.818   5.303   2.453
 3711SOL    HW212033   6.963   5.285   2.527
 3712SOL     OW12034   1.308   0.485   6.826
 3712SOL    HW112035   1.388   0.426   6.832
 3712SOL    HW212036   1.316   0.560   6.892
 3713SOL     OW12037   4.029   4.776   5.602
 3713SOL    HW112038   4.124   4.748   5.588
 3713SOL    HW212039   4.017   4.870   5.572
 3714SOL     OW12040   4.347   1.465   5.206
 3714SOL    HW112041   4.292   1.426   5.132
 3714SOL    HW212042   4.363   1.395   5.276
 3715SOL     OW12043   5.342   4.138   3.978
 3715SOL    HW112044   5.320   4.146   4.075
 3715SOL    HW212045   5.279   4.196   3.925
 3716SOL     OW12046   0.514   1.367   4.254
 3716SOL    HW112047   0.490   1.349   4.158
 3716SOL    HW212048   0.431   1.376   4.308
 3717SOL     OW12049   5.961   0.474   0.149
 3717SOL    HW112050   5.956   0.486   0.050
 3717SOL    HW212051   5.880   0.513   0.191
 3718SOL     OW12052   0.744   5.431   6.966
 3718SOL    HW112053   0.701   5.349   7.004
 3718SOL    HW212054   0.674   5.500   6.948
 3719SOL     OW12055   3.508   4.719   0.306
 3719SOL    HW112056   3.474   4.691   0.217
 3719SOL    HW212057   3.607   4.706   0.309
 3720SOL     OW12058   0.090   1.206   5.641
 3720SOL    HW112059   0.112   1.282   5.702
 3720SOL    HW212060   0.156   1.132   5.655
 3721SOL     OW12061   4.923   3.336   0.150
 3721SOL    HW112062   4.972   3.259   0.191
 3721SOL    HW212063   4.903   3.405   0.220
 3722SOL     OW12064   5.765   5.835   1.384
 3722SOL    HW112065   5.688   5.782   1.349
 3722SOL    HW212066   5.805   5.889   1.309
 3723SOL     OW12067   5.078   1.023   0.448
 3723SOL    HW112068   5.043   0.995   0.537
 3723SOL    HW212069   5.085   0.943   0.388
 3724SOL     OW12070   0.179   4.753   5.730
 3724SOL    HW112071   0.129   4.836   5.754
 3724SOL    HW212072   0.183   4.692   5.809
 3725SOL     OW12073   5.778   6.139   0.670
 3725SOL    HW112074   5.689   6.178   0.647
 3725SOL    HW212075   5.823   6.107   0.586
 3726SOL     OW12076   6.130   2.931   1.343
 3726SOL    HW112077   6.120   2.999   1.415
 3726SOL    HW212078   6.139   2.840   1.384
 3727SOL     OW12079   2.592   2.841   5.363
 3727SOL    HW112080   2.582   2.925   5.309
 3727SOL    HW212081   2.613   2.866   5.458
 3728SOL     OW12082   0.420   3.549   6.920
 3728SOL    HW112083   0.387   3.548   7.015
 3728SOL    HW212084   0.469   3.634   6.903
 3729SOL     OW12085   0.593   3.099   3.973
 3729SOL    HW112086   0.679   3.089   3.922
 3729SOL    HW212087   0.538   3.016   3.963
 3730SOL     OW12088   2.109   0.510   0.914
 3730SOL    HW112089   2.055   0.439   0.870
 3730SOL    HW212090   2.195   0.521   0.865
 3731SOL     OW12091   3.114   5.525   6.420
 3731SOL    HW112092   3.028   5.572   6.442
 3731SOL    HW212093   3.096   5.428   6.405
 3732SOL     OW12094   2.159   3.732   4.583
 3732SOL    HW112095   2.096   3.715   4.506
 3732SOL    HW212096   2.193   3.826   4.577
 3733SOL     OW12097   3.336   3.324   1.053
 3733SOL    HW112098   3.332   3.270   1.137
 3733SOL    HW212099   3.363   3.265   0.977
 3734SOL     OW12100   4.696   6.962   4.005
 3734SOL    HW112101   4.745   6.922   4.082
 3734SOL    HW212102   4.652   0.022   4.034
 3735SOL     OW12103   3.443   2.079   1.889
 3735SOL    HW112104   3.357   2.124   1.911
 3735SOL    HW212105   3.510   2.098   1.960
 3736SOL     OW12106   5.074   0.709   5.678
 3736SOL    HW112107   5.120   0.671   5.758
 3736SOL    HW212108   4.976   0.713   5.694
 3737SOL     OW12109   3.756   6.848   4.208
 3737SOL    HW112110   3.826   6.844   4.138
 3737SOL    HW212111   3.768   6.772   4.272
 3738SOL     OW12112   0.070   0.190   4.549
 3738SOL    HW112113   0.070   0.092   4.569
 3738SOL    HW212114   0.055   0.242   4.633
 3739SOL     OW12115   0.933   3.314   1.407
 3739SOL    HW112116   0.953   3.411   1.424
 3739SOL    HW212117   0.914   3.300   1.310
 3740SOL     OW12118   5.538   0.338   6.746
 3740SOL    HW112119   5.587   0.316   6.662
 3740SOL    HW212120   5.577   0.286   6.822
 3741SOL     OW12121   3.173   2.294   6.835
 3741SOL    HW112122   3.098   2.343   6.880
 3741SOL    HW212123   3.165   2.196   6.854
 3742SOL     OW12124   3.576   3.258   5.418
 3742SOL    HW112125   3.516   3.220   5.488
 3742SOL    HW212126   3.671   3.253   5.450
 3743SOL     OW12127   1.094   5.723   6.362
 3743SOL    HW112128   1.102   5.643   6.303
 3743SOL    HW212129   1.165   5.720   6.432
 3744SOL     OW12130   6.634   5.371   2.909
 3744SOL    HW112131   6.648   5.385   3.007
 3744SOL    HW212132   6.609   5.275   2.892
 3745SOL     OW12133   5.429   5.211   1.936
 3745SOL    HW112134   5.458   5.256   2.021
 3745SOL    HW212135   5.353   5.149   1.955
 3746SOL     OW12136   4.489   1.199   1.733
 3746SOL    HW112137   4.419   1.128   1.729
 3746SOL    HW212138   4.576   1.157   1.761
 3747SOL     OW12139   2.859   0.526   0.579
 3747SOL    HW112140   2.906   0.612   0.562
 3747SOL    HW212141   2.870   0.501   0.676
 3748SOL     OW12142   5.169   0.285   1.539
 3748SOL    HW112143   5.207   0.198   1.508
 3748SOL    HW212144   5.231   0.360   1.514
 3749SOL     OW12145   1.762   0.943   4.471
 3749SOL    HW112146   1.724   0.944   4.379
 3749SOL    HW212147   1.696   0.903   4.534
 3750SOL     OW12148   0.039   4.191   6.401
 3750SOL    HW112149   0.139   4.194   6.399
 3750SOL    HW212150   0.006   4.142   6.321
 3751SOL     OW12151   1.473   4.828   1.109
 3751SOL    HW112152   1.389   4.860   1.153
 3751SOL    HW212153   1.533   4.907   1.093
 3752SOL     OW12154   4.955   5.811   6.960
 3752SOL    HW112155   4.880   5.766   7.009
 3752SOL    HW212156   4.917   5.873   6.891
 3753SOL     OW12157   0.258   0.129   3.369
 3753SOL    HW112158   0.280   0.166   3.460
 3753SOL    HW212159   0.241   0.031   3.377
 3754SOL     OW12160   3.148   1.226   1.745
 3754SOL    HW112161   3.051   1.209   1.726
 3754SOL    HW212162   3.180   1.300   1.686
 3755SOL     OW12163   2.327   5.736   4.319
 3755SOL    HW112164   2.323   5.812   4.254
 3755SOL    HW212165   2.398   5.755   4.387
 3756SOL     OW12166   1.383   7.003   0.558
 3756SOL    HW112167   1.377   0.033   0.641
 3756SOL    HW212168   1.386   6.906   0.583
 3757SOL     OW12169   0.376   4.199   0.791
 3757SOL    HW112170   0.441   4.274   0.803
 3757SOL    HW212171   0.371   4.174   0.694
 3758SOL     OW12172   1.694   6.790   3.743
 3758SOL    HW112173   1.701   6.886   3.717
 3758SOL    HW212174   1.619   6.747   3.693
 3759SOL     OW12175   5.102   0.353   3.878
 3759SOL    HW112176   5.121   0.254   3.877
 3759SOL    HW212177   5.060   0.379   3.792
 3760SOL     OW12178   1.214   1.101   3.344
 3760SOL    HW112179   1.311   1.097   3.368
 3760SOL    HW212180   1.181   1.195   3.352
 3761SOL     OW12181   4.815   1.530   5.244
 3761SOL    HW112182   4.872   1.589   5.188
 3761SOL    HW212183   4.816   1.437   5.206
 3762SOL     OW12184   0.598   2.468   4.226
 3762SOL    HW112185   0.558   2.459   4.318
 3762SOL    HW212186   0.607   2.565   4.203
 3763SOL     OW12187   0.644   5.628   6.783
 3763SOL    HW112188   0.567   5.611   6.720
 3763SOL    HW212189   0.730   5.621   6.732
 3764SOL     OW12190   2.890   1.142   2.784
 3764SOL    HW112191   2.978   1.110   2.821
 3764SOL    HW212192   2.906   1.218   2.722
 3765SOL     OW12193   5.211   2.642   2.865
 3765SOL    HW112194   5.304   2.652   2.900
 3765SOL    HW212195   5.204   2.557   2.813
 3766SOL     OW12196   1.190   2.780   2.206
 3766SOL    HW112197   1.178   2.691   2.249
 3766SOL    HW212198   1.186   2.770   2.106
 3767SOL     OW12199   1.855   6.110   5.925
 3767SOL    HW112200   1.867   6.151   5.835
 3767SOL    HW212201   1.803   6.172   5.984
 3768SOL     OW12202   1.783   6.877   2.504
 3768SOL    HW112203   1.872   6.859   2.460
 3768SOL    HW212204   1.747   6.792   2.543
 3769SOL     OW12205   4.935   5.294   4.837
 3769SOL    HW112206   4.891   5.326   4.753
 3769SOL    HW212207   4.931   5.366   4.906
 3770SOL     OW12208   3.200   0.219   1.408
 3770SOL    HW112209   3.224   0.313   1.432
 3770SOL    HW212210   3.226   0.158   1.483
 3771SOL     OW12211   6.743   6.018   5.520
 3771SOL    HW112212   6.667   6.008   5.585
 3771SOL    HW212213   6.714   5.984   5.430
 3772SOL     OW12214   1.943   6.202   1.824
 3772SOL    HW112215   2.028   6.189   1.874
 3772SOL    HW212216   1.878   6.131   1.850
 3773SOL     OW12217   4.618   4.989   7.009
 3773SOL    HW112218   4.580   4.924   0.050
 3773SOL    HW212219   4.652   4.940   6.929
 3774SOL     OW12220   6.916   4.608   1.760
 3774SOL    HW112221   6.948   4.693   1.717
 3774SOL    HW212222   6.877   4.548   1.690
 3775SOL     OW12223   5.273   5.460   4.724
 3775SOL    HW112224   5.366   5.495   4.740
 3775SOL    HW212225   5.236   5.424   4.809
 3776SOL     OW12226   4.332   2.835   6.309
 3776SOL    HW112227   4.337   2.857   6.211
 3776SOL    HW212228   4.374   2.746   6.325
 3777SOL     OW12229   2.779   5.211   3.957
 3777SOL    HW112230   2.741   5.209   4.049
 3777SOL    HW212231   2.840   5.133   3.944
 3778SOL     OW12232   3.081   4.889   6.669
 3778SOL    HW112233   3.026   4.821   6.621
 3778SOL    HW212234   3.177   4.879   6.643
 3779SOL     OW12235   6.877   4.549   6.598
 3779SOL    HW112236   6.816   4.625   6.622
 3779SOL    HW212237   6.847   4.509   6.511
 3780SOL     OW12238   6.302   3.080   2.007
 3780SOL    HW112239   6.247   3.125   2.077
 3780SOL    HW212240   6.243   3.045   1.934
 3781SOL     OW12241   1.658   6.831   5.565
 3781SOL    HW112242   1.720   6.910   5.564
 3781SOL    HW212243   1.564   6.863   5.577
 3782SOL     OW12244   3.940   5.385   6.986
 3782SOL    HW112245   3.946   5.303   0.016
 3782SOL    HW212246   3.872   5.447   7.024
 3783SOL     OW12247   4.630   4.703   5.090
 3783SOL    HW112248   4.558   4.772   5.093
 3783SOL    HW212249   4.651   4.681   4.994
 3784SOL     OW12250   5.728   3.292   5.251
 3784SOL    HW112251   5.689   3.257   5.336
 3784SOL    HW212252   5.784   3.221   5.208
 3785SOL     OW12253   1.306   2.489   2.612
 3785SOL    HW112254   1.331   2.439   2.694
 3785SOL    HW212255   1.220   2.538   2.627
 3786SOL     OW12256   1.947   2.922   5.289
 3786SOL    HW112257   1.899   2.907   5.203
 3786SOL    HW212258   2.045   2.911   5.275
 3787SOL     OW12259   4.976   5.778   4.238
 3787SOL    HW112260   5.060   5.808   4.283
 3787SOL    HW212261   4.910   5.749   4.307
 3788SOL     OW12262   5.517   3.356   5.719
 3788SOL    HW112263   5.477   3.433   5.669
 3788SOL    HW212264   5.606   3.383   5.755
 3789SOL     OW12265   2.062   3.219   1.394
 3789SOL    HW112266   2.005   3.242   1.472
 3789SOL    HW212267   2.021   3.144   1.342
 3790SOL     OW12268   1.029   6.846   1.459
 3790SOL    HW112269   1.084   6.886   1.386
 3790SOL    HW212270   1.088   6.819   1.535
 3791SOL     OW12271   4.873   0.490   4.650
 3791SOL    HW112272   4.879   0.589   4.659
 3791SOL    HW212273   4.777   0.462   4.656
 3792SOL     OW12274   6.497   6.870   3.913
 3792SOL    HW112275   6.512   6.791   3.972
 3792SOL    HW212276   6.527   6.953   3.960
 3793SOL     OW12277   4.457   3.929   0.440
 3793SOL    HW112278   4.517   4.009   0.429
 3793SOL    HW212279   4.483   3.879   0.522
 3794SOL     OW12280   1.196   5.336   6.545
 3794SOL    HW112281   1.098   5.321   6.531
 3794SOL    HW212282   1.241   5.343   6.456
 3795SOL     OW12283   3.223   6.166   1.118
 3795SOL    HW112284   3.213   6.150   1.217
 3795SOL    HW212285   3.320   6.177   1.097
 3796SOL     OW12286   5.615   0.805   6.879
 3796SOL    HW112287   5.534   0.810   6.821
 3796SOL    HW212288   5.621   0.888   6.935
 3797SOL     OW12289   0.208   2.953   1.286
 3797SOL    HW112290   0.222   2.976   1.189
 3797SOL    HW212291   0.289   2.980   1.338
 3798SOL     OW12292   1.171   5.277   3.554
 3798SOL    HW112293   1.237   5.261   3.627
 3798SOL    HW212294   1.116   5.194   3.540
 3799SOL     OW12295   6.532   1.054   3.143
 3799SOL    HW112296   6.577   1.035   3.230
 3799SOL    HW212297   6.545   0.977   3.080
 3800SOL     OW12298   5.556   2.548   2.686
 3800SOL    HW112299   5.523   2.642   2.674
 3800SOL    HW212300   5.503   2.487   2.627
 3801SOL     OW12301   6.099   1.699   0.839
 3801SOL    HW112302   6.089   1.640   0.919
 3801SOL    HW212303   6.182   1.754   0.848
 3802SOL     OW12304   6.337   3.643   2.420
 3802SOL    HW112305   6.326   3.735   2.458
 3802SOL    HW212306   6.379   3.584   2.488
 3803SOL     OW12307   4.305   4.005   5.407
 3803SOL    HW112308   4.254   4.081   5.369
 3803SOL    HW212309   4.251   3.960   5.478
 3804SOL     OW12310   3.775   6.513   3.434
 3804SOL    HW112311   3.842   6.501   3.508
 3804SOL    HW212312   3.756   6.611   3.423
 3805SOL     OW12313   2.422   2.328   6.762
 3805SOL    HW112314   2.369   2.355   6.682
 3805SOL    HW212315   2.493   2.263   6.735
 3806SOL     OW12316   2.268   4.850   1.729
 3806SOL    HW112317   2.241   4.782   1.797
 3806SOL    HW212318   2.189   4.873   1.671
 3807SOL     OW12319   0.549   4.644   3.479
 3807SOL    HW112320   0.450   4.639   3.487
 3807SOL    HW212321   0.590   4.562   3.518
 3808SOL     OW12322   2.914   6.890   5.852
 3808SOL    HW112323   2.916   6.954   5.776
 3808SOL    HW212324   2.819   6.860   5.868
 3809SOL     OW12325   5.552   1.376   2.155
 3809SOL    HW112326   5.561   1.312   2.079
 3809SOL    HW212327   5.460   1.369   2.194
 3810SOL     OW12328   4.815   2.222   3.067
 3810SOL    HW112329   4.754   2.214   2.987
 3810SOL    HW212330   4.906   2.249   3.037
 3811SOL     OW12331   6.975   5.864   5.452
 3811SOL    HW112332   0.021   5.925   5.417
 3811SOL    HW212333   6.897   5.918   5.484
 3812SOL     OW12334   4.207   6.004   6.927
 3812SOL    HW112335   4.180   5.916   6.888
 3812SOL    HW212336   4.141   6.033   6.995
 3813SOL     OW12337   6.067   3.847   0.365
 3813SOL    HW112338   6.026   3.786   0.298
 3813SOL    HW212339   5.995   3.903   0.407
 3814SOL     OW12340   0.578   0.436   5.299
 3814SOL    HW112341   0.582   0.534   5.320
 3814SOL    HW212342   0.517   0.420   5.222
 3815SOL     OW12343   5.319   2.841   6.006
 3815SOL    HW112344   5.401   2.795   6.038
 3815SOL    HW212345   5.247   2.831   6.075
 3816SOL     OW12346   6.611   6.309   0.909
 3816SOL    HW112347   6.526   6.259   0.928
 3816SOL    HW212348   6.651   6.276   0.824
 3817SOL     OW12349   4.030   3.501   1.609
 3817SOL    HW112350   4.121   3.463   1.594
 3817SOL    HW212351   4.008   3.498   1.707
 3818SOL     OW12352   4.955   5.816   2.524
 3818SOL    HW112353   5.046   5.848   2.498
 3818SOL    HW212354   4.889   5.889   2.507
 3819SOL     OW12355   6.560   3.522   3.464
 3819SOL    HW112356   6.558   3.519   3.564
 3819SOL    HW212357   6.474   3.559   3.430
 3820SOL     OW12358   3.235   6.594   5.954
 3820SOL    HW112359   3.163   6.578   6.022
 3820SOL    HW212360   3.305   6.523   5.962
 3821SOL     OW12361   2.111   0.110   0.224
 3821SOL    HW112362   2.111   0.028   0.281
 3821SOL    HW212363   2.031   0.166   0.245
 3822SOL     OW12364   5.011   6.786   2.210
 3822SOL    HW112365   4.974   6.811   2.120
 3822SOL    HW212366   5.077   6.712   2.200
 3823SOL     OW12367   5.357   6.154   4.977
 3823SOL    HW112368   5.280   6.198   4.930
 3823SOL    HW212369   5.433   6.219   4.982
 3824SOL     OW12370   2.453   2.960   0.844
 3824SOL    HW112371   2.423   2.919   0.931
 3824SOL    HW212372   2.540   2.919   0.817
 3825SOL     OW12373   0.583   4.933   5.576
 3825SOL    HW112374   0.535   4.864   5.521
 3825SOL    HW212375   0.575   5.022   5.531
 3826SOL     OW12376   5.201   3.649   3.392
 3826SOL    HW112377   5.158   3.716   3.332
 3826SOL    HW212378   5.132   3.588   3.431
 3827SOL     OW12379   0.062   2.033   6.841
 3827SOL    HW112380   0.071   2.104   6.911
 3827SOL    HW212381   0.139   2.040   6.777
 3828SOL     OW12382   3.876   2.964   4.391
 3828SOL    HW112383   3.896   2.902   4.315
 3828SOL    HW212384   3.809   3.032   4.362
 3829SOL     OW12385   0.523   3.209   1.598
 3829SOL    HW112386   0.615   3.176   1.620
 3829SOL    HW212387   0.518   3.308   1.613
 3830SOL     OW12388   5.902   0.125   3.693
 3830SOL    HW112389   5.988   0.163   3.659
 3830SOL    HW212390   5.843   0.200   3.725
 3831SOL     OW12391   4.726   2.483   3.640
 3831SOL    HW112392   4.669   2.407   3.672
 3831SOL    HW212393   4.815   2.479   3.686
 3832SOL     OW12394   6.552   0.916   3.845
 3832SOL    HW112395   6.633   0.900   3.788
 3832SOL    HW212396   6.523   1.011   3.835
 3833SOL     OW12397   1.800   2.731   5.480
 3833SOL    HW112398   1.858   2.789   5.422
 3833SOL    HW212399   1.760   2.786   5.553
 3834SOL     OW12400   5.074   4.477   1.140
 3834SOL    HW112401   5.021   4.561   1.131
 3834SOL    HW212402   5.024   4.414   1.200
 3835SOL     OW12403   4.386   5.803   5.471
 3835SOL    HW112404   4.294   5.764   5.476
 3835SOL    HW212405   4.453   5.729   5.467
 3836SOL     OW12406   6.638   6.534   4.723
 3836SOL    HW112407   6.659   6.490   4.636
 3836SOL    HW212408   6.722   6.569   4.764
 3837SOL     OW12409   4.653   4.626   6.021
 3837SOL    HW112410   4.715   4.553   6.051
 3837SOL    HW212411   4.653   4.699   6.089
 3838SOL     OW12412   6.710   0.320   4.151
 3838SOL    HW112413   6.641   0.309   4.222
 3838SOL    HW212414   6.730   0.418   4.139
 3839SOL     OW12415   4.977   0.439   3.626
 3839SOL    HW112416   4.903   0.378   3.599
 3839SOL    HW212417   4.949   0.534   3.611
 3840SOL     OW12418   3.500   1.362   6.394
 3840SOL    HW112419   3.552   1.317   6.322
 3840SOL    HW212420   3.507   1.310   6.479
 3841SOL     OW12421   5.878   4.171   3.595
 3841SOL    HW112422   5.788   4.172   3.639
 3841SOL    HW212423   5.880   4.102   3.523
 3842SOL     OW12424   1.957   4.528   5.996
 3842SOL    HW112425   1.890   4.455   5.982
 3842SOL    HW212426   2.044   4.502   5.954
 3843SOL     OW12427   5.590   2.478   6.155
 3843SOL    HW112428   5.569   2.505   6.249
 3843SOL    HW212429   5.505   2.450   6.109
 3844SOL     OW12430   6.747   0.066   0.755
 3844SOL    HW112431   6.659   0.105   0.784
 3844SOL    HW212432   6.784   0.010   0.829
 3845SOL     OW12433   2.247   6.139   0.178
 3845SOL    HW112434   2.209   6.082   0.106
 3845SOL    HW212435   2.176   6.160   0.245
 3846SOL     OW12436   0.141   3.151   2.833
 3846SOL    HW112437   0.073   3.174   2.764
 3846SOL    HW212438   0.170   3.056   2.821
 3847SOL     OW12439   0.562   2.020   6.591
 3847SOL    HW112440   0.557   2.012   6.491
 3847SOL    HW212441   0.612   2.104   6.615
 3848SOL     OW12442   6.430   4.593   2.223
 3848SOL    HW112443   6.473   4.543   2.148
 3848SOL    HW212444   6.423   4.534   2.303
 3849SOL     OW12445   0.565   4.291   6.349
 3849SOL    HW112446   0.593   4.200   6.320
 3849SOL    HW212447   0.597   4.359   6.283
 3850SOL     OW12448   2.900   2.336   1.461
 3850SOL    HW112449   2.855   2.303   1.544
 3850SOL    HW212450   2.917   2.259   1.400
 3851SOL     OW12451   0.691   6.169   2.809
 3851SOL    HW112452   0.764   6.123   2.859
 3851SOL    HW212453   0.617   6.105   2.791
 3852SOL     OW12454   1.577   0.616   5.019
 3852SOL    HW112455   1.599   0.650   4.927
 3852SOL    HW212456   1.638   0.540   5.042
 3853SOL     OW12457   2.803   0.508   3.373
 3853SOL    HW112458   2.787   0.551   3.284
 3853SOL    HW212459   2.771   0.413   3.371
 3854SOL     OW12460   0.250   2.072   2.350
 3854SOL    HW112461   0.160   2.112   2.368
 3854SOL    HW212462   0.311   2.141   2.311
 3855SOL     OW12463   3.439   6.671   6.690
 3855SOL    HW112464   3.513   6.604   6.691
 3855SOL    HW212465   3.356   6.629   6.653
 3856SOL     OW12466   7.012   2.467   6.267
 3856SOL    HW112467   0.023   2.377   6.245
 3856SOL    HW212468   6.974   2.466   6.360
 3857SOL     OW12469   2.684   0.522   5.893
 3857SOL    HW112470   2.595   0.516   5.848
 3857SOL    HW212471   2.746   0.456   5.851
 3858SOL     OW12472   4.567   1.146   4.272
 3858SOL    HW112473   4.599   1.225   4.220
 3858SOL    HW212474   4.645   1.087   4.294
 3859SOL     OW12475   6.155   6.764   1.672
 3859SOL    HW112476   6.072   6.709   1.675
 3859SOL    HW212477   6.205   6.754   1.759
 3860SOL     OW12478   1.472   6.865   4.233
 3860SOL    HW112479   1.392   6.922   4.248
 3860SOL    HW212480   1.541   6.915   4.181
 3861SOL     OW12481   2.769   5.555   1.667
 3861SOL    HW112482   2.857   5.580   1.628
 3861SOL    HW212483   2.764   5.455   1.676
 3862SOL     OW12484   1.793   1.226   4.339
 3862SOL    HW112485   1.715   1.165   4.354
 3862SOL    HW212486   1.872   1.194   4.390
 3863SOL     OW12487   3.257   0.601   0.504
 3863SOL    HW112488   3.160   0.611   0.484
 3863SOL    HW212489   3.308   0.676   0.462
 3864SOL     OW12490   1.556   0.438   4.741
 3864SOL    HW112491   1.615   0.359   4.726
 3864SOL    HW212492   1.497   0.421   4.820
 3865SOL     OW12493   5.181   1.350   0.718
 3865SOL    HW112494   5.193   1.263   0.766
 3865SOL    HW212495   5.255   1.363   0.652
 3866SOL     OW12496   3.062   1.593   6.540
 3866SOL    HW112497   3.025   1.622   6.452
 3866SOL    HW212498   3.133   1.525   6.525
 3867SOL     OW12499   0.219   3.154   2.186
 3867SOL    HW112500   0.173   3.140   2.274
 3867SOL    HW212501   0.237   3.066   2.143
 3868SOL     OW12502   4.435   0.685   0.379
 3868SOL    HW112503   4.381   0.769   0.369
 3868SOL    HW212504   4.495   0.674   0.299
 3869SOL     OW12505   4.709   1.348   4.106
 3869SOL    HW112506   4.711   1.291   4.024
 3869SOL    HW212507   4.686   1.442   4.081
 3870SOL     OW12508   0.066   0.782   5.769
 3870SOL    HW112509   0.008   0.765   5.849
 3870SOL    HW212510   0.142   0.842   5.795
 3871SOL     OW12511   2.544   5.865   4.465
 3871SOL    HW112512   2.466   5.879   4.525
 3871SOL    HW212513   2.618   5.820   4.516
 3872SOL     OW12514   2.943   3.305   5.121
 3872SOL    HW112515   2.906   3.362   5.048
 3872SOL    HW212516   3.008   3.358   5.175
 3873SOL     OW12517   3.916   1.917   0.455
 3873SOL    HW112518   3.993   1.866   0.416
 3873SOL    HW212519   3.951   1.990   0.514
 3874SOL     OW12520   2.301   1.234   0.673
 3874SOL    HW112521   2.332   1.176   0.748
 3874SOL    HW212522   2.351   1.210   0.589
 3875SOL     OW12523   0.955   2.150   6.084
 3875SOL    HW112524   0.956   2.220   6.013
 3875SOL    HW212525   0.897   2.179   6.160
 3876SOL     OW12526   3.332   5.369   2.527
 3876SOL    HW112527   3.374   5.348   2.615
 3876SOL    HW212528   3.351   5.464   2.502
 3877SOL     OW12529   0.259   1.938   6.098
 3877SOL    HW112530   0.257   2.011   6.030
 3877SOL    HW212531   0.352   1.902   6.105
 3878SOL     OW12532   5.176   1.105   4.289
 3878SOL    HW112533   5.142   1.095   4.382
 3878SOL    HW212534   5.203   1.016   4.252
 3879SOL     OW12535   5.182   5.853   0.297
 3879SOL    HW112536   5.103   5.804   0.332
 3879SOL    HW212537   5.266   5.811   0.331
 3880SOL     OW12538   4.597   4.542   4.021
 3880SOL    HW112539   4.498   4.528   4.011
 3880SOL    HW212540   4.638   4.462   4.063
 3881SOL     OW12541   1.313   3.222   0.380
 3881SOL    HW112542   1.272   3.183   0.297
 3881SOL    HW212543   1.279   3.173   0.460
 3882SOL     OW12544   0.406   2.005   5.848
 3882SOL    HW112545   0.469   2.029   5.774
 3882SOL    HW212546   0.387   1.907   5.845
 3883SOL     OW12547   4.531   5.714   3.767
 3883SOL    HW112548   4.610   5.711   3.706
 3883SOL    HW212549   4.496   5.808   3.771
 3884SOL     OW12550   0.319   3.812   2.062
 3884SOL    HW112551   0.388   3.866   2.111
 3884SOL    HW212552   0.363   3.737   2.013
 3885SOL     OW12553   4.602   5.597   2.449
 3885SOL    HW112554   4.618   5.592   2.350
 3885SOL    HW212555   4.565   5.510   2.481
 3886SOL     OW12556   2.768   6.376   5.776
 3886SOL    HW112557   2.743   6.432   5.855
 3886SOL    HW212558   2.701   6.301   5.767
 3887SOL     OW12559   1.750   6.030   1.866
 3887SOL    HW112560   1.711   5.953   1.815
 3887SOL    HW212561   1.732   6.017   1.964
 3888SOL     OW12562   5.944   4.865   4.049
 3888SOL    HW112563   5.922   4.847   3.953
 3888SOL    HW212564   5.868   4.916   4.091
 3889SOL     OW12565   5.690   4.270   0.433
 3889SOL    HW112566   5.595   4.272   0.465
 3889SOL    HW212567   5.707   4.185   0.383
 3890SOL     OW12568   5.173   3.035   4.288
 3890SOL    HW112569   5.258   3.038   4.236
 3890SOL    HW212570   5.118   3.116   4.267
 3891SOL     OW12571   4.948   5.624   3.397
 3891SOL    HW112572   4.914   5.578   3.314
 3891SOL    HW212573   4.956   5.557   3.471
 3892SOL     OW12574   6.805   2.115   1.896
 3892SOL    HW112575   6.735   2.163   1.948
 3892SOL    HW212576   6.763   2.038   1.848
 3893SOL     OW12577   4.131   3.510   2.597
 3893SOL    HW112578   4.118   3.587   2.534
 3893SOL    HW212579   4.175   3.434   2.549
 3894SOL     OW12580   4.466   0.514   5.868
 3894SOL    HW112581   4.553   0.546   5.907
 3894SOL    HW212582   4.481   0.487   5.772
 3895SOL     OW12583   0.693   0.482   4.261
 3895SOL    HW112584   0.621   0.432   4.310
 3895SOL    HW212585   0.775   0.425   4.255
 3896SOL     OW12586   1.812   1.365   6.263
 3896SOL    HW112587   1.734   1.427   6.263
 3896SOL    HW212588   1.811   1.309   6.346
 3897SOL     OW12589   4.175   6.066   1.487
 3897SOL    HW112590   4.130   6.125   1.554
 3897SOL    HW212591   4.242   6.008   1.534
 3898SOL     OW12592   4.047   3.262   1.269
 3898SOL    HW112593   4.048   3.164   1.289
 3898SOL    HW212594   4.004   3.277   1.180
 3899SOL     OW12595   3.551   0.562   5.796
 3899SOL    HW112596   3.536   0.647   5.746
 3899SOL    HW212597   3.574   0.489   5.732
 3900SOL     OW12598   4.802   4.066   3.043
 3900SOL    HW112599   4.761   4.148   3.005
 3900SOL    HW212600   4.761   4.047   3.133
 3901SOL     OW12601   2.909   0.734   6.700
 3901SOL    HW112602   2.911   0.737   6.800
 3901SOL    HW212603   2.914   0.826   6.663
 3902SOL     OW12604   5.444   2.964   2.420
 3902SOL    HW112605   5.527   3.001   2.461
 3902SOL    HW212606   5.458   2.949   2.322
 3903SOL     OW12607   3.077   4.388   6.038
 3903SOL    HW112608   3.122   4.477   6.040
 3903SOL    HW212609   3.058   4.363   5.943
 3904SOL     OW12610   1.655   0.726   0.826
 3904SOL    HW112611   1.557   0.707   0.835
 3904SOL    HW212612   1.703   0.641   0.807
 3905SOL     OW12613   6.750   6.197   5.083
 3905SOL    HW112614   6.843   6.230   5.094
 3905SOL    HW212615   6.694   6.268   5.039
 3906SOL     OW12616   6.330   6.597   4.760
 3906SOL    HW112617   6.373   6.555   4.680
 3906SOL    HW212618   6.399   6.613   4.831
 3907SOL     OW12619   6.231   2.501   3.665
 3907SOL    HW112620   6.330   2.514   3.659
 3907SOL    HW212621   6.185   2.565   3.604
 3908SOL     OW12622   2.559   4.112   6.102
 3908SOL    HW112623   2.576   4.123   6.004
 3908SOL    HW212624   2.467   4.075   6.115
 3909SOL     OW12625   5.789   5.715   3.742
 3909SOL    HW112626   5.826   5.720   3.649
 3909SOL    HW212627   5.734   5.632   3.752
 3910SOL     OW12628   3.854   3.334   2.735
 3910SOL    HW112629   3.933   3.396   2.728
 3910SOL    HW212630   3.785   3.362   2.669
 3911SOL     OW12631   6.470   2.625   5.425
 3911SOL    HW112632   6.446   2.692   5.355
 3911SOL    HW212633   6.563   2.592   5.410
 3912SOL     OW12634   5.068   2.891   6.195
 3912SOL    HW112635   5.060   2.984   6.158
 3912SOL    HW212636   5.017   2.827   6.138
 3913SOL     OW12637   1.044   6.482   1.192
 3913SOL    HW112638   0.977   6.408   1.196
 3913SOL    HW212639   1.023   6.550   1.263
 3914SOL     OW12640   3.133   5.813   5.752
 3914SOL    HW112641   3.092   5.893   5.708
 3914SOL    HW212642   3.061   5.760   5.797
 3915SOL     OW12643   6.435   6.155   1.676
 3915SOL    HW112644   6.496   6.148   1.597
 3915SOL    HW212645   6.346   6.116   1.653
 3916SOL     OW12646   0.702   0.267   3.279
 3916SOL    HW112647   0.659   0.356   3.292
 3916SOL    HW212648   0.654   0.218   3.206
 3917SOL     OW12649   2.169   0.417   0.047
 3917SOL    HW112650   2.191   0.323   0.074
 3917SOL    HW212651   2.105   0.416   6.995
 3918SOL     OW12652   5.563   3.165   0.023
 3918SOL    HW112653   5.552   3.179   0.121
 3918SOL    HW212654   5.628   3.091   0.007
 3919SOL     OW12655   3.150   6.788   0.799
 3919SOL    HW112656   3.147   6.853   0.724
 3919SOL    HW212657   3.204   6.827   0.874
 3920SOL     OW12658   2.153   1.950   6.942
 3920SOL    HW112659   2.081   2.019   6.940
 3920SOL    HW212660   2.191   1.945   0.009
 3921SOL     OW12661   1.261   3.715   1.730
 3921SOL    HW112662   1.199   3.660   1.786
 3921SOL    HW212663   1.266   3.808   1.767
 3922SOL     OW12664   1.293   5.145   1.176
 3922SOL    HW112665   1.391   5.128   1.183
 3922SOL    HW212666   1.261   5.191   1.259
 3923SOL     OW12667   6.574   0.528   1.027
 3923SOL    HW112668   6.616   0.619   1.019
 3923SOL    HW212669   6.623   0.463   0.969
 3924SOL     OW12670   6.649   5.160   4.442
 3924SOL    HW112671   6.630   5.112   4.528
 3924SOL    HW212672   6.739   5.132   4.408
 3925SOL     OW12673   1.826   5.151   1.839
 3925SOL    HW112674   1.866   5.215   1.905
 3925SOL    HW212675   1.828   5.192   1.747
 3926SOL     OW12676   3.494   5.140   3.043
 3926SOL    HW112677   3.585   5.175   3.023
 3926SOL    HW212678   3.494   5.040   3.038
 3927SOL     OW12679   1.099   3.555   6.405
 3927SOL    HW112680   1.094   3.655   6.404
 3927SOL    HW212681   1.072   3.519   6.316
 3928SOL     OW12682   5.989   5.377   6.622
 3928SOL    HW112683   5.972   5.440   6.546
 3928SOL    HW212684   6.073   5.405   6.670
 3929SOL     OW12685   0.597   1.684   4.443
 3929SOL    HW112686   0.524   1.641   4.496
 3929SOL    HW212687   0.635   1.617   4.379
 3930SOL     OW12688   3.036   1.950   3.908
 3930SOL    HW112689   3.045   1.857   3.942
 3930SOL    HW212690   3.127   1.986   3.887
 3931SOL     OW12691   5.365   0.271   2.282
 3931SOL    HW112692   5.367   0.267   2.382
 3931SOL    HW212693   5.435   0.210   2.245
 3932SOL     OW12694   1.679   1.640   4.113
 3932SOL    HW112695   1.686   1.634   4.013
 3932SOL    HW212696   1.737   1.570   4.155
 3933SOL     OW12697   0.976   0.200   5.809
 3933SOL    HW112698   1.021   0.207   5.898
 3933SOL    HW212699   0.909   0.126   5.811
 3934SOL     OW12700   4.943   6.744   6.917
 3934SOL    HW112701   4.958   6.721   7.013
 3934SOL    HW212702   5.008   6.694   6.860
 3935SOL     OW12703   4.894   6.928   1.025
 3935SOL    HW112704   4.897   6.988   1.105
 3935SOL    HW212705   4.899   6.833   1.054
 3936SOL     OW12706   0.725   4.737   2.450
 3936SOL    HW112707   0.734   4.686   2.364
 3936SOL    HW212708   0.671   4.684   2.515
 3937SOL     OW12709   0.218   1.549   2.640
 3937SOL    HW112710   0.242   1.461   2.599
 3937SOL    HW212711   0.131   1.581   2.602
 3938SOL     OW12712   0.505   2.406   3.069
 3938SOL    HW112713   0.586   2.348   3.074
 3938SOL    HW212714   0.533   2.501   3.057
 3939SOL     OW12715   2.433   2.399   1.455
 3939SOL    HW112716   2.517   2.435   1.416
 3939SOL    HW212717   2.433   2.300   1.451
 3940SOL     OW12718   4.405   3.656   1.420
 3940SOL    HW112719   4.491   3.618   1.455
 3940SOL    HW212720   4.416   3.755   1.408
 3941SOL     OW12721   4.614   3.225   6.757
 3941SOL    HW112722   4.543   3.278   6.710
 3941SOL    HW212723   4.651   3.279   6.833
 3942SOL     OW12724   6.592   0.751   0.048
 3942SOL    HW112725   6.596   0.761   0.148
 3942SOL    HW212726   6.672   0.699   0.017
 3943SOL     OW12727   0.076   3.097   5.111
 3943SOL    HW112728   0.156   3.073   5.058
 3943SOL    HW212729   7.021   3.049   5.075
 3944SOL     OW12730   5.231   1.521   4.575
 3944SOL    HW112731   5.204   1.477   4.490
 3944SOL    HW212732   5.324   1.558   4.566
 3945SOL     OW12733   0.033   0.893   0.732
 3945SOL    HW112734   0.111   0.851   0.685
 3945SOL    HW212735   0.062   0.980   0.773
 3946SOL     OW12736   4.071   4.796   3.304
 3946SOL    HW112737   4.165   4.788   3.337
 3946SOL    HW212738   4.010   4.816   3.380
 3947SOL     OW12739   6.326   4.739   6.110
 3947SOL    HW112740   6.257   4.668   6.100
 3947SOL    HW212741   6.404   4.703   6.161
 3948SOL     OW12742   6.128   3.567   1.055
 3948SOL    HW112743   6.059   3.525   1.115
 3948SOL    HW212744   6.194   3.616   1.111
 3949SOL     OW12745   5.614   6.680   3.231
 3949SOL    HW112746   5.697   6.727   3.204
 3949SOL    HW212747   5.602   6.598   3.175
 3950SOL     OW12748   1.970   6.366   0.571
 3950SOL    HW112749   1.896   6.354   0.637
 3950SOL    HW212750   2.058   6.358   0.617
 3951SOL     OW12751   5.463   6.777   1.470
 3951SOL    HW112752   5.468   6.768   1.371
 3951SOL    HW212753   5.555   6.775   1.509
 3952SOL     OW12754   5.746   2.298   6.967
 3952SOL    HW112755   5.712   2.228   0.005
 3952SOL    HW212756   5.845   2.290   6.959
 3953SOL     OW12757   3.927   3.868   2.681
 3953SOL    HW112758   3.987   3.850   2.759
 3953SOL    HW212759   3.833   3.844   2.705
 3954SOL     OW12760   4.383   4.871   5.558
 3954SOL    HW112761   4.329   4.950   5.586
 3954SOL    HW212762   4.372   4.798   5.625
 3955SOL     OW12763   4.000   0.974   4.725
 3955SOL    HW112764   3.983   0.892   4.669
 3955SOL    HW212765   3.992   0.950   4.821
 3956SOL     OW12766   2.558   1.129   1.754
 3956SOL    HW112767   2.492   1.203   1.763
 3956SOL    HW212768   2.516   1.052   1.705
 3957SOL     OW12769   3.760   0.692   4.377
 3957SOL    HW112770   3.764   0.717   4.280
 3957SOL    HW212771   3.695   0.751   4.424
 3958SOL     OW12772   5.593   0.328   5.524
 3958SOL    HW112773   5.599   0.238   5.566
 3958SOL    HW212774   5.510   0.334   5.468
 3959SOL     OW12775   4.825   5.224   0.269
 3959SOL    HW112776   4.737   5.227   0.317
 3959SOL    HW212777   4.845   5.314   0.231
 3960SOL     OW12778   5.683   1.426   4.702
 3960SOL    HW112779   5.729   1.429   4.791
 3960SOL    HW212780   5.615   1.353   4.702
 3961SOL     OW12781   5.696   6.367   3.792
 3961SOL    HW112782   5.785   6.410   3.813
 3961SOL    HW212783   5.685   6.362   3.693
 3962SOL     OW12784   6.945   5.588   5.416
 3962SOL    HW112785   6.956   5.686   5.431
 3962SOL    HW212786   7.002   5.538   5.481
 3963SOL     OW12787   4.629   6.651   2.152
 3963SOL    HW112788   4.635   6.649   2.252
 3963SOL    HW212789   4.666   6.565   2.116
 3964SOL     OW12790   5.510   2.817   3.446
 3964SOL    HW112791   5.433   2.815   3.382
 3964SOL    HW212792   5.479   2.782   3.535
 3965SOL     OW12793   4.796   3.991   4.282
 3965SOL    HW112794   4.789   3.909   4.338
 3965SOL    HW212795   4.887   4.031   4.292
 3966SOL     OW12796   2.535   6.502   6.578
 3966SOL    HW112797   2.473   6.560   6.631
 3966SOL    HW212798   2.625   6.501   6.623
 3967SOL     OW12799   2.130   4.516   3.531
 3967SOL    HW112800   2.156   4.554   3.442
 3967SOL    HW212801   2.080   4.585   3.583
 3968SOL     OW12802   3.449   0.052   0.855
 3968SOL    HW112803   3.533   0.028   0.806
 3968SOL    HW212804   3.446   0.151   0.871
 3969SOL     OW12805   0.596   5.467   2.852
 3969SOL    HW112806   0.672   5.406   2.828
 3969SOL    HW212807   0.596   5.546   2.791
 3970SOL     OW12808   4.988   6.334   2.056
 3970SOL    HW112809   4.979   6.341   1.957
 3970SOL    HW212810   5.038   6.413   2.091
 3971SOL     OW12811   2.084   6.162   3.376
 3971SOL    HW112812   2.072   6.062   3.374
 3971SOL    HW212813   2.012   6.205   3.322
 3972SOL     OW12814   1.621   3.747   6.935
 3972SOL    HW112815   1.536   3.800   6.934
 3972SOL    HW212816   1.653   3.738   0.004
 3973SOL     OW12817   1.661   5.401   1.182
 3973SOL    HW112818   1.639   5.386   1.086
 3973SOL    HW212819   1.758   5.427   1.191
 3974SOL     OW12820   2.571   1.489   5.197
 3974SOL    HW112821   2.561   1.459   5.102
 3974SOL    HW212822   2.489   1.538   5.225
 3975SOL     OW12823   6.098   2.579   6.217
 3975SOL    HW112824   6.185   2.627   6.228
 3975SOL    HW212825   6.034   2.638   6.167
 3976SOL     OW12826   2.108   5.063   2.182
 3976SOL    HW112827   2.139   5.012   2.263
 3976SOL    HW212828   2.009   5.056   2.174
 3977SOL     OW12829   0.956   3.419   6.628
 3977SOL    HW112830   1.018   3.445   6.553
 3977SOL    HW212831   0.935   3.321   6.620
 3978SOL     OW12832   6.175   3.909   3.715
 3978SOL    HW112833   6.263   3.871   3.743
 3978SOL    HW212834   6.157   3.886   3.620
 3979SOL     OW12835   3.945   6.807   6.399
 3979SOL    HW112836   4.030   6.810   6.347
 3979SOL    HW212837   3.897   6.894   6.391
 3980SOL     OW12838   5.127   5.670   6.165
 3980SOL    HW112839   5.034   5.703   6.177
 3980SOL    HW212840   5.173   5.724   6.094
 3981SOL     OW12841   4.406   6.332   0.194
 3981SOL    HW112842   4.412   6.345   0.293
 3981SOL    HW212843   4.331   6.387   0.158
 3982SOL     OW12844   2.877   6.186   3.355
 3982SOL    HW112845   2.966   6.178   3.399
 3982SOL    HW212846   2.863   6.279   3.323
 3983SOL     OW12847   3.743   5.899   4.406
 3983SOL    HW112848   3.660   5.919   4.354
 3983SOL    HW212849   3.796   5.983   4.418
 3984SOL     OW12850   6.673   2.570   3.391
 3984SOL    HW112851   6.729   2.519   3.456
 3984SOL    HW212852   6.705   2.664   3.384
 3985SOL     OW12853   4.197   4.772   6.333
 3985SOL    HW112854   4.105   4.775   6.373
 3985SOL    HW212855   4.232   4.679   6.336
 3986SOL     OW12856   5.693   0.832   2.885
 3986SOL    HW112857   5.672   0.852   2.980
 3986SOL    HW212858   5.607   0.814   2.835
 3987SOL     OW12859   3.354   5.274   4.945
 3987SOL    HW112860   3.413   5.347   4.979
 3987SOL    HW212861   3.314   5.301   4.858
 3988SOL     OW12862   3.626   5.949   0.946
 3988SOL    HW112863   3.631   6.027   1.008
 3988SOL    HW212864   3.684   5.875   0.980
 3989SOL     OW12865   5.706   2.000   0.481
 3989SOL    HW112866   5.623   1.965   0.523
 3989SOL    HW212867   5.697   2.098   0.463
 3990SOL     OW12868   6.632   1.733   2.570
 3990SOL    HW112869   6.717   1.776   2.600
 3990SOL    HW212870   6.573   1.801   2.528
 3991SOL     OW12871   6.401   0.559   3.160
 3991SOL    HW112872   6.499   0.540   3.165
 3991SOL    HW212873   6.353   0.479   3.123
 3992SOL     OW12874   3.333   1.992   1.044
 3992SOL    HW112875   3.413   1.964   1.097
 3992SOL    HW212876   3.313   1.922   0.975
 3993SOL     OW12877   0.777   3.063   1.952
 3993SOL    HW112878   0.727   3.053   1.866
 3993SOL    HW212879   0.808   2.973   1.983
 3994SOL     OW12880   2.314   5.990   4.672
 3994SOL    HW112881   2.237   5.957   4.617
 3994SOL    HW212882   2.284   5.998   4.768
 3995SOL     OW12883   1.580   1.863   4.792
 3995SOL    HW112884   1.608   1.956   4.816
 3995SOL    HW212885   1.610   1.842   4.699
 3996SOL     OW12886   6.684   6.371   4.493
 3996SOL    HW112887   6.594   6.378   4.451
 3996SOL    HW212888   6.687   6.291   4.553
 3997SOL     OW12889   4.376   0.849   4.566
 3997SOL    HW112890   4.425   0.775   4.520
 3997SOL    HW212891   4.367   0.827   4.663
 3998SOL     OW12892   4.661   1.741   3.361
 3998SOL    HW112893   4.684   1.808   3.291
 3998SOL    HW212894   4.563   1.746   3.382
 3999SOL     OW12895   4.972   2.147   4.781
 3999SOL    HW112896   5.059   2.110   4.749
 3999SOL    HW212897   4.906   2.073   4.793
 4000SOL     OW12898   4.253   6.581   4.260
 4000SOL    HW112899   4.198   6.501   4.235
 4000SOL    HW212900   4.320   6.599   4.187
 4001SOL     OW12901   1.285   2.315   4.382
 4001SOL    HW112902   1.287   2.412   4.406
 4001SOL    HW212903   1.195   2.292   4.344
 4002SOL     OW12904   2.324   4.125   1.923
 4002SOL    HW112905   2.241   4.140   1.976
 4002SOL    HW212906   2.402   4.114   1.985
 4003SOL     OW12907   3.465   1.905   5.192
 4003SOL    HW112908   3.453   1.870   5.285
 4003SOL    HW212909   3.560   1.934   5.180
 4004SOL     OW12910   6.638   1.765   5.326
 4004SOL    HW112911   6.544   1.795   5.306
 4004SOL    HW212912   6.700   1.802   5.258
 4005SOL     OW12913   6.026   4.411   4.935
 4005SOL    HW112914   5.978   4.389   5.020
 4005SOL    HW212915   5.965   4.462   4.874
 4006SOL     OW12916   3.770   5.484   2.776
 4006SOL    HW112917   3.777   5.552   2.850
 4006SOL    HW212918   3.832   5.408   2.794
 4007SOL     OW12919   6.701   1.911   6.605
 4007SOL    HW112920   6.720   1.875   6.513
 4007SOL    HW212921   6.762   1.868   6.671
 4008SOL     OW12922   2.763   2.206   4.944
 4008SOL    HW112923   2.716   2.269   5.006
 4008SOL    HW212924   2.831   2.154   4.995
 4009SOL     OW12925   3.285   3.402   2.696
 4009SOL    HW112926   3.363   3.352   2.659
 4009SOL    HW212927   3.200   3.357   2.669
 4010SOL     OW12928   1.400   2.871   6.735
 4010SOL    HW112929   1.498   2.849   6.730
 4010SOL    HW212930   1.374   2.885   6.830
 4011SOL     OW12931   0.910   2.659   1.031
 4011SOL    HW112932   0.841   2.595   1.063
 4011SOL    HW212933   0.931   2.642   0.935
 4012SOL     OW12934   5.518   2.647   3.774
 4012SOL    HW112935   5.458   2.710   3.724
 4012SOL    HW212936   5.487   2.553   3.760
 4013SOL     OW12937   4.458   2.329   3.451
 4013SOL    HW112938   4.530   2.337   3.382
 4013SOL    HW212939   4.499   2.332   3.542
 4014SOL     OW12940   5.641   6.063   2.569
 4014SOL    HW112941   5.585   5.981   2.563
 4014SOL    HW212942   5.642   6.110   2.480
 4015SOL     OW12943   4.467   3.449   0.130
 4015SOL    HW112944   4.543   3.492   0.080
 4015SOL    HW212945   4.388   3.441   0.070
 4016SOL     OW12946   3.451   6.154   5.274
 4016SOL    HW112947   3.399   6.185   5.354
 4016SOL    HW212948   3.407   6.188   5.191
 4017SOL     OW12949   6.142   6.580   6.801
 4017SOL    HW112950   6.106   6.522   6.728
 4017SOL    HW212951   6.147   6.527   6.886
 4018SOL     OW12952   1.509   6.576   0.094
 4018SOL    HW112953   1.554   6.519   0.163
 4018SOL    HW212954   1.568   6.654   0.072
 4019SOL     OW12955   4.874   5.351   3.469
 4019SOL    HW112956   4.944   5.302   3.521
 4019SOL    HW212957   4.888   5.334   3.371
 4020SOL     OW12958   5.547   1.596   5.117
 4020SOL    HW112959   5.478   1.568   5.184
 4020SOL    HW212960   5.504   1.652   5.046
 4021SOL     OW12961   4.516   4.222   6.917
 4021SOL    HW112962   4.447   4.225   6.844
 4021SOL    HW212963   4.475   4.249   7.004
 4022SOL     OW12964   5.344   0.107   0.814
 4022SOL    HW112965   5.304   0.172   0.749
 4022SOL    HW212966   5.411   0.155   0.871
 4023SOL     OW12967   6.845   0.110   5.540
 4023SOL    HW112968   6.944   0.093   5.546
 4023SOL    HW212969   6.805   0.109   5.632
 4024SOL     OW12970   4.446   4.633   4.337
 4024SOL    HW112971   4.384   4.711   4.352
 4024SOL    HW212972   4.469   4.627   4.240
 4025SOL     OW12973   1.173   4.112   3.624
 4025SOL    HW112974   1.241   4.167   3.575
 4025SOL    HW212975   1.185   4.125   3.722
 4026SOL     OW12976   4.871   6.946   4.881
 4026SOL    HW112977   4.898   6.977   4.789
 4026SOL    HW212978   4.800   7.006   4.917
 4027SOL     OW12979   3.428   4.975   2.704
 4027SOL    HW112980   3.331   4.950   2.704
 4027SOL    HW212981   3.475   4.923   2.632
 4028SOL     OW12982   2.361   5.932   3.684
 4028SOL    HW112983   2.274   5.891   3.655
 4028SOL    HW212984   2.401   5.877   3.758
 4029SOL     OW12985   2.133   4.060   3.708
 4029SOL    HW112986   2.071   4.090   3.781
 4029SOL    HW212987   2.189   4.136   3.678
 4030SOL     OW12988   1.365   1.636   6.382
 4030SOL    HW112989   1.452   1.590   6.367
 4030SOL    HW212990   1.380   1.722   6.431
 4031SOL     OW12991   5.858   5.771   4.141
 4031SOL    HW112992   5.894   5.827   4.067
 4031SOL    HW212993   5.887   5.808   4.229
 4032SOL     OW12994   3.966   7.017   5.160
 4032SOL    HW112995   4.045   6.988   5.213
 4032SOL    HW212996   3.973   6.982   5.067
 4033SOL     OW12997   3.288   3.823   5.973
 4033SOL    HW112998   3.245   3.742   5.934
 4033SOL    HW212999   3.243   3.846   6.060
 4034SOL     OW13000   5.518   3.103   5.124
 4034SOL    HW113001   5.585   3.170   5.154
 4034SOL    HW213002   5.490   3.123   5.030
 4035SOL     OW13003   0.293   5.595   1.301
 4035SOL    HW113004   0.282   5.694   1.303
 4035SOL    HW213005   0.210   5.553   1.263
 4036SOL     OW13006   0.134   5.986   2.367
 4036SOL    HW113007   0.049   5.933   2.361
 4036SOL    HW213008   0.169   5.983   2.461
 4037SOL     OW13009   0.221   3.576   5.640
 4037SOL    HW113010   0.125   3.547   5.641
 4037SOL    HW213011   0.235   3.645   5.711
 4038SOL     OW13012   6.187   5.247   3.361
 4038SOL    HW113013   6.138   5.281   3.441
 4038SOL    HW213014   6.224   5.324   3.309
 4039SOL     OW13015   2.945   5.567   1.085
 4039SOL    HW113016   2.910   5.586   0.993
 4039SOL    HW213017   3.029   5.619   1.100
 4040SOL     OW13018   3.106   6.660   0.482
 4040SOL    HW113019   3.094   6.645   0.580
 4040SOL    HW213020   3.041   6.603   0.431
 4041SOL     OW13021   0.895   6.452   3.001
 4041SOL    HW113022   0.843   6.508   2.936
 4041SOL    HW213023   0.961   6.396   2.951
 4042SOL     OW13024   5.914   5.996   2.521
 4042SOL    HW113025   5.823   6.023   2.553
 4042SOL    HW213026   5.939   5.908   2.560
 4043SOL     OW13027   6.754   3.549   1.423
 4043SOL    HW113028   6.809   3.616   1.373
 4043SOL    HW213029   6.669   3.593   1.454
 4044SOL     OW13030   5.951   5.363   2.577
 4044SOL    HW113031   5.928   5.276   2.533
 4044SOL    HW213032   6.021   5.348   2.646
 4045SOL     OW13033   2.454   4.630   5.606
 4045SOL    HW113034   2.354   4.627   5.597
 4045SOL    HW213035   2.486   4.722   5.583
 4046SOL     OW13036   6.979   3.095   0.406
 4046SOL    HW113037   6.918   3.168   0.435
 4046SOL    HW213038   6.933   3.037   0.339
 4047SOL     OW13039   2.921   3.807   2.632
 4047SOL    HW113040   2.895   3.765   2.719
 4047SOL    HW213041   2.903   3.743   2.558
 4048SOL     OW13042   4.619   2.467   0.377
 4048SOL    HW113043   4.614   2.562   0.405
 4048SOL    HW213044   4.527   2.436   0.351
 4049SOL     OW13045   6.609   0.946   6.306
 4049SOL    HW113046   6.684   0.954   6.241
 4049SOL    HW213047   6.642   0.970   6.398
 4050SOL     OW13048   3.305   0.841   2.730
 4050SOL    HW113049   3.399   0.868   2.755
 4050SOL    HW213050   3.304   0.745   2.703
 4051SOL     OW13051   1.479   4.274   1.117
 4051SOL    HW113052   1.454   4.184   1.153
 4051SOL    HW213053   1.454   4.279   1.020
 4052SOL     OW13054   1.543   6.856   1.552
 4052SOL    HW113055   1.518   6.950   1.531
 4052SOL    HW213056   1.462   6.806   1.581
 4053SOL     OW13057   3.070   5.091   3.412
 4053SOL    HW113058   3.064   4.994   3.433
 4053SOL    HW213059   3.020   5.110   3.327
 4054SOL     OW13060   5.306   1.681   6.646
 4054SOL    HW113061   5.301   1.706   6.743
 4054SOL    HW213062   5.293   1.763   6.590
 4055SOL     OW13063   4.772   3.023   0.047
 4055SOL    HW113064   4.748   2.929   0.075
 4055SOL    HW213065   4.701   3.086   0.080
 4056SOL     OW13066   4.361   2.787   0.194
 4056SOL    HW113067   4.274   2.818   0.233
 4056SOL    HW213068   4.348   2.697   0.151
 4057SOL     OW13069   6.090   2.478   0.621
 4057SOL    HW113070   6.106   2.381   0.602
 4057SOL    HW213071   6.003   2.490   0.668
 4058SOL     OW13072   0.529   1.662   3.698
 4058SOL    HW113073   0.626   1.638   3.694
 4058SOL    HW213074   0.514   1.731   3.769
 4059SOL     OW13075   6.947   2.096   5.527
 4059SOL    HW113076   0.000   2.068   5.472
 4059SOL    HW213077   6.881   2.021   5.531
 4060SOL     OW13078   3.365   5.991   5.707
 4060SOL    HW113079   3.431   5.933   5.659
 4060SOL    HW213080   3.282   5.939   5.726
 4061SOL     OW13081   2.214   2.892   1.352
 4061SOL    HW113082   2.193   2.795   1.351
 4061SOL    HW213083   2.232   2.923   1.258
 4062SOL     OW13084   3.036   6.379   2.738
 4062SOL    HW113085   3.067   6.463   2.693
 4062SOL    HW213086   3.019   6.309   2.669
 4063SOL     OW13087   2.709   5.383   6.600
 4063SOL    HW113088   2.645   5.456   6.624
 4063SOL    HW213089   2.698   5.359   6.504
 4064SOL     OW13090   6.730   6.886   4.215
 4064SOL    HW113091   6.706   6.981   4.196
 4064SOL    HW213092   6.671   6.850   4.287
 4065SOL     OW13093   0.396   4.530   6.052
 4065SOL    HW113094   0.355   4.547   6.142
 4065SOL    HW213095   0.345   4.458   6.005
 4066SOL     OW13096   5.080   5.218   1.415
 4066SOL    HW113097   5.071   5.120   1.432
 4066SOL    HW213098   5.023   5.269   1.479
 4067SOL     OW13099   5.724   0.909   1.345
 4067SOL    HW113100   5.670   0.827   1.362
 4067SOL    HW213101   5.810   0.904   1.397
 4068SOL     OW13102   5.634   0.927   4.475
 4068SOL    HW113103   5.729   0.898   4.488
 4068SOL    HW213104   5.633   1.020   4.438
 4069SOL     OW13105   6.725   6.094   0.789
 4069SOL    HW113106   6.640   6.043   0.802
 4069SOL    HW213107   6.803   6.032   0.792
 4070SOL     OW13108   0.090   3.820   3.047
 4070SOL    HW113109   0.038   3.791   2.967
 4070SOL    HW213110   0.064   3.765   3.126
 4071SOL     OW13111   2.857   0.179   4.133
 4071SOL    HW113112   2.773   0.194   4.080
 4071SOL    HW213113   2.865   0.083   4.158
 4072SOL     OW13114   0.792   0.120   4.411
 4072SOL    HW113115   0.797   0.197   4.348
 4072SOL    HW213116   0.736   0.047   4.372
 4073SOL     OW13117   2.590   5.197   2.177
 4073SOL    HW113118   2.547   5.201   2.087
 4073SOL    HW213119   2.575   5.106   2.216
 4074SOL     OW13120   0.221   3.124   0.264
 4074SOL    HW113121   0.153   3.176   0.315
 4074SOL    HW213122   0.214   3.145   0.167
 4075SOL     OW13123   5.725   0.331   3.808
 4075SOL    HW113124   5.769   0.421   3.801
 4075SOL    HW213125   5.626   0.343   3.809
 4076SOL     OW13126   1.755   2.703   3.036
 4076SOL    HW113127   1.749   2.795   2.997
 4076SOL    HW213128   1.835   2.697   3.095
 4077SOL     OW13129   4.077   0.596   0.566
 4077SOL    HW113130   4.036   0.523   0.620
 4077SOL    HW213131   4.176   0.589   0.569
 4078SOL     OW13132   4.718   4.608   2.812
 4078SOL    HW113133   4.745   4.550   2.735
 4078SOL    HW213134   4.800   4.649   2.853
 4079SOL     OW13135   5.525   0.348   4.219
 4079SOL    HW113136   5.621   0.320   4.230
 4079SOL    HW213137   5.512   0.438   4.259
 4080SOL     OW13138   2.939   3.283   3.501
 4080SOL    HW113139   2.933   3.324   3.410
 4080SOL    HW213140   2.860   3.224   3.516
 4081SOL     OW13141   2.458   1.670   6.916
 4081SOL    HW113142   2.481   1.641   7.009
 4081SOL    HW213143   2.360   1.689   6.910
 4082SOL     OW13144   0.925   1.699   5.810
 4082SOL    HW113145   0.975   1.645   5.742
 4082SOL    HW213146   0.991   1.738   5.875
 4083SOL     OW13147   6.231   5.270   2.684
 4083SOL    HW113148   6.234   5.199   2.754
 4083SOL    HW213149   6.299   5.250   2.614
 4084SOL     OW13150   4.954   6.890   1.944
 4084SOL    HW113151   5.029   6.882   1.878
 4084SOL    HW213152   4.885   6.821   1.925
 4085SOL     OW13153   2.221   4.059   2.806
 4085SOL    HW113154   2.128   4.089   2.786
 4085SOL    HW213155   2.261   4.118   2.877
 4086SOL     OW13156   5.792   5.123   5.030
 4086SOL    HW113157   5.792   5.221   5.049
 4086SOL    HW213158   5.886   5.090   5.021
 4087SOL     OW13159   2.134   0.808   2.215
 4087SOL    HW113160   2.170   0.716   2.229
 4087SOL    HW213161   2.041   0.802   2.178
 4088SOL     OW13162   0.147   1.477   5.515
 4088SOL    HW113163   0.172   1.478   5.418
 4088SOL    HW213164   0.087   1.400   5.535
 4089SOL     OW13165   1.612   0.824   2.960
 4089SOL    HW113166   1.685   0.850   2.898
 4089SOL    HW213167   1.561   0.906   2.989
 4090SOL     OW13168   3.106   2.391   5.775
 4090SOL    HW113169   3.110   2.480   5.819
 4090SOL    HW213170   3.140   2.399   5.681
 4091SOL     OW13171   3.497   6.127   2.569
 4091SOL    HW113172   3.409   6.163   2.537
 4091SOL    HW213173   3.489   6.029   2.583
 4092SOL     OW13174   5.328   1.927   5.853
 4092SOL    HW113175   5.350   2.017   5.817
 4092SOL    HW213176   5.397   1.861   5.822
 4093SOL     OW13177   5.585   3.617   2.684
 4093SOL    HW113178   5.602   3.692   2.747
 4093SOL    HW213179   5.668   3.599   2.630
 4094SOL     OW13180   6.988   6.834   0.189
 4094SOL    HW113181   6.949   6.842   0.097
 4094SOL    HW213182   7.020   6.740   0.204
 4095SOL     OW13183   1.903   5.390   0.831
 4095SOL    HW113184   1.858   5.477   0.810
 4095SOL    HW213185   1.992   5.407   0.873
 4096SOL     OW13186   0.598   0.127   6.270
 4096SOL    HW113187   0.518   0.179   6.301
 4096SOL    HW213188   0.568   0.038   6.237
 4097SOL     OW13189   1.003   3.882   5.400
 4097SOL    HW113190   1.056   3.957   5.360
 4097SOL    HW213191   1.051   3.796   5.387
 4098SOL     OW13192   1.501   6.064   2.067
 4098SOL    HW113193   1.524   6.160   2.057
 4098SOL    HW213194   1.528   6.032   2.158
 4099SOL     OW13195   6.734   3.391   5.689
 4099SOL    HW113196   6.673   3.385   5.768
 4099SOL    HW213197   6.682   3.424   5.610
 4100SOL     OW13198   2.422   0.383   3.330
 4100SOL    HW113199   2.350   0.325   3.292
 4100SOL    HW213200   2.498   0.388   3.266
 4101SOL     OW13201   6.324   6.026   5.933
 4101SOL    HW113202   6.330   6.124   5.913
 4101SOL    HW213203   6.228   5.998   5.937
 4102SOL     OW13204   1.811   5.984   0.562
 4102SOL    HW113205   1.910   5.970   0.551
 4102SOL    HW213206   1.762   5.922   0.501
 4103SOL     OW13207   2.356   5.134   2.550
 4103SOL    HW113208   2.399   5.201   2.490
 4103SOL    HW213209   2.260   5.122   2.524
 4104SOL     OW13210   1.590   6.291   5.101
 4104SOL    HW113211   1.554   6.232   5.173
 4104SOL    HW213212   1.527   6.367   5.086
 4105SOL     OW13213   3.653   6.608   1.788
 4105SOL    HW113214   3.664   6.525   1.733
 4105SOL    HW213215   3.671   6.588   1.884
 4106SOL     OW13216   1.734   0.297   2.714
 4106SOL    HW113217   1.744   0.246   2.799
 4106SOL    HW213218   1.815   0.284   2.657
 4107SOL     OW13219   1.615   1.355   0.749
 4107SOL    HW113220   1.614   1.406   0.835
 4107SOL    HW213221   1.699   1.377   0.698
 4108SOL     OW13222   6.744   6.489   5.132
 4108SOL    HW113223   6.709   6.524   5.045
 4108SOL    HW213224   6.827   6.435   5.115
 4109SOL     OW13225   4.578   6.535   4.520
 4109SOL    HW113226   4.602   6.457   4.579
 4109SOL    HW213227   4.571   6.617   4.576
 4110SOL     OW13228   4.066   3.374   0.379
 4110SOL    HW113229   4.070   3.468   0.413
 4110SOL    HW213230   4.153   3.327   0.399
 4111SOL     OW13231   6.092   4.596   3.766
 4111SOL    HW113232   5.993   4.583   3.769
 4111SOL    HW213233   6.129   4.550   3.686
 4112SOL     OW13234   3.848   6.036   5.202
 4112SOL    HW113235   3.915   6.008   5.133
 4112SOL    HW213236   3.810   6.125   5.176
 4113SOL     OW13237   4.830   5.307   5.429
 4113SOL    HW113238   4.744   5.264   5.459
 4113SOL    HW213239   4.886   5.239   5.381
 4114SOL     OW13240   0.192   0.737   2.634
 4114SOL    HW113241   0.096   0.713   2.641
 4114SOL    HW213242   0.245   0.655   2.611
 4115SOL     OW13243   3.862   5.944   4.790
 4115SOL    HW113244   3.930   5.979   4.725
 4115SOL    HW213245   3.904   5.871   4.845
 4116SOL     OW13246   6.232   3.418   4.301
 4116SOL    HW113247   6.230   3.344   4.234
 4116SOL    HW213248   6.171   3.492   4.272
 4117SOL     OW13249   0.139   1.247   2.870
 4117SOL    HW113250   0.165   1.158   2.908
 4117SOL    HW213251   0.133   1.240   2.771
 4118SOL     OW13252   1.566   0.491   1.419
 4118SOL    HW113253   1.599   0.420   1.481
 4118SOL    HW213254   1.631   0.503   1.344
 4119SOL     OW13255   0.038   0.855   5.311
 4119SOL    HW113256   7.021   0.858   5.402
 4119SOL    HW213257   6.994   0.879   5.243
 4120SOL     OW13258   2.068   0.710   6.175
 4120SOL    HW113259   2.122   0.792   6.192
 4120SOL    HW213260   1.971   0.728   6.195
 4121SOL     OW13261   6.365   0.895   1.552
 4121SOL    HW113262   6.344   0.992   1.565
 4121SOL    HW213263   6.314   0.861   1.473
 4122SOL     OW13264   0.943   5.293   3.203
 4122SOL    HW113265   0.863   5.255   3.249
 4122SOL    HW213266   0.955   5.388   3.232
 4123SOL     OW13267   5.882   4.399   1.542
 4123SOL    HW113268   5.963   4.437   1.587
 4123SOL    HW213269   5.889   4.414   1.443
 4124SOL     OW13270   6.265   6.819   0.349
 4124SOL    HW113271   6.215   6.833   0.434
 4124SOL    HW213272   6.301   6.906   0.316
 4125SOL     OW13273   7.005   2.765   6.500
 4125SOL    HW113274   6.954   2.721   6.426
 4125SOL    HW213275   6.955   2.753   6.586
 4126SOL     OW13276   1.391   4.210   4.236
 4126SOL    HW113277   1.474   4.264   4.248
 4126SOL    HW213278   1.322   4.239   4.302
 4127SOL     OW13279   5.084   2.177   3.822
 4127SOL    HW113280   5.126   2.156   3.734
 4127SOL    HW213281   5.148   2.156   3.895
 4128SOL     OW13282   6.718   2.409   5.876
 4128SOL    HW113283   6.809   2.375   5.854
 4128SOL    HW213284   6.701   2.396   5.974
 4129SOL     OW13285   3.751   0.839   1.707
 4129SOL    HW113286   3.655   0.840   1.735
 4129SOL    HW213287   3.782   0.932   1.693
 4130SOL     OW13288   5.160   2.504   0.048
 4130SOL    HW113289   5.104   2.562   0.107
 4130SOL    HW213290   5.247   2.551   0.029
 4131SOL     OW13291   4.808   6.035   3.794
 4131SOL    HW113292   4.876   5.974   3.752
 4131SOL    HW213293   4.851   6.086   3.868
 4132SOL     OW13294   6.619   4.196   2.965
 4132SOL    HW113295   6.716   4.197   2.991
 4132SOL    HW213296   6.591   4.102   2.946
 4133SOL     OW13297   5.419   6.255   3.685
 4133SOL    HW113298   5.500   6.256   3.744
 4133SOL    HW213299   5.336   6.250   3.741
 4134SOL     OW13300   1.266   3.962   0.894
 4134SOL    HW113301   1.332   4.033   0.919
 4134SOL    HW213302   1.282   3.880   0.949
 4135SOL     OW13303   5.890   1.173   0.971
 4135SOL    HW113304   5.863   1.082   1.004
 4135SOL    HW213305   5.989   1.176   0.960
 4136SOL     OW13306   0.663   4.565   0.164
 4136SOL    HW113307   0.672   4.604   0.072
 4136SOL    HW213308   0.690   4.469   0.162
 4137SOL     OW13309   6.995   2.771   5.842
 4137SOL    HW113310   6.993   2.860   5.887
 4137SOL    HW213311   6.903   2.732   5.843
 4138SOL     OW13312   5.268   0.139   6.264
 4138SOL    HW113313   5.196   0.208   6.276
 4138SOL    HW213314   5.279   0.119   6.167
 4139SOL     OW13315   1.605   4.566   2.438
 4139SOL    HW113316   1.570   4.650   2.398
 4139SOL    HW213317   1.699   4.582   2.471
 4140SOL     OW13318   2.320   0.597   6.715
 4140SOL    HW113319   2.272   0.537   6.651
 4140SOL    HW213320   2.290   0.691   6.702
 4141SOL     OW13321   5.226   0.614   5.894
 4141SOL    HW113322   5.325   0.631   5.897
 4141SOL    HW213323   5.186   0.632   5.984
 4142SOL     OW13324   6.559   6.370   1.272
 4142SOL    HW113325   6.601   6.312   1.342
 4142SOL    HW213326   6.608   6.360   1.186
 4143SOL     OW13327   6.649   3.938   6.906
 4143SOL    HW113328   6.577   3.969   6.844
 4143SOL    HW213329   6.705   3.869   6.860
 4144SOL     OW13330   4.345   0.383   1.343
 4144SOL    HW113331   4.285   0.304   1.359
 4144SOL    HW213332   4.375   0.382   1.248
 4145SOL     OW13333   5.275   0.644   1.015
 4145SOL    HW113334   5.307   0.555   1.048
 4145SOL    HW213335   5.347   0.688   0.961
 4146SOL     OW13336   4.549   0.225   2.268
 4146SOL    HW113337   4.485   0.298   2.294
 4146SOL    HW213338   4.625   0.264   2.215
 4147SOL     OW13339   4.561   4.367   6.672
 4147SOL    HW113340   4.531   4.460   6.650
 4147SOL    HW213341   4.552   4.352   6.770
 4148SOL     OW13342   2.864   1.433   6.042
 4148SOL    HW113343   2.804   1.505   6.076
 4148SOL    HW213344   2.811   1.350   6.028
 4149SOL     OW13345   1.853   3.368   6.466
 4149SOL    HW113346   1.773   3.394   6.521
 4149SOL    HW213347   1.822   3.329   6.379
 4150SOL     OW13348   6.104   1.660   0.570
 4150SOL    HW113349   6.036   1.724   0.534
 4150SOL    HW213350   6.100   1.661   0.670
 4151SOL     OW13351   2.683   5.947   4.702
 4151SOL    HW113352   2.624   6.015   4.659
 4151SOL    HW213353   2.773   5.986   4.718
 4152SOL     OW13354   3.121   4.165   1.095
 4152SOL    HW113355   3.172   4.157   1.009
 4152SOL    HW213356   3.027   4.135   1.080
 4153SOL     OW13357   6.627   6.185   1.475
 4153SOL    HW113358   6.639   6.091   1.443
 4153SOL    HW213359   6.703   6.210   1.535
 4154SOL     OW13360   0.294   6.634   4.454
 4154SOL    HW113361   0.233   6.569   4.498
 4154SOL    HW213362   0.250   6.724   4.451
 4155SOL     OW13363   5.738   1.175   1.751
 4155SOL    HW113364   5.683   1.222   1.682
 4155SOL    HW213365   5.751   1.079   1.723
 4156SOL     OW13366   0.722   4.216   5.817
 4156SOL    HW113367   0.696   4.122   5.836
 4156SOL    HW213368   0.822   4.224   5.812
 4157SOL     OW13369   5.293   5.826   0.887
 4157SOL    HW113370   5.294   5.751   0.953
 4157SOL    HW213371   5.221   5.891   0.912
 4158SOL     OW13372   0.149   2.384   0.724
 4158SOL    HW113373   0.113   2.386   0.818
 4158SOL    HW213374   0.079   2.349   0.662
 4159SOL     OW13375   3.188   0.819   4.460
 4159SOL    HW113376   3.182   0.814   4.360
 4159SOL    HW213377   3.279   0.790   4.489
 4160SOL     OW13378   1.652   0.081   5.886
 4160SOL    HW113379   1.637   0.178   5.906
 4160SOL    HW213380   1.688   0.035   5.966
 4161SOL     OW13381   3.406   2.914   3.451
 4161SOL    HW113382   3.451   2.883   3.367
 4161SOL    HW213383   3.335   2.980   3.428
 4162SOL     OW13384   5.487   5.969   1.517
 4162SOL    HW113385   5.500   5.870   1.528
 4162SOL    HW213386   5.417   6.000   1.581
 4163SOL     OW13387   3.755   5.418   1.229
 4163SOL    HW113388   3.691   5.492   1.211
 4163SOL    HW213389   3.722   5.364   1.306
 4164SOL     OW13390   5.419   2.039   6.760
 4164SOL    HW113391   5.340   2.061   6.702
 4164SOL    HW213392   5.494   2.102   6.740
 4165SOL     OW13393   3.496   2.146   4.177
 4165SOL    HW113394   3.567   2.153   4.107
 4165SOL    HW213395   3.538   2.141   4.267
 4166SOL     OW13396   6.156   2.146   2.298
 4166SOL    HW113397   6.073   2.196   2.326
 4166SOL    HW213398   6.146   2.117   2.203
 4167SOL     OW13399   3.941   5.630   4.668
 4167SOL    HW113400   3.955   5.675   4.756
 4167SOL    HW213401   3.867   5.562   4.677
 4168SOL     OW13402   5.143   4.176   6.797
 4168SOL    HW113403   5.202   4.227   6.859
 4168SOL    HW213404   5.164   4.200   6.703
 4169SOL     OW13405   5.301   3.492   6.856
 4169SOL    HW113406   5.354   3.408   6.863
 4169SOL    HW213407   5.212   3.479   6.900
 4170SOL     OW13408   1.137   2.941   5.301
 4170SOL    HW113409   1.159   2.908   5.393
 4170SOL    HW213410   1.205   2.906   5.236
 4171SOL     OW13411   0.337   1.267   6.162
 4171SOL    HW113412   0.404   1.242   6.092
 4171SOL    HW213413   0.265   1.323   6.121
 4172SOL     OW13414   2.474   2.531   6.122
 4172SOL    HW113415   2.488   2.555   6.218
 4172SOL    HW213416   2.427   2.442   6.117
 4173SOL     OW13417   5.425   1.505   5.363
 4173SOL    HW113418   5.437   1.411   5.395
 4173SOL    HW213419   5.329   1.519   5.338
 4174SOL     OW13420   3.471   6.811   4.099
 4174SOL    HW113421   3.454   6.722   4.141
 4174SOL    HW213422   3.561   6.845   4.128
 4175SOL     OW13423   1.275   4.563   6.759
 4175SOL    HW113424   1.216   4.548   6.838
 4175SOL    HW213425   1.341   4.489   6.752
 4176SOL     OW13426   4.845   0.047   5.670
 4176SOL    HW113427   4.796   0.132   5.650
 4176SOL    HW213428   4.919   0.066   5.735
 4177SOL     OW13429   4.208   5.379   2.960
 4177SOL    HW113430   4.257   5.293   2.946
 4177SOL    HW213431   4.195   5.395   3.058
 4178SOL     OW13432   3.583   6.082   1.369
 4178SOL    HW113433   3.571   5.984   1.361
 4178SOL    HW213434   3.630   6.117   1.288
 4179SOL     OW13435   4.632   2.180   6.904
 4179SOL    HW113436   4.731   2.167   6.906
 4179SOL    HW213437   4.590   2.131   6.980
 4180SOL     OW13438   3.824   3.905   0.376
 4180SOL    HW113439   3.771   3.914   0.292
 4180SOL    HW213440   3.870   3.816   0.376
 4181SOL     OW13441   5.750   6.100   5.834
 4181SOL    HW113442   5.698   6.022   5.868
 4181SOL    HW213443   5.687   6.171   5.802
 4182SOL     OW13444   0.544   5.874   5.577
 4182SOL    HW113445   0.495   5.842   5.496
 4182SOL    HW213446   0.481   5.880   5.654
 4183SOL     OW13447   4.703   2.025   0.286
 4183SOL    HW113448   4.794   2.005   0.249
 4183SOL    HW213449   4.703   2.010   0.385
 4184SOL     OW13450   3.269   5.479   3.601
 4184SOL    HW113451   3.236   5.435   3.518
 4184SOL    HW213452   3.307   5.569   3.579
 4185SOL     OW13453   4.819   3.937   3.343
 4185SOL    HW113454   4.808   3.931   3.442
 4185SOL    HW213455   4.913   3.913   3.318
 4186SOL     OW13456   2.103   5.185   0.098
 4186SOL    HW113457   2.177   5.119   0.088
 4186SOL    HW213458   2.064   5.206   0.009
 4187SOL     OW13459   2.472   4.511   6.246
 4187SOL    HW113460   2.567   4.490   6.269
 4187SOL    HW213461   2.414   4.434   6.271
 4188SOL     OW13462   5.322   0.504   6.493
 4188SOL    HW113463   5.351   0.543   6.580
 4188SOL    HW213464   5.239   0.449   6.506
 4189SOL     OW13465   4.852   5.354   3.183
 4189SOL    HW113466   4.883   5.447   3.163
 4189SOL    HW213467   4.823   5.309   3.099
 4190SOL     OW13468   6.252   6.674   1.897
 4190SOL    HW113469   6.243   6.586   1.850
 4190SOL    HW213470   6.348   6.690   1.919
 4191SOL     OW13471   4.536   2.625   6.375
 4191SOL    HW113472   4.504   2.530   6.380
 4191SOL    HW213473   4.502   2.676   6.454
 4192SOL     OW13474   1.746   4.002   6.353
 4192SOL    HW113475   1.744   4.085   6.407
 4192SOL    HW213476   1.732   3.923   6.412
 4193SOL     OW13477   6.637   0.816   0.303
 4193SOL    HW113478   6.628   0.801   0.402
 4193SOL    HW213479   6.732   0.837   0.281
 4194SOL     OW13480   5.928   0.620   6.456
 4194SOL    HW113481   6.026   0.643   6.460
 4194SOL    HW213482   5.893   0.640   6.365
 4195SOL     OW13483   2.497   6.325   0.823
 4195SOL    HW113484   2.574   6.269   0.854
 4195SOL    HW213485   2.532   6.412   0.789
 4196SOL     OW13486   0.354   2.619   3.480
 4196SOL    HW113487   0.325   2.586   3.570
 4196SOL    HW213488   0.449   2.649   3.485
 4197SOL     OW13489   3.761   1.012   0.036
 4197SOL    HW113490   3.707   1.006   6.978
 4197SOL    HW213491   3.770   1.108   0.063
 4198SOL     OW13492   6.929   2.419   2.283
 4198SOL    HW113493   6.910   2.425   2.185
 4198SOL    HW213494   6.888   2.496   2.330
 4199SOL     OW13495   0.553   3.801   6.881
 4199SOL    HW113496   0.546   3.762   6.789
 4199SOL    HW213497   0.507   3.889   6.884
 4200SOL     OW13498   4.886   1.711   3.874
 4200SOL    HW113499   4.795   1.670   3.876
 4200SOL    HW213500   4.907   1.750   3.964
 4201SOL     OW13501   5.542   0.083   4.553
 4201SOL    HW113502   5.529   0.181   4.543
 4201SOL    HW213503   5.537   0.039   4.463
 4202SOL     OW13504   4.796   3.944   1.657
 4202SOL    HW113505   4.812   3.908   1.565
 4202SOL    HW213506   4.807   4.044   1.656
 4203SOL     OW13507   5.987   4.395   5.745
 4203SOL    HW113508   5.987   4.318   5.681
 4203SOL    HW213509   6.051   4.465   5.714
 4204SOL     OW13510   1.693   4.595   6.553
 4204SOL    HW113511   1.773   4.608   6.612
 4204SOL    HW213512   1.723   4.587   6.458
 4205SOL     OW13513   4.925   6.517   6.636
 4205SOL    HW113514   5.012   6.528   6.684
 4205SOL    HW213515   4.857   6.476   6.698
 4206SOL     OW13516   2.510   2.079   4.336
 4206SOL    HW113517   2.474   2.116   4.250
 4206SOL    HW213518   2.582   2.012   4.315
 4207SOL     OW13519   1.677   2.188   2.033
 4207SOL    HW113520   1.708   2.125   1.962
 4207SOL    HW213521   1.748   2.257   2.050
 4208SOL     OW13522   2.664   2.419   3.702
 4208SOL    HW113523   2.701   2.361   3.630
 4208SOL    HW213524   2.700   2.389   3.791
 4209SOL     OW13525   6.320   5.779   2.243
 4209SOL    HW113526   6.278   5.834   2.170
 4209SOL    HW213527   6.384   5.714   2.203
 4210SOL     OW13528   2.950   4.361   5.300
 4210SOL    HW113529   2.913   4.436   5.246
 4210SOL    HW213530   3.007   4.398   5.374
 4211SOL     OW13531   3.680   2.892   5.746
 4211SOL    HW113532   3.688   2.991   5.756
 4211SOL    HW213533   3.681   2.868   5.649
 4212SOL     OW13534   0.942   2.065   3.212
 4212SOL    HW113535   0.892   2.018   3.285
 4212SOL    HW213536   0.906   2.157   3.200
 4213SOL     OW13537   3.874   0.182   4.160
 4213SOL    HW113538   3.937   0.115   4.121
 4213SOL    HW213539   3.924   0.238   4.227
 4214SOL     OW13540   6.682   6.369   3.204
 4214SOL    HW113541   6.698   6.366   3.303
 4214SOL    HW213542   6.767   6.346   3.156
 4215SOL     OW13543   5.822   0.166   5.777
 4215SOL    HW113544   5.725   0.147   5.790
 4215SOL    HW213545   5.834   0.259   5.744
 4216SOL     OW13546   2.454   5.340   2.414
 4216SOL    HW113547   2.483   5.308   2.324
 4216SOL    HW213548   2.526   5.394   2.456
 4217SOL     OW13549   1.699   0.419   3.126
 4217SOL    HW113550   1.792   0.456   3.127
 4217SOL    HW213551   1.641   0.476   3.068
 4218SOL     OW13552   3.294   0.830   1.964
 4218SOL    HW113553   3.347   0.803   2.044
 4218SOL    HW213554   3.329   0.916   1.928
 4219SOL     OW13555   3.762   5.134   3.804
 4219SOL    HW113556   3.729   5.044   3.833
 4219SOL    HW213557   3.715   5.161   3.720
 4220SOL     OW13558   6.274   2.265   1.065
 4220SOL    HW113559   6.312   2.276   1.157
 4220SOL    HW213560   6.175   2.249   1.072
 4221SOL     OW13561   0.485   6.288   0.381
 4221SOL    HW113562   0.551   6.220   0.415
 4221SOL    HW213563   0.440   6.251   0.299
 4222SOL     OW13564   4.913   3.298   4.618
 4222SOL    HW113565   5.012   3.286   4.613
 4222SOL    HW213566   4.892   3.367   4.688
 4223SOL     OW13567   3.362   4.086   2.413
 4223SOL    HW113568   3.306   4.046   2.486
 4223SOL    HW213569   3.326   4.176   2.389
 4224SOL     OW13570   4.682   4.825   4.438
 4224SOL    HW113571   4.658   4.921   4.451
 4224SOL    HW213572   4.599   4.770   4.434
 4225SOL     OW13573   1.203   1.964   5.896
 4225SOL    HW113574   1.135   2.007   5.955
 4225SOL    HW213575   1.281   1.934   5.952
 4226SOL     OW13576   6.712   4.700   4.787
 4226SOL    HW113577   6.691   4.776   4.726
 4226SOL    HW213578   6.628   4.662   4.824
 4227SOL     OW13579   4.882   5.418   1.635
 4227SOL    HW113580   4.896   5.445   1.730
 4227SOL    HW213581   4.790   5.443   1.606
 4228SOL     OW13582   1.568   4.720   3.647
 4228SOL    HW113583   1.655   4.764   3.669
 4228SOL    HW213584   1.493   4.776   3.680
 4229SOL     OW13585   5.833   6.384   5.254
 4229SOL    HW113586   5.849   6.341   5.165
 4229SOL    HW213587   5.777   6.323   5.310
 4230SOL     OW13588   0.073   1.223   2.030
 4230SOL    HW113589   0.085   1.139   2.083
 4230SOL    HW213590   0.155   1.240   1.975
 4231SOL     OW13591   0.848   0.483   6.695
 4231SOL    HW113592   0.922   0.491   6.628
 4231SOL    HW213593   0.773   0.430   6.656
 4232SOL     OW13594   1.588   4.968   3.864
 4232SOL    HW113595   1.658   4.911   3.820
 4232SOL    HW213596   1.497   4.934   3.840
 4233SOL     OW13597   4.257   5.421   2.479
 4233SOL    HW113598   4.255   5.518   2.506
 4233SOL    HW213599   4.305   5.368   2.548
 4234SOL     OW13600   3.553   5.646   5.952
 4234SOL    HW113601   3.631   5.585   5.939
 4234SOL    HW213602   3.585   5.734   5.988
 4235SOL     OW13603   6.922   5.764   6.449
 4235SOL    HW113604   6.983   5.697   6.492
 4235SOL    HW213605   6.929   5.851   6.497
 4236SOL     OW13606   0.269   5.302   3.188
 4236SOL    HW113607   0.288   5.400   3.183
 4236SOL    HW213608   0.179   5.287   3.227
 4237SOL     OW13609   6.698   4.401   3.641
 4237SOL    HW113610   6.607   4.437   3.618
 4237SOL    HW213611   6.756   4.476   3.673
 4238SOL     OW13612   3.066   5.659   2.684
 4238SOL    HW113613   2.996   5.714   2.731
 4238SOL    HW213614   3.140   5.718   2.653
 4239SOL     OW13615   4.048   1.126   3.625
 4239SOL    HW113616   4.099   1.081   3.552
 4239SOL    HW213617   3.968   1.172   3.587
 4240SOL     OW13618   5.737   6.681   1.841
 4240SOL    HW113619   5.678   6.620   1.894
 4240SOL    HW213620   5.815   6.630   1.805
 4241SOL     OW13621   6.662   4.649   0.526
 4241SOL    HW113622   6.664   4.749   0.519
 4241SOL    HW213623   6.572   4.620   0.560
 4242SOL     OW13624   3.359   2.078   3.561
 4242SOL    HW113625   3.387   2.083   3.465
 4242SOL    HW213626   3.268   2.037   3.567
 4243SOL     OW13627   3.882   1.944   3.015
 4243SOL    HW113628   3.897   1.920   2.919
 4243SOL    HW213629   3.883   1.860   3.071
 4244SOL     OW13630   3.299   2.957   4.696
 4244SOL    HW113631   3.226   3.016   4.728
 4244SOL    HW213632   3.336   2.905   4.774
 4245SOL     OW13633   6.146   0.075   6.747
 4245SOL    HW113634   6.070   0.048   6.688
 4245SOL    HW213635   6.190   0.156   6.709
 4246SOL     OW13636   0.071   4.443   6.283
 4246SOL    HW113637   0.072   4.363   6.343
 4246SOL    HW213638   0.047   4.415   6.190
 4247SOL     OW13639   0.169   6.047   4.880
 4247SOL    HW113640   0.213   6.097   4.804
 4247SOL    HW213641   0.176   5.949   4.863
 4248SOL     OW13642   2.412   4.155   6.574
 4248SOL    HW113643   2.353   4.129   6.650
 4248SOL    HW213644   2.500   4.108   6.583
 4249SOL     OW13645   5.342   3.929   5.886
 4249SOL    HW113646   5.439   3.934   5.860
 4249SOL    HW213647   5.330   3.857   5.954
 4250SOL     OW13648   0.843   4.146   3.357
 4250SOL    HW113649   0.924   4.099   3.394
 4250SOL    HW213650   0.763   4.123   3.412
 4251SOL     OW13651   5.503   5.081   7.012
 4251SOL    HW113652   5.461   5.013   0.046
 4251SOL    HW213653   5.478   5.172   0.018
 4252SOL     OW13654   6.530   5.318   4.922
 4252SOL    HW113655   6.460   5.354   4.859
 4252SOL    HW213656   6.561   5.392   4.982
 4253SOL     OW13657   3.832   5.653   3.023
 4253SOL    HW113658   3.763   5.718   3.054
 4253SOL    HW213659   3.889   5.696   2.953
 4254SOL     OW13660   2.960   3.653   1.589
 4254SOL    HW113661   2.869   3.692   1.586
 4254SOL    HW213662   3.022   3.714   1.638
 4255SOL     OW13663   0.312   1.989   4.526
 4255SOL    HW113664   0.287   2.023   4.616
 4255SOL    HW213665   0.388   2.043   4.489
 4256SOL     OW13666   2.312   1.003   2.042
 4256SOL    HW113667   2.250   0.958   2.105
 4256SOL    HW213668   2.273   1.091   2.013
 4257SOL     OW13669   4.278   2.174   5.206
 4257SOL    HW113670   4.320   2.168   5.115
 4257SOL    HW213671   4.208   2.103   5.214
 4258SOL     OW13672   4.696   6.104   3.086
 4258SOL    HW113673   4.605   6.105   3.044
 4258SOL    HW213674   4.756   6.044   3.034
 4259SOL     OW13675   1.674   3.173   1.317
 4259SOL    HW113676   1.576   3.157   1.334
 4259SOL    HW213677   1.727   3.094   1.347
 4260SOL     OW13678   3.952   5.716   4.418
 4260SOL    HW113679   3.880   5.786   4.416
 4260SOL    HW213680   3.967   5.687   4.513
 4261SOL     OW13681   1.200   1.718   2.877
 4261SOL    HW113682   1.130   1.653   2.846
 4261SOL    HW213683   1.196   1.726   2.977
 4262SOL     OW13684   0.232   6.389   6.316
 4262SOL    HW113685   0.251   6.317   6.250
 4262SOL    HW213686   0.271   6.364   6.405
 4263SOL     OW13687   4.444   4.927   6.392
 4263SOL    HW113688   4.349   4.898   6.386
 4263SOL    HW213689   4.450   5.017   6.434
 4264SOL     OW13690   0.532   0.311   1.468
 4264SOL    HW113691   0.594   0.383   1.499
 4264SOL    HW213692   0.544   0.230   1.524
 4265SOL     OW13693   1.594   1.952   0.045
 4265SOL    HW113694   1.655   1.994   0.112
 4265SOL    HW213695   1.522   1.901   0.093
 4266SOL     OW13696   3.334   4.766   0.952
 4266SOL    HW113697   3.340   4.695   0.882
 4266SOL    HW213698   3.292   4.727   1.034
 4267SOL     OW13699   1.565   4.256   5.741
 4267SOL    HW113700   1.579   4.355   5.745
 4267SOL    HW213701   1.652   4.211   5.723
 4268SOL     OW13702   2.033   0.715   0.681
 4268SOL    HW113703   1.977   0.671   0.610
 4268SOL    HW213704   2.010   0.677   0.770
 4269SOL     OW13705   2.539   4.362   0.836
 4269SOL    HW113706   2.457   4.417   0.818
 4269SOL    HW213707   2.570   4.378   0.929
 4270SOL     OW13708   3.604   2.852   6.405
 4270SOL    HW113709   3.618   2.878   6.309
 4270SOL    HW213710   3.668   2.903   6.463
 4271SOL     OW13711   1.288   0.401   0.732
 4271SOL    HW113712   1.312   0.496   0.750
 4271SOL    HW213713   1.238   0.364   0.811
 4272SOL     OW13714   0.221   3.859   3.739
 4272SOL    HW113715   0.187   3.770   3.770
 4272SOL    HW213716   0.200   3.870   3.642
 4273SOL     OW13717   6.041   6.750   3.859
 4273SOL    HW113718   6.043   6.742   3.759
 4273SOL    HW213719   5.997   6.837   3.884
 4274SOL     OW13720   2.207   0.593   3.685
 4274SOL    HW113721   2.177   0.548   3.769
 4274SOL    HW213722   2.290   0.645   3.703
 4275SOL     OW13723   0.670   6.855   6.022
 4275SOL    HW113724   0.578   6.880   6.052
 4275SOL    HW213725   0.707   6.784   6.083
 4276SOL     OW13726   1.974   4.609   2.311
 4276SOL    HW113727   2.072   4.629   2.319
 4276SOL    HW213728   1.933   4.673   2.246
 4277SOL     OW13729   0.879   5.220   5.405
 4277SOL    HW113730   0.883   5.141   5.344
 4277SOL    HW213731   0.846   5.300   5.355
 4278SOL     OW13732   1.494   6.825   6.325
 4278SOL    HW113733   1.537   6.751   6.274
 4278SOL    HW213734   1.546   6.843   6.409
 4279SOL     OW13735   3.265   5.868   4.107
 4279SOL    HW113736   3.284   5.856   4.205
 4279SOL    HW213737   3.259   5.966   4.087
 4280SOL     OW13738   4.939   2.779   3.621
 4280SOL    HW113739   4.959   2.784   3.523
 4280SOL    HW213740   4.841   2.767   3.634
 4281SOL     OW13741   2.439   4.095   5.468
 4281SOL    HW113742   2.353   4.144   5.457
 4281SOL    HW213743   2.460   4.045   5.384
 4282SOL     OW13744   0.406   2.786   0.599
 4282SOL    HW113745   0.418   2.861   0.665
 4282SOL    HW213746   0.389   2.701   0.648
 4283SOL     OW13747   2.792   0.818   4.623
 4283SOL    HW113748   2.718   0.885   4.614
 4283SOL    HW213749   2.774   0.740   4.563
 4284SOL     OW13750   0.077   1.860   3.167
 4284SOL    HW113751   0.163   1.818   3.137
 4284SOL    HW213752   0.028   1.797   3.227
 4285SOL     OW13753   0.909   5.712   4.790
 4285SOL    HW113754   0.907   5.796   4.735
 4285SOL    HW213755   0.996   5.665   4.778
 4286SOL     OW13756   4.802   5.995   6.779
 4286SOL    HW113757   4.759   6.026   6.694
 4286SOL    HW213758   4.741   6.014   6.856
 4287SOL     OW13759   3.792   6.451   5.887
 4287SOL    HW113760   3.737   6.534   5.876
 4287SOL    HW213761   3.809   6.410   5.798
 4288SOL     OW13762   0.814   6.230   3.242
 4288SOL    HW113763   0.785   6.247   3.336
 4288SOL    HW213764   0.892   6.288   3.220
 4289SOL     OW13765   6.745   3.708   0.113
 4289SOL    HW113766   6.755   3.775   0.186
 4289SOL    HW213767   6.772   3.618   0.147
 4290SOL     OW13768   2.188   1.694   3.157
 4290SOL    HW113769   2.118   1.692   3.229
 4290SOL    HW213770   2.151   1.653   3.074
 4291SOL     OW13771   6.620   4.336   1.258
 4291SOL    HW113772   6.583   4.342   1.165
 4291SOL    HW213773   6.696   4.401   1.267
 4292SOL     OW13774   5.814   5.248   5.921
 4292SOL    HW113775   5.732   5.212   5.965
 4292SOL    HW213776   5.858   5.175   5.869
 4293SOL     OW13777   0.298   2.311   6.299
 4293SOL    HW113778   0.397   2.311   6.313
 4293SOL    HW213779   0.253   2.313   6.388
 4294SOL     OW13780   4.780   2.083   5.793
 4294SOL    HW113781   4.814   2.046   5.879
 4294SOL    HW213782   4.857   2.109   5.735
 4295SOL     OW13783   3.631   6.080   5.819
 4295SOL    HW113784   3.624   6.147   5.894
 4295SOL    HW213785   3.540   6.041   5.802
 4296SOL     OW13786   2.745   1.398   2.870
 4296SOL    HW113787   2.772   1.468   2.804
 4296SOL    HW213788   2.809   1.399   2.947
 4297SOL     OW13789   5.651   0.733   0.354
 4297SOL    HW113790   5.695   0.711   0.267
 4297SOL    HW213791   5.554   0.750   0.340
 4298SOL     OW13792   2.233   5.588   1.795
 4298SOL    HW113793   2.141   5.628   1.801
 4298SOL    HW213794   2.281   5.601   1.881
 4299SOL     OW13795   0.879   4.504   5.686
 4299SOL    HW113796   0.878   4.405   5.672
 4299SOL    HW213797   0.961   4.543   5.643
 4300SOL     OW13798   6.110   6.602   5.506
 4300SOL    HW113799   6.035   6.659   5.473
 4300SOL    HW213800   6.076   6.511   5.529
 4301SOL     OW13801   2.624   0.993   0.105
 4301SOL    HW113802   2.530   1.024   0.121
 4301SOL    HW213803   2.634   0.966   0.010
 4302SOL     OW13804   0.957   6.866   6.410
 4302SOL    HW113805   0.914   6.828   6.492
 4302SOL    HW213806   1.035   6.808   6.384
 4303SOL     OW13807   6.960   4.053   1.496
 4303SOL    HW113808   6.947   4.062   1.594
 4303SOL    HW213809   6.943   3.958   1.469
 4304SOL     OW13810   3.119   3.121   4.870
 4304SOL    HW113811   3.061   3.186   4.920
 4304SOL    HW213812   3.142   3.044   4.930
 4305SOL     OW13813   6.656   1.097   5.051
 4305SOL    HW113814   6.651   1.193   5.079
 4305SOL    HW213815   6.672   1.091   4.953
 4306SOL     OW13816   6.175   5.891   6.264
 4306SOL    HW113817   6.173   5.964   6.333
 4306SOL    HW213818   6.270   5.873   6.238
 4307SOL     OW13819   5.261   3.412   0.451
 4307SOL    HW113820   5.355   3.423   0.419
 4307SOL    HW213821   5.246   3.317   0.480
 4308SOL     OW13822   3.922   6.911   5.468
 4308SOL    HW113823   3.939   6.940   5.373
 4308SOL    HW213824   3.925   6.811   5.473
 4309SOL     OW13825   1.931   0.915   1.281
 4309SOL    HW113826   1.874   0.909   1.363
 4309SOL    HW213827   1.882   0.877   1.203
 4310SOL     OW13828   1.779   0.602   2.563
 4310SOL    HW113829   1.821   0.690   2.584
 4310SOL    HW213830   1.803   0.536   2.635
 4311SOL     OW13831   1.031   5.736   4.518
 4311SOL    HW113832   0.977   5.653   4.507
 4311SOL    HW213833   1.112   5.716   4.573
 4312SOL     OW13834   1.424   6.277   1.439
 4312SOL    HW113835   1.350   6.226   1.395
 4312SOL    HW213836   1.504   6.218   1.449
 4313SOL     OW13837   5.192   0.710   1.795
 4313SOL    HW113838   5.215   0.712   1.892
 4313SOL    HW213839   5.093   0.702   1.784
 4314SOL     OW13840   5.598   3.460   2.108
 4314SOL    HW113841   5.564   3.392   2.043
 4314SOL    HW213842   5.574   3.552   2.076
 4315SOL     OW13843   2.445   1.350   2.508
 4315SOL    HW113844   2.393   1.402   2.441
 4315SOL    HW213845   2.409   1.367   2.600
 4316SOL     OW13846   0.644   0.922   2.378
 4316SOL    HW113847   0.557   0.873   2.379
 4316SOL    HW213848   0.700   0.889   2.302
 4317SOL     OW13849   4.126   0.300   3.671
 4317SOL    HW113850   4.114   0.275   3.575
 4317SOL    HW213851   4.077   0.235   3.729
 4318SOL     OW13852   6.167   2.390   4.529
 4318SOL    HW113853   6.213   2.411   4.614
 4318SOL    HW213854   6.234   2.369   4.458
 4319SOL     OW13855   3.043   3.125   5.884
 4319SOL    HW113856   3.050   3.105   5.982
 4319SOL    HW213857   3.050   3.040   5.832
 4320SOL     OW13858   0.606   5.767   3.368
 4320SOL    HW113859   0.538   5.763   3.294
 4320SOL    HW213860   0.682   5.824   3.339
 4321SOL     OW13861   0.595   0.163   5.037
 4321SOL    HW113862   0.663   0.134   4.969
 4321SOL    HW213863   0.538   0.236   4.998
 4322SOL     OW13864   5.536   1.562   1.169
 4322SOL    HW113865   5.440   1.572   1.142
 4322SOL    HW213866   5.578   1.488   1.116
 4323SOL     OW13867   0.071   2.252   4.005
 4323SOL    HW113868   0.150   2.311   4.020
 4323SOL    HW213869   0.088   2.192   3.927
 4324SOL     OW13870   5.682   2.685   6.348
 4324SOL    HW113871   5.601   2.740   6.327
 4324SOL    HW213872   5.764   2.740   6.338
 4325SOL     OW13873   1.886   2.099   6.191
 4325SOL    HW113874   1.858   2.010   6.225
 4325SOL    HW213875   1.940   2.088   6.107
 4326SOL     OW13876   6.447   2.418   5.134
 4326SOL    HW113877   6.469   2.324   5.110
 4326SOL    HW213878   6.352   2.438   5.108
 4327SOL     OW13879   5.568   0.864   3.159
 4327SOL    HW113880   5.604   0.787   3.212
 4327SOL    HW213881   5.551   0.941   3.220
 4328SOL     OW13882   5.697   5.100   0.306
 4328SOL    HW113883   5.780   5.064   0.264
 4328SOL    HW213884   5.722   5.169   0.374
 4329SOL     OW13885   4.644   1.106   6.423
 4329SOL    HW113886   4.609   1.159   6.501
 4329SOL    HW213887   4.736   1.137   6.400
 4330SOL     OW13888   1.097   0.973   6.658
 4330SOL    HW113889   1.017   0.920   6.633
 4330SOL    HW213890   1.094   0.994   6.756
 4331SOL     OW13891   5.289   2.579   6.642
 4331SOL    HW113892   5.211   2.527   6.678
 4331SOL    HW213893   5.361   2.515   6.613
 4332SOL     OW13894   5.442   3.291   1.962
 4332SOL    HW113895   5.416   3.361   1.896
 4332SOL    HW213896   5.360   3.250   2.002
 4333SOL     OW13897   6.350   1.376   5.457
 4333SOL    HW113898   6.398   1.461   5.482
 4333SOL    HW213899   6.417   1.303   5.444
 4334SOL     OW13900   4.584   6.902   1.445
 4334SOL    HW113901   4.493   6.905   1.404
 4334SOL    HW213902   4.627   6.992   1.438
 4335SOL     OW13903   3.896   4.549   5.545
 4335SOL    HW113904   3.912   4.452   5.529
 4335SOL    HW213905   3.981   4.593   5.571
 4336SOL     OW13906   1.183   6.398   5.491
 4336SOL    HW113907   1.183   6.340   5.409
 4336SOL    HW213908   1.130   6.355   5.563
 4337SOL     OW13909   0.368   5.603   0.013
 4337SOL    HW113910   0.446   5.655   7.003
 4337SOL    HW213911   0.283   5.645   7.006
 4338SOL     OW13912   6.043   6.049   3.677
 4338SOL    HW113913   6.015   5.984   3.606
 4338SOL    HW213914   5.982   6.128   3.677
 4339SOL     OW13915   6.638   1.535   6.553
 4339SOL    HW113916   6.599   1.594   6.481
 4339SOL    HW213917   6.719   1.489   6.517
 4340SOL     OW13918   4.734   3.403   1.796
 4340SOL    HW113919   4.778   3.313   1.787
 4340SOL    HW213920   4.781   3.456   1.867
 4341SOL     OW13921   0.618   3.766   0.140
 4341SOL    HW113922   0.671   3.682   0.146
 4341SOL    HW213923   0.564   3.765   0.056
 4342SOL     OW13924   6.974   1.906   2.932
 4342SOL    HW113925   7.019   1.880   3.017
 4342SOL    HW213926   7.021   1.863   2.854
 4343SOL     OW13927   2.719   2.216   1.641
 4343SOL    HW113928   2.646   2.204   1.575
 4343SOL    HW213929   2.722   2.311   1.672
 4344SOL     OW13930   1.828   3.877   2.279
 4344SOL    HW113931   1.816   3.838   2.187
 4344SOL    HW213932   1.750   3.851   2.336
 4345SOL     OW13933   2.415   1.441   5.874
 4345SOL    HW113934   2.460   1.529   5.886
 4345SOL    HW213935   2.317   1.451   5.887
 4346SOL     OW13936   6.660   3.453   0.934
 4346SOL    HW113937   6.617   3.427   1.020
 4346SOL    HW213938   6.718   3.378   0.901
 4347SOL     OW13939   5.353   5.843   2.663
 4347SOL    HW113940   5.405   5.819   2.582
 4347SOL    HW213941   5.296   5.923   2.644
 4348SOL     OW13942   1.234   4.108   0.121
 4348SOL    HW113943   1.140   4.078   0.133
 4348SOL    HW213944   1.243   4.203   0.153
 4349SOL     OW13945   6.571   0.802   1.752
 4349SOL    HW113946   6.506   0.837   1.819
 4349SOL    HW213947   6.524   0.788   1.665
 4350SOL     OW13948   4.781   0.254   3.508
 4350SOL    HW113949   4.724   0.315   3.454
 4350SOL    HW213950   4.723   0.191   3.560
 4351SOL     OW13951   2.831   6.998   0.379
 4351SOL    HW113952   2.788   0.047   0.327
 4351SOL    HW213953   2.925   6.986   0.347
 4352SOL     OW13954   6.100   1.668   2.676
 4352SOL    HW113955   6.041   1.588   2.663
 4352SOL    HW213956   6.050   1.751   2.650
 4353SOL     OW13957   3.157   5.584   1.852
 4353SOL    HW113958   3.096   5.654   1.815
 4353SOL    HW213959   3.103   5.504   1.879
 4354SOL     OW13960   2.560   0.910   1.492
 4354SOL    HW113961   2.469   0.932   1.460
 4354SOL    HW213962   2.621   0.897   1.414
 4355SOL     OW13963   4.794   0.258   0.583
 4355SOL    HW113964   4.767   0.162   0.590
 4355SOL    HW213965   4.783   0.289   0.489
 4356SOL     OW13966   3.511   4.008   0.253
 4356SOL    HW113967   3.452   4.055   0.187
 4356SOL    HW213968   3.498   4.048   0.344
 4357SOL     OW13969   6.242   0.870   6.980
 4357SOL    HW113970   6.250   0.829   0.046
 4357SOL    HW213971   6.281   0.962   6.981
 4358SOL     OW13972   6.317   1.052   1.116
 4358SOL    HW113973   6.242   0.989   1.095
 4358SOL    HW213974   6.292   1.144   1.088
 4359SOL     OW13975   5.726   2.918   4.376
 4359SOL    HW113976   5.693   2.941   4.284
 4359SOL    HW213977   5.809   2.971   4.395
 4360SOL     OW13978   2.052   3.413   0.791
 4360SOL    HW113979   2.045   3.421   0.691
 4360SOL    HW213980   2.095   3.495   0.828
 4361SOL     OW13981   5.822   1.742   2.547
 4361SOL    HW113982   5.898   1.762   2.486
 4361SOL    HW213983   5.749   1.696   2.497
 4362SOL     OW13984   5.078   4.055   2.999
 4362SOL    HW113985   5.132   4.060   2.915
 4362SOL    HW213986   4.980   4.055   2.977
 4363SOL     OW13987   5.596   0.510   6.244
 4363SOL    HW113988   5.695   0.517   6.238
 4363SOL    HW213989   5.571   0.432   6.300
 4364SOL     OW13990   3.458   3.890   4.488
 4364SOL    HW113991   3.477   3.954   4.562
 4364SOL    HW213992   3.542   3.840   4.466
 4365SOL     OW13993   4.231   1.341   0.822
 4365SOL    HW113994   4.140   1.329   0.862
 4365SOL    HW213995   4.295   1.279   0.865
 4366SOL     OW13996   5.370   4.816   0.882
 4366SOL    HW113997   5.276   4.813   0.917
 4366SOL    HW213998   5.367   4.824   0.782
 4367SOL     OW13999   6.943   6.807   0.608
 4367SOL    HW114000   7.025   6.812   0.665
 4367SOL    HW214001   6.949   6.875   0.535
 4368SOL     OW14002   4.387   4.564   1.922
 4368SOL    HW114003   4.324   4.554   1.845
 4368SOL    HW214004   4.445   4.483   1.929
 4369SOL     OW14005   2.996   5.628   1.526
 4369SOL    HW114006   2.936   5.650   1.450
 4369SOL    HW214007   3.078   5.582   1.491
 4370SOL     OW14008   5.788   4.375   2.458
 4370SOL    HW114009   5.738   4.298   2.418
 4370SOL    HW214010   5.851   4.413   2.390
 4371SOL     OW14011   0.397   2.016   2.584
 4371SOL    HW114012   0.331   2.040   2.513
 4371SOL    HW214013   0.354   2.021   2.674
 4372SOL     OW14014   4.972   6.995   3.555
 4372SOL    HW114015   4.901   0.040   3.543
 4372SOL    HW214016   4.962   6.954   3.646
 4373SOL     OW14017   6.358   1.859   6.274
 4373SOL    HW114018   6.330   1.772   6.234
 4373SOL    HW214019   6.331   1.861   6.371
 4374SOL     OW14020   3.888   1.439   1.192
 4374SOL    HW114021   3.829   1.516   1.213
 4374SOL    HW214022   3.975   1.448   1.241
 4375SOL     OW14023   3.540   6.031   4.266
 4375SOL    HW114024   3.578   6.094   4.198
 4375SOL    HW214025   3.482   6.082   4.330
 4376SOL     OW14026   6.945   1.763   4.530
 4376SOL    HW114027   0.013   1.731   4.516
 4376SOL    HW214028   6.945   1.839   4.595
 4377SOL     OW14029   6.940   5.018   6.036
 4377SOL    HW114030   6.928   4.951   5.963
 4377SOL    HW214031   6.872   5.091   6.026
 4378SOL     OW14032   3.152   1.641   3.903
 4378SOL    HW114033   3.238   1.641   3.854
 4378SOL    HW214034   3.166   1.605   3.995
 4379SOL     OW14035   3.410   2.207   5.937
 4379SOL    HW114036   3.472   2.195   5.860
 4379SOL    HW214037   3.462   2.225   6.020
 4380SOL     OW14038   0.342   2.084   3.097
 4380SOL    HW114039   0.357   2.153   3.167
 4380SOL    HW214040   0.341   1.993   3.140
 4381SOL     OW14041   1.543   6.139   6.867
 4381SOL    HW114042   1.477   6.200   6.823
 4381SOL    HW214043   1.535   6.147   6.967
 4382SOL     OW14044   0.661   4.937   4.344
 4382SOL    HW114045   0.580   4.929   4.285
 4382SOL    HW214046   0.643   4.892   4.431
 4383SOL     OW14047   6.795   3.876   0.757
 4383SOL    HW114048   6.809   3.818   0.677
 4383SOL    HW214049   6.782   3.819   0.838
 4384SOL     OW14050   5.528   6.820   3.855
 4384SOL    HW114051   5.546   6.821   3.757
 4384SOL    HW214052   5.540   6.727   3.890
 4385SOL     OW14053   4.937   1.803   5.766
 4385SOL    HW114054   4.938   1.876   5.698
 4385SOL    HW214055   4.943   1.715   5.719
 4386SOL     OW14056   1.780   3.645   4.965
 4386SOL    HW114057   1.855   3.675   4.906
 4386SOL    HW214058   1.792   3.548   4.987
 4387SOL     OW14059   5.507   2.001   0.916
 4387SOL    HW114060   5.503   2.049   0.829
 4387SOL    HW214061   5.436   1.931   0.920
 4388SOL     OW14062   5.127   3.688   0.224
 4388SOL    HW114063   5.083   3.624   0.287
 4388SOL    HW214064   5.078   3.689   0.137
 4389SOL     OW14065   1.804   2.075   0.188
 4389SOL    HW114066   1.773   2.167   0.165
 4389SOL    HW214067   1.881   2.079   0.251
 4390SOL     OW14068   0.255   1.647   0.727
 4390SOL    HW114069   0.208   1.579   0.784
 4390SOL    HW214070   0.275   1.728   0.782
 4391SOL     OW14071   0.944   5.633   0.604
 4391SOL    HW114072   0.927   5.544   0.563
 4391SOL    HW214073   1.042   5.645   0.618
 4392SOL     OW14074   0.739   3.366   5.946
 4392SOL    HW114075   0.776   3.280   5.911
 4392SOL    HW214076   0.752   3.438   5.878
 4393SOL     OW14077   5.897   0.201   1.874
 4393SOL    HW114078   5.868   0.163   1.962
 4393SOL    HW214079   5.919   0.126   1.811
 4394SOL     OW14080   0.665   0.358   2.756
 4394SOL    HW114081   0.597   0.349   2.829
 4394SOL    HW214082   0.629   0.317   2.672
 4395SOL     OW14083   1.784   4.716   2.131
 4395SOL    HW114084   1.829   4.785   2.075
 4395SOL    HW214085   1.706   4.756   2.178
 4396SOL     OW14086   3.135   1.069   2.837
 4396SOL    HW114087   3.175   0.977   2.842
 4396SOL    HW214088   3.172   1.125   2.911
 4397SOL     OW14089   3.426   1.391   4.877
 4397SOL    HW114090   3.410   1.293   4.883
 4397SOL    HW214091   3.500   1.409   4.811
 4398SOL     OW14092   1.685   3.182   5.543
 4398SOL    HW114093   1.705   3.260   5.601
 4398SOL    HW214094   1.757   3.171   5.474
 4399SOL     OW14095   2.781   6.450   1.912
 4399SOL    HW114096   2.826   6.531   1.874
 4399SOL    HW214097   2.707   6.422   1.852
 4400SOL     OW14098   1.796   5.993   4.490
 4400SOL    HW114099   1.716   6.040   4.528
 4400SOL    HW214100   1.773   5.897   4.472
 4401SOL     OW14101   2.824   6.798   6.313
 4401SOL    HW114102   2.771   6.721   6.349
 4401SOL    HW214103   2.777   6.883   6.335
 4402SOL     OW14104   2.512   0.893   2.739
 4402SOL    HW114105   2.519   0.797   2.769
 4402SOL    HW214106   2.604   0.928   2.721
 4403SOL     OW14107   0.683   5.237   1.471
 4403SOL    HW114108   0.596   5.263   1.428
 4403SOL    HW214109   0.752   5.221   1.401
 4404SOL     OW14110   0.443   6.789   6.434
 4404SOL    HW114111   0.392   6.738   6.504
 4404SOL    HW214112   0.540   6.791   6.458
 4405SOL     OW14113   1.815   5.363   2.281
 4405SOL    HW114114   1.866   5.442   2.246
 4405SOL    HW214115   1.733   5.348   2.225
 4406SOL     OW14116   6.034   4.098   2.280
 4406SOL    HW114117   6.098   4.027   2.249
 4406SOL    HW214118   5.966   4.057   2.341
 4407SOL     OW14119   5.984   6.711   1.067
 4407SOL    HW114120   6.057   6.715   0.999
 4407SOL    HW214121   5.901   6.673   1.024
 4408SOL     OW14122   3.876   0.618   0.330
 4408SOL    HW114123   3.935   0.632   0.251
 4408SOL    HW214124   3.933   0.610   0.412
 4409SOL     OW14125   3.024   0.704   3.507
 4409SOL    HW114126   3.003   0.642   3.582
 4409SOL    HW214127   2.943   0.714   3.448
 4410SOL     OW14128   0.377   0.368   0.991
 4410SOL    HW114129   0.455   0.332   1.042
 4410SOL    HW214130   0.329   0.436   1.046
 4411SOL     OW14131   4.662   4.591   5.359
 4411SOL    HW114132   4.746   4.628   5.318
 4411SOL    HW214133   4.588   4.658   5.350
 4412SOL     OW14134   4.600   6.253   1.909
 4412SOL    HW114135   4.551   6.255   1.822
 4412SOL    HW214136   4.537   6.227   1.982
 4413SOL     OW14137   4.347   5.586   3.977
 4413SOL    HW114138   4.425   5.627   3.930
 4413SOL    HW214139   4.373   5.562   4.071
 4414SOL     OW14140   5.201   3.647   1.497
 4414SOL    HW114141   5.267   3.708   1.541
 4414SOL    HW214142   5.236   3.617   1.409
 4415SOL     OW14143   1.425   3.809   1.147
 4415SOL    HW114144   1.491   3.853   1.087
 4415SOL    HW214145   1.396   3.873   1.218
 4416SOL     OW14146   5.043   2.563   4.044
 4416SOL    HW114147   4.952   2.521   4.036
 4416SOL    HW214148   5.065   2.576   4.141
 4417SOL     OW14149   0.147   4.267   1.459
 4417SOL    HW114150   0.131   4.259   1.360
 4417SOL    HW214151   0.096   4.195   1.506
 4418SOL     OW14152   6.447   0.656   6.094
 4418SOL    HW114153   6.478   0.600   6.017
 4418SOL    HW214154   6.437   0.599   6.175
 4419SOL     OW14155   6.799   6.021   6.612
 4419SOL    HW114156   6.817   6.119   6.622
 4419SOL    HW214157   6.701   6.003   6.618
 4420SOL     OW14158   4.060   1.704   0.985
 4420SOL    HW114159   4.028   1.741   0.898
 4420SOL    HW214160   4.014   1.749   1.061
 4421SOL     OW14161   1.883   2.948   0.470
 4421SOL    HW114162   1.841   3.033   0.436
 4421SOL    HW214163   1.969   2.932   0.423
 4422SOL     OW14164   0.010   3.009   6.008
 4422SOL    HW114165   0.078   3.046   5.945
 4422SOL    HW214166   0.052   2.942   6.069
 4423SOL     OW14167   6.317   4.599   4.617
 4423SOL    HW114168   6.242   4.599   4.551
 4423SOL    HW214169   6.384   4.530   4.590
 4424SOL     OW14170   4.598   5.771   2.764
 4424SOL    HW114171   4.584   5.720   2.849
 4424SOL    HW214172   4.521   5.754   2.702
 4425SOL     OW14173   0.771   5.814   0.956
 4425SOL    HW114174   0.738   5.765   1.036
 4425SOL    HW214175   0.700   5.814   0.885
 4426SOL     OW14176   0.377   0.785   4.437
 4426SOL    HW114177   0.283   0.774   4.469
 4426SOL    HW214178   0.402   0.706   4.380
 4427SOL     OW14179   2.231   5.864   2.535
 4427SOL    HW114180   2.231   5.955   2.575
 4427SOL    HW214181   2.213   5.796   2.606
 4428SOL     OW14182   6.575   5.490   3.181
 4428SOL    HW114183   6.621   5.438   3.253
 4428SOL    HW214184   6.579   5.588   3.204
 4429SOL     OW14185   2.845   6.450   3.263
 4429SOL    HW114186   2.809   6.504   3.339
 4429SOL    HW214187   2.877   6.511   3.191
 4430SOL     OW14188   5.920   3.486   5.382
 4430SOL    HW114189   5.933   3.564   5.321
 4430SOL    HW214190   5.857   3.420   5.340
 4431SOL     OW14191   3.882   6.694   4.811
 4431SOL    HW114192   3.833   6.653   4.887
 4431SOL    HW214193   3.972   6.725   4.842
 4432SOL     OW14194   0.833   3.583   5.748
 4432SOL    HW114195   0.834   3.510   5.680
 4432SOL    HW214196   0.831   3.672   5.702
 4433SOL     OW14197   1.004   0.814   4.326
 4433SOL    HW114198   1.084   0.870   4.304
 4433SOL    HW214199   0.947   0.803   4.245
 4434SOL     OW14200   6.832   0.733   1.831
 4434SOL    HW114201   6.732   0.739   1.833
 4434SOL    HW214202   6.859   0.649   1.784
 4435SOL     OW14203   2.061   4.041   0.840
 4435SOL    HW114204   2.087   3.974   0.771
 4435SOL    HW214205   2.109   4.127   0.823
 4436SOL     OW14206   4.196   2.235   1.826
 4436SOL    HW114207   4.189   2.232   1.926
 4436SOL    HW214208   4.105   2.240   1.786
 4437SOL     OW14209   6.131   4.485   7.014
 4437SOL    HW114210   6.229   4.484   0.011
 4437SOL    HW214211   6.084   4.419   0.047
 4438SOL     OW14212   4.283   1.318   4.982
 4438SOL    HW114213   4.331   1.231   4.975
 4438SOL    HW214214   4.237   1.338   4.895
 4439SOL     OW14215   2.255   5.767   2.833
 4439SOL    HW114216   2.166   5.807   2.855
 4439SOL    HW214217   2.328   5.825   2.869
 4440SOL     OW14218   1.121   4.610   5.615
 4440SOL    HW114219   1.170   4.561   5.687
 4440SOL    HW214220   1.169   4.695   5.593
 4441SOL     OW14221   6.937   2.124   0.929
 4441SOL    HW114222   6.845   2.161   0.919
 4441SOL    HW214223   6.935   2.024   0.921
 4442SOL     OW14224   1.928   4.738   0.982
 4442SOL    HW114225   1.863   4.739   1.058
 4442SOL    HW214226   1.877   4.732   0.896
 4443SOL     OW14227   0.513   5.692   5.997
 4443SOL    HW114228   0.509   5.791   5.986
 4443SOL    HW214229   0.429   5.660   6.041
 4444SOL     OW14230   5.786   5.278   0.525
 4444SOL    HW114231   5.871   5.227   0.532
 4444SOL    HW214232   5.805   5.376   0.530
 4445SOL     OW14233   1.889   4.220   0.100
 4445SOL    HW114234   1.881   4.161   0.020
 4445SOL    HW214235   1.957   4.182   0.163
 4446SOL     OW14236   4.319   1.741   2.118
 4446SOL    HW114237   4.225   1.734   2.153
 4446SOL    HW214238   4.344   1.838   2.111
 4447SOL     OW14239   4.126   5.690   5.542
 4447SOL    HW114240   4.065   5.724   5.470
 4447SOL    HW214241   4.100   5.597   5.567
 4448SOL     OW14242   3.450   6.613   2.406
 4448SOL    HW114243   3.483   6.569   2.322
 4448SOL    HW214244   3.447   6.546   2.480
 4449SOL     OW14245   3.890   2.079   5.893
 4449SOL    HW114246   3.915   2.162   5.843
 4449SOL    HW214247   3.805   2.042   5.856
 4450SOL     OW14248   2.109   6.625   0.316
 4450SOL    HW114249   2.032   6.565   0.336
 4450SOL    HW214250   2.194   6.572   0.315
 4451SOL     OW14251   4.612   5.352   3.494
 4451SOL    HW114252   4.560   5.400   3.424
 4451SOL    HW214253   4.710   5.366   3.479
 4452SOL     OW14254   5.123   5.092   3.840
 4452SOL    HW114255   5.112   5.154   3.918
 4452SOL    HW214256   5.046   5.028   3.837
 4453SOL     OW14257   0.446   4.474   0.833
 4453SOL    HW114258   0.466   4.557   0.884
 4453SOL    HW214259   0.414   4.497   0.741
 4454SOL     OW14260   1.457   2.059   0.399
 4454SOL    HW114261   1.382   2.118   0.368
 4454SOL    HW214262   1.459   2.058   0.499
 4455SOL     OW14263   1.714   0.346   4.328
 4455SOL    HW114264   1.632   0.367   4.380
 4455SOL    HW214265   1.752   0.431   4.290
 4456SOL     OW14266   1.894   6.153   4.291
 4456SOL    HW114267   1.876   6.111   4.202
 4456SOL    HW214268   1.842   6.105   4.362
 4457SOL     OW14269   0.960   1.547   4.280
 4457SOL    HW114270   0.994   1.550   4.373
 4457SOL    HW214271   1.028   1.505   4.220
 4458SOL     OW14272   1.340   3.219   6.436
 4458SOL    HW114273   1.244   3.199   6.420
 4458SOL    HW214274   1.349   3.313   6.471
 4459SOL     OW14275   0.789   3.838   3.166
 4459SOL    HW114276   0.880   3.800   3.147
 4459SOL    HW214277   0.742   3.859   3.081
 4460SOL     OW14278   0.094   2.739   4.950
 4460SOL    HW114279   0.160   2.676   4.992
 4460SOL    HW214280   0.123   2.833   4.967
 4461SOL     OW14281   2.309   0.821   1.071
 4461SOL    HW114282   2.255   0.905   1.081
 4461SOL    HW214283   2.339   0.811   0.976
 4462SOL     OW14284   6.302   3.953   2.444
 4462SOL    HW114285   6.269   4.044   2.469
 4462SOL    HW214286   6.397   3.959   2.414
 4463SOL     OW14287   5.406   1.470   6.868
 4463SOL    HW114288   5.384   1.564   6.895
 4463SOL    HW214289   5.500   1.466   6.833
 4464SOL     OW14290   0.564   3.474   1.627
 4464SOL    HW114291   0.646   3.493   1.680
 4464SOL    HW214292   0.528   3.560   1.590
 4465SOL     OW14293   4.261   5.582   2.005
 4465SOL    HW114294   4.282   5.570   1.908
 4465SOL    HW214295   4.190   5.518   2.032
 4466SOL     OW14296   0.688   3.087   2.398
 4466SOL    HW114297   0.672   2.989   2.381
 4466SOL    HW214298   0.608   3.126   2.443
 4467SOL     OW14299   5.399   4.934   2.040
 4467SOL    HW114300   5.334   4.929   1.964
 4467SOL    HW214301   5.491   4.947   2.006
 4468SOL     OW14302   1.712   2.855   1.229
 4468SOL    HW114303   1.768   2.827   1.307
 4468SOL    HW214304   1.659   2.776   1.197
 4469SOL     OW14305   2.294   5.966   1.258
 4469SOL    HW114306   2.350   6.046   1.231
 4469SOL    HW214307   2.245   5.987   1.342
 4470SOL     OW14308   0.615   6.982   2.714
 4470SOL    HW114309   0.585   6.965   2.808
 4470SOL    HW214310   0.600   6.901   2.659
 4471SOL     OW14311   0.850   0.787   6.648
 4471SOL    HW114312   0.825   0.707   6.702
 4471SOL    HW214313   0.824   0.771   6.552
 4472SOL     OW14314   1.225   2.643   1.100
 4472SOL    HW114315   1.159   2.718   1.108
 4472SOL    HW214316   1.191   2.577   1.032
 4473SOL     OW14317   0.180   3.067   4.841
 4473SOL    HW114318   0.209   2.995   4.778
 4473SOL    HW214319   0.119   3.130   4.794
 4474SOL     OW14320   2.234   6.267   0.715
 4474SOL    HW114321   2.194   6.233   0.800
 4474SOL    HW214322   2.329   6.293   0.730
 4475SOL     OW14323   0.541   3.487   0.369
 4475SOL    HW114324   0.615   3.501   0.302
 4475SOL    HW214325   0.556   3.400   0.417
 4476SOL     OW14326   4.985   1.196   3.598
 4476SOL    HW114327   5.035   1.110   3.609
 4476SOL    HW214328   5.005   1.256   3.675
 4477SOL     OW14329   0.130   1.182   4.140
 4477SOL    HW114330   0.196   1.207   4.069
 4477SOL    HW214331   0.152   1.231   4.224
 4478SOL     OW14332   1.757   0.792   1.936
 4478SOL    HW114333   1.835   0.744   1.897
 4478SOL    HW214334   1.786   0.841   2.019
 4479SOL     OW14335   2.135   2.694   6.310
 4479SOL    HW114336   2.126   2.733   6.218
 4479SOL    HW214337   2.102   2.760   6.377
 4480SOL     OW14338   0.227   6.605   3.588
 4480SOL    HW114339   0.266   6.687   3.631
 4480SOL    HW214340   0.165   6.632   3.515
 4481SOL     OW14341   2.127   3.799   6.071
 4481SOL    HW114342   2.044   3.760   6.112
 4481SOL    HW214343   2.106   3.831   5.979
 4482SOL     OW14344   2.452   0.388   1.115
 4482SOL    HW114345   2.427   0.360   1.208
 4482SOL    HW214346   2.545   0.357   1.096
 4483SOL     OW14347   1.069   3.724   0.497
 4483SOL    HW114348   1.092   3.678   0.583
 4483SOL    HW214349   1.083   3.822   0.506
 4484SOL     OW14350   2.981   0.835   6.976
 4484SOL    HW114351   3.032   0.778   0.016
 4484SOL    HW214352   2.954   0.920   7.022
 4485SOL     OW14353   0.326   3.723   4.740
 4485SOL    HW114354   0.377   3.659   4.798
 4485SOL    HW214355   0.309   3.808   4.791
 4486SOL     OW14356   4.945   4.468   3.625
 4486SOL    HW114357   4.955   4.565   3.645
 4486SOL    HW214358   4.850   4.440   3.643
 4487SOL     OW14359   0.285   3.159   6.577
 4487SOL    HW114360   0.207   3.139   6.519
 4487SOL    HW214361   0.355   3.089   6.564
 4488SOL     OW14362   0.021   3.989   3.531
 4488SOL    HW114363   0.050   3.895   3.512
 4488SOL    HW214364   6.948   3.998   3.514
 4489SOL     OW14365   3.452   5.819   6.485
 4489SOL    HW114366   3.544   5.854   6.495
 4489SOL    HW214367   3.390   5.870   6.544
 4490SOL     OW14368   5.762   1.721   2.106
 4490SOL    HW114369   5.780   1.709   2.203
 4490SOL    HW214370   5.686   1.662   2.078
 4491SOL     OW14371   0.755   4.189   3.066
 4491SOL    HW114372   0.788   4.126   3.136
 4491SOL    HW214373   0.656   4.184   3.059
 4492SOL     OW14374   6.242   1.441   2.325
 4492SOL    HW114375   6.158   1.387   2.324
 4492SOL    HW214376   6.281   1.443   2.233
 4493SOL     OW14377   5.210   1.846   5.521
 4493SOL    HW114378   5.287   1.803   5.474
 4493SOL    HW214379   5.131   1.785   5.520
 4494SOL     OW14380   1.874   0.923   2.129
 4494SOL    HW114381   1.798   0.919   2.194
 4494SOL    HW214382   1.928   1.005   2.146
 4495SOL     OW14383   4.515   6.452   0.931
 4495SOL    HW114384   4.455   6.393   0.984
 4495SOL    HW214385   4.465   6.532   0.900
 4496SOL     OW14386   2.366   6.253   6.159
 4496SOL    HW114387   2.441   6.207   6.207
 4496SOL    HW214388   2.369   6.229   6.062
 4497SOL     OW14389   4.067   0.291   5.827
 4497SOL    HW114390   4.098   0.371   5.775
 4497SOL    HW214391   4.142   0.258   5.885
 4498SOL     OW14392   0.921   4.950   4.266
 4498SOL    HW114393   0.829   4.988   4.279
 4498SOL    HW214394   0.915   4.851   4.251
 4499SOL     OW14395   6.075   0.907   2.110
 4499SOL    HW114396   6.093   0.973   2.183
 4499SOL    HW214397   6.095   0.815   2.143
 4500SOL     OW14398   3.369   6.689   0.021
 4500SOL    HW114399   3.456   6.737   0.030
 4500SOL    HW214400   3.344   6.682   6.949
 4501SOL     OW14401   6.470   0.133   2.315
 4501SOL    HW114402   6.486   0.099   2.407
 4501SOL    HW214403   6.386   0.094   2.279
 4502SOL     OW14404   1.583   4.175   6.778
 4502SOL    HW114405   1.553   4.181   6.873
 4502SOL    HW214406   1.571   4.264   6.733
 4503SOL     OW14407   4.020   1.601   2.620
 4503SOL    HW114408   4.019   1.501   2.628
 4503SOL    HW214409   4.092   1.628   2.556
 4504SOL     OW14410   1.518   2.354   4.004
 4504SOL    HW114411   1.601   2.299   4.009
 4504SOL    HW214412   1.439   2.295   3.993
 4505SOL     OW14413   6.377   3.281   3.601
 4505SOL    HW114414   6.359   3.324   3.513
 4505SOL    HW214415   6.290   3.260   3.647
 4506SOL     OW14416   4.039   3.785   0.150
 4506SOL    HW114417   3.950   3.821   0.121
 4506SOL    HW214418   4.093   3.760   0.069
 4507SOL     OW14419   6.162   2.427   2.956
 4507SOL    HW114420   6.073   2.415   3.000
 4507SOL    HW214421   6.171   2.361   2.882
 4508SOL     OW14422   6.226   4.832   0.926
 4508SOL    HW114423   6.139   4.862   0.887
 4508SOL    HW214424   6.283   4.912   0.947
 4509SOL     OW14425   5.349   1.795   2.208
 4509SOL    HW114426   5.400   1.756   2.131
 4509SOL    HW214427   5.261   1.829   2.176
 4510SOL     OW14428   4.842   1.429   4.426
 4510SOL    HW114429   4.871   1.430   4.522
 4510SOL    HW214430   4.742   1.427   4.421
 4511SOL     OW14431   0.113   4.643   6.588
 4511SOL    HW114432   0.128   4.729   6.540
 4511SOL    HW214433   0.019   4.612   6.573
 4512SOL     OW14434   3.450   3.494   5.337
 4512SOL    HW114435   3.489   3.415   5.384
 4512SOL    HW214436   3.391   3.544   5.400
 4513SOL     OW14437   0.134   0.326   0.842
 4513SOL    HW114438   0.070   0.386   0.890
 4513SOL    HW214439   0.222   0.328   0.890
 4514SOL     OW14440   4.891   4.738   6.673
 4514SOL    HW114441   4.864   4.705   6.582
 4514SOL    HW214442   4.922   4.833   6.666
 4515SOL     OW14443   4.343   0.170   6.160
 4515SOL    HW114444   4.305   0.101   6.099
 4515SOL    HW214445   4.305   0.260   6.137
 4516SOL     OW14446   3.625   2.189   5.768
 4516SOL    HW114447   3.653   2.281   5.741
 4516SOL    HW214448   3.589   2.140   5.689
 4517SOL     OW14449   3.880   0.497   4.794
 4517SOL    HW114450   3.852   0.446   4.713
 4517SOL    HW214451   3.804   0.553   4.826
 4518SOL     OW14452   0.181   6.966   0.610
 4518SOL    HW114453   0.145   6.968   0.704
 4518SOL    HW214454   0.112   7.003   0.547
 4519SOL     OW14455   5.064   7.021   6.810
 4519SOL    HW114456   5.105   6.957   6.746
 4519SOL    HW214457   5.084   6.991   6.904
 4520SOL     OW14458   4.733   4.857   5.548
 4520SOL    HW114459   4.755   4.911   5.467
 4520SOL    HW214460   4.667   4.906   5.604
 4521SOL     OW14461   4.636   2.280   4.696
 4521SOL    HW114462   4.556   2.339   4.710
 4521SOL    HW214463   4.666   2.288   4.601
 4522SOL     OW14464   6.235   3.380   3.403
 4522SOL    HW114465   6.205   3.454   3.343
 4522SOL    HW214466   6.196   3.394   3.494
 4523SOL     OW14467   6.852   3.450   6.528
 4523SOL    HW114468   6.919   3.452   6.602
 4523SOL    HW214469   6.760   3.449   6.566
 4524SOL     OW14470   1.864   3.740   2.024
 4524SOL    HW114471   1.962   3.754   2.037
 4524SOL    HW214472   1.839   3.649   2.058
 4525SOL     OW14473   3.874   2.147   6.141
 4525SOL    HW114474   3.873   2.119   6.045
 4525SOL    HW214475   3.961   2.193   6.162
 4526SOL     OW14476   1.855   0.261   5.422
 4526SOL    HW114477   1.872   0.356   5.451
 4526SOL    HW214478   1.758   0.240   5.433
 4527SOL     OW14479   0.307   2.011   2.846
 4527SOL    HW114480   0.300   2.062   2.932
 4527SOL    HW214481   0.365   1.931   2.860
 4528SOL     OW14482   5.181   0.879   4.626
 4528SOL    HW114483   5.267   0.891   4.676
 4528SOL    HW214484   5.129   0.805   4.668
 4529SOL     OW14485   2.236   1.906   4.123
 4529SOL    HW114486   2.297   1.829   4.140
 4529SOL    HW214487   2.285   1.979   4.076
 4530SOL     OW14488   3.931   4.729   6.474
 4530SOL    HW114489   3.842   4.737   6.428
 4530SOL    HW214490   3.952   4.632   6.488
 4531SOL     OW14491   2.097   0.162   5.295
 4531SOL    HW114492   2.041   0.227   5.347
 4531SOL    HW214493   2.073   0.168   5.198
 4532SOL     OW14494   6.002   1.278   2.337
 4532SOL    HW114495   5.991   1.261   2.239
 4532SOL    HW214496   6.027   1.192   2.383
 4533SOL     OW14497   2.757   6.429   1.405
 4533SOL    HW114498   2.770   6.416   1.307
 4533SOL    HW214499   2.709   6.350   1.443
 4534SOL     OW14500   5.932   1.317   4.414
 4534SOL    HW114501   6.021   1.316   4.369
 4534SOL    HW214502   5.938   1.368   4.500
 4535SOL     OW14503   1.594   0.762   6.852
 4535SOL    HW114504   1.610   0.826   6.777
 4535SOL    HW214505   1.507   0.785   6.896
 4536SOL     OW14506   3.725   1.149   5.832
 4536SOL    HW114507   3.654   1.209   5.796
 4536SOL    HW214508   3.807   1.203   5.852
 4537SOL     OW14509   3.329   3.466   2.972
 4537SOL    HW114510   3.328   3.464   2.872
 4537SOL    HW214511   3.256   3.525   3.005
 4538SOL     OW14512   1.036   2.269   0.477
 4538SOL    HW114513   1.103   2.206   0.438
 4538SOL    HW214514   0.953   2.269   0.421
 4539SOL     OW14515   1.030   5.129   4.452
 4539SOL    HW114516   0.995   5.072   4.378
 4539SOL    HW214517   1.122   5.160   4.429
 4540SOL     OW14518   1.523   1.668   0.453
 4540SOL    HW114519   1.458   1.683   0.527
 4540SOL    HW214520   1.539   1.570   0.442
 4541SOL     OW14521   3.633   3.360   6.997
 4541SOL    HW114522   3.668   3.397   6.911
 4541SOL    HW214523   3.572   3.283   6.977
 4542SOL     OW14524   0.382   1.885   0.043
 4542SOL    HW114525   0.424   1.910   6.981
 4542SOL    HW214526   0.296   1.837   0.027
 4543SOL     OW14527   4.508   1.544   1.040
 4543SOL    HW114528   4.552   1.598   1.112
 4543SOL    HW214529   4.411   1.533   1.061
 4544SOL     OW14530   4.592   6.232   0.764
 4544SOL    HW114531   4.579   6.317   0.814
 4544SOL    HW214532   4.688   6.225   0.734
 4545SOL     OW14533   2.620   2.958   5.600
 4545SOL    HW114534   2.565   3.041   5.588
 4545SOL    HW214535   2.635   2.944   5.698
 4546SOL     OW14536   4.248   0.003   6.372
 4546SOL    HW114537   4.281   0.084   6.323
 4546SOL    HW214538   4.183   6.979   6.315
 4547SOL     OW14539   0.263   0.452   0.499
 4547SOL    HW114540   0.295   0.515   0.428
 4547SOL    HW214541   0.163   0.452   0.500
 4548SOL     OW14542   3.575   1.095   2.125
 4548SOL    HW114543   3.534   1.066   2.212
 4548SOL    HW214544   3.612   1.015   2.078
 4549SOL     OW14545   6.196   3.694   3.964
 4549SOL    HW114546   6.150   3.614   3.926
 4549SOL    HW214547   6.131   3.747   4.019
 4550SOL     OW14548   2.139   5.835   5.824
 4550SOL    HW114549   2.167   5.883   5.907
 4550SOL    HW214550   2.147   5.897   5.746
 4551SOL     OW14551   3.233   2.689   6.091
 4551SOL    HW114552   3.293   2.616   6.058
 4551SOL    HW214553   3.197   2.664   6.181
 4552SOL     OW14554   5.023   0.533   6.833
 4552SOL    HW114555   5.102   0.586   6.804
 4552SOL    HW214556   5.019   0.529   6.933
 4553SOL     OW14557   0.099   6.601   0.208
 4553SOL    HW114558   0.102   6.542   0.289
 4553SOL    HW214559   0.129   6.549   0.128
 4554SOL     OW14560   5.947   6.588   3.327
 4554SOL    HW114561   5.973   6.523   3.255
 4554SOL    HW214562   5.883   6.656   3.289
 4555SOL     OW14563   0.584   0.552   2.160
 4555SOL    HW114564   0.623   0.508   2.079
 4555SOL    HW214565   0.571   0.483   2.232
 4556SOL     OW14566   5.578   4.739   4.345
 4556SOL    HW114567   5.655   4.693   4.391
 4556SOL    HW214568   5.594   4.741   4.247
 4557SOL     OW14569   6.723   4.767   4.415
 4557SOL    HW114570   6.808   4.796   4.371
 4557SOL    HW214571   6.699   4.832   4.487
 4558SOL     OW14572   0.910   4.153   4.455
 4558SOL    HW114573   0.956   4.129   4.370
 4558SOL    HW214574   0.978   4.170   4.526
 4559SOL     OW14575   0.067   2.567   4.301
 4559SOL    HW114576   0.102   2.660   4.312
 4559SOL    HW214577   7.013   2.554   4.361
 4560SOL     OW14578   6.133   4.377   3.218
 4560SOL    HW114579   6.086   4.454   3.261
 4560SOL    HW214580   6.117   4.378   3.120
 4561SOL     OW14581   4.607   2.549   4.329
 4561SOL    HW114582   4.632   2.508   4.417
 4561SOL    HW214583   4.658   2.634   4.316
 4562SOL     OW14584   4.280   0.986   0.910
 4562SOL    HW114585   4.310   0.981   1.006
 4562SOL    HW214586   4.183   1.008   0.906
 4563SOL     OW14587   1.234   4.433   1.646
 4563SOL    HW114588   1.159   4.445   1.710
 4563SOL    HW214589   1.239   4.512   1.585
 4564SOL     OW14590   1.760   4.370   2.694
 4564SOL    HW114591   1.703   4.336   2.620
 4564SOL    HW214592   1.845   4.318   2.698
 4565SOL     OW14593   2.206   0.515   5.576
 4565SOL    HW114594   2.160   0.510   5.488
 4565SOL    HW214595   2.222   0.423   5.611
 4566SOL     OW14596   7.009   4.480   3.051
 4566SOL    HW114597   0.019   4.574   3.050
 4566SOL    HW214598   6.912   4.482   3.076
 4567SOL     OW14599   6.831   0.211   0.081
 4567SOL    HW114600   6.762   0.281   0.097
 4567SOL    HW214601   6.902   0.218   0.152
 4568SOL     OW14602   0.905   4.920   3.669
 4568SOL    HW114603   0.912   4.988   3.595
 4568SOL    HW214604   0.814   4.879   3.667
 4569SOL     OW14605   1.344   2.402   3.366
 4569SOL    HW114606   1.289   2.463   3.309
 4569SOL    HW214607   1.440   2.409   3.340
 4570SOL     OW14608   5.361   5.355   0.920
 4570SOL    HW114609   5.357   5.361   0.820
 4570SOL    HW214610   5.299   5.283   0.951
 4571SOL     OW14611   1.773   4.129   5.645
 4571SOL    HW114612   1.848   4.151   5.583
 4571SOL    HW214613   1.726   4.046   5.613
 4572SOL     OW14614   4.344   3.165   1.761
 4572SOL    HW114615   4.308   3.073   1.746
 4572SOL    HW214616   4.439   3.158   1.793
 4573SOL     OW14617   2.087   4.902   0.632
 4573SOL    HW114618   2.098   4.953   0.546
 4573SOL    HW214619   2.010   4.940   0.683
 4574SOL     OW14620   4.848   0.436   1.993
 4574SOL    HW114621   4.813   0.519   1.950
 4574SOL    HW214622   4.948   0.435   1.987
 4575SOL     OW14623   6.663   1.312   5.354
 4575SOL    HW114624   6.627   1.233   5.404
 4575SOL    HW214625   6.753   1.289   5.317
 4576SOL     OW14626   3.472   3.924   6.770
 4576SOL    HW114627   3.481   3.845   6.831
 4576SOL    HW214628   3.381   3.922   6.727
 4577SOL     OW14629   0.611   1.923   1.974
 4577SOL    HW114630   0.568   1.937   1.885
 4577SOL    HW214631   0.577   1.838   2.015
 4578SOL     OW14632   1.867   1.125   3.160
 4578SOL    HW114633   1.959   1.163   3.150
 4578SOL    HW214634   1.821   1.123   3.071
 4579SOL     OW14635   4.746   0.920   3.407
 4579SOL    HW114636   4.783   1.013   3.401
 4579SOL    HW214637   4.700   0.908   3.495
 4580SOL     OW14638   1.190   1.169   1.315
 4580SOL    HW114639   1.239   1.108   1.378
 4580SOL    HW214640   1.096   1.182   1.347
 4581SOL     OW14641   2.686   0.380   0.937
 4581SOL    HW114642   2.649   0.403   0.848
 4581SOL    HW214643   2.674   0.282   0.955
 4582SOL     OW14644   6.772   0.992   3.539
 4582SOL    HW114645   6.788   0.941   3.624
 4582SOL    HW214646   6.786   1.089   3.556
 4583SOL     OW14647   1.704   6.971   0.105
 4583SOL    HW114648   1.709   0.046   0.098
 4583SOL    HW214649   1.704   6.931   0.014
 4584SOL     OW14650   0.187   1.640   3.845
 4584SOL    HW114651   0.269   1.642   3.902
 4584SOL    HW214652   0.106   1.646   3.904
 4585SOL     OW14653   1.570   2.934   2.809
 4585SOL    HW114654   1.665   2.948   2.836
 4585SOL    HW214655   1.525   3.022   2.797
 4586SOL     OW14656   6.667   4.944   5.426
 4586SOL    HW114657   6.625   5.021   5.376
 4586SOL    HW214658   6.630   4.858   5.391
 4587SOL     OW14659   4.444   3.935   5.869
 4587SOL    HW114660   4.413   3.995   5.943
 4587SOL    HW214661   4.479   3.850   5.908
 4588SOL     OW14662   2.992   4.155   6.252
 4588SOL    HW114663   3.011   4.232   6.192
 4588SOL    HW214664   2.897   4.159   6.283
 4589SOL     OW14665   5.538   6.169   2.308
 4589SOL    HW114666   5.462   6.208   2.361
 4589SOL    HW214667   5.516   6.075   2.283
 4590SOL     OW14668   2.479   5.481   1.583
 4590SOL    HW114669   2.430   5.396   1.602
 4590SOL    HW214670   2.560   5.486   1.641
 4591SOL     OW14671   2.173   0.817   4.900
 4591SOL    HW114672   2.190   0.915   4.910
 4591SOL    HW214673   2.201   0.787   4.809
 4592SOL     OW14674   2.803   2.056   3.936
 4592SOL    HW114675   2.887   2.004   3.924
 4592SOL    HW214676   2.821   2.153   3.915
 4593SOL     OW14677   1.262   5.849   4.239
 4593SOL    HW114678   1.332   5.813   4.178
 4593SOL    HW214679   1.294   5.842   4.334
 4594SOL     OW14680   1.939   6.406   4.251
 4594SOL    HW114681   2.005   6.409   4.176
 4594SOL    HW214682   1.923   6.312   4.279
 4595SOL     OW14683   5.755   1.980   6.396
 4595SOL    HW114684   5.822   1.981   6.323
 4595SOL    HW214685   5.774   2.055   6.460
 4596SOL     OW14686   1.550   1.681   2.095
 4596SOL    HW114687   1.459   1.638   2.089
 4596SOL    HW214688   1.619   1.614   2.070
 4597SOL     OW14689   2.451   6.161   0.404
 4597SOL    HW114690   2.401   6.147   0.319
 4597SOL    HW214691   2.480   6.072   0.441
 4598SOL     OW14692   0.719   3.306   0.062
 4598SOL    HW114693   0.684   3.300   6.993
 4598SOL    HW214694   0.650   3.272   0.125
 4599SOL     OW14695   3.409   6.451   2.677
 4599SOL    HW114696   3.358   6.365   2.680
 4599SOL    HW214697   3.358   6.521   2.728
 4600SOL     OW14698   0.089   6.091   6.410
 4600SOL    HW114699   0.169   6.133   6.367
 4600SOL    HW214700   0.119   6.036   6.488
 4601SOL     OW14701   1.472   0.559   5.710
 4601SOL    HW114702   1.410   0.620   5.661
 4601SOL    HW214703   1.531   0.512   5.644
 4602SOL     OW14704   4.114   1.523   6.557
 4602SOL    HW114705   4.195   1.557   6.604
 4602SOL    HW214706   4.059   1.601   6.525
 4603SOL     OW14707   4.085   6.788   1.069
 4603SOL    HW114708   3.999   6.739   1.058
 4603SOL    HW214709   4.082   6.843   1.153
 4604SOL     OW14710   0.541   0.326   3.889
 4604SOL    HW114711   0.548   0.355   3.985
 4604SOL    HW214712   0.618   0.266   3.867
 4605SOL     OW14713   4.486   0.882   1.559
 4605SOL    HW114714   4.554   0.949   1.529
 4605SOL    HW214715   4.525   0.791   1.556
 4606SOL     OW14716   6.699   6.841   5.042
 4606SOL    HW114717   6.790   6.803   5.055
 4606SOL    HW214718   6.662   6.871   5.130
 4607SOL     OW14719   3.121   1.730   1.340
 4607SOL    HW114720   3.095   1.804   1.403
 4607SOL    HW214721   3.062   1.734   1.260
 4608SOL     OW14722   7.025   2.629   5.248
 4608SOL    HW114723   0.064   2.705   5.261
 4608SOL    HW214724   7.013   2.580   5.334
 4609SOL     OW14725   5.808   5.196   6.279
 4609SOL    HW114726   5.749   5.144   6.342
 4609SOL    HW214727   5.787   5.293   6.286
 4610SOL     OW14728   5.227   5.058   6.557
 4610SOL    HW114729   5.284   5.071   6.476
 4610SOL    HW214730   5.283   5.026   6.633
 4611SOL     OW14731   6.906   1.227   6.809
 4611SOL    HW114732   7.002   1.213   6.784
 4611SOL    HW214733   6.871   1.309   6.762
 4612SOL     OW14734   2.657   0.990   3.248
 4612SOL    HW114735   2.680   1.045   3.168
 4612SOL    HW214736   2.601   0.912   3.220
 4613SOL     OW14737   1.493   5.531   2.335
 4613SOL    HW114738   1.555   5.584   2.278
 4613SOL    HW214739   1.511   5.551   2.431
 4614SOL     OW14740   0.290   4.620   2.918
 4614SOL    HW114741   0.219   4.688   2.934
 4614SOL    HW214742   0.320   4.581   3.005
 4615SOL     OW14743   1.533   4.442   6.710
 4615SOL    HW114744   1.566   4.508   6.644
 4615SOL    HW214745   1.581   4.455   6.797
 4616SOL     OW14746   1.365   4.013   6.704
 4616SOL    HW114747   1.330   3.999   6.611
 4616SOL    HW214748   1.440   4.080   6.701
 4617SOL     OW14749   0.427   3.552   3.568
 4617SOL    HW114750   0.372   3.625   3.609
 4617SOL    HW214751   0.513   3.543   3.620
 4618SOL     OW14752   2.128   4.161   5.694
 4618SOL    HW114753   2.143   4.073   5.649
 4618SOL    HW214754   2.200   4.176   5.762
 4619SOL     OW14755   4.548   5.894   6.454
 4619SOL    HW114756   4.449   5.890   6.440
 4619SOL    HW214757   4.592   5.826   6.395
 4620SOL     OW14758   0.999   4.633   1.325
 4620SOL    HW114759   0.927   4.659   1.262
 4620SOL    HW214760   1.078   4.598   1.274
 4621SOL     OW14761   3.303   0.289   3.029
 4621SOL    HW114762   3.310   0.193   3.002
 4621SOL    HW214763   3.339   0.348   2.956
 4622SOL     OW14764   5.160   6.962   0.646
 4622SOL    HW114765   5.181   6.994   0.553
 4622SOL    HW214766   5.217   7.012   0.711
 4623SOL     OW14767   3.009   4.850   2.946
 4623SOL    HW114768   2.932   4.860   3.008
 4623SOL    HW214769   3.090   4.824   2.998
 4624SOL     OW14770   4.993   1.858   1.172
 4624SOL    HW114771   4.983   1.849   1.271
 4624SOL    HW214772   4.977   1.769   1.129
 4625SOL     OW14773   1.590   6.830   1.854
 4625SOL    HW114774   1.601   6.790   1.763
 4625SOL    HW214775   1.562   6.925   1.846
 4626SOL     OW14776   4.214   3.317   1.942
 4626SOL    HW114777   4.153   3.258   1.995
 4626SOL    HW214778   4.263   3.262   1.874
 4627SOL     OW14779   5.916   0.055   5.166
 4627SOL    HW114780   6.015   0.070   5.169
 4627SOL    HW214781   5.868   0.143   5.163
 4628SOL     OW14782   6.664   4.617   2.844
 4628SOL    HW114783   6.691   4.690   2.907
 4628SOL    HW214784   6.635   4.537   2.897
 4629SOL     OW14785   1.760   5.498   0.434
 4629SOL    HW114786   1.849   5.459   0.456
 4629SOL    HW214787   1.692   5.425   0.430
 4630SOL     OW14788   1.892   3.812   1.453
 4630SOL    HW114789   1.807   3.762   1.470
 4630SOL    HW214790   1.895   3.841   1.357
 4631SOL     OW14791   6.304   1.421   2.595
 4631SOL    HW114792   6.260   1.506   2.622
 4631SOL    HW214793   6.297   1.409   2.496
 4632SOL     OW14794   2.653   4.839   3.739
 4632SOL    HW114795   2.666   4.775   3.815
 4632SOL    HW214796   2.638   4.787   3.655
 4633SOL     OW14797   5.329   2.924   4.084
 4633SOL    HW114798   5.358   2.834   4.116
 4633SOL    HW214799   5.231   2.923   4.065
 4634SOL     OW14800   3.605   2.887   4.517
 4634SOL    HW114801   3.704   2.900   4.517
 4634SOL    HW214802   3.573   2.868   4.424
 4635SOL     OW14803   4.507   6.346   2.379
 4635SOL    HW114804   4.417   6.384   2.355
 4635SOL    HW214805   4.566   6.420   2.411
 4636SOL     OW14806   1.421   6.116   6.440
 4636SOL    HW114807   1.462   6.061   6.513
 4636SOL    HW214808   1.340   6.071   6.405
 4637SOL     OW14809   2.156   2.139   3.153
 4637SOL    HW114810   2.149   2.062   3.091
 4637SOL    HW214811   2.237   2.193   3.130
 4638SOL     OW14812   3.671   4.790   0.901
 4638SOL    HW114813   3.597   4.752   0.846
 4638SOL    HW214814   3.745   4.821   0.842
 4639SOL     OW14815   4.010   2.190   2.323
 4639SOL    HW114816   3.932   2.252   2.335
 4639SOL    HW214817   3.989   2.102   2.365
 4640SOL     OW14818   6.365   2.702   1.153
 4640SOL    HW114819   6.276   2.657   1.141
 4640SOL    HW214820   6.352   2.801   1.156
 4641SOL     OW14821   1.291   5.924   4.718
 4641SOL    HW114822   1.309   5.869   4.799
 4641SOL    HW214823   1.252   6.012   4.745
 4642SOL     OW14824   6.064   1.212   5.673
 4642SOL    HW114825   6.056   1.310   5.652
 4642SOL    HW214826   6.146   1.175   5.628
 4643SOL     OW14827   0.734   1.658   0.503
 4643SOL    HW114828   0.738   1.724   0.428
 4643SOL    HW214829   0.639   1.646   0.531
 4644SOL     OW14830   1.176   0.751   0.909
 4644SOL    HW114831   1.095   0.762   0.966
 4644SOL    HW214832   1.241   0.824   0.930
 4645SOL     OW14833   5.958   2.297   4.893
 4645SOL    HW114834   5.999   2.263   4.978
 4645SOL    HW214835   6.014   2.268   4.815
 4646SOL     OW14836   1.564   4.315   2.497
 4646SOL    HW114837   1.532   4.243   2.435
 4646SOL    HW214838   1.541   4.405   2.459
 4647SOL     OW14839   2.074   6.902   2.215
 4647SOL    HW114840   1.991   6.856   2.186
 4647SOL    HW214841   2.135   6.914   2.136
 4648SOL     OW14842   2.830   1.127   4.440
 4648SOL    HW114843   2.907   1.102   4.499
 4648SOL    HW214844   2.855   1.113   4.345
 4649SOL     OW14845   5.448   1.886   0.502
 4649SOL    HW114846   5.355   1.890   0.536
 4649SOL    HW214847   5.478   1.791   0.499
 4650SOL     OW14848   4.171   5.338   0.972
 4650SOL    HW114849   4.200   5.293   0.888
 4650SOL    HW214850   4.242   5.329   1.042
 4651SOL     OW14851   0.396   4.013   6.907
 4651SOL    HW114852   0.341   4.077   6.961
 4651SOL    HW214853   0.354   4.002   6.817
 4652SOL     OW14854   6.902   0.343   5.359
 4652SOL    HW114855   6.878   0.247   5.374
 4652SOL    HW214856   6.999   0.349   5.334
 4653SOL     OW14857   6.620   5.693   0.659
 4653SOL    HW114858   6.714   5.724   0.647
 4653SOL    HW214859   6.562   5.772   0.682
 4654SOL     OW14860   0.622   1.224   5.740
 4654SOL    HW114861   0.637   1.126   5.726
 4654SOL    HW214862   0.642   1.273   5.655
 4655SOL     OW14863   4.918   3.853   2.623
 4655SOL    HW114864   4.925   3.916   2.546
 4655SOL    HW214865   4.986   3.780   2.613
 4656SOL     OW14866   5.315   0.857   1.617
 4656SOL    HW114867   5.279   0.806   1.695
 4656SOL    HW214868   5.259   0.838   1.536
 4657SOL     OW14869   3.855   1.180   2.718
 4657SOL    HW114870   3.944   1.223   2.704
 4657SOL    HW214871   3.787   1.225   2.660
 4658SOL     OW14872   1.384   1.915   6.547
 4658SOL    HW114873   1.327   1.996   6.551
 4658SOL    HW214874   1.398   1.879   6.640
 4659SOL     OW14875   2.283   4.223   0.730
 4659SOL    HW114876   2.243   4.236   0.640
 4659SOL    HW214877   2.298   4.311   0.774
 4660SOL     OW14878   0.066   4.818   4.237
 4660SOL    HW114879   6.999   4.822   4.197
 4660SOL    HW214880   0.076   4.890   4.305
 4661SOL     OW14881   0.833   1.378   5.839
 4661SOL    HW114882   0.756   1.317   5.819
 4661SOL    HW214883   0.914   1.345   5.790
 4662SOL     OW14884   2.949   0.487   5.714
 4662SOL    HW114885   2.884   0.443   5.652
 4662SOL    HW214886   3.017   0.419   5.743
 4663SOL     OW14887   0.587   0.057   0.132
 4663SOL    HW114888   0.507   0.013   0.091
 4663SOL    HW214889   0.636   7.017   0.189
 4664SOL     OW14890   5.953   6.494   6.279
 4664SOL    HW114891   5.898   6.551   6.341
 4664SOL    HW214892   6.044   6.481   6.317
 4665SOL     OW14893   7.011   0.550   2.976
 4665SOL    HW114894   6.925   0.512   2.941
 4665SOL    HW214895   7.005   0.650   2.978
 4666SOL     OW14896   1.447   2.891   5.845
 4666SOL    HW114897   1.487   2.800   5.840
 4666SOL    HW214898   1.406   2.905   5.936
 4667SOL     OW14899   6.392   3.013   1.087
 4667SOL    HW114900   6.356   3.065   1.009
 4667SOL    HW214901   6.355   3.050   1.172
 4668SOL     OW14902   4.409   1.671   5.042
 4668SOL    HW114903   4.394   1.592   5.101
 4668SOL    HW214904   4.490   1.721   5.072
 4669SOL     OW14905   5.287   6.893   6.311
 4669SOL    HW114906   5.292   6.983   6.267
 4669SOL    HW214907   5.296   6.821   6.241
 4670SOL     OW14908   0.055   3.533   6.414
 4670SOL    HW114909   6.993   3.509   6.455
 4670SOL    HW214910   0.048   3.624   6.372
 4671SOL     OW14911   7.023   2.731   2.216
 4671SOL    HW114912   0.029   2.739   2.121
 4671SOL    HW214913   6.952   2.798   2.234
 4672SOL     OW14914   2.792   3.537   6.938
 4672SOL    HW114915   2.890   3.523   6.953
 4672SOL    HW214916   2.768   3.631   6.960
 4673SOL     OW14917   5.579   0.881   1.041
 4673SOL    HW114918   5.665   0.926   1.065
 4673SOL    HW214919   5.512   0.896   1.114
 4674SOL     OW14920   0.978   3.080   0.869
 4674SOL    HW114921   1.058   3.021   0.881
 4674SOL    HW214922   0.899   3.040   0.916
 4675SOL     OW14923   1.840   6.063   6.232
 4675SOL    HW114924   1.864   6.048   6.137
 4675SOL    HW214925   1.894   6.139   6.269
 4676SOL     OW14926   0.654   5.636   4.425
 4676SOL    HW114927   0.670   5.588   4.512
 4676SOL    HW214928   0.598   5.718   4.442
 4677SOL     OW14929   3.929   6.828   0.041
 4677SOL    HW114930   3.941   6.923   0.069
 4677SOL    HW214931   3.850   6.821   7.005
 4678SOL     OW14932   2.542   4.541   7.015
 4678SOL    HW114933   2.625   4.487   7.004
 4678SOL    HW214934   2.512   4.538   0.086
 4679SOL     OW14935   2.575   6.672   5.083
 4679SOL    HW114936   2.591   6.725   5.165
 4679SOL    HW214937   2.534   6.584   5.107
 4680SOL     OW14938   0.776   4.968   0.212
 4680SOL    HW114939   0.683   4.932   0.200
 4680SOL    HW214940   0.803   5.018   0.130
 4681SOL     OW14941   6.480   5.885   4.585
 4681SOL    HW114942   6.439   5.854   4.670
 4681SOL    HW214943   6.535   5.810   4.546
 4682SOL     OW14944   2.556   0.233   0.477
 4682SOL    HW114945   2.647   0.230   0.520
 4682SOL    HW214946   2.513   0.143   0.484
 4683SOL     OW14947   0.760   4.858   3.273
 4683SOL    HW114948   0.745   4.955   3.295
 4683SOL    HW214949   0.691   4.803   3.320
 4684SOL     OW14950   1.718   0.999   4.992
 4684SOL    HW114951   1.786   0.959   4.932
 4684SOL    HW214952   1.632   0.947   4.985
 4685SOL     OW14953   5.100   4.837   4.689
 4685SOL    HW114954   5.101   4.753   4.635
 4685SOL    HW214955   5.194   4.861   4.714
 4686SOL     OW14956   4.750   5.714   0.100
 4686SOL    HW114957   4.683   5.732   0.028
 4686SOL    HW214958   4.720   5.755   0.185
 4687SOL     OW14959   4.806   6.484   4.314
 4687SOL    HW114960   4.742   6.505   4.388
 4687SOL    HW214961   4.798   6.553   4.242
 4688SOL     OW14962   0.177   1.875   0.268
 4688SOL    HW114963   0.141   1.826   0.189
 4688SOL    HW214964   0.127   1.960   0.281
 4689SOL     OW14965   1.682   5.249   4.801
 4689SOL    HW114966   1.595   5.238   4.755
 4689SOL    HW214967   1.701   5.169   4.858
 4690SOL     OW14968   2.233   1.716   0.887
 4690SOL    HW114969   2.281   1.653   0.826
 4690SOL    HW214970   2.135   1.711   0.870
 4691SOL     OW14971   3.428   4.358   0.172
 4691SOL    HW114972   3.407   4.347   0.269
 4691SOL    HW214973   3.522   4.328   0.155
 4692SOL     OW14974   0.670   5.890   3.641
 4692SOL    HW114975   0.590   5.888   3.580
 4692SOL    HW214976   0.747   5.931   3.593
 4693SOL     OW14977   0.832   0.826   2.555
 4693SOL    HW114978   0.748   0.855   2.508
 4693SOL    HW214979   0.825   0.730   2.580
 4694SOL     OW14980   1.030   0.785   5.568
 4694SOL    HW114981   1.125   0.803   5.593
 4694SOL    HW214982   1.017   0.686   5.559
 4695SOL     OW14983   3.156   2.972   2.518
 4695SOL    HW114984   3.102   3.044   2.474
 4695SOL    HW214985   3.125   2.961   2.613
 4696SOL     OW14986   6.271   3.160   0.877
 4696SOL    HW114987   6.285   3.231   0.945
 4696SOL    HW214988   6.179   3.169   0.839
 4697SOL     OW14989   1.131   5.811   6.827
 4697SOL    HW114990   1.174   5.883   6.881
 4697SOL    HW214991   1.158   5.722   6.862
 4698SOL     OW14992   6.199   3.263   2.439
 4698SOL    HW114993   6.169   3.353   2.407
 4698SOL    HW214994   6.147   3.237   2.520
 4699SOL     OW14995   6.910   6.144   3.044
 4699SOL    HW114996   6.932   6.189   3.130
 4699SOL    HW214997   6.989   6.151   2.982
 4700SOL     OW14998   4.974   6.628   0.157
 4700SOL    HW114999   4.986   6.699   0.227
 4700SOL    HW215000   5.047   6.561   0.164
 4701SOL     OW15001   0.987   0.378   6.902
 4701SOL    HW115002   1.076   0.388   6.857
 4701SOL    HW215003   0.915   0.409   6.840
 4702SOL     OW15004   2.381   3.725   0.194
 4702SOL    HW115005   2.379   3.626   0.206
 4702SOL    HW215006   2.370   3.747   0.097
 4703SOL     OW15007   0.810   0.761   2.206
 4703SOL    HW115008   0.876   0.807   2.146
 4703SOL    HW215009   0.766   0.686   2.155
 4704SOL     OW15010   4.717   6.996   6.865
 4704SOL    HW115011   4.763   0.056   6.891
 4704SOL    HW215012   4.751   6.921   6.921
 4705SOL     OW15013   4.088   3.830   4.348
 4705SOL    HW115014   4.021   3.902   4.370
 4705SOL    HW215015   4.076   3.802   4.252
 4706SOL     OW15016   5.128   4.630   0.142
 4706SOL    HW115017   5.030   4.617   0.154
 4706SOL    HW215018   5.149   4.644   0.045
 4707SOL     OW15019   2.912   5.401   1.307
 4707SOL    HW115020   2.956   5.434   1.224
 4707SOL    HW215021   2.813   5.397   1.293
 4708SOL     OW15022   1.644   3.220   2.143
 4708SOL    HW115023   1.605   3.235   2.233
 4708SOL    HW215024   1.579   3.251   2.073
 4709SOL     OW15025   2.673   4.577   0.703
 4709SOL    HW115026   2.624   4.523   0.772
 4709SOL    HW215027   2.758   4.530   0.678
 4710SOL     OW15028   5.231   3.039   1.279
 4710SOL    HW115029   5.239   3.139   1.273
 4710SOL    HW215030   5.215   3.012   1.374
 4711SOL     OW15031   2.804   0.027   3.212
 4711SOL    HW115032   2.879   0.078   3.254
 4711SOL    HW215033   2.802   0.045   3.114
 4712SOL     OW15034   2.035   4.330   6.797
 4712SOL    HW115035   2.078   4.241   6.786
 4712SOL    HW215036   1.990   4.357   6.712
 4713SOL     OW15037   1.765   5.600   0.718
 4713SOL    HW115038   1.677   5.647   0.715
 4713SOL    HW215039   1.785   5.562   0.628
 4714SOL     OW15040   3.737   2.448   1.291
 4714SOL    HW115041   3.654   2.393   1.280
 4714SOL    HW215042   3.711   2.542   1.317
 4715SOL     OW15043   4.870   3.763   4.721
 4715SOL    HW115044   4.846   3.860   4.717
 4715SOL    HW215045   4.848   3.727   4.811
 4716SOL     OW15046   2.734   5.268   6.821
 4716SOL    HW115047   2.733   5.313   6.731
 4716SOL    HW215048   2.643   5.231   6.841
 4717SOL     OW15049   2.362   5.208   4.293
 4717SOL    HW115050   2.278   5.257   4.313
 4717SOL    HW215051   2.355   5.114   4.325
 4718SOL     OW15052   5.258   0.693   6.787
 4718SOL    HW115053   5.258   0.742   6.874
 4718SOL    HW215054   5.296   0.752   6.715
 4719SOL     OW15055   4.552   2.850   1.696
 4719SOL    HW115056   4.597   2.867   1.608
 4719SOL    HW215057   4.562   2.930   1.755
 4720SOL     OW15058   3.063   1.288   3.439
 4720SOL    HW115059   2.969   1.256   3.444
 4720SOL    HW215060   3.068   1.383   3.472
 4721SOL     OW15061   1.506   1.661   1.073
 4721SOL    HW115062   1.523   1.710   1.158
 4721SOL    HW215063   1.413   1.680   1.040
 4722SOL     OW15064   3.442   0.378   2.625
 4722SOL    HW115065   3.482   0.290   2.600
 4722SOL    HW215066   3.453   0.391   2.724
 4723SOL     OW15067   3.211   0.311   5.127
 4723SOL    HW115068   3.130   0.357   5.163
 4723SOL    HW215069   3.238   0.238   5.190
 4724SOL     OW15070   4.771   4.779   1.321
 4724SOL    HW115071   4.688   4.780   1.377
 4724SOL    HW215072   4.784   4.688   1.282
 4725SOL     OW15073   6.485   5.824   2.473
 4725SOL    HW115074   6.430   5.823   2.390
 4725SOL    HW215075   6.554   5.752   2.468
 4726SOL     OW15076   6.865   6.639   4.802
 4726SOL    HW115077   6.927   6.647   4.724
 4726SOL    HW215078   6.909   6.675   4.884
 4727SOL     OW15079   6.308   6.463   1.188
 4727SOL    HW115080   6.401   6.439   1.216
 4727SOL    HW215081   6.305   6.474   1.089
 4728SOL     OW15082   6.518   1.006   7.024
 4728SOL    HW115083   6.553   1.067   0.070
 4728SOL    HW215084   6.537   0.911   0.025
 4729SOL     OW15085   2.915   0.872   0.864
 4729SOL    HW115086   2.885   0.895   0.771
 4729SOL    HW215087   2.959   0.951   0.905
 4730SOL     OW15088   2.008   0.514   5.792
 4730SOL    HW115089   1.980   0.610   5.796
 4730SOL    HW215090   2.092   0.506   5.738
 4731SOL     OW15091   4.963   1.835   6.711
 4731SOL    HW115092   5.054   1.802   6.738
 4731SOL    HW215093   4.942   1.804   6.619
 4732SOL     OW15094   0.371   0.867   0.064
 4732SOL    HW115095   0.434   0.793   0.086
 4732SOL    HW215096   0.415   0.932   0.002
 4733SOL     OW15097   6.986   3.531   3.589
 4733SOL    HW115098   6.937   3.462   3.537
 4733SOL    HW215099   6.922   3.602   3.618
 4734SOL     OW15100   5.719   4.474   5.692
 4734SOL    HW115101   5.641   4.482   5.753
 4734SOL    HW215102   5.801   4.450   5.744
 4735SOL     OW15103   0.132   4.335   3.712
 4735SOL    HW115104   0.092   4.307   3.799
 4735SOL    HW215105   0.080   4.293   3.637
 4736SOL     OW15106   1.716   0.305   1.568
 4736SOL    HW115107   1.795   0.341   1.518
 4736SOL    HW215108   1.745   0.231   1.628
 4737SOL     OW15109   3.405   4.933   1.667
 4737SOL    HW115110   3.488   4.919   1.614
 4737SOL    HW215111   3.396   5.030   1.689
 4738SOL     OW15112   0.463   6.180   2.445
 4738SOL    HW115113   0.413   6.209   2.364
 4738SOL    HW215114   0.510   6.093   2.427
 4739SOL     OW15115   4.149   6.700   1.590
 4739SOL    HW115116   4.105   6.769   1.647
 4739SOL    HW215117   4.083   6.630   1.564
 4740SOL     OW15118   0.372   2.315   4.180
 4740SOL    HW115119   0.312   2.367   4.120
 4740SOL    HW215120   0.459   2.364   4.191
 4741SOL     OW15121   3.835   3.741   1.834
 4741SOL    HW115122   3.784   3.656   1.816
 4741SOL    HW215123   3.933   3.720   1.839
 4742SOL     OW15124   4.631   0.601   1.065
 4742SOL    HW115125   4.602   0.521   1.118
 4742SOL    HW215126   4.648   0.574   0.971
 4743SOL     OW15127   1.671   6.249   0.978
 4743SOL    HW115128   1.589   6.295   1.011
 4743SOL    HW215129   1.714   6.304   0.907
 4744SOL     OW15130   1.639   6.058   1.437
 4744SOL    HW115131   1.612   5.978   1.492
 4744SOL    HW215132   1.726   6.094   1.472
 4745SOL     OW15133   1.575   3.273   0.354
 4745SOL    HW115134   1.478   3.253   0.343
 4745SOL    HW215135   1.603   3.249   0.447
 4746SOL     OW15136   5.109   5.446   4.313
 4746SOL    HW115137   5.097   5.348   4.300
 4746SOL    HW215138   5.110   5.492   4.224
 4747SOL     OW15139   3.417   0.585   6.950
 4747SOL    HW115140   3.399   0.489   6.927
 4747SOL    HW215141   3.501   0.591   7.004
 4748SOL     OW15142   2.030   0.027   2.457
 4748SOL    HW115143   1.996   7.009   2.541
 4748SOL    HW215144   2.016   6.989   2.380
 4749SOL     OW15145   2.173   1.487   1.099
 4749SOL    HW115146   2.183   1.553   1.025
 4749SOL    HW215147   2.262   1.447   1.120
 4750SOL     OW15148   4.473   3.322   6.204
 4750SOL    HW115149   4.507   3.243   6.254
 4750SOL    HW215150   4.525   3.403   6.232
 4751SOL     OW15151   4.329   0.897   2.471
 4751SOL    HW115152   4.366   0.873   2.381
 4751SOL    HW215153   4.404   0.927   2.530
 4752SOL     OW15154   5.849   1.479   6.794
 4752SOL    HW115155   5.767   1.442   6.752
 4752SOL    HW215156   5.850   1.455   6.891
 4753SOL     OW15157   2.422   6.313   4.953
 4753SOL    HW115158   2.442   6.362   5.039
 4753SOL    HW215159   2.459   6.365   4.876
 4754SOL     OW15160   5.116   4.297   0.098
 4754SOL    HW115161   5.147   4.342   0.182
 4754SOL    HW215162   5.034   4.343   0.064
 4755SOL     OW15163   1.009   1.479   0.935
 4755SOL    HW115164   1.071   1.466   0.858
 4755SOL    HW215165   1.038   1.421   1.012
 4756SOL     OW15166   6.961   3.858   5.530
 4756SOL    HW115167   6.918   3.788   5.473
 4756SOL    HW215168   6.903   3.940   5.532
 4757SOL     OW15169   1.796   3.152   0.287
 4757SOL    HW115170   1.871   3.217   0.270
 4757SOL    HW215171   1.710   3.202   0.292
 4758SOL     OW15172   2.422   4.968   2.775
 4758SOL    HW115173   2.374   4.963   2.688
 4758SOL    HW215174   2.474   5.053   2.780
 4759SOL     OW15175   0.854   6.186   2.463
 4759SOL    HW115176   0.802   6.251   2.518
 4759SOL    HW215177   0.826   6.193   2.367
 4760SOL     OW15178   1.775   6.387   1.357
 4760SOL    HW115179   1.837   6.438   1.298
 4760SOL    HW215180   1.706   6.448   1.394
 4761SOL     OW15181   4.889   6.542   1.676
 4761SOL    HW115182   4.803   6.523   1.630
 4761SOL    HW215183   4.965   6.512   1.618
 4762SOL     OW15184   1.503   0.581   2.986
 4762SOL    HW115185   1.542   0.673   2.986
 4762SOL    HW215186   1.404   0.587   2.975
 4763SOL     OW15187   5.512   5.318   2.171
 4763SOL    HW115188   5.485   5.261   2.249
 4763SOL    HW215189   5.499   5.414   2.195
 4764SOL     OW15190   4.834   2.937   6.791
 4764SOL    HW115191   4.913   2.971   6.739
 4764SOL    HW215192   4.797   3.011   6.847
 4765SOL     OW15193   4.312   1.759   5.991
 4765SOL    HW115194   4.397   1.798   5.954
 4765SOL    HW215195   4.236   1.783   5.931
 4766SOL     OW15196   0.992   0.828   4.758
 4766SOL    HW115197   1.070   0.770   4.739
 4766SOL    HW215198   0.957   0.867   4.673
 4767SOL     OW15199   2.014   4.671   3.719
 4767SOL    HW115200   1.941   4.690   3.785
 4767SOL    HW215201   2.099   4.715   3.749
 4768SOL     OW15202   4.708   2.137   6.272
 4768SOL    HW115203   4.720   2.068   6.344
 4768SOL    HW215204   4.726   2.228   6.309
 4769SOL     OW15205   1.674   2.978   0.812
 4769SOL    HW115206   1.603   2.980   0.742
 4769SOL    HW215207   1.647   2.918   0.887
 4770SOL     OW15208   6.779   1.563   3.074
 4770SOL    HW115209   6.864   1.539   3.027
 4770SOL    HW215210   6.762   1.661   3.064
 4771SOL     OW15211   2.320   0.331   4.025
 4771SOL    HW115212   2.257   0.255   4.033
 4771SOL    HW215213   2.306   0.377   3.937
 4772SOL     OW15214   2.486   4.570   3.096
 4772SOL    HW115215   2.524   4.625   3.170
 4772SOL    HW215216   2.558   4.512   3.058
 4773SOL     OW15217   2.828   5.263   4.971
 4773SOL    HW115218   2.831   5.361   4.990
 4773SOL    HW215219   2.767   5.245   4.894
 4774SOL     OW15220   0.778   4.105   0.912
 4774SOL    HW115221   0.801   4.011   0.934
 4774SOL    HW215222   0.778   4.160   0.996
 4775SOL     OW15223   5.544   5.176   4.880
 4775SOL    HW115224   5.579   5.250   4.823
 4775SOL    HW215225   5.618   5.140   4.937
 4776SOL     OW15226   7.018   1.675   5.231
 4776SOL    HW115227   0.067   1.610   5.213
 4776SOL    HW215228   6.932   1.639   5.193
 4777SOL     OW15229   1.630   6.839   3.262
 4777SOL    HW115230   1.656   6.754   3.308
 4777SOL    HW215231   1.540   6.828   3.220
 4778SOL     OW15232   1.923   0.092   6.851
 4778SOL    HW115233   1.984   0.054   6.920
 4778SOL    HW215234   1.949   0.057   6.760
 4779SOL     OW15235   4.788   1.051   4.688
 4779SOL    HW115236   4.751   0.972   4.639
 4779SOL    HW215237   4.715   1.117   4.704
 4780SOL     OW15238   4.790   3.066   4.640
 4780SOL    HW115239   4.733   3.050   4.720
 4780SOL    HW215240   4.822   3.161   4.639
 4781SOL     OW15241   1.638   5.424   1.807
 4781SOL    HW115242   1.669   5.510   1.765
 4781SOL    HW215243   1.716   5.379   1.852
 4782SOL     OW15244   1.057   6.113   3.462
 4782SOL    HW115245   0.958   6.107   3.465
 4782SOL    HW215246   1.095   6.080   3.548
 4783SOL     OW15247   0.601   3.353   6.356
 4783SOL    HW115248   0.502   3.362   6.347
 4783SOL    HW215249   0.646   3.412   6.288
 4784SOL     OW15250   5.372   2.825   0.220
 4784SOL    HW115251   5.367   2.845   0.123
 4784SOL    HW215252   5.329   2.899   0.272
 4785SOL     OW15253   0.647   0.043   4.073
 4785SOL    HW115254   0.625   7.017   3.990
 4785SOL    HW215255   0.725   0.104   4.055
 4786SOL     OW15256   1.260   5.407   0.468
 4786SOL    HW115257   1.220   5.388   0.378
 4786SOL    HW215258   1.242   5.330   0.529
 4787SOL     OW15259   5.200   1.057   4.917
 4787SOL    HW115260   5.205   1.107   4.831
 4787SOL    HW215261   5.273   1.088   4.978
 4788SOL     OW15262   6.539   5.626   1.210
 4788SOL    HW115263   6.597   5.545   1.219
 4788SOL    HW215264   6.567   5.679   1.129
 4789SOL     OW15265   6.449   0.679   2.871
 4789SOL    HW115266   6.463   0.778   2.881
 4789SOL    HW215267   6.403   0.644   2.952
 4790SOL     OW15268   6.899   2.006   4.711
 4790SOL    HW115269   6.945   1.992   4.798
 4790SOL    HW215270   6.874   2.102   4.700
 4791SOL     OW15271   0.371   0.474   6.738
 4791SOL    HW115272   0.402   0.380   6.747
 4791SOL    HW215273   0.322   0.484   6.651
 4792SOL     OW15274   0.803   4.065   1.664
 4792SOL    HW115275   0.827   4.018   1.749
 4792SOL    HW215276   0.871   4.136   1.645
 4793SOL     OW15277   0.759   3.885   5.266
 4793SOL    HW115278   0.849   3.904   5.306
 4793SOL    HW215279   0.699   3.963   5.280
 4794SOL     OW15280   5.193   1.701   5.921
 4794SOL    HW115281   5.096   1.706   5.947
 4794SOL    HW215282   5.217   1.781   5.867
 4795SOL     OW15283   0.103   1.161   6.642
 4795SOL    HW115284   0.086   1.128   6.549
 4795SOL    HW215285   0.202   1.162   6.659
 4796SOL     OW15286   5.091   1.334   5.876
 4796SOL    HW115287   5.132   1.399   5.812
 4796SOL    HW215288   5.097   1.241   5.838
 4797SOL     OW15289   2.691   5.484   5.469
 4797SOL    HW115290   2.764   5.456   5.406
 4797SOL    HW215291   2.691   5.423   5.548
 4798SOL     OW15292   3.232   6.266   0.392
 4798SOL    HW115293   3.134   6.283   0.401
 4798SOL    HW215294   3.253   6.247   0.296
 4799SOL     OW15295   3.165   3.138   0.380
 4799SOL    HW115296   3.238   3.102   0.322
 4799SOL    HW215297   3.159   3.237   0.367
 4800SOL     OW15298   0.976   4.792   0.335
 4800SOL    HW115299   1.054   4.806   0.274
 4800SOL    HW215300   0.897   4.842   0.300
 4801SOL     OW15301   4.661   2.375   3.262
 4801SOL    HW115302   4.662   2.324   3.176
 4801SOL    HW215303   4.751   2.368   3.306
 4802SOL     OW15304   6.842   0.887   4.835
 4802SOL    HW115305   6.782   0.856   4.908
 4802SOL    HW215306   6.893   0.810   4.798
 4803SOL     OW15307   4.981   4.019   5.693
 4803SOL    HW115308   4.932   4.088   5.640
 4803SOL    HW215309   5.073   4.052   5.713
 4804SOL     OW15310   5.205   2.424   0.732
 4804SOL    HW115311   5.141   2.356   0.769
 4804SOL    HW215312   5.275   2.444   0.800
 4805SOL     OW15313   5.445   1.231   6.416
 4805SOL    HW115314   5.530   1.216   6.466
 4805SOL    HW215315   5.423   1.329   6.417
 4806SOL     OW15316   0.951   2.391   3.180
 4806SOL    HW115317   0.937   2.483   3.143
 4806SOL    HW215318   1.043   2.385   3.218
 4807SOL     OW15319   0.181   4.366   6.946
 4807SOL    HW115320   0.170   4.279   6.994
 4807SOL    HW215321   0.161   4.353   6.849
 4808SOL     OW15322   3.768   5.809   2.649
 4808SOL    HW115323   3.759   5.745   2.573
 4808SOL    HW215324   3.842   5.780   2.709
 4809SOL     OW15325   2.950   3.736   1.238
 4809SOL    HW115326   2.961   3.664   1.306
 4809SOL    HW215327   2.857   3.734   1.200
 4810SOL     OW15328   1.605   5.568   4.284
 4810SOL    HW115329   1.510   5.545   4.303
 4810SOL    HW215330   1.631   5.534   4.194
 4811SOL     OW15331   3.437   3.103   4.435
 4811SOL    HW115332   3.478   3.017   4.463
 4811SOL    HW215333   3.343   3.087   4.404
 4812SOL     OW15334   2.254   6.367   2.193
 4812SOL    HW115335   2.206   6.454   2.210
 4812SOL    HW215336   2.251   6.311   2.276
 4813SOL     OW15337   0.521   2.773   4.799
 4813SOL    HW115338   0.522   2.730   4.709
 4813SOL    HW215339   0.543   2.706   4.869
 4814SOL     OW15340   6.582   2.577   0.813
 4814SOL    HW115341   6.487   2.546   0.808
 4814SOL    HW215342   6.602   2.608   0.907
 4815SOL     OW15343   6.325   4.107   2.028
 4815SOL    HW115344   6.278   4.195   2.028
 4815SOL    HW215345   6.277   4.044   2.089
 4816SOL     OW15346   2.815   0.610   2.610
 4816SOL    HW115347   2.834   0.643   2.518
 4816SOL    HW215348   2.721   0.632   2.635
 4817SOL     OW15349   4.036   2.456   0.578
 4817SOL    HW115350   4.092   2.538   0.566
 4817SOL    HW215351   4.047   2.422   0.671
 4818SOL     OW15352   4.652   6.366   4.738
 4818SOL    HW115353   4.743   6.370   4.780
 4818SOL    HW215354   4.648   6.287   4.677
 4819SOL     OW15355   2.977   1.104   0.069
 4819SOL    HW115356   2.953   1.178   0.006
 4819SOL    HW215357   2.920   1.112   0.152
 4820SOL     OW15358   6.669   4.243   1.798
 4820SOL    HW115359   6.757   4.200   1.779
 4820SOL    HW215360   6.604   4.174   1.828
 4821SOL     OW15361   6.963   5.890   1.522
 4821SOL    HW115362   6.946   5.977   1.477
 4821SOL    HW215363   0.017   5.899   1.583
 4822SOL     OW15364   0.656   3.518   1.212
 4822SOL    HW115365   0.640   3.565   1.125
 4822SOL    HW215366   0.672   3.586   1.284
 4823SOL     OW15367   0.400   1.489   3.176
 4823SOL    HW115368   0.395   1.401   3.130
 4823SOL    HW215369   0.320   1.500   3.236
 4824SOL     OW15370   5.489   1.612   2.531
 4824SOL    HW115371   5.503   1.584   2.626
 4824SOL    HW215372   5.544   1.554   2.471
 4825SOL     OW15373   1.096   3.274   4.334
 4825SOL    HW115374   1.008   3.297   4.375
 4825SOL    HW215375   1.156   3.235   4.404
 4826SOL     OW15376   6.652   0.063   0.209
 4826SOL    HW115377   6.692   0.071   0.300
 4826SOL    HW215378   6.716   0.098   0.141
 4827SOL     OW15379   5.199   1.779   6.902
 4827SOL    HW115380   5.191   1.874   6.935
 4827SOL    HW215381   5.144   1.719   6.959
 4828SOL     OW15382   5.055   3.445   6.402
 4828SOL    HW115383   5.078   3.489   6.315
 4828SOL    HW215384   4.994   3.504   6.454
 4829SOL     OW15385   3.479   0.600   5.337
 4829SOL    HW115386   3.379   0.605   5.330
 4829SOL    HW215387   3.519   0.689   5.312
 4830SOL     OW15388   4.602   5.340   4.776
 4830SOL    HW115389   4.651   5.294   4.702
 4830SOL    HW215390   4.612   5.439   4.767
 4831SOL     OW15391   5.837   2.163   6.572
 4831SOL    HW115392   5.861   2.260   6.571
 4831SOL    HW215393   5.907   2.112   6.622
 4832SOL     OW15394   1.617   3.022   6.417
 4832SOL    HW115395   1.600   3.069   6.504
 4832SOL    HW215396   1.625   3.089   6.343
 4833SOL     OW15397   6.442   1.917   3.351
 4833SOL    HW115398   6.370   1.853   3.377
 4833SOL    HW215399   6.482   1.888   3.264
 4834SOL     OW15400   6.226   0.400   2.774
 4834SOL    HW115401   6.262   0.359   2.858
 4834SOL    HW215402   6.292   0.388   2.700
 4835SOL     OW15403   1.617   1.681   6.108
 4835SOL    HW115404   1.605   1.607   6.175
 4835SOL    HW215405   1.682   1.652   6.038
 4836SOL     OW15406   5.675   3.089   2.498
 4836SOL    HW115407   5.724   3.002   2.505
 4836SOL    HW215408   5.722   3.148   2.432
 4837SOL     OW15409   0.600   4.945   0.986
 4837SOL    HW115410   0.621   5.021   0.924
 4837SOL    HW215411   0.677   4.881   0.988
 4838SOL     OW15412   2.313   6.096   2.720
 4838SOL    HW115413   2.391   6.137   2.767
 4838SOL    HW215414   2.231   6.106   2.777
 4839SOL     OW15415   0.874   0.095   6.392
 4839SOL    HW115416   0.787   0.121   6.351
 4839SOL    HW215417   0.885   7.021   6.389
 4840SOL     OW15418   6.563   5.963   5.792
 4840SOL    HW115419   6.486   5.989   5.850
 4840SOL    HW215420   6.639   5.931   5.849
 4841SOL     OW15421   2.034   6.229   0.943
 4841SOL    HW115422   1.993   6.313   0.906
 4841SOL    HW215423   1.986   6.203   1.027
 4842SOL     OW15424   3.170   6.940   1.311
 4842SOL    HW115425   3.172   0.006   1.268
 4842SOL    HW215426   3.080   6.900   1.298
 4843SOL     OW15427   1.199   3.623   6.897
 4843SOL    HW115428   1.110   3.658   6.868
 4843SOL    HW215429   1.255   3.699   6.932
 4844SOL     OW15430   1.172   1.477   5.104
 4844SOL    HW115431   1.215   1.419   5.036
 4844SOL    HW215432   1.074   1.457   5.110
 4845SOL     OW15433   5.965   5.862   3.905
 4845SOL    HW115434   5.982   5.944   3.850
 4845SOL    HW215435   5.902   5.802   3.857
 4846SOL     OW15436   0.368   5.111   6.411
 4846SOL    HW115437   0.281   5.106   6.362
 4846SOL    HW215438   0.355   5.162   6.496
 4847SOL     OW15439   4.652   2.685   4.625
 4847SOL    HW115440   4.679   2.756   4.559
 4847SOL    HW215441   4.733   2.632   4.651
 4848SOL     OW15442   2.727   2.898   1.744
 4848SOL    HW115443   2.796   2.870   1.676
 4848SOL    HW215444   2.691   2.988   1.720
 4849SOL     OW15445   2.180   6.914   5.823
 4849SOL    HW115446   2.240   6.881   5.751
 4849SOL    HW215447   2.086   6.885   5.805
 4850SOL     OW15448   3.652   6.881   3.313
 4850SOL    HW115449   3.734   6.845   3.270
 4850SOL    HW215450   3.648   6.851   3.408
 4851SOL     OW15451   4.655   1.453   5.553
 4851SOL    HW115452   4.667   1.419   5.460
 4851SOL    HW215453   4.676   1.551   5.556
 4852SOL     OW15454   2.009   1.769   1.780
 4852SOL    HW115455   1.962   1.759   1.868
 4852SOL    HW215456   2.108   1.771   1.795
 4853SOL     OW15457   3.793   1.746   2.369
 4853SOL    HW115458   3.839   1.665   2.332
 4853SOL    HW215459   3.709   1.763   2.318
 4854SOL     OW15460   3.788   0.087   6.799
 4854SOL    HW115461   3.689   0.085   6.783
 4854SOL    HW215462   3.817   7.025   6.838
 4855SOL     OW15463   6.744   2.621   2.810
 4855SOL    HW115464   6.741   2.599   2.907
 4855SOL    HW215465   6.834   2.656   2.785
 4856SOL     OW15466   0.681   4.175   2.056
 4856SOL    HW115467   0.631   4.207   1.975
 4856SOL    HW215468   0.639   4.213   2.138
 4857SOL     OW15469   0.283   1.014   5.767
 4857SOL    HW115470   0.320   0.997   5.675
 4857SOL    HW215471   0.347   0.979   5.835
 4858SOL     OW15472   1.545   0.517   3.946
 4858SOL    HW115473   1.617   0.570   3.992
 4858SOL    HW215474   1.510   0.570   3.869
 4859SOL     OW15475   3.564   5.877   6.089
 4859SOL    HW115476   3.493   5.947   6.090
 4859SOL    HW215477   3.653   5.921   6.083
 4860SOL     OW15478   3.157   4.453   0.534
 4860SOL    HW115479   3.120   4.545   0.544
 4860SOL    HW215480   3.239   4.456   0.476
 4861SOL     OW15481   4.304   4.237   6.451
 4861SOL    HW115482   4.354   4.150   6.453
 4861SOL    HW215483   4.206   4.219   6.447
 4862SOL     OW15484   0.658   0.089   0.547
 4862SOL    HW115485   0.675   0.049   0.457
 4862SOL    HW215486   0.559   0.100   0.560
 4863SOL     OW15487   5.064   4.187   6.249
 4863SOL    HW115488   5.139   4.178   6.183
 4863SOL    HW215489   5.048   4.099   6.293
 4864SOL     OW15490   3.482   1.441   4.237
 4864SOL    HW115491   3.471   1.355   4.187
 4864SOL    HW215492   3.579   1.462   4.247
 4865SOL     OW15493   1.212   6.724   5.174
 4865SOL    HW115494   1.188   6.810   5.221
 4865SOL    HW215495   1.298   6.737   5.125
 4866SOL     OW15496   6.683   4.248   6.295
 4866SOL    HW115497   6.696   4.168   6.354
 4866SOL    HW215498   6.671   4.217   6.201
 4867SOL     OW15499   4.507   0.962   2.732
 4867SOL    HW115500   4.592   0.940   2.780
 4867SOL    HW215501   4.510   1.057   2.701
 4868SOL     OW15502   6.828   4.916   0.340
 4868SOL    HW115503   6.736   4.883   0.316
 4868SOL    HW215504   6.892   4.890   0.268
 4869SOL     OW15505   0.825   1.940   1.314
 4869SOL    HW115506   0.908   1.983   1.278
 4869SOL    HW215507   0.745   1.996   1.291
 4870SOL     OW15508   0.227   6.810   1.077
 4870SOL    HW115509   0.233   6.907   1.104
 4870SOL    HW215510   0.312   6.763   1.104
 4871SOL     OW15511   1.190   1.788   3.167
 4871SOL    HW115512   1.120   1.857   3.148
 4871SOL    HW215513   1.174   1.749   3.258
 4872SOL     OW15514   6.027   0.299   3.190
 4872SOL    HW115515   5.965   0.356   3.245
 4872SOL    HW215516   6.059   0.223   3.246
 4873SOL     OW15517   6.866   5.479   4.377
 4873SOL    HW115518   6.932   5.403   4.372
 4873SOL    HW215519   6.895   5.552   4.315
 4874SOL     OW15520   4.916   3.387   2.656
 4874SOL    HW115521   4.978   3.329   2.709
 4874SOL    HW215522   4.829   3.396   2.704
 4875SOL     OW15523   5.984   6.069   5.007
 4875SOL    HW115524   6.067   6.065   5.062
 4875SOL    HW215525   5.971   6.163   4.974
 4876SOL     OW15526   0.201   0.773   2.100
 4876SOL    HW115527   0.179   0.678   2.078
 4876SOL    HW215528   0.126   0.832   2.070
 4877SOL     OW15529   0.162   1.437   6.670
 4877SOL    HW115530   0.116   1.353   6.643
 4877SOL    HW215531   0.235   1.416   6.736
 4878SOL     OW15532   6.563   3.464   3.155
 4878SOL    HW115533   6.477   3.460   3.104
 4878SOL    HW215534   6.546   3.504   3.245
 4879SOL     OW15535   5.438   0.480   3.268
 4879SOL    HW115536   5.360   0.541   3.279
 4879SOL    HW215537   5.523   0.529   3.286
 4880SOL     OW15538   6.956   2.753   6.213
 4880SOL    HW115539   0.021   2.790   6.190
 4880SOL    HW215540   6.964   2.655   6.232
 4881SOL     OW15541   0.856   3.707   1.682
 4881SOL    HW115542   0.828   3.616   1.712
 4881SOL    HW215543   0.856   3.770   1.760
 4882SOL     OW15544   5.325   1.910   4.392
 4882SOL    HW115545   5.273   1.984   4.435
 4882SOL    HW215546   5.394   1.876   4.456
 4883SOL     OW15547   5.735   4.543   0.258
 4883SOL    HW115548   5.693   4.456   0.282
 4883SOL    HW215549   5.805   4.566   0.325
 4884SOL     OW15550   2.094   1.220   1.980
 4884SOL    HW115551   2.046   1.294   1.933
 4884SOL    HW215552   2.063   1.215   2.075
 4885SOL     OW15553   1.345   5.029   0.308
 4885SOL    HW115554   1.289   4.950   0.284
 4885SOL    HW215555   1.376   5.021   0.403
 4886SOL     OW15556   3.086   0.555   2.367
 4886SOL    HW115557   3.038   0.516   2.288
 4886SOL    HW215558   3.182   0.570   2.343
 4887SOL     OW15559   4.364   5.395   0.487
 4887SOL    HW115560   4.316   5.358   0.409
 4887SOL    HW215561   4.442   5.450   0.456
 4888SOL     OW15562   4.723   0.257   3.100
 4888SOL    HW115563   4.683   0.348   3.089
 4888SOL    HW215564   4.823   0.264   3.101
 4889SOL     OW15565   5.968   3.016   4.067
 4889SOL    HW115566   5.965   3.111   4.097
 4889SOL    HW215567   5.939   3.011   3.971
 4890SOL     OW15568   6.617   1.790   4.916
 4890SOL    HW115569   6.623   1.804   4.817
 4890SOL    HW215570   6.534   1.740   4.938
 4891SOL     OW15571   2.491   6.070   0.077
 4891SOL    HW115572   2.410   6.097   0.128
 4891SOL    HW215573   2.573   6.088   0.132
 4892SOL     OW15574   5.221   5.162   2.722
 4892SOL    HW115575   5.227   5.062   2.718
 4892SOL    HW215576   5.292   5.202   2.663
 4893SOL     OW15577   1.407   3.171   1.363
 4893SOL    HW115578   1.382   3.266   1.381
 4893SOL    HW215579   1.331   3.125   1.317
 4894SOL     OW15580   4.482   5.724   0.775
 4894SOL    HW115581   4.500   5.629   0.751
 4894SOL    HW215582   4.384   5.743   0.762
 4895SOL     OW15583   6.999   3.630   5.193
 4895SOL    HW115584   0.056   3.644   5.138
 4895SOL    HW215585   7.006   3.544   5.243
 4896SOL     OW15586   2.663   5.033   5.066
 4896SOL    HW115587   2.693   5.061   4.975
 4896SOL    HW215588   2.728   4.968   5.105
 4897SOL     OW15589   2.213   1.075   4.955
 4897SOL    HW115590   2.197   1.167   4.918
 4897SOL    HW215591   2.171   1.068   5.045
 4898SOL     OW15592   5.035   1.892   4.348
 4898SOL    HW115593   5.125   1.868   4.383
 4898SOL    HW215594   4.967   1.879   4.421
 4899SOL     OW15595   6.378   6.212   1.957
 4899SOL    HW115596   6.415   6.186   1.868
 4899SOL    HW215597   6.317   6.291   1.947
 4900SOL     OW15598   3.863   5.945   6.097
 4900SOL    HW115599   3.909   5.856   6.100
 4900SOL    HW215600   3.926   6.014   6.061
 4901SOL     OW15601   1.801   0.703   0.003
 4901SOL    HW115602   1.833   0.796   0.022
 4901SOL    HW215603   1.717   0.707   6.974
 4902SOL     OW15604   3.313   0.219   5.413
 4902SOL    HW115605   3.300   0.146   5.481
 4902SOL    HW215606   3.236   0.283   5.419
 4903SOL     OW15607   5.050   3.595   2.899
 4903SOL    HW115608   5.015   3.551   2.817
 4903SOL    HW215609   4.995   3.676   2.920
 4904SOL     OW15610   1.710   0.589   1.686
 4904SOL    HW115611   1.799   0.633   1.693
 4904SOL    HW215612   1.722   0.490   1.680
 4905SOL     OW15613   2.588   0.765   2.477
 4905SOL    HW115614   2.535   0.804   2.402
 4905SOL    HW215615   2.605   0.835   2.546
 4906SOL     OW15616   5.416   3.749   4.676
 4906SOL    HW115617   5.480   3.768   4.602
 4906SOL    HW215618   5.324   3.738   4.639
 4907SOL     OW15619   3.316   2.345   0.025
 4907SOL    HW115620   3.322   2.373   6.954
 4907SOL    HW215621   3.221   2.324   0.047
 4908SOL     OW15622   3.367   6.763   6.400
 4908SOL    HW115623   3.348   6.851   6.357
 4908SOL    HW215624   3.339   6.765   6.496
 4909SOL     OW15625   4.932   5.431   4.588
 4909SOL    HW115626   4.973   5.500   4.649
 4909SOL    HW215627   4.980   5.432   4.500
 4910SOL     OW15628   3.859   1.896   6.902
 4910SOL    HW115629   3.767   1.870   6.875
 4910SOL    HW215630   3.923   1.823   6.879
 4911SOL     OW15631   6.758   4.422   3.177
 4911SOL    HW115632   6.754   4.359   3.255
 4911SOL    HW215633   6.673   4.416   3.125
 4912SOL     OW15634   5.957   2.624   4.588
 4912SOL    HW115635   6.008   2.702   4.550
 4912SOL    HW215636   5.998   2.539   4.558
 4913SOL     OW15637   0.890   4.258   5.388
 4913SOL    HW115638   0.804   4.308   5.382
 4913SOL    HW215639   0.958   4.302   5.330
 4914SOL     OW15640   3.976   6.685   4.071
 4914SOL    HW115641   3.915   6.610   4.043
 4914SOL    HW215642   4.051   6.648   4.126
 4915SOL     OW15643   3.646   6.004   5.470
 4915SOL    HW115644   3.653   6.016   5.371
 4915SOL    HW215645   3.581   6.069   5.507
 4916SOL     OW15646   5.277   2.085   3.995
 4916SOL    HW115647   5.322   2.009   4.043
 4916SOL    HW215648   5.292   2.170   4.045
 4917SOL     OW15649   4.445   6.363   6.529
 4917SOL    HW115650   4.498   6.360   6.613
 4917SOL    HW215651   4.437   6.458   6.498
 4918SOL     OW15652   5.755   5.423   3.771
 4918SOL    HW115653   5.694   5.361   3.821
 4918SOL    HW215654   5.751   5.402   3.674
 4919SOL     OW15655   3.695   3.806   2.088
 4919SOL    HW115656   3.734   3.898   2.084
 4919SOL    HW215657   3.736   3.749   2.016
 4920SOL     OW15658   5.973   1.036   6.075
 4920SOL    HW115659   6.043   1.027   6.003
 4920SOL    HW215660   5.884   1.008   6.038
 4921SOL     OW15661   6.942   6.671   1.646
 4921SOL    HW115662   7.014   6.656   1.714
 4921SOL    HW215663   6.973   6.738   1.578
 4922SOL     OW15664   4.524   1.536   6.012
 4922SOL    HW115665   4.582   1.615   6.031
 4922SOL    HW215666   4.439   1.566   5.969
 4923SOL     OW15667   4.021   1.447   1.824
 4923SOL    HW115668   3.975   1.523   1.871
 4923SOL    HW215669   4.013   1.460   1.725
 4924SOL     OW15670   2.601   1.387   4.919
 4924SOL    HW115671   2.510   1.350   4.900
 4924SOL    HW215672   2.601   1.486   4.904
 4925SOL     OW15673   4.781   5.752   3.617
 4925SOL    HW115674   4.736   5.837   3.590
 4925SOL    HW215675   4.853   5.729   3.552
 4926SOL     OW15676   5.851   2.972   1.912
 4926SOL    HW115677   5.885   2.931   1.828
 4926SOL    HW215678   5.754   2.992   1.902
 4927SOL     OW15679   2.666   1.516   0.232
 4927SOL    HW115680   2.756   1.523   0.274
 4927SOL    HW215681   2.628   1.607   0.220
 4928SOL     OW15682   6.762   1.484   0.893
 4928SOL    HW115683   6.718   1.452   0.810
 4928SOL    HW215684   6.730   1.576   0.914
 4929SOL     OW15685   6.745   0.173   5.009
 4929SOL    HW115686   6.840   0.141   5.018
 4929SOL    HW215687   6.720   0.227   5.089
 4930SOL     OW15688   4.363   5.696   2.525
 4930SOL    HW115689   4.322   5.737   2.443
 4930SOL    HW215690   4.459   5.674   2.507
 4931SOL     OW15691   6.026   0.039   1.052
 4931SOL    HW115692   6.087   6.986   1.043
 4931SOL    HW215693   5.980   0.056   0.965
 4932SOL     OW15694   3.264   3.685   2.722
 4932SOL    HW115695   3.239   3.589   2.708
 4932SOL    HW215696   3.321   3.716   2.645
 4933SOL     OW15697   1.401   0.362   4.957
 4933SOL    HW115698   1.417   0.279   5.010
 4933SOL    HW215699   1.426   0.442   5.011
 4934SOL     OW15700   3.279   6.656   2.850
 4934SOL    HW115701   3.344   6.729   2.827
 4934SOL    HW215702   3.300   6.621   2.942
 4935SOL     OW15703   6.582   0.382   4.904
 4935SOL    HW115704   6.600   0.300   4.958
 4935SOL    HW215705   6.533   0.449   4.959
 4936SOL     OW15706   4.720   2.571   0.857
 4936SOL    HW115707   4.653   2.627   0.907
 4936SOL    HW215708   4.682   2.480   0.841
 4937SOL     OW15709   4.351   2.663   5.323
 4937SOL    HW115710   4.268   2.697   5.367
 4937SOL    HW215711   4.419   2.736   5.319
 4938SOL     OW15712   3.801   4.319   6.832
 4938SOL    HW115713   3.716   4.268   6.819
 4938SOL    HW215714   3.858   4.310   6.750
 4939SOL     OW15715   4.443   4.000   6.465
 4939SOL    HW115716   4.466   3.936   6.538
 4939SOL    HW215717   4.450   3.954   6.376
 4940SOL     OW15718   2.274   5.652   3.932
 4940SOL    HW115719   2.216   5.681   3.855
 4940SOL    HW215720   2.345   5.591   3.898
 4941SOL     OW15721   5.558   0.641   0.940
 4941SOL    HW115722   5.631   0.576   0.961
 4941SOL    HW215723   5.572   0.724   0.996
 4942SOL     OW15724   4.779   2.394   6.321
 4942SOL    HW115725   4.798   2.420   6.227
 4942SOL    HW215726   4.709   2.455   6.359
 4943SOL     OW15727   5.792   2.867   1.222
 4943SOL    HW115728   5.758   2.957   1.250
 4943SOL    HW215729   5.887   2.876   1.192
 4944SOL     OW15730   2.120   3.805   2.082
 4944SOL    HW115731   2.173   3.727   2.117
 4944SOL    HW215732   2.127   3.881   2.146
 4945SOL     OW15733   0.036   5.910   4.342
 4945SOL    HW115734   0.070   5.849   4.414
 4945SOL    HW215735   0.112   5.962   4.304
 4946SOL     OW15736   0.029   4.004   1.981
 4946SOL    HW115737   0.002   3.935   2.047
 4946SOL    HW215738   0.088   4.072   2.025
 4947SOL     OW15739   6.043   0.840   0.781
 4947SOL    HW115740   6.099   0.808   0.705
 4947SOL    HW215741   5.987   0.917   0.752
 4948SOL     OW15742   2.366   1.701   2.682
 4948SOL    HW115743   2.355   1.707   2.782
 4948SOL    HW215744   2.335   1.787   2.640
 4949SOL     OW15745   5.446   2.229   4.849
 4949SOL    HW115746   5.497   2.291   4.908
 4949SOL    HW215747   5.352   2.262   4.839
 4950SOL     OW15748   3.155   5.435   4.700
 4950SOL    HW115749   3.076   5.460   4.644
 4950SOL    HW215750   3.129   5.440   4.797
 4951SOL     OW15751   4.390   1.683   4.467
 4951SOL    HW115752   4.295   1.687   4.497
 4951SOL    HW215753   4.450   1.670   4.546
 4952SOL     OW15754   6.839   4.530   4.127
 4952SOL    HW115755   6.789   4.617   4.129
 4952SOL    HW215756   6.892   4.520   4.211
 4953SOL     OW15757   1.156   4.748   1.714
 4953SOL    HW115758   1.252   4.726   1.696
 4953SOL    HW215759   1.127   4.706   1.800
 4954SOL     OW15760   6.228   6.315   6.732
 4954SOL    HW115761   6.134   6.282   6.734
 4954SOL    HW215762   6.267   6.300   6.641
 4955SOL     OW15763   1.921   0.456   1.423
 4955SOL    HW115764   1.989   0.529   1.427
 4955SOL    HW215765   1.946   0.392   1.350
 4956SOL     OW15766   6.234   6.523   3.405
 4956SOL    HW115767   6.226   6.425   3.420
 4956SOL    HW215768   6.146   6.567   3.419
 4957SOL     OW15769   1.887   5.883   3.682
 4957SOL    HW115770   1.831   5.945   3.627
 4957SOL    HW215771   1.829   5.814   3.724
 4958SOL     OW15772   6.877   6.831   6.965
 4958SOL    HW115773   6.922   6.881   6.890
 4958SOL    HW215774   6.785   6.804   6.936
 4959SOL     OW15775   0.552   2.130   0.067
 4959SOL    HW115776   0.576   2.158   0.160
 4959SOL    HW215777   0.491   2.051   0.071
 4960SOL     OW15778   4.025   6.909   5.783
 4960SOL    HW115779   4.044   6.963   5.701
 4960SOL    HW215780   4.027   6.812   5.762
 4961SOL     OW15781   5.403   0.625   5.351
 4961SOL    HW115782   5.328   0.679   5.389
 4961SOL    HW215783   5.387   0.528   5.369
 4962SOL     OW15784   6.727   2.402   2.590
 4962SOL    HW115785   6.794   2.469   2.558
 4962SOL    HW215786   6.700   2.425   2.684
 4963SOL     OW15787   6.791   4.657   1.177
 4963SOL    HW115788   6.809   4.580   1.115
 4963SOL    HW215789   6.857   4.730   1.159
 4964SOL     OW15790   3.290   6.507   3.109
 4964SOL    HW115791   3.380   6.545   3.131
 4964SOL    HW215792   3.244   6.479   3.194
 4965SOL     OW15793   0.054   6.189   4.558
 4965SOL    HW115794   0.138   6.162   4.604
 4965SOL    HW215795   0.070   6.195   4.459
 4966SOL     OW15796   4.590   5.270   5.044
 4966SOL    HW115797   4.522   5.316   5.102
 4966SOL    HW215798   4.565   5.282   4.948
 4967SOL     OW15799   5.803   1.760   6.721
 4967SOL    HW115800   5.804   1.677   6.777
 4967SOL    HW215801   5.714   1.806   6.731
 4968SOL     OW15802   5.020   4.024   6.982
 4968SOL    HW115803   5.064   4.090   6.921
 4968SOL    HW215804   4.932   4.060   7.013
 4969SOL     OW15805   1.854   1.740   1.337
 4969SOL    HW115806   1.954   1.740   1.338
 4969SOL    HW215807   1.820   1.690   1.417
 4970SOL     OW15808   1.759   2.310   5.927
 4970SOL    HW115809   1.809   2.335   5.845
 4970SOL    HW215810   1.762   2.385   5.993
 4971SOL     OW15811   6.669   5.426   3.707
 4971SOL    HW115812   6.617   5.487   3.647
 4971SOL    HW215813   6.669   5.334   3.669
 4972SOL     OW15814   1.720   2.309   5.050
 4972SOL    HW115815   1.798   2.248   5.039
 4972SOL    HW215816   1.750   2.404   5.039
 4973SOL     OW15817   5.158   5.680   2.997
 4973SOL    HW115818   5.143   5.597   2.944
 4973SOL    HW215819   5.253   5.685   3.026
 4974SOL     OW15820   3.864   6.620   6.573
 4974SOL    HW115821   3.936   6.611   6.642
 4974SOL    HW215822   3.877   6.704   6.521
 4975SOL     OW15823   3.780   6.765   0.479
 4975SOL    HW115824   3.750   6.781   0.572
 4975SOL    HW215825   3.833   6.680   0.474
 4976SOL     OW15826   2.546   0.777   4.415
 4976SOL    HW115827   2.527   0.756   4.320
 4976SOL    HW215828   2.586   0.869   4.422
 4977SOL     OW15829   3.288   2.975   0.620
 4977SOL    HW115830   3.307   3.039   0.546
 4977SOL    HW215831   3.322   2.884   0.595
 4978SOL     OW15832   6.242   4.309   6.188
 4978SOL    HW115833   6.321   4.310   6.250
 4978SOL    HW215834   6.256   4.375   6.115
 4979SOL     OW15835   2.153   2.167   3.970
 4979SOL    HW115836   2.105   2.195   4.053
 4979SOL    HW215837   2.166   2.246   3.910
 4980SOL     OW15838   1.875   4.571   3.177
 4980SOL    HW115839   1.953   4.623   3.213
 4980SOL    HW215840   1.909   4.489   3.131
 4981SOL     OW15841   5.349   6.023   5.372
 4981SOL    HW115842   5.316   6.007   5.279
 4981SOL    HW215843   5.432   6.080   5.368
 4982SOL     OW15844   2.573   1.938   6.782
 4982SOL    HW115845   2.545   1.913   6.689
 4982SOL    HW215846   2.580   1.855   6.838
 4983SOL     OW15847   6.829   2.786   4.807
 4983SOL    HW115848   6.750   2.737   4.770
 4983SOL    HW215849   6.867   2.845   4.735
 4984SOL     OW15850   5.084   4.270   3.173
 4984SOL    HW115851   5.088   4.183   3.124
 4984SOL    HW215852   4.990   4.304   3.173
 4985SOL     OW15853   5.659   4.183   2.290
 4985SOL    HW115854   5.624   4.105   2.341
 4985SOL    HW215855   5.719   4.150   2.216
 4986SOL     OW15856   4.361   4.748   3.167
 4986SOL    HW115857   4.341   4.719   3.261
 4986SOL    HW215858   4.279   4.737   3.111
 4987SOL     OW15859   0.674   3.296   0.498
 4987SOL    HW115860   0.669   3.220   0.433
 4987SOL    HW215861   0.767   3.303   0.534
 4988SOL     OW15862   1.959   2.068   5.284
 4988SOL    HW115863   1.928   2.103   5.373
 4988SOL    HW215864   2.053   2.035   5.293
 4989SOL     OW15865   0.049   1.167   1.094
 4989SOL    HW115866   0.149   1.173   1.090
 4989SOL    HW215867   0.015   1.232   1.162
 4990SOL     OW15868   1.537   2.208   6.577
 4990SOL    HW115869   1.473   2.218   6.501
 4990SOL    HW215870   1.515   2.273   6.649
 4991SOL     OW15871   2.901   1.971   5.697
 4991SOL    HW115872   2.955   1.953   5.779
 4991SOL    HW215873   2.904   2.068   5.675
 4992SOL     OW15874   4.185   6.237   4.912
 4992SOL    HW115875   4.196   6.269   5.006
 4992SOL    HW215876   4.227   6.302   4.849
 4993SOL     OW15877   1.559   6.376   4.453
 4993SOL    HW115878   1.569   6.312   4.530
 4993SOL    HW215879   1.554   6.469   4.487
 4994SOL     OW15880   0.299   6.319   3.028
 4994SOL    HW115881   0.346   6.375   2.959
 4994SOL    HW215882   0.353   6.319   3.113
 4995SOL     OW15883   5.653   2.796   5.472
 4995SOL    HW115884   5.681   2.881   5.517
 4995SOL    HW215885   5.555   2.782   5.485
 4996SOL     OW15886   0.765   1.496   3.407
 4996SOL    HW115887   0.722   1.406   3.412
 4996SOL    HW215888   0.702   1.561   3.364
 4997SOL     OW15889   0.051   2.783   3.763
 4997SOL    HW115890   0.139   2.760   3.806
 4997SOL    HW215891   7.016   2.703   3.767
 4998SOL     OW15892   0.896   5.665   5.571
 4998SOL    HW115893   0.821   5.605   5.543
 4998SOL    HW215894   0.893   5.678   5.670
 4999SOL     OW15895   6.189   4.353   0.990
 4999SOL    HW115896   6.139   4.433   0.956
 4999SOL    HW215897   6.123   4.282   1.016
 5000SOL     OW15898   6.319   5.134   4.118
 5000SOL    HW115899   6.260   5.092   4.048
 5000SOL    HW215900   6.383   5.066   4.153
 5001SOL     OW15901   5.017   3.692   5.370
 5001SOL    HW115902   5.103   3.720   5.412
 5001SOL    HW215903   5.010   3.593   5.372
 5002SOL     OW15904   1.799   2.496   1.586
 5002SOL    HW115905   1.761   2.418   1.636
 5002SOL    HW215906   1.814   2.572   1.649
 5003SOL     OW15907   6.638   5.036   3.991
 5003SOL    HW115908   6.567   4.991   4.045
 5003SOL    HW215909   6.659   5.125   4.031
 5004SOL     OW15910   2.224   4.492   5.915
 5004SOL    HW115911   2.228   4.534   5.824
 5004SOL    HW215912   2.292   4.535   5.974
 5005SOL     OW15913   4.689   1.987   0.570
 5005SOL    HW115914   4.747   1.942   0.638
 5005SOL    HW215915   4.682   2.084   0.591
 5006SOL     OW15916   5.299   4.630   2.423
 5006SOL    HW115917   5.379   4.689   2.411
 5006SOL    HW215918   5.328   4.540   2.455
 5007SOL     OW15919   4.470   0.730   5.089
 5007SOL    HW115920   4.480   0.641   5.134
 5007SOL    HW215921   4.416   0.791   5.147
 5008SOL     OW15922   6.350   1.130   3.809
 5008SOL    HW115923   6.262   1.094   3.776
 5008SOL    HW215924   6.403   1.163   3.731
 5009SOL     OW15925   2.193   6.239   1.935
 5009SOL    HW115926   2.206   6.291   1.851
 5009SOL    HW215927   2.226   6.292   2.014
 5010SOL     OW15928   3.491   3.551   5.919
 5010SOL    HW115929   3.441   3.471   5.952
 5010SOL    HW215930   3.503   3.617   5.994
 5011SOL     OW15931   1.301   2.050   3.711
 5011SOL    HW115932   1.332   2.145   3.718
 5011SOL    HW215933   1.366   1.998   3.655
 5012SOL     OW15934   6.023   3.172   0.026
 5012SOL    HW115935   6.047   3.268   0.012
 5012SOL    HW215936   6.057   3.142   0.115
 5013SOL     OW15937   4.725   1.853   5.414
 5013SOL    HW115938   4.775   1.873   5.330
 5013SOL    HW215939   4.642   1.802   5.392
 5014SOL     OW15940   0.390   5.554   6.676
 5014SOL    HW115941   0.419   5.460   6.655
 5014SOL    HW215942   0.308   5.551   6.734
 5015SOL     OW15943   5.150   1.695   4.046
 5015SOL    HW115944   5.080   1.755   4.084
 5015SOL    HW215945   5.172   1.724   3.953
 5016SOL     OW15946   2.966   6.168   2.288
 5016SOL    HW115947   3.013   6.082   2.266
 5016SOL    HW215948   2.867   6.156   2.277
 5017SOL     OW15949   1.039   2.121   1.627
 5017SOL    HW115950   1.013   2.071   1.710
 5017SOL    HW215951   1.088   2.204   1.653
 5018SOL     OW15952   6.751   4.832   3.512
 5018SOL    HW115953   6.761   4.905   3.579
 5018SOL    HW215954   6.700   4.756   3.552
 5019SOL     OW15955   2.343   5.371   5.232
 5019SOL    HW115956   2.292   5.433   5.291
 5019SOL    HW215957   2.283   5.338   5.159
 5020SOL     OW15958   4.244   5.039   6.699
 5020SOL    HW115959   4.263   5.100   6.621
 5020SOL    HW215960   4.148   5.011   6.697
 5021SOL     OW15961   1.723   4.555   5.739
 5021SOL    HW115962   1.793   4.484   5.735
 5021SOL    HW215963   1.663   4.548   5.659
 5022SOL     OW15964   2.017   3.982   0.216
 5022SOL    HW115965   2.044   3.918   0.288
 5022SOL    HW215966   1.918   3.994   0.218
 5023SOL     OW15967   0.425   3.229   4.697
 5023SOL    HW115968   0.326   3.215   4.691
 5023SOL    HW215969   0.468   3.148   4.738
 5024SOL     OW15970   4.702   3.796   5.321
 5024SOL    HW115971   4.604   3.787   5.305
 5024SOL    HW215972   4.729   3.739   5.399
 5025SOL     OW15973   6.116   0.695   4.230
 5025SOL    HW115974   6.134   0.785   4.270
 5025SOL    HW215975   6.022   0.667   4.253
 5026SOL     OW15976   0.821   5.610   2.424
 5026SOL    HW115977   0.836   5.648   2.333
 5026SOL    HW215978   0.908   5.580   2.463
 5027SOL     OW15979   1.450   5.880   3.517
 5027SOL    HW115980   1.453   5.782   3.535
 5027SOL    HW215981   1.449   5.930   3.604
 5028SOL     OW15982   0.772   6.782   3.217
 5028SOL    HW115983   0.857   6.732   3.232
 5028SOL    HW215984   0.776   6.870   3.266
 5029SOL     OW15985   6.783   0.835   3.770
 5029SOL    HW115986   6.803   0.740   3.794
 5029SOL    HW215987   6.859   0.894   3.799
 5030SOL     OW15988   1.115   6.332   0.052
 5030SOL    HW115989   1.135   6.270   0.127
 5030SOL    HW215990   1.164   6.418   0.064
 5031SOL     OW15991   5.851   0.706   6.774
 5031SOL    HW115992   5.860   0.693   6.675
 5031SOL    HW215993   5.760   0.743   6.794
 5032SOL     OW15994   1.390   5.131   2.234
 5032SOL    HW115995   1.377   5.059   2.302
 5032SOL    HW215996   1.322   5.202   2.248
 5033SOL     OW15997   0.609   4.571   4.368
 5033SOL    HW115998   0.640   4.477   4.387
 5033SOL    HW215999   0.511   4.578   4.386
 5034SOL     OW16000   7.023   3.305   6.262
 5034SOL    HW116001   0.022   3.376   6.327
 5034SOL    HW216002   6.945   3.252   6.296
 5035SOL     OW16003   6.900   3.825   1.352
 5035SOL    HW116004   6.806   3.817   1.320
 5035SOL    HW216005   6.961   3.832   1.272
 5036SOL     OW16006   1.494   1.198   1.983
 5036SOL    HW116007   1.498   1.169   2.078
 5036SOL    HW216008   1.497   1.298   1.978
 5037SOL     OW16009   4.989   3.539   2.421
 5037SOL    HW116010   4.955   3.497   2.505
 5037SOL    HW216011   4.986   3.472   2.346
 5038SOL     OW16012   3.188   5.955   5.329
 5038SOL    HW116013   3.188   5.870   5.382
 5038SOL    HW216014   3.273   6.005   5.348
 5039SOL     OW16015   1.910   2.212   3.125
 5039SOL    HW116016   1.871   2.205   3.217
 5039SOL    HW216017   2.003   2.176   3.125
 5040SOL     OW16018   3.207   3.308   5.783
 5040SOL    HW116019   3.193   3.318   5.685
 5040SOL    HW216020   3.124   3.275   5.826
 5041SOL     OW16021   7.014   5.433   0.569
 5041SOL    HW116022   6.934   5.431   0.629
 5041SOL    HW216023   0.040   5.348   0.578
 5042SOL     OW16024   6.036   1.499   5.690
 5042SOL    HW116025   5.991   1.518   5.777
 5042SOL    HW216026   5.978   1.529   5.615
 5043SOL     OW16027   4.900   6.006   4.077
 5043SOL    HW116028   4.892   5.924   4.135
 5043SOL    HW216029   4.890   6.087   4.134
 5044SOL     OW16030   5.969   4.396   2.036
 5044SOL    HW116031   5.927   4.307   2.051
 5044SOL    HW216032   5.950   4.427   1.943
 5045SOL     OW16033   6.044   2.939   5.626
 5045SOL    HW116034   5.961   2.993   5.639
 5045SOL    HW216035   6.026   2.844   5.651
 5046SOL     OW16036   3.944   3.437   5.941
 5046SOL    HW116037   3.903   3.382   6.013
 5046SOL    HW216038   3.888   3.432   5.858
 5047SOL     OW16039   0.439   1.454   2.106
 5047SOL    HW116040   0.424   1.360   2.075
 5047SOL    HW216041   0.361   1.483   2.162
 5048SOL     OW16042   5.492   3.253   1.176
 5048SOL    HW116043   5.554   3.329   1.200
 5048SOL    HW216044   5.459   3.267   1.083
 5049SOL     OW16045   1.417   1.871   1.607
 5049SOL    HW116046   1.361   1.910   1.534
 5049SOL    HW216047   1.403   1.924   1.691
 5050SOL     OW16048   2.101   4.640   0.286
 5050SOL    HW116049   2.181   4.698   0.272
 5050SOL    HW216050   2.023   4.698   0.312
 5051SOL     OW16051   2.739   4.139   6.320
 5051SOL    HW116052   2.671   4.146   6.248
 5051SOL    HW216053   2.724   4.055   6.372
 5052SOL     OW16054   5.719   2.894   0.527
 5052SOL    HW116055   5.734   2.871   0.431
 5052SOL    HW216056   5.760   2.824   0.586
 5053SOL     OW16057   1.401   4.063   1.312
 5053SOL    HW116058   1.379   4.158   1.336
 5053SOL    HW216059   1.390   4.005   1.393
 5054SOL     OW16060   3.772   6.303   5.671
 5054SOL    HW116061   3.768   6.204   5.686
 5054SOL    HW216062   3.751   6.322   5.575
 5055SOL     OW16063   1.292   1.009   4.328
 5055SOL    HW116064   1.305   0.977   4.234
 5055SOL    HW216065   1.321   1.104   4.335
 5056SOL     OW16066   3.339   2.452   6.067
 5056SOL    HW116067   3.371   2.379   6.006
 5056SOL    HW216068   3.257   2.422   6.114
 5057SOL     OW16069   0.187   4.309   2.987
 5057SOL    HW116070   0.110   4.372   3.002
 5057SOL    HW216071   0.189   4.241   3.061
 5058SOL     OW16072   3.638   1.660   0.751
 5058SOL    HW116073   3.563   1.680   0.814
 5058SOL    HW216074   3.602   1.616   0.669
 5059SOL     OW16075   5.404   1.852   2.461
 5059SOL    HW116076   5.439   1.769   2.503
 5059SOL    HW216077   5.377   1.833   2.367
 5060SOL     OW16078   6.822   3.113   5.647
 5060SOL    HW116079   6.739   3.058   5.652
 5060SOL    HW216080   6.798   3.210   5.649
 5061SOL     OW16081   4.011   3.089   5.702
 5061SOL    HW116082   4.031   3.092   5.800
 5061SOL    HW216083   4.096   3.083   5.651
 5062SOL     OW16084   5.561   1.446   3.476
 5062SOL    HW116085   5.468   1.472   3.451
 5062SOL    HW216086   5.626   1.488   3.412
 5063SOL     OW16087   0.521   2.170   1.557
 5063SOL    HW116088   0.517   2.196   1.653
 5063SOL    HW216089   0.613   2.186   1.521
 5064SOL     OW16090   5.950   5.019   1.677
 5064SOL    HW116091   6.007   4.986   1.602
 5064SOL    HW216092   5.869   5.065   1.640
 5065SOL     OW16093   2.524   1.937   2.485
 5065SOL    HW116094   2.424   1.933   2.480
 5065SOL    HW216095   2.557   2.004   2.418
 5066SOL     OW16096   1.647   5.455   2.917
 5066SOL    HW116097   1.621   5.522   2.986
 5066SOL    HW216098   1.731   5.410   2.945
 5067SOL     OW16099   5.605   2.396   1.117
 5067SOL    HW116100   5.670   2.459   1.073
 5067SOL    HW216101   5.587   2.427   1.210
 5068SOL     OW16102   1.064   6.113   1.100
 5068SOL    HW116103   1.070   6.021   1.139
 5068SOL    HW216104   1.011   6.172   1.162
 5069SOL     OW16105   4.600   4.958   5.779
 5069SOL    HW116106   4.647   4.950   5.867
 5069SOL    HW216107   4.517   4.903   5.781
 5070SOL     OW16108   6.327   3.809   6.362
 5070SOL    HW116109   6.417   3.853   6.355
 5070SOL    HW216110   6.273   3.829   6.280
 5071SOL     OW16111   2.839   5.966   3.207
 5071SOL    HW116112   2.843   6.037   3.277
 5071SOL    HW216113   2.850   6.009   3.117
 5072SOL     OW16114   1.137   1.582   1.955
 5072SOL    HW116115   1.137   1.545   1.862
 5072SOL    HW216116   1.207   1.536   2.009
 5073SOL     OW16117   1.709   1.272   3.415
 5073SOL    HW116118   1.778   1.323   3.364
 5073SOL    HW216119   1.726   1.174   3.405
 5074SOL     OW16120   3.701   1.950   1.511
 5074SOL    HW116121   3.773   1.909   1.567
 5074SOL    HW216122   3.669   2.034   1.554
 5075SOL     OW16123   6.260   2.669   0.527
 5075SOL    HW116124   6.197   2.599   0.563
 5075SOL    HW216125   6.278   2.736   0.599
 5076SOL     OW16126   0.069   1.093   5.983
 5076SOL    HW116127   0.082   1.124   5.889
 5076SOL    HW216128   0.134   1.020   6.003
 5077SOL     OW16129   0.275   4.581   3.926
 5077SOL    HW116130   0.184   4.552   3.954
 5077SOL    HW216131   0.314   4.513   3.863
 5078SOL     OW16132   6.357   2.186   3.245
 5078SOL    HW116133   6.257   2.187   3.249
 5078SOL    HW216134   6.391   2.103   3.288
 5079SOL     OW16135   1.994   4.194   4.836
 5079SOL    HW116136   2.051   4.114   4.851
 5079SOL    HW216137   1.933   4.207   4.914
 5080SOL     OW16138   6.434   5.698   0.001
 5080SOL    HW116139   6.491   5.727   6.949
 5080SOL    HW216140   6.480   5.625   0.051
 5081SOL     OW16141   2.543   5.064   5.391
 5081SOL    HW116142   2.572   4.973   5.419
 5081SOL    HW216143   2.447   5.077   5.415
 5082SOL     OW16144   5.783   6.799   2.072
 5082SOL    HW116145   5.757   6.742   1.994
 5082SOL    HW216146   5.751   6.757   2.156
 5083SOL     OW16147   0.793   0.032   3.447
 5083SOL    HW116148   0.764   0.091   3.372
 5083SOL    HW216149   0.861   0.079   3.502
 5084SOL     OW16150   4.011   5.020   5.875
 5084SOL    HW116151   3.962   5.085   5.816
 5084SOL    HW216152   4.032   4.937   5.823
 5085SOL     OW16153   0.490   4.285   5.635
 5085SOL    HW116154   0.551   4.284   5.714
 5085SOL    HW216155   0.497   4.373   5.589
 5086SOL     OW16156   0.756   4.575   2.219
 5086SOL    HW116157   0.855   4.568   2.237
 5086SOL    HW216158   0.741   4.599   2.123
 5087SOL     OW16159   0.415   5.473   1.669
 5087SOL    HW116160   0.472   5.459   1.750
 5087SOL    HW216161   0.439   5.405   1.600
 5088SOL     OW16162   4.518   4.932   2.326
 5088SOL    HW116163   4.494   4.960   2.233
 5088SOL    HW216164   4.564   4.843   2.323
 5089SOL     OW16165   5.391   6.606   5.746
 5089SOL    HW116166   5.388   6.627   5.648
 5089SOL    HW216167   5.453   6.670   5.791
 5090SOL     OW16168   2.230   6.437   4.334
 5090SOL    HW116169   2.155   6.379   4.366
 5090SOL    HW216170   2.310   6.381   4.316
 5091SOL     OW16171   6.697   5.981   6.113
 5091SOL    HW116172   6.790   6.011   6.134
 5091SOL    HW216173   6.700   5.895   6.062
 5092SOL     OW16174   3.934   3.162   4.190
 5092SOL    HW116175   3.836   3.142   4.186
 5092SOL    HW216176   3.975   3.111   4.264
 5093SOL     OW16177   3.230   2.149   3.824
 5093SOL    HW116178   3.283   2.144   3.739
 5093SOL    HW216179   3.142   2.192   3.806
 5094SOL     OW16180   1.950   6.050   5.149
 5094SOL    HW116181   1.933   5.952   5.139
 5094SOL    HW216182   2.040   6.064   5.192
 5095SOL     OW16183   6.852   1.248   3.096
 5095SOL    HW116184   6.770   1.284   3.141
 5095SOL    HW216185   6.933   1.289   3.137
 5096SOL     OW16186   6.456   3.128   6.447
 5096SOL    HW116187   6.520   3.182   6.392
 5096SOL    HW216188   6.492   3.037   6.461
 5097SOL     OW16189   1.003   1.106   5.514
 5097SOL    HW116190   1.080   1.101   5.450
 5097SOL    HW216191   0.951   1.021   5.510
 5098SOL     OW16192   3.016   2.007   0.878
 5098SOL    HW116193   2.960   1.934   0.837
 5098SOL    HW216194   3.108   2.004   0.839
 5099SOL     OW16195   2.126   5.416   2.683
 5099SOL    HW116196   2.218   5.453   2.695
 5099SOL    HW216197   2.121   5.326   2.725
 5100SOL     OW16198   5.596   3.906   1.776
 5100SOL    HW116199   5.515   3.906   1.717
 5100SOL    HW216200   5.601   3.820   1.826
 5101SOL     OW16201   3.090   1.704   5.176
 5101SOL    HW116202   2.999   1.675   5.206
 5101SOL    HW216203   3.160   1.661   5.233
 5102SOL     OW16204   5.793   4.511   4.764
 5102SOL    HW116205   5.801   4.605   4.796
 5102SOL    HW216206   5.733   4.509   4.684
 5103SOL     OW16207   0.502   0.251   5.928
 5103SOL    HW116208   0.421   0.252   5.986
 5103SOL    HW216209   0.584   0.242   5.984
 5104SOL     OW16210   4.108   3.749   3.480
 5104SOL    HW116211   4.143   3.774   3.570
 5104SOL    HW216212   4.092   3.651   3.477
 5105SOL     OW16213   4.147   3.240   6.917
 5105SOL    HW116214   4.103   3.255   7.006
 5105SOL    HW216215   4.133   3.146   6.889
 5106SOL     OW16216   3.787   1.082   1.548
 5106SOL    HW116217   3.839   1.014   1.498
 5106SOL    HW216218   3.767   1.160   1.488
 5107SOL     OW16219   6.255   5.331   0.275
 5107SOL    HW116220   6.209   5.303   0.359
 5107SOL    HW216221   6.307   5.415   0.293
 5108SOL     OW16222   4.030   4.463   1.327
 5108SOL    HW116223   4.008   4.560   1.340
 5108SOL    HW216224   4.006   4.437   1.233
 5109SOL     OW16225   1.354   2.459   2.354
 5109SOL    HW116226   1.338   2.364   2.327
 5109SOL    HW216227   1.344   2.468   2.453
 5110SOL     OW16228   3.873   6.207   4.886
 5110SOL    HW116229   3.880   6.108   4.877
 5110SOL    HW216230   3.960   6.244   4.917
 5111SOL     OW16231   2.080   5.762   5.337
 5111SOL    HW116232   2.032   5.805   5.414
 5111SOL    HW216233   2.177   5.756   5.359
 5112SOL     OW16234   1.224   4.851   2.674
 5112SOL    HW116235   1.294   4.780   2.678
 5112SOL    HW216236   1.133   4.809   2.678
 5113SOL     OW16237   1.785   4.118   0.921
 5113SOL    HW116238   1.751   4.181   0.851
 5113SOL    HW216239   1.879   4.093   0.898
 5114SOL     OW16240   4.238   4.802   1.569
 5114SOL    HW116241   4.245   4.823   1.471
 5114SOL    HW216242   4.249   4.704   1.583
 5115SOL     OW16243   1.262   4.630   0.503
 5115SOL    HW116244   1.300   4.608   0.593
 5115SOL    HW216245   1.172   4.672   0.514
 5116SOL     OW16246   0.035   6.428   4.884
 5116SOL    HW116247   0.124   6.401   4.920
 5116SOL    HW216248   0.041   6.442   4.785
 5117SOL     OW16249   0.221   3.126   3.357
 5117SOL    HW116250   0.193   3.131   3.261
 5117SOL    HW216251   0.244   3.218   3.390
 5118SOL     OW16252   4.165   5.491   6.855
 5118SOL    HW116253   4.095   5.434   6.898
 5118SOL    HW216254   4.244   5.500   6.916
 5119SOL     OW16255   5.938   1.835   0.455
 5119SOL    HW116256   5.962   1.837   0.358
 5119SOL    HW216257   5.855   1.889   0.470
 5120SOL     OW16258   5.608   6.353   5.967
 5120SOL    HW116259   5.698   6.353   6.010
 5120SOL    HW216260   5.590   6.443   5.927
 5121SOL     OW16261   1.369   2.958   6.984
 5121SOL    HW116262   1.304   3.033   6.992
 5121SOL    HW216263   1.434   2.963   0.035
 5122SOL     OW16264   4.312   4.780   3.432
 5122SOL    HW116265   4.299   4.701   3.492
 5122SOL    HW216266   4.314   4.863   3.488
 5123SOL     OW16267   4.696   2.114   1.817
 5123SOL    HW116268   4.768   2.116   1.886
 5123SOL    HW216269   4.688   2.021   1.781
 5124SOL     OW16270   0.668   5.983   4.480
 5124SOL    HW116271   0.759   5.971   4.521
 5124SOL    HW216272   0.599   5.987   4.552
 5125SOL     OW16273   6.107   2.577   3.970
 5125SOL    HW116274   6.099   2.537   3.879
 5125SOL    HW216275   6.110   2.505   4.039
 5126SOL     OW16276   2.365   0.912   1.802
 5126SOL    HW116277   2.332   0.947   1.890
 5126SOL    HW216278   2.430   0.838   1.818
 5127SOL     OW16279   2.548   6.700   6.857
 5127SOL    HW116280   2.619   6.654   6.910
 5127SOL    HW216281   2.480   6.632   6.827
 5128SOL     OW16282   4.360   6.530   1.373
 5128SOL    HW116283   4.345   6.511   1.470
 5128SOL    HW216284   4.345   6.627   1.355
 5129SOL     OW16285   6.241   5.908   0.421
 5129SOL    HW116286   6.341   5.909   0.422
 5129SOL    HW216287   6.207   6.000   0.402
 5130SOL     OW16288   6.032   4.672   2.962
 5130SOL    HW116289   5.979   4.626   3.033
 5130SOL    HW216290   6.114   4.619   2.942
 5131SOL     OW16291   2.529   2.598   2.590
 5131SOL    HW116292   2.481   2.620   2.675
 5131SOL    HW216293   2.595   2.670   2.569
 5132SOL     OW16294   2.598   6.002   5.366
 5132SOL    HW116295   2.581   6.012   5.268
 5132SOL    HW216296   2.686   5.956   5.380
 5133SOL     OW16297   3.700   6.382   5.393
 5133SOL    HW116298   3.651   6.315   5.338
 5133SOL    HW216299   3.642   6.462   5.409
 5134SOL     OW16300   6.428   4.040   6.778
 5134SOL    HW116301   6.392   3.958   6.735
 5134SOL    HW216302   6.437   4.113   6.710
 5135SOL     OW16303   6.854   1.854   4.301
 5135SOL    HW116304   6.926   1.919   4.277
 5135SOL    HW216305   6.885   1.797   4.378
 5136SOL     OW16306   3.427   2.197   6.284
 5136SOL    HW116307   3.514   2.243   6.267
 5136SOL    HW216308   3.360   2.264   6.318
 5137SOL     OW16309   3.633   3.351   0.268
 5137SOL    HW116310   3.646   3.265   0.317
 5137SOL    HW216311   3.657   3.339   0.172
 5138SOL     OW16312   2.404   3.950   5.752
 5138SOL    HW116313   2.353   3.900   5.682
 5138SOL    HW216314   2.340   3.991   5.818
 5139SOL     OW16315   0.639   6.852   3.527
 5139SOL    HW116316   0.702   6.923   3.495
 5139SOL    HW216317   0.550   6.864   3.484
 5140SOL     OW16318   3.004   3.029   1.496
 5140SOL    HW116319   2.934   2.958   1.494
 5140SOL    HW216320   2.960   3.119   1.507
 5141SOL     OW16321   1.197   4.287   6.040
 5141SOL    HW116322   1.249   4.206   6.015
 5141SOL    HW216323   1.220   4.313   6.134
 5142SOL     OW16324   5.960   3.568   2.128
 5142SOL    HW116325   6.021   3.525   2.195
 5142SOL    HW216326   5.885   3.506   2.107
 5143SOL     OW16327   6.992   5.214   5.145
 5143SOL    HW116328   6.950   5.164   5.070
 5143SOL    HW216329   0.009   5.148   5.209
 5144SOL     OW16330   1.996   1.895   4.864
 5144SOL    HW116331   2.062   1.963   4.832
 5144SOL    HW216332   1.922   1.940   4.913
 5145SOL     OW16333   3.350   5.610   5.788
 5145SOL    HW116334   3.410   5.629   5.866
 5145SOL    HW216335   3.291   5.690   5.772
 5146SOL     OW16336   2.630   4.861   0.395
 5146SOL    HW116337   2.626   4.762   0.383
 5146SOL    HW216338   2.553   4.890   0.453
 5147SOL     OW16339   0.000   5.112   6.578
 5147SOL    HW116340   6.933   5.100   6.613
 5147SOL    HW216341   7.024   5.111   6.478
 5148SOL     OW16342   0.303   0.797   0.588
 5148SOL    HW116343   0.310   0.702   0.559
 5148SOL    HW216344   0.330   0.806   0.684
 5149SOL     OW16345   7.012   0.358   5.742
 5149SOL    HW116346   0.068   0.397   5.785
 5149SOL    HW216347   6.980   0.280   5.796
 5150SOL     OW16348   1.948   5.306   5.287
 5150SOL    HW116349   1.969   5.388   5.341
 5150SOL    HW216350   1.949   5.330   5.190
 5151SOL     OW16351   4.149   0.980   5.599
 5151SOL    HW116352   4.149   1.035   5.683
 5151SOL    HW216353   4.176   0.886   5.621
 5152SOL     OW16354   0.515   4.869   0.310
 5152SOL    HW116355   0.532   4.770   0.313
 5152SOL    HW216356   0.495   4.901   0.403
 5153SOL     OW16357   1.995   2.463   1.209
 5153SOL    HW116358   1.921   2.510   1.161
 5153SOL    HW216359   1.958   2.410   1.285
 5154SOL     OW16360   1.735   4.732   4.987
 5154SOL    HW116361   1.650   4.690   5.019
 5154SOL    HW216362   1.725   4.759   4.891
 5155SOL     OW16363   3.892   0.649   2.986
 5155SOL    HW116364   3.826   0.612   3.052
 5155SOL    HW216365   3.984   0.618   3.010
 5156SOL     OW16366   5.374   3.069   5.882
 5156SOL    HW116367   5.455   3.042   5.832
 5156SOL    HW216368   5.320   2.988   5.906
 5157SOL     OW16369   6.186   2.083   4.333
 5157SOL    HW116370   6.124   2.151   4.373
 5157SOL    HW216371   6.141   1.994   4.333
 5158SOL     OW16372   3.645   0.835   0.788
 5158SOL    HW116373   3.591   0.764   0.743
 5158SOL    HW216374   3.645   0.918   0.732
 5159SOL     OW16375   2.058   3.351   4.842
 5159SOL    HW116376   1.987   3.338   4.911
 5159SOL    HW216377   2.130   3.283   4.857
 5160SOL     OW16378   2.786   2.353   3.966
 5160SOL    HW116379   2.831   2.311   4.045
 5160SOL    HW216380   2.726   2.427   3.998
 5161SOL     OW16381   1.942   3.261   5.982
 5161SOL    HW116382   2.041   3.262   5.997
 5161SOL    HW216383   1.904   3.177   6.021
 5162SOL     OW16384   6.515   5.382   4.565
 5162SOL    HW116385   6.594   5.320   4.562
 5162SOL    HW216386   6.457   5.364   4.486
 5163SOL     OW16387   5.419   4.429   1.422
 5163SOL    HW116388   5.438   4.444   1.325
 5163SOL    HW216389   5.498   4.456   1.477
 5164SOL     OW16390   6.375   6.208   4.713
 5164SOL    HW116391   6.343   6.160   4.795
 5164SOL    HW216392   6.307   6.276   4.685
 5165SOL     OW16393   5.422   3.476   4.773
 5165SOL    HW116394   5.460   3.421   4.699
 5165SOL    HW216395   5.425   3.572   4.747
 5166SOL     OW16396   1.678   0.181   2.119
 5166SOL    HW116397   1.773   0.199   2.095
 5166SOL    HW216398   1.671   0.167   2.217
 5167SOL     OW16399   2.298   0.299   5.933
 5167SOL    HW116400   2.323   0.366   6.003
 5167SOL    HW216401   2.249   0.223   5.977
 5168SOL     OW16402   3.692   2.142   2.875
 5168SOL    HW116403   3.692   2.229   2.827
 5168SOL    HW216404   3.780   2.096   2.863
 5169SOL     OW16405   3.933   4.335   6.575
 5169SOL    HW116406   3.945   4.327   6.476
 5169SOL    HW216407   4.017   4.372   6.616
 5170SOL     OW16408   4.206   5.299   4.334
 5170SOL    HW116409   4.128   5.327   4.389
 5170SOL    HW216410   4.177   5.233   4.265
 5171SOL     OW16411   2.401   4.933   5.115
 5171SOL    HW116412   2.470   5.005   5.127
 5171SOL    HW216413   2.323   4.953   5.174
 5172SOL     OW16414   1.629   4.748   6.253
 5172SOL    HW116415   1.548   4.759   6.309
 5172SOL    HW216416   1.614   4.791   6.164
 5173SOL     OW16417   0.016   2.524   5.520
 5173SOL    HW116418   0.080   2.544   5.595
 5173SOL    HW216419   6.980   2.449   5.547
 5174SOL     OW16420   2.269   5.150   5.920
 5174SOL    HW116421   2.255   5.209   5.999
 5174SOL    HW216422   2.185   5.101   5.899
 5175SOL     OW16423   0.287   5.719   6.169
 5175SOL    HW116424   0.324   5.791   6.227
 5175SOL    HW216425   0.256   5.643   6.227
 5176SOL     OW16426   5.378   3.863   6.291
 5176SOL    HW116427   5.368   3.959   6.317
 5176SOL    HW216428   5.458   3.824   6.337
 5177SOL     OW16429   5.656   5.644   6.228
 5177SOL    HW116430   5.600   5.573   6.269
 5177SOL    HW216431   5.638   5.649   6.130
 5178SOL     OW16432   2.938   3.567   0.835
 5178SOL    HW116433   2.853   3.618   0.830
 5178SOL    HW216434   2.952   3.533   0.928
 5179SOL     OW16435   3.328   6.511   5.270
 5179SOL    HW116436   3.380   6.487   5.352
 5179SOL    HW216437   3.255   6.574   5.295
 5180SOL     OW16438   3.697   1.798   0.336
 5180SOL    HW116439   3.734   1.751   0.256
 5180SOL    HW216440   3.769   1.853   0.377
 5181SOL     OW16441   2.905   5.872   2.496
 5181SOL    HW116442   2.845   5.794   2.482
 5181SOL    HW216443   2.961   5.887   2.415
 5182SOL     OW16444   4.795   4.090   1.257
 5182SOL    HW116445   4.869   4.031   1.288
 5182SOL    HW216446   4.712   4.035   1.245
 5183SOL     OW16447   3.998   0.697   3.875
 5183SOL    HW116448   4.018   0.728   3.968
 5183SOL    HW216449   3.946   0.768   3.827
 5184SOL     OW16450   1.181   2.603   3.200
 5184SOL    HW116451   1.144   2.681   3.250
 5184SOL    HW216452   1.180   2.623   3.102
 5185SOL     OW16453   3.886   0.048   1.086
 5185SOL    HW116454   3.839   6.986   1.073
 5185SOL    HW216455   3.847   0.096   1.165
 5186SOL     OW16456   4.820   4.265   0.585
 5186SOL    HW116457   4.804   4.259   0.487
 5186SOL    HW216458   4.892   4.199   0.611
 5187SOL     OW16459   4.798   2.573   4.124
 5187SOL    HW116460   4.750   2.610   4.044
 5187SOL    HW216461   4.758   2.486   4.150
 5188SOL     OW16462   1.011   1.417   3.953
 5188SOL    HW116463   1.083   1.434   4.021
 5188SOL    HW216464   0.968   1.329   3.972
 5189SOL     OW16465   4.501   6.289   6.772
 5189SOL    HW116466   4.414   6.337   6.758
 5189SOL    HW216467   4.489   6.215   6.837
 5190SOL     OW16468   2.274   2.824   2.233
 5190SOL    HW116469   2.341   2.894   2.258
 5190SOL    HW216470   2.266   2.820   2.133
 5191SOL     OW16471   4.745   0.060   2.404
 5191SOL    HW116472   4.826   0.029   2.353
 5191SOL    HW216473   4.698   0.130   2.352
 5192SOL     OW16474   6.132   3.913   1.393
 5192SOL    HW116475   6.200   3.860   1.443
 5192SOL    HW216476   6.136   4.009   1.423
 5193SOL     OW16477   3.857   4.814   2.259
 5193SOL    HW116478   3.780   4.764   2.220
 5193SOL    HW216479   3.928   4.825   2.189
 5194SOL     OW16480   5.303   0.847   0.325
 5194SOL    HW116481   5.300   0.941   0.357
 5194SOL    HW216482   5.303   0.785   0.404
 5195SOL     OW16483   6.970   6.735   5.038
 5195SOL    HW116484   0.020   6.752   4.973
 5195SOL    HW216485   7.003   6.749   5.131
 5196SOL     OW16486   6.820   3.562   3.064
 5196SOL    HW116487   6.897   3.568   3.126
 5196SOL    HW216488   6.739   3.530   3.113
 5197SOL     OW16489   3.871   5.476   5.392
 5197SOL    HW116490   3.875   5.499   5.489
 5197SOL    HW216491   3.776   5.475   5.362
 5198SOL     OW16492   4.091   1.836   5.278
 5198SOL    HW116493   4.008   1.811   5.328
 5198SOL    HW216494   4.091   1.792   5.188
 5199SOL     OW16495   6.874   5.594   1.101
 5199SOL    HW116496   6.801   5.610   1.035
 5199SOL    HW216497   6.847   5.633   1.190
 5200SOL     OW16498   6.913   0.271   4.777
 5200SOL    HW116499   6.842   0.268   4.848
 5200SOL    HW216500   6.887   0.338   4.707
 5201SOL     OW16501   6.209   4.568   5.581
 5201SOL    HW116502   6.302   4.603   5.588
 5201SOL    HW216503   6.204   4.500   5.508
 5202SOL     OW16504   3.567   2.701   6.115
 5202SOL    HW116505   3.564   2.662   6.207
 5202SOL    HW216506   3.645   2.764   6.109
 5203SOL     OW16507   1.014   0.878   6.357
 5203SOL    HW116508   1.079   0.945   6.320
 5203SOL    HW216509   1.059   0.789   6.365
 5204SOL     OW16510   1.953   0.663   1.786
 5204SOL    HW116511   2.018   0.716   1.732
 5204SOL    HW216512   2.002   0.614   1.858
 5205SOL     OW16513   0.258   0.170   1.778
 5205SOL    HW116514   0.335   0.202   1.723
 5205SOL    HW216515   0.203   0.105   1.726
 5206SOL     OW16516   0.506   4.807   4.131
 5206SOL    HW116517   0.435   4.750   4.171
 5206SOL    HW216518   0.593   4.758   4.133
 5207SOL     OW16519   4.990   0.256   5.033
 5207SOL    HW116520   4.919   0.307   5.081
 5207SOL    HW216521   4.983   0.275   4.935
 5208SOL     OW16522   0.050   2.202   0.079
 5208SOL    HW116523   0.002   2.160   0.157
 5208SOL    HW216524   0.100   2.283   0.111
 5209SOL     OW16525   5.125   6.342   2.701
 5209SOL    HW116526   5.126   6.386   2.612
 5209SOL    HW216527   5.216   6.348   2.742
 5210SOL     OW16528   5.963   4.459   1.288
 5210SOL    HW116529   5.934   4.410   1.206
 5210SOL    HW216530   6.062   4.449   1.300
 5211SOL     OW16531   5.603   3.236   5.483
 5211SOL    HW116532   5.602   3.309   5.551
 5211SOL    HW216533   5.511   3.222   5.448
 5212SOL     OW16534   6.873   4.151   0.082
 5212SOL    HW116535   6.819   4.169   0.164
 5212SOL    HW216536   6.822   4.179   0.001
 5213SOL     OW16537   3.576   2.844   3.179
 5213SOL    HW116538   3.564   2.768   3.115
 5213SOL    HW216539   3.660   2.830   3.231
 5214SOL     OW16540   5.600   3.548   6.078
 5214SOL    HW116541   5.581   3.514   5.986
 5214SOL    HW216542   5.603   3.471   6.142
 5215SOL     OW16543   0.009   5.722   5.060
 5215SOL    HW116544   6.990   5.641   5.098
 5215SOL    HW216545   7.013   5.802   5.117
 5216SOL     OW16546   6.403   3.947   1.232
 5216SOL    HW116547   6.449   4.013   1.174
 5216SOL    HW216548   6.361   3.995   1.310
 5217SOL     OW16549   4.045   6.667   2.928
 5217SOL    HW116550   3.989   6.709   2.856
 5217SOL    HW216551   4.141   6.690   2.913
 5218SOL     OW16552   5.752   6.828   0.462
 5218SOL    HW116553   5.769   6.924   0.438
 5218SOL    HW216554   5.837   6.786   0.492
 5219SOL     OW16555   3.496   1.554   5.148
 5219SOL    HW116556   3.594   1.541   5.165
 5219SOL    HW216557   3.471   1.506   5.064
 5220SOL     OW16558   2.216   5.016   4.737
 5220SOL    HW116559   2.284   4.983   4.803
 5220SOL    HW216560   2.182   4.940   4.683
 5221SOL     OW16561   5.268   5.765   1.287
 5221SOL    HW116562   5.169   5.756   1.299
 5221SOL    HW216563   5.292   5.861   1.279
 5222SOL     OW16564   6.931   3.838   2.341
 5222SOL    HW116565   6.879   3.906   2.393
 5222SOL    HW216566   7.010   3.882   2.298
 5223SOL     OW16567   0.082   2.692   1.084
 5223SOL    HW116568   7.011   2.666   1.076
 5223SOL    HW216569   0.139   2.611   1.081
 5224SOL     OW16570   1.456   1.209   4.599
 5224SOL    HW116571   1.366   1.214   4.642
 5224SOL    HW216572   1.527   1.224   4.667
 5225SOL     OW16573   6.846   2.349   5.564
 5225SOL    HW116574   6.888   2.259   5.564
 5225SOL    HW216575   6.753   2.343   5.526
 5226SOL     OW16576   0.046   6.218   4.286
 5226SOL    HW116577   6.994   6.203   4.224
 5226SOL    HW216578   0.124   6.254   4.235
 5227SOL     OW16579   0.950   3.196   5.826
 5227SOL    HW116580   0.953   3.242   5.738
 5227SOL    HW216581   0.987   3.103   5.817
 5228SOL     OW16582   1.274   1.981   4.944
 5228SOL    HW116583   1.360   1.942   4.977
 5228SOL    HW216584   1.234   1.920   4.876
 5229SOL     OW16585   3.789   1.964   6.557
 5229SOL    HW116586   3.690   1.973   6.542
 5229SOL    HW216587   3.835   2.043   6.517
 5230SOL     OW16588   6.778   0.063   1.742
 5230SOL    HW116589   6.762   0.162   1.738
 5230SOL    HW216590   6.740   0.020   1.661
 5231SOL     OW16591   6.219   3.661   2.052
 5231SOL    HW116592   6.277   3.596   2.003
 5231SOL    HW216593   6.128   3.621   2.065
 5232SOL     OW16594   1.528   1.874   5.767
 5232SOL    HW116595   1.487   1.846   5.854
 5232SOL    HW216596   1.504   1.808   5.696
 5233SOL     OW16597   3.226   6.930   3.434
 5233SOL    HW116598   3.136   6.886   3.432
 5233SOL    HW216599   3.284   6.884   3.501
 5234SOL     OW16600   2.805   2.613   6.588
 5234SOL    HW116601   2.712   2.644   6.610
 5234SOL    HW216602   2.833   2.651   6.500
 5235SOL     OW16603   2.316   2.603   1.581
 5235SOL    HW116604   2.374   2.527   1.553
 5235SOL    HW216605   2.356   2.689   1.548
 5236SOL     OW16606   3.136   4.926   2.396
 5236SOL    HW116607   3.185   4.868   2.461
 5236SOL    HW216608   3.094   5.002   2.445
 5237SOL     OW16609   1.991   1.662   2.586
 5237SOL    HW116610   2.019   1.707   2.502
 5237SOL    HW216611   1.898   1.627   2.576
 5238SOL     OW16612   6.504   0.453   2.667
 5238SOL    HW116613   6.459   0.530   2.712
 5238SOL    HW216614   6.508   0.376   2.730
 5239SOL     OW16615   2.856   4.097   0.637
 5239SOL    HW116616   2.861   4.039   0.718
 5239SOL    HW216617   2.948   4.117   0.605
 5240SOL     OW16618   2.333   4.239   5.911
 5240SOL    HW116619   2.433   4.241   5.904
 5240SOL    HW216620   2.297   4.332   5.903
 5241SOL     OW16621   1.899   6.419   3.526
 5241SOL    HW116622   1.902   6.509   3.571
 5241SOL    HW216623   1.920   6.430   3.428
 5242SOL     OW16624   4.429   6.528   5.559
 5242SOL    HW116625   4.412   6.436   5.593
 5242SOL    HW216626   4.504   6.569   5.611
 5243SOL     OW16627   2.723   5.457   3.809
 5243SOL    HW116628   2.746   5.445   3.713
 5243SOL    HW216629   2.733   5.371   3.858
 5244SOL     OW16630   4.448   1.013   6.223
 5244SOL    HW116631   4.535   1.021   6.271
 5244SOL    HW216632   4.382   0.967   6.282
 5245SOL     OW16633   3.036   3.965   2.121
 5245SOL    HW116634   3.047   3.992   2.216
 5245SOL    HW216635   2.944   3.989   2.090
 5246SOL     OW16636   6.358   3.564   6.514
 5246SOL    HW116637   6.361   3.643   6.453
 5246SOL    HW216638   6.281   3.506   6.490
 5247SOL     OW16639   4.718   1.379   5.823
 5247SOL    HW116640   4.665   1.450   5.868
 5247SOL    HW216641   4.710   1.389   5.723
 5248SOL     OW16642   4.792   0.930   3.676
 5248SOL    HW116643   4.860   0.989   3.719
 5248SOL    HW216644   4.701   0.957   3.706
 5249SOL     OW16645   6.699   5.318   0.939
 5249SOL    HW116646   6.705   5.221   0.961
 5249SOL    HW216647   6.700   5.371   1.024
 5250SOL     OW16648   1.895   5.151   0.705
 5250SOL    HW116649   1.909   5.090   0.783
 5250SOL    HW216650   1.916   5.245   0.732
 5251SOL     OW16651   0.857   4.586   6.781
 5251SOL    HW116652   0.871   4.493   6.747
 5251SOL    HW216653   0.912   4.600   6.864
 5252SOL     OW16654   3.632   5.422   3.169
 5252SOL    HW116655   3.694   5.480   3.117
 5252SOL    HW216656   3.542   5.420   3.126
 5253SOL     OW16657   0.296   6.155   4.657
 5253SOL    HW116658   0.337   6.219   4.591
 5253SOL    HW216659   0.355   6.075   4.666
 5254SOL     OW16660   4.639   6.316   2.852
 5254SOL    HW116661   4.634   6.282   2.758
 5254SOL    HW216662   4.733   6.343   2.873
 5255SOL     OW16663   0.072   1.097   6.383
 5255SOL    HW116664   0.010   1.094   6.305
 5255SOL    HW216665   0.164   1.073   6.353
 5256SOL     OW16666   4.651   1.942   2.862
 5256SOL    HW116667   4.605   1.903   2.782
 5256SOL    HW216668   4.606   1.908   2.945
 5257SOL     OW16669   4.818   1.578   6.719
 5257SOL    HW116670   4.747   1.512   6.695
 5257SOL    HW216671   4.815   1.654   6.654
 5258SOL     OW16672   5.738   1.485   5.280
 5258SOL    HW116673   5.768   1.417   5.212
 5258SOL    HW216674   5.681   1.553   5.235
 5259SOL     OW16675   5.298   5.793   4.127
 5259SOL    HW116676   5.249   5.710   4.101
 5259SOL    HW216677   5.378   5.804   4.069
 5260SOL     OW16678   1.868   6.213   1.539
 5260SOL    HW116679   1.851   6.289   1.476
 5260SOL    HW216680   1.886   6.249   1.630
 5261SOL     OW16681   6.261   4.746   6.773
 5261SOL    HW116682   6.346   4.754   6.721
 5261SOL    HW216683   6.282   4.739   6.871
 5262SOL     OW16684   2.072   2.193   1.785
 5262SOL    HW116685   2.153   2.229   1.831
 5262SOL    HW216686   2.042   2.109   1.831
 5263SOL     OW16687   1.654   6.225   3.136
 5263SOL    HW116688   1.567   6.185   3.164
 5263SOL    HW216689   1.683   6.185   3.049
 5264SOL     OW16690   6.861   2.634   2.447
 5264SOL    HW116691   6.945   2.656   2.397
 5264SOL    HW216692   6.836   2.712   2.505
 5265SOL     OW16693   0.306   5.882   5.743
 5265SOL    HW116694   0.274   5.849   5.831
 5265SOL    HW216695   0.239   5.945   5.704
 5266SOL     OW16696   1.357   0.029   5.893
 5266SOL    HW116697   1.449   0.064   5.880
 5266SOL    HW216698   1.344   0.001   5.988
 5267SOL     OW16699   5.931   1.515   4.611
 5267SOL    HW116700   5.937   1.600   4.559
 5267SOL    HW216701   5.847   1.514   4.665
 5268SOL     OW16702   5.487   0.324   6.049
 5268SOL    HW116703   5.434   0.293   6.128
 5268SOL    HW216704   5.573   0.364   6.080
 5269SOL     OW16705   1.488   0.421   4.482
 5269SOL    HW116706   1.390   0.430   4.465
 5269SOL    HW216707   1.505   0.410   4.580
 5270SOL     OW16708   0.946   1.707   6.395
 5270SOL    HW116709   0.958   1.675   6.489
 5270SOL    HW216710   1.035   1.704   6.348
 5271SOL     OW16711   1.232   5.847   5.282
 5271SOL    HW116712   1.214   5.782   5.356
 5271SOL    HW216713   1.318   5.825   5.238
 5272SOL     OW16714   4.497   0.524   6.337
 5272SOL    HW116715   4.560   0.575   6.279
 5272SOL    HW216716   4.440   0.464   6.280
 5273SOL     OW16717   2.475   1.139   3.410
 5273SOL    HW116718   2.478   1.227   3.365
 5273SOL    HW216719   2.556   1.086   3.385
 5274SOL     OW16720   5.652   4.549   1.545
 5274SOL    HW116721   5.652   4.625   1.610
 5274SOL    HW216722   5.740   4.501   1.549
 5275SOL     OW16723   5.110   1.179   6.149
 5275SOL    HW116724   5.201   1.161   6.186
 5275SOL    HW216725   5.117   1.233   6.065
 5276SOL     OW16726   3.564   6.394   1.634
 5276SOL    HW116727   3.508   6.461   1.586
 5276SOL    HW216728   3.515   6.307   1.641
 5277SOL     OW16729   2.014   3.479   1.843
 5277SOL    HW116730   2.070   3.457   1.923
 5277SOL    HW216731   1.921   3.444   1.857
 5278SOL     OW16732   3.515   3.578   2.025
 5278SOL    HW116733   3.545   3.636   2.101
 5278SOL    HW216734   3.475   3.494   2.061
 5279SOL     OW16735   1.819   6.275   2.698
 5279SOL    HW116736   1.731   6.267   2.651
 5279SOL    HW216737   1.849   6.370   2.698
 5280SOL     OW16738   3.953   0.760   4.556
 5280SOL    HW116739   3.878   0.711   4.514
 5280SOL    HW216740   4.004   0.810   4.485
 5281SOL     OW16741   6.813   2.583   4.099
 5281SOL    HW116742   6.794   2.496   4.053
 5281SOL    HW216743   6.893   2.626   4.056
 5282SOL     OW16744   4.640   2.417   1.285
 5282SOL    HW116745   4.675   2.324   1.277
 5282SOL    HW216746   4.713   2.483   1.267
 5283SOL     OW16747   4.857   4.445   6.087
 5283SOL    HW116748   4.892   4.376   6.024
 5283SOL    HW216749   4.858   4.409   6.180
 5284SOL     OW16750   5.094   2.805   4.391
 5284SOL    HW116751   5.129   2.892   4.356
 5284SOL    HW216752   5.171   2.746   4.414
 5285SOL     OW16753   4.059   6.376   2.788
 5285SOL    HW116754   3.977   6.320   2.799
 5285SOL    HW216755   4.095   6.401   2.878
 5286SOL     OW16756   2.205   5.134   1.925
 5286SOL    HW116757   2.186   5.056   1.865
 5286SOL    HW216758   2.168   5.115   2.016
 5287SOL     OW16759   1.343   1.196   2.370
 5287SOL    HW116760   1.258   1.181   2.420
 5287SOL    HW216761   1.418   1.212   2.435
 5288SOL     OW16762   4.230   6.919   0.884
 5288SOL    HW116763   4.324   6.886   0.870
 5288SOL    HW216764   4.187   6.865   0.956
 5289SOL     OW16765   1.464   6.546   1.429
 5289SOL    HW116766   1.454   6.447   1.416
 5289SOL    HW216767   1.471   6.565   1.527
 5290SOL     OW16768   5.368   5.663   6.830
 5290SOL    HW116769   5.456   5.677   6.874
 5290SOL    HW216770   5.295   5.663   6.899
 5291SOL     OW16771   1.064   5.492   0.128
 5291SOL    HW116772   1.034   5.452   0.042
 5291SOL    HW216773   1.094   5.586   0.112
 5292SOL     OW16774   5.291   1.832   0.998
 5292SOL    HW116775   5.292   1.803   1.094
 5292SOL    HW216776   5.296   1.751   0.939
 5293SOL     OW16777   2.130   1.683   4.368
 5293SOL    HW116778   2.093   1.622   4.438
 5293SOL    HW216779   2.063   1.755   4.349
 5294SOL     OW16780   3.949   2.502   6.239
 5294SOL    HW116781   4.020   2.467   6.299
 5294SOL    HW216782   3.861   2.461   6.264
 5295SOL     OW16783   6.525   1.534   2.729
 5295SOL    HW116784   6.552   1.617   2.681
 5295SOL    HW216785   6.494   1.465   2.663
 5296SOL     OW16786   0.245   2.753   6.601
 5296SOL    HW116787   0.277   2.659   6.611
 5296SOL    HW216788   0.154   2.754   6.559
 5297SOL     OW16789   0.776   2.262   1.855
 5297SOL    HW116790   0.858   2.205   1.868
 5297SOL    HW216791   0.801   2.345   1.806
 5298SOL     OW16792   1.437   4.646   1.666
 5298SOL    HW116793   1.421   4.560   1.714
 5298SOL    HW216794   1.511   4.696   1.711
 5299SOL     OW16795   3.487   0.201   0.239
 5299SOL    HW116796   3.437   0.284   0.263
 5299SOL    HW216797   3.560   0.224   0.174
 5300SOL     OW16798   6.758   5.045   3.705
 5300SOL    HW116799   6.740   5.018   3.800
 5300SOL    HW216800   6.846   5.092   3.700
 5301SOL     OW16801   6.235   0.620   6.896
 5301SOL    HW116802   6.234   0.718   6.917
 5301SOL    HW216803   6.257   0.607   6.799
 5302SOL     OW16804   7.012   4.057   3.812
 5302SOL    HW116805   0.033   4.045   3.724
 5302SOL    HW216806   0.012   3.982   3.874
 5303SOL     OW16807   1.639   4.460   3.339
 5303SOL    HW116808   1.615   4.370   3.375
 5303SOL    HW216809   1.696   4.448   3.257
 5304SOL     OW16810   4.565   2.524   5.666
 5304SOL    HW116811   4.593   2.602   5.610
 5304SOL    HW216812   4.466   2.528   5.681
 5305SOL     OW16813   3.214   1.882   5.035
 5305SOL    HW116814   3.149   1.813   5.066
 5305SOL    HW216815   3.296   1.878   5.093
 5306SOL     OW16816   2.745   6.840   3.544
 5306SOL    HW116817   2.712   6.932   3.524
 5306SOL    HW216818   2.776   6.835   3.639
 5307SOL     OW16819   5.288   6.690   0.104
 5307SOL    HW116820   5.354   6.623   0.070
 5307SOL    HW216821   5.241   6.733   0.027
 5308SOL     OW16822   6.661   1.501   1.906
 5308SOL    HW116823   6.740   1.440   1.915
 5308SOL    HW216824   6.625   1.494   1.813
 5309SOL     OW16825   4.059   3.410   5.220
 5309SOL    HW116826   4.079   3.322   5.263
 5309SOL    HW216827   3.969   3.407   5.176
 5310SOL     OW16828   5.017   2.735   0.147
 5310SOL    HW116829   5.032   2.834   0.148
 5310SOL    HW216830   4.955   2.710   0.221
 5311SOL     OW16831   6.926   6.370   0.227
 5311SOL    HW116832   6.933   6.434   0.151
 5311SOL    HW216833   6.854   6.400   0.290
 5312SOL     OW16834   0.455   3.337   1.246
 5312SOL    HW116835   0.530   3.397   1.272
 5312SOL    HW216836   0.455   3.255   1.303
 5313SOL     OW16837   0.358   6.560   0.435
 5313SOL    HW116838   0.380   6.591   0.342
 5313SOL    HW216839   0.396   6.469   0.450
 5314SOL     OW16840   3.283   5.353   1.197
 5314SOL    HW116841   3.347   5.349   1.120
 5314SOL    HW216842   3.205   5.294   1.178
 5315SOL     OW16843   5.958   1.253   2.062
 5315SOL    HW116844   5.916   1.324   2.005
 5315SOL    HW216845   5.907   1.168   2.052
 5316SOL     OW16846   5.300   5.526   4.478
 5316SOL    HW116847   5.265   5.499   4.568
 5316SOL    HW216848   5.233   5.502   4.408
 5317SOL     OW16849   6.706   5.043   1.737
 5317SOL    HW116850   6.621   4.997   1.709
 5317SOL    HW216851   6.707   5.135   1.699
 5318SOL     OW16852   6.841   2.350   3.942
 5318SOL    HW116853   6.937   2.329   3.959
 5318SOL    HW216854   6.800   2.277   3.888
 5319SOL     OW16855   3.356   6.139   3.012
 5319SOL    HW116856   3.268   6.185   2.994
 5319SOL    HW216857   3.430   6.205   3.000
 5320SOL     OW16858   6.734   2.659   7.007
 5320SOL    HW116859   6.781   2.748   7.009
 5320SOL    HW216860   6.635   2.674   7.009
 5321SOL     OW16861   2.724   4.443   6.310
 5321SOL    HW116862   2.800   4.506   6.295
 5321SOL    HW216863   2.760   4.350   6.318
 5322SOL     OW16864   2.410   6.462   0.170
 5322SOL    HW116865   2.332   6.455   0.108
 5322SOL    HW216866   2.399   6.395   0.244
 5323SOL     OW16867   5.670   3.173   0.514
 5323SOL    HW116868   5.682   3.215   0.604
 5323SOL    HW216869   5.706   3.080   0.515
 5324SOL     OW16870   4.278   2.924   1.382
 5324SOL    HW116871   4.277   2.841   1.326
 5324SOL    HW216872   4.337   2.993   1.340
 5325SOL     OW16873   3.268   6.236   5.472
 5325SOL    HW116874   3.274   6.268   5.566
 5325SOL    HW216875   3.201   6.290   5.422
 5326SOL     OW16876   6.735   0.591   2.896
 5326SOL    HW116877   6.732   0.493   2.874
 5326SOL    HW216878   6.643   0.629   2.886
 5327SOL     OW16879   6.474   0.327   4.289
 5327SOL    HW116880   6.416   0.268   4.345
 5327SOL    HW216881   6.418   0.399   4.248
 5328SOL     OW16882   3.327   4.845   6.516
 5328SOL    HW116883   3.416   4.829   6.558
 5328SOL    HW216884   3.327   4.934   6.470
 5329SOL     OW16885   0.651   5.906   6.653
 5329SOL    HW116886   0.667   5.840   6.579
 5329SOL    HW216887   0.725   5.899   6.720
 5330SOL     OW16888   4.220   4.819   0.507
 5330SOL    HW116889   4.155   4.810   0.582
 5330SOL    HW216890   4.194   4.757   0.433
 5331SOL     OW16891   5.692   1.194   6.524
 5331SOL    HW116892   5.756   1.162   6.594
 5331SOL    HW216893   5.720   1.159   6.435
 5332SOL     OW16894   6.325   2.410   6.536
 5332SOL    HW116895   6.257   2.377   6.602
 5332SOL    HW216896   6.320   2.356   6.452
 5333SOL     OW16897   0.850   0.242   3.935
 5333SOL    HW116898   0.911   0.163   3.925
 5333SOL    HW216899   0.889   0.320   3.887
 5334SOL     OW16900   2.917   6.165   1.555
 5334SOL    HW116901   2.940   6.089   1.493
 5334SOL    HW216902   2.820   6.185   1.549
 5335SOL     OW16903   0.124   5.344   1.604
 5335SOL    HW116904   0.223   5.329   1.594
 5335SOL    HW216905   0.108   5.427   1.658
 5336SOL     OW16906   1.562   3.348   5.364
 5336SOL    HW116907   1.646   3.385   5.325
 5336SOL    HW216908   1.585   3.283   5.437
 5337SOL     OW16909   6.730   2.304   0.825
 5337SOL    HW116910   6.669   2.383   0.827
 5337SOL    HW216911   6.709   2.248   0.745
 5338SOL     OW16912   0.061   3.436   0.812
 5338SOL    HW116913   0.160   3.447   0.817
 5338SOL    HW216914   0.036   3.343   0.841
 5339SOL     OW16915   5.152   2.999   3.136
 5339SOL    HW116916   5.219   2.969   3.204
 5339SOL    HW216917   5.109   2.919   3.094
 5340SOL     OW16918   4.905   3.134   1.133
 5340SOL    HW116919   4.977   3.200   1.112
 5340SOL    HW216920   4.946   3.050   1.168
 5341SOL     OW16921   4.661   4.725   3.549
 5341SOL    HW116922   4.665   4.737   3.649
 5341SOL    HW216923   4.655   4.814   3.505
 5342SOL     OW16924   6.203   5.704   5.047
 5342SOL    HW116925   6.235   5.716   4.953
 5342SOL    HW216926   6.175   5.609   5.061
 5343SOL     OW16927   3.504   3.176   6.806
 5343SOL    HW116928   3.588   3.199   6.756
 5343SOL    HW216929   3.439   3.131   6.744
 5344SOL     OW16930   6.529   2.313   6.810
 5344SOL    HW116931   6.501   2.240   6.749
 5344SOL    HW216932   6.460   2.326   6.881
 5345SOL     OW16933   3.544   1.090   0.246
 5345SOL    HW116934   3.615   1.031   0.206
 5345SOL    HW216935   3.455   1.065   0.207
 5346SOL     OW16936   2.302   6.214   3.208
 5346SOL    HW116937   2.209   6.190   3.236
 5346SOL    HW216938   2.358   6.131   3.204
 5347SOL     OW16939   6.126   1.367   5.307
 5347SOL    HW116940   6.125   1.321   5.218
 5347SOL    HW216941   6.215   1.354   5.350
 5348SOL     OW16942   4.531   2.940   5.760
 5348SOL    HW116943   4.574   2.865   5.811
 5348SOL    HW216944   4.488   3.003   5.825
 5349SOL     OW16945   0.707   4.346   0.510
 5349SOL    HW116946   0.780   4.294   0.465
 5349SOL    HW216947   0.673   4.295   0.588
 5350SOL     OW16948   1.214   6.779   6.414
 5350SOL    HW116949   1.201   6.680   6.424
 5350SOL    HW216950   1.303   6.797   6.373
 5351SOL     OW16951   0.328   5.831   3.909
 5351SOL    HW116952   0.334   5.755   3.974
 5351SOL    HW216953   0.363   5.915   3.952
 5352SOL     OW16954   0.724   2.421   5.887
 5352SOL    HW116955   0.739   2.336   5.837
 5352SOL    HW216956   0.805   2.443   5.941
 5353SOL     OW16957   3.132   6.246   3.489
 5353SOL    HW116958   3.216   6.196   3.509
 5353SOL    HW216959   3.101   6.294   3.571
 5354SOL     OW16960   3.592   5.769   2.071
 5354SOL    HW116961   3.606   5.697   2.140
 5354SOL    HW216962   3.500   5.760   2.032
 5355SOL     OW16963   5.452   5.231   5.330
 5355SOL    HW116964   5.476   5.299   5.400
 5355SOL    HW216965   5.497   5.144   5.351
 5356SOL     OW16966   0.824   0.011   1.377
 5356SOL    HW116967   0.883   6.964   1.415
 5356SOL    HW216968   0.777   0.057   1.452
 5357SOL     OW16969   6.248   3.688   2.747
 5357SOL    HW116970   6.328   3.746   2.733
 5357SOL    HW216971   6.269   3.595   2.716
 5358SOL     OW16972   5.870   0.995   6.339
 5358SOL    HW116973   5.926   0.994   6.422
 5358SOL    HW216974   5.930   0.997   6.259
 5359SOL     OW16975   2.810   2.317   6.652
 5359SOL    HW116976   2.834   2.411   6.627
 5359SOL    HW216977   2.757   2.319   6.737
 5360SOL     OW16978   5.895   5.308   3.176
 5360SOL    HW116979   5.799   5.329   3.194
 5360SOL    HW216980   5.902   5.259   3.089
 5361SOL     OW16981   1.498   3.723   2.830
 5361SOL    HW116982   1.447   3.785   2.770
 5361SOL    HW216983   1.592   3.756   2.839
 5362SOL     OW16984   6.086   1.067   3.744
 5362SOL    HW116985   6.084   1.002   3.668
 5362SOL    HW216986   6.028   1.033   3.818
 5363SOL     OW16987   6.053   4.890   4.790
 5363SOL    HW116988   6.046   4.959   4.862
 5363SOL    HW216989   6.149   4.870   4.772
 5364SOL     OW16990   4.440   2.584   1.418
 5364SOL    HW116991   4.483   2.499   1.387
 5364SOL    HW216992   4.375   2.564   1.491
 5365SOL     OW16993   3.377   3.563   5.663
 5365SOL    HW116994   3.295   3.620   5.651
 5365SOL    HW216995   3.388   3.540   5.760
 5366SOL     OW16996   0.589   5.048   3.449
 5366SOL    HW116997   0.513   5.102   3.483
 5366SOL    HW216998   0.625   4.990   3.522
 5367SOL     OW16999   6.298   6.179   1.349
 5367SOL    HW117000   6.290   6.193   1.448
 5367SOL    HW217001   6.371   6.236   1.313
 5368SOL     OW17002   6.869   5.952   4.919
 5368SOL    HW117003   6.940   5.949   4.989
 5368SOL    HW217004   6.805   6.025   4.940
 5369SOL     OW17005   3.805   6.836   2.947
 5369SOL    HW117006   3.790   6.766   3.017
 5369SOL    HW217007   3.823   6.924   2.992
 5370SOL     OW17008   2.647   3.247   0.682
 5370SOL    HW117009   2.580   3.185   0.641
 5370SOL    HW217010   2.737   3.202   0.683
 5371SOL     OW17011   6.028   5.371   3.558
 5371SOL    HW117012   6.077   5.440   3.610
 5371SOL    HW217013   5.931   5.397   3.550
 5372SOL     OW17014   0.897   0.315   4.220
 5372SOL    HW117015   0.844   0.276   4.146
 5372SOL    HW217016   0.992   0.285   4.214
 5373SOL     OW17017   3.889   0.055   0.080
 5373SOL    HW117018   3.956   0.126   0.100
 5373SOL    HW217019   3.830   0.041   0.159
 5374SOL     OW17020   1.258   4.311   1.414
 5374SOL    HW117021   1.274   4.397   1.365
 5374SOL    HW217022   1.259   4.328   1.513
 5375SOL     OW17023   2.813   4.847   5.200
 5375SOL    HW117024   2.811   4.838   5.299
 5375SOL    HW217025   2.825   4.757   5.159
 5376SOL     OW17026   0.805   0.742   1.734
 5376SOL    HW117027   0.898   0.777   1.728
 5376SOL    HW217028   0.804   0.644   1.717
 5377SOL     OW17029   0.889   2.840   2.021
 5377SOL    HW117030   0.883   2.830   2.120
 5377SOL    HW217031   0.985   2.833   1.992
 5378SOL     OW17032   5.847   6.807   3.171
 5378SOL    HW117033   5.808   6.861   3.096
 5378SOL    HW217034   5.936   6.845   3.196
 5379SOL     OW17035   2.677   2.399   4.563
 5379SOL    HW117036   2.603   2.333   4.558
 5379SOL    HW217037   2.756   2.366   4.511
 5380SOL     OW17038   5.253   6.535   1.826
 5380SOL    HW117039   5.207   6.529   1.738
 5380SOL    HW217040   5.293   6.447   1.849
 5381SOL     OW17041   3.239   2.141   2.582
 5381SOL    HW117042   3.177   2.098   2.647
 5381SOL    HW217043   3.333   2.132   2.614
 5382SOL     OW17044   5.196   0.636   2.772
 5382SOL    HW117045   5.186   0.586   2.686
 5382SOL    HW217046   5.203   0.571   2.848
 5383SOL     OW17047   2.666   3.972   5.288
 5383SOL    HW117048   2.576   3.979   5.245
 5383SOL    HW217049   2.695   4.063   5.319
 5384SOL     OW17050   4.885   6.473   5.758
 5384SOL    HW117051   4.882   6.375   5.736
 5384SOL    HW217052   4.903   6.483   5.856
 5385SOL     OW17053   3.676   3.930   0.595
 5385SOL    HW117054   3.723   3.916   0.508
 5385SOL    HW217055   3.724   3.881   0.667
 5386SOL     OW17056   4.631   4.520   3.353
 5386SOL    HW117057   4.643   4.578   3.434
 5386SOL    HW217058   4.609   4.426   3.383
 5387SOL     OW17059   0.822   2.267   4.184
 5387SOL    HW117060   0.867   2.239   4.269
 5387SOL    HW217061   0.764   2.346   4.201
 5388SOL     OW17062   6.724   6.304   3.505
 5388SOL    HW117063   6.641   6.260   3.540
 5388SOL    HW217064   6.804   6.255   3.538
 5389SOL     OW17065   5.481   1.635   4.554
 5389SOL    HW117066   5.560   1.586   4.590
 5389SOL    HW217067   5.497   1.658   4.458
 5390SOL     OW17068   5.971   3.093   3.451
 5390SOL    HW117069   5.908   3.039   3.505
 5390SOL    HW217070   6.026   3.033   3.393
 5391SOL     OW17071   4.097   2.769   0.586
 5391SOL    HW117072   4.194   2.779   0.564
 5391SOL    HW217073   4.052   2.858   0.581
 5392SOL     OW17074   5.279   0.858   4.165
 5392SOL    HW117075   5.241   0.781   4.113
 5392SOL    HW217076   5.300   0.828   4.258
 5393SOL     OW17077   4.096   2.168   3.008
 5393SOL    HW117078   4.057   2.164   2.916
 5393SOL    HW217079   4.191   2.198   3.003
 5394SOL     OW17080   0.047   2.729   3.086
 5394SOL    HW117081   0.040   2.644   3.033
 5394SOL    HW217082   0.054   2.707   3.183
 5395SOL     OW17083   0.065   0.788   1.271
 5395SOL    HW117084   0.079   0.820   1.365
 5395SOL    HW217085   6.994   0.765   1.258
 5396SOL     OW17086   4.168   2.514   0.084
 5396SOL    HW117087   4.110   2.573   0.141
 5396SOL    HW217088   4.133   2.420   0.088
 5397SOL     OW17089   0.590   6.786   2.333
 5397SOL    HW117090   0.669   6.729   2.310
 5397SOL    HW217091   0.565   6.842   2.254
 5398SOL     OW17092   5.951   2.400   3.113
 5398SOL    HW117093   5.936   2.305   3.139
 5398SOL    HW217094   5.946   2.458   3.194
 5399SOL     OW17095   2.561   3.087   0.038
 5399SOL    HW117096   2.477   3.073   7.011
 5399SOL    HW217097   2.604   3.173   0.011
 5400SOL     OW17098   5.424   2.566   0.924
 5400SOL    HW117099   5.423   2.530   1.017
 5400SOL    HW217100   5.471   2.654   0.922
 5401SOL     OW17101   4.792   3.593   1.326
 5401SOL    HW117102   4.752   3.527   1.390
 5401SOL    HW217103   4.751   3.581   1.235
 5402SOL     OW17104   1.556   6.228   1.818
 5402SOL    HW117105   1.619   6.153   1.799
 5402SOL    HW217106   1.567   6.258   1.913
 5403SOL     OW17107   5.954   2.143   5.598
 5403SOL    HW117108   5.912   2.212   5.656
 5403SOL    HW217109   6.035   2.105   5.644
 5404SOL     OW17110   4.884   6.224   0.679
 5404SOL    HW117111   4.913   6.306   0.728
 5404SOL    HW217112   4.963   6.183   0.633
 5405SOL     OW17113   6.719   5.098   6.409
 5405SOL    HW117114   6.642   5.151   6.371
 5405SOL    HW217115   6.745   5.027   6.344
 5406SOL     OW17116   2.119   1.102   5.219
 5406SOL    HW117117   2.212   1.110   5.256
 5406SOL    HW217118   2.059   1.164   5.268
 5407SOL     OW17119   2.492   1.332   2.805
 5407SOL    HW117120   2.490   1.239   2.843
 5407SOL    HW217121   2.582   1.372   2.821
 5408SOL     OW17122   1.611   1.936   4.516
 5408SOL    HW117123   1.536   2.000   4.497
 5408SOL    HW217124   1.586   1.844   4.485
 5409SOL     OW17125   0.313   3.937   3.101
 5409SOL    HW117126   0.229   3.887   3.081
 5409SOL    HW217127   0.373   3.880   3.158
 5410SOL     OW17128   6.015   1.868   0.207
 5410SOL    HW117129   6.075   1.802   0.162
 5410SOL    HW217130   6.003   1.948   0.149
 5411SOL     OW17131   3.313   5.663   1.615
 5411SOL    HW117132   3.323   5.622   1.524
 5411SOL    HW217133   3.255   5.605   1.672
 5412SOL     OW17134   1.396   2.422   5.878
 5412SOL    HW117135   1.431   2.333   5.908
 5412SOL    HW217136   1.297   2.417   5.866
 5413SOL     OW17137   6.601   5.395   5.633
 5413SOL    HW117138   6.623   5.429   5.724
 5413SOL    HW217139   6.662   5.319   5.610
 5414SOL     OW17140   5.814   5.658   6.477
 5414SOL    HW117141   5.744   5.648   6.547
 5414SOL    HW217142   5.771   5.673   6.388
 5415SOL     OW17143   1.934   1.613   0.002
 5415SOL    HW117144   1.858   1.609   0.067
 5415SOL    HW217145   1.933   1.700   6.979
 5416SOL     OW17146   3.985   5.710   6.039
 5416SOL    HW117147   4.057   5.720   6.108
 5416SOL    HW217148   4.004   5.629   5.983
 5417SOL     OW17149   5.382   6.920   2.134
 5417SOL    HW117150   5.454   6.989   2.129
 5417SOL    HW217151   5.371   6.877   2.045
 5418SOL     OW17152   0.654   3.435   5.354
 5418SOL    HW117153   0.562   3.410   5.385
 5418SOL    HW217154   0.665   3.535   5.362
 5419SOL     OW17155   4.107   1.877   6.140
 5419SOL    HW117156   4.041   1.935   6.094
 5419SOL    HW217157   4.183   1.857   6.078
 5420SOL     OW17158   2.505   1.760   1.273
 5420SOL    HW117159   2.455   1.711   1.345
 5420SOL    HW217160   2.479   1.723   1.184
 5421SOL     OW17161   4.432   4.993   1.794
 5421SOL    HW117162   4.489   5.072   1.775
 5421SOL    HW217163   4.470   4.913   1.747
 5422SOL     OW17164   2.233   6.624   2.765
 5422SOL    HW117165   2.190   6.647   2.852
 5422SOL    HW217166   2.327   6.594   2.781
 5423SOL     OW17167   4.336   0.089   2.149
 5423SOL    HW117168   4.361   7.019   2.131
 5423SOL    HW217169   4.384   0.120   2.232
 5424SOL     OW17170   3.500   3.537   5.062
 5424SOL    HW117171   3.479   3.440   5.046
 5424SOL    HW217172   3.463   3.566   5.150
 5425SOL     OW17173   1.015   4.822   5.071
 5425SOL    HW117174   1.017   4.910   5.024
 5425SOL    HW217175   1.096   4.769   5.047
 5426SOL     OW17176   0.966   4.513   0.419
 5426SOL    HW117177   0.942   4.470   0.332
 5426SOL    HW217178   0.962   4.612   0.409
 5427SOL     OW17179   4.461   1.768   0.128
 5427SOL    HW117180   4.498   1.748   0.219
 5427SOL    HW217181   4.370   1.808   0.137
 5428SOL     OW17182   4.458   5.618   2.957
 5428SOL    HW117183   4.367   5.615   2.915
 5428SOL    HW217184   4.473   5.535   3.010
 5429SOL     OW17185   2.596   6.758   3.784
 5429SOL    HW117186   2.583   6.824   3.858
 5429SOL    HW217187   2.535   6.780   3.708
 5430SOL     OW17188   1.194   4.411   5.453
 5430SOL    HW117189   1.176   4.477   5.526
 5430SOL    HW217190   1.234   4.328   5.492
 5431SOL     OW17191   5.164   4.522   1.523
 5431SOL    HW117192   5.113   4.497   1.440
 5431SOL    HW217193   5.261   4.500   1.511
 5432SOL     OW17194   0.238   4.958   6.005
 5432SOL    HW117195   0.315   4.965   5.941
 5432SOL    HW217196   0.160   5.009   5.969
 5433SOL     OW17197   2.626   0.360   1.364
 5433SOL    HW117198   2.617   0.459   1.368
 5433SOL    HW217199   2.704   0.336   1.306
 5434SOL     OW17200   5.206   5.797   4.387
 5434SOL    HW117201   5.263   5.811   4.305
 5434SOL    HW217202   5.230   5.710   4.429
 5435SOL     OW17203   6.452   3.895   0.049
 5435SOL    HW117204   6.534   3.905   7.019
 5435SOL    HW217205   6.477   3.881   0.145
 5436SOL     OW17206   1.258   4.602   1.200
 5436SOL    HW117207   1.340   4.650   1.169
 5436SOL    HW217208   1.194   4.593   1.123
 5437SOL     OW17209   3.569   6.300   6.398
 5437SOL    HW117210   3.491   6.239   6.408
 5437SOL    HW217211   3.645   6.251   6.355
 5438SOL     OW17212   5.353   6.888   2.670
 5438SOL    HW117213   5.312   6.799   2.690
 5438SOL    HW217214   5.325   6.919   2.579
 5439SOL     OW17215   1.436   3.821   1.550
 5439SOL    HW117216   1.522   3.772   1.536
 5439SOL    HW217217   1.377   3.769   1.612
 5440SOL     OW17218   6.337   6.854   4.394
 5440SOL    HW117219   6.279   6.884   4.470
 5440SOL    HW217220   6.280   6.811   4.324
 5441SOL     OW17221   5.472   0.889   5.013
 5441SOL    HW117222   5.534   0.956   4.972
 5441SOL    HW217223   5.488   0.885   5.112
 5442SOL     OW17224   2.769   0.594   6.313
 5442SOL    HW117225   2.823   0.676   6.293
 5442SOL    HW217226   2.773   0.575   6.412
 5443SOL     OW17227   5.905   0.833   3.422
 5443SOL    HW117228   5.857   0.908   3.377
 5443SOL    HW217229   5.916   0.756   3.359
 5444SOL     OW17230   1.010   1.161   5.990
 5444SOL    HW117231   0.947   1.215   5.934
 5444SOL    HW217232   1.042   1.216   6.067
 5445SOL     OW17233   5.712   6.584   4.876
 5445SOL    HW117234   5.794   6.620   4.920
 5445SOL    HW217235   5.727   6.580   4.777
 5446SOL     OW17236   2.012   5.159   5.780
 5446SOL    HW117237   2.023   5.070   5.823
 5446SOL    HW217238   1.971   5.223   5.846
 5447SOL     OW17239   6.605   1.978   1.150
 5447SOL    HW117240   6.510   1.979   1.121
 5447SOL    HW217241   6.611   1.966   1.249
 5448SOL     OW17242   6.180   4.667   2.008
 5448SOL    HW117243   6.132   4.588   1.970
 5448SOL    HW217244   6.265   4.682   1.958
 5449SOL     OW17245   2.266   0.163   2.375
 5449SOL    HW117246   2.351   0.112   2.364
 5449SOL    HW217247   2.192   0.101   2.400
 5450SOL     OW17248   4.916   5.743   2.038
 5450SOL    HW117249   4.927   5.690   2.122
 5450SOL    HW217250   4.830   5.718   1.994
 5451SOL     OW17251   0.976   5.991   3.934
 5451SOL    HW117252   0.904   6.046   3.977
 5451SOL    HW217253   0.981   5.902   3.979
 5452SOL     OW17254   2.172   3.769   2.775
 5452SOL    HW117255   2.193   3.866   2.772
 5452SOL    HW217256   2.249   3.719   2.814
 5453SOL     OW17257   5.967   4.706   4.568
 5453SOL    HW117258   5.954   4.767   4.647
 5453SOL    HW217259   5.960   4.760   4.484
 5454SOL     OW17260   5.644   3.806   2.467
 5454SOL    HW117261   5.577   3.816   2.394
 5454SOL    HW217262   5.677   3.712   2.471
 5455SOL     OW17263   2.451   2.110   3.358
 5455SOL    HW117264   2.543   2.114   3.397
 5455SOL    HW217265   2.386   2.081   3.428
 5456SOL     OW17266   5.130   2.730   0.767
 5456SOL    HW117267   5.060   2.739   0.838
 5456SOL    HW217268   5.154   2.633   0.755
 5457SOL     OW17269   6.668   1.664   0.344
 5457SOL    HW117270   6.602   1.639   0.274
 5457SOL    HW217271   6.728   1.586   0.363
 5458SOL     OW17272   6.169   5.045   5.487
 5458SOL    HW117273   6.230   5.089   5.421
 5458SOL    HW217274   6.219   4.973   5.535
 5459SOL     OW17275   2.440   3.688   5.306
 5459SOL    HW117276   2.403   3.766   5.256
 5459SOL    HW217277   2.535   3.707   5.332
 5460SOL     OW17278   0.448   0.651   1.731
 5460SOL    HW117279   0.470   0.738   1.775
 5460SOL    HW217280   0.469   0.576   1.794
 5461SOL     OW17281   5.601   1.362   6.710
 5461SOL    HW117282   5.669   1.304   6.665
 5461SOL    HW217283   5.511   1.346   6.668
 5462SOL     OW17284   5.133   5.306   6.635
 5462SOL    HW117285   5.201   5.378   6.621
 5462SOL    HW217286   5.178   5.225   6.673
 5463SOL     OW17287   2.236   5.319   6.594
 5463SOL    HW117288   2.282   5.372   6.665
 5463SOL    HW217289   2.157   5.273   6.633
 5464SOL     OW17290   1.898   5.393   4.204
 5464SOL    HW117291   1.870   5.358   4.294
 5464SOL    HW217292   1.983   5.444   4.214
 5465SOL     OW17293   0.747   0.854   4.877
 5465SOL    HW117294   0.823   0.829   4.818
 5465SOL    HW217295   0.674   0.785   4.868
 5466SOL     OW17296   4.788   2.169   5.215
 5466SOL    HW117297   4.740   2.248   5.254
 5466SOL    HW217298   4.862   2.142   5.277
 5467SOL     OW17299   5.826   3.420   4.206
 5467SOL    HW117300   5.740   3.372   4.187
 5467SOL    HW217301   5.822   3.513   4.169
 5468SOL     OW17302   0.726   2.852   1.568
 5468SOL    HW117303   0.645   2.874   1.622
 5468SOL    HW217304   0.704   2.781   1.502
 5469SOL     OW17305   4.076   1.873   3.840
 5469SOL    HW117306   4.070   1.970   3.861
 5469SOL    HW217307   4.108   1.823   3.921
 5470SOL     OW17308   2.946   4.926   4.123
 5470SOL    HW117309   2.932   4.936   4.025
 5470SOL    HW217310   3.013   4.994   4.154
 5471SOL     OW17311   5.483   0.580   3.596
 5471SOL    HW117312   5.498   0.489   3.559
 5471SOL    HW217313   5.565   0.611   3.645
 5472SOL     OW17314   2.654   4.100   6.796
 5472SOL    HW117315   2.582   4.141   6.853
 5472SOL    HW217316   2.740   4.149   6.812
 5473SOL     OW17317   2.866   4.763   2.267
 5473SOL    HW117318   2.962   4.786   2.282
 5473SOL    HW217319   2.859   4.694   2.194
 5474SOL     OW17320   1.379   4.967   1.365
 5474SOL    HW117321   1.441   4.890   1.381
 5474SOL    HW217322   1.292   4.950   1.410
 5475SOL     OW17323   0.577   0.810   5.551
 5475SOL    HW117324   0.542   0.789   5.643
 5475SOL    HW217325   0.670   0.847   5.558
 5476SOL     OW17326   2.043   0.706   5.109
 5476SOL    HW117327   2.037   0.762   5.191
 5476SOL    HW217328   2.107   0.748   5.044
 5477SOL     OW17329   2.077   3.696   2.477
 5477SOL    HW117330   2.137   3.692   2.558
 5477SOL    HW217331   2.090   3.784   2.431
 5478SOL     OW17332   6.286   3.554   5.745
 5478SOL    HW117333   6.326   3.602   5.667
 5478SOL    HW217334   6.257   3.621   5.814
 5479SOL     OW17335   4.845   3.141   3.891
 5479SOL    HW117336   4.842   3.104   3.984
 5479SOL    HW217337   4.886   3.232   3.892
 5480SOL     OW17338   1.240   3.064   4.890
 5480SOL    HW117339   1.208   3.153   4.923
 5480SOL    HW217340   1.324   3.077   4.837
 5481SOL     OW17341   4.455   1.226   6.991
 5481SOL    HW117342   4.499   1.137   7.002
 5481SOL    HW217343   4.524   1.298   7.003
 5482SOL     OW17344   5.103   4.220   2.755
 5482SOL    HW117345   5.006   4.245   2.764
 5482SOL    HW217346   5.127   4.213   2.658
 5483SOL     OW17347   6.320   2.289   0.210
 5483SOL    HW117348   6.307   2.254   0.303
 5483SOL    HW217349   6.356   2.217   0.151
 5484SOL     OW17350   6.306   0.467   5.660
 5484SOL    HW117351   6.390   0.437   5.704
 5484SOL    HW217352   6.262   0.390   5.615
 5485SOL     OW17353   2.956   0.988   3.950
 5485SOL    HW117354   3.049   0.997   3.914
 5485SOL    HW217355   2.893   0.968   3.875
 5486SOL     OW17356   0.959   0.407   3.746
 5486SOL    HW117357   1.005   0.484   3.790
 5486SOL    HW217358   0.923   0.437   3.658
 5487SOL     OW17359   4.703   5.005   0.940
 5487SOL    HW117360   4.730   4.991   1.036
 5487SOL    HW217361   4.606   5.028   0.935
 5488SOL     OW17362   5.176   1.069   5.784
 5488SOL    HW117363   5.239   1.043   5.711
 5488SOL    HW217364   5.085   1.032   5.765
 5489SOL     OW17365   0.285   3.706   2.460
 5489SOL    HW117366   0.279   3.616   2.416
 5489SOL    HW217367   0.303   3.693   2.558
 5490SOL     OW17368   3.220   1.890   6.438
 5490SOL    HW117369   3.301   1.909   6.383
 5490SOL    HW217370   3.187   1.797   6.418
 5491SOL     OW17371   6.831   5.749   2.758
 5491SOL    HW117372   6.794   5.795   2.840
 5491SOL    HW217373   6.762   5.748   2.686
 5492SOL     OW17374   0.971   1.096   4.806
 5492SOL    HW117375   0.966   0.996   4.809
 5492SOL    HW217376   0.891   1.133   4.760
 5493SOL     OW17377   3.647   2.025   0.903
 5493SOL    HW117378   3.635   1.939   0.952
 5493SOL    HW217379   3.729   2.019   0.845
 5494SOL     OW17380   5.195   2.979   2.518
 5494SOL    HW117381   5.264   2.970   2.447
 5494SOL    HW217382   5.131   3.051   2.493
 5495SOL     OW17383   3.911   3.032   3.710
 5495SOL    HW117384   3.815   3.053   3.691
 5495SOL    HW217385   3.939   2.952   3.657
 5496SOL     OW17386   5.046   5.864   1.716
 5496SOL    HW117387   5.084   5.793   1.775
 5496SOL    HW217388   4.978   5.917   1.767
 5497SOL     OW17389   5.759   0.100   0.602
 5497SOL    HW117390   5.698   0.071   0.528
 5497SOL    HW217391   5.719   0.179   0.648
 5498SOL     OW17392   4.561   1.448   4.354
 5498SOL    HW117393   4.519   1.408   4.435
 5498SOL    HW217394   4.501   1.435   4.275
 5499SOL     OW17395   0.181   0.706   5.130
 5499SOL    HW117396   0.280   0.718   5.132
 5499SOL    HW217397   0.138   0.773   5.190
 5500SOL     OW17398   2.266   6.609   0.686
 5500SOL    HW117399   2.232   6.527   0.639
 5500SOL    HW217400   2.365   6.606   0.690
 5501SOL     OW17401   3.279   0.609   2.598
 5501SOL    HW117402   3.356   0.546   2.599
 5501SOL    HW217403   3.246   0.621   2.505
 5502SOL     OW17404   4.598   3.475   0.760
 5502SOL    HW117405   4.601   3.574   0.776
 5502SOL    HW217406   4.602   3.427   0.848
 5503SOL     OW17407   0.337   6.890   3.955
 5503SOL    HW117408   0.388   6.835   4.021
 5503SOL    HW217409   0.270   6.832   3.907
 5504SOL     OW17410   3.057   2.172   4.811
 5504SOL    HW117411   3.115   2.219   4.878
 5504SOL    HW217412   2.961   2.193   4.830
 5505SOL     OW17413   3.038   4.718   0.534
 5505SOL    HW117414   3.030   4.723   0.634
 5505SOL    HW217415   2.968   4.776   0.492
 5506SOL     OW17416   0.413   6.680   5.756
 5506SOL    HW117417   0.407   6.674   5.656
 5506SOL    HW217418   0.506   6.658   5.786
 5507SOL     OW17419   3.134   5.082   5.591
 5507SOL    HW117420   3.170   5.127   5.510
 5507SOL    HW217421   3.196   5.009   5.619
 5508SOL     OW17422   1.040   0.521   5.553
 5508SOL    HW117423   1.121   0.478   5.593
 5508SOL    HW217424   1.036   0.501   5.455
 5509SOL     OW17425   6.585   7.011   6.626
 5509SOL    HW117426   6.497   6.966   6.606
 5509SOL    HW217427   6.569   0.060   6.691
 5510SOL     OW17428   6.624   0.248   6.399
 5510SOL    HW117429   6.675   0.163   6.406
 5510SOL    HW217430   6.681   0.324   6.431
 5511SOL     OW17431   0.028   2.806   1.486
 5511SOL    HW117432   0.074   2.841   1.404
 5511SOL    HW217433   7.015   2.881   1.538
 5512SOL     OW17434   6.164   0.729   0.555
 5512SOL    HW117435   6.123   0.783   0.482
 5512SOL    HW217436   6.217   0.654   0.516
 5513SOL     OW17437   2.503   6.033   5.094
 5513SOL    HW117438   2.519   5.956   5.032
 5513SOL    HW217439   2.465   6.110   5.043
 5514SOL     OW17440   6.277   5.851   3.600
 5514SOL    HW117441   6.259   5.938   3.646
 5514SOL    HW217442   6.242   5.855   3.507
 5515SOL     OW17443   6.912   4.191   2.982
 5515SOL    HW117444   6.997   4.156   2.944
 5515SOL    HW217445   6.921   4.203   3.081
 5516SOL     OW17446   1.266   2.205   0.311
 5516SOL    HW117447   1.254   2.303   0.291
 5516SOL    HW217448   1.239   2.152   0.231
 5517SOL     OW17449   2.759   0.978   2.650
 5517SOL    HW117450   2.821   0.924   2.593
 5517SOL    HW217451   2.811   1.049   2.698
 5518SOL     OW17452   5.575   4.224   5.335
 5518SOL    HW117453   5.646   4.293   5.351
 5518SOL    HW217454   5.582   4.189   5.242
 5519SOL     OW17455   5.255   3.948   2.701
 5519SOL    HW117456   5.230   4.018   2.634
 5519SOL    HW217457   5.211   3.862   2.677
 5520SOL     OW17458   1.722   2.401   0.998
 5520SOL    HW117459   1.671   2.363   1.075
 5520SOL    HW217460   1.760   2.490   1.023
 5521SOL     OW17461   5.250   5.244   6.930
 5521SOL    HW117462   5.299   5.277   7.011
 5521SOL    HW217463   5.188   5.315   6.897
 5522SOL     OW17464   2.215   2.209   2.106
 5522SOL    HW117465   2.277   2.222   2.029
 5522SOL    HW217466   2.216   2.291   2.164
 5523SOL     OW17467   3.491   6.928   1.587
 5523SOL    HW117468   3.508   6.869   1.665
 5523SOL    HW217469   3.477   7.022   1.618
 5524SOL     OW17470   5.877   6.373   6.048
 5524SOL    HW117471   5.904   6.438   6.119
 5524SOL    HW217472   5.922   6.285   6.065
 5525SOL     OW17473   6.445   5.808   3.295
 5525SOL    HW117474   6.506   5.781   3.369
 5525SOL    HW217475   6.352   5.777   3.316
 5526SOL     OW17476   4.771   2.961   5.111
 5526SOL    HW117477   4.801   3.029   5.044
 5526SOL    HW217478   4.702   2.901   5.071
 5527SOL     OW17479   1.952   3.711   6.920
 5527SOL    HW117480   1.885   3.711   6.846
 5527SOL    HW217481   1.984   3.804   6.937
 5528SOL     OW17482   6.636   3.236   2.953
 5528SOL    HW117483   6.614   3.144   2.986
 5528SOL    HW217484   6.622   3.302   3.027
 5529SOL     OW17485   1.512   1.062   3.996
 5529SOL    HW117486   1.554   1.143   4.038
 5529SOL    HW217487   1.446   1.022   4.059
 5530SOL     OW17488   6.452   2.947   0.189
 5530SOL    HW117489   6.489   2.925   0.279
 5530SOL    HW217490   6.398   3.031   0.195
 5531SOL     OW17491   1.848   2.969   0.065
 5531SOL    HW117492   1.925   2.906   0.057
 5531SOL    HW217493   1.855   3.019   0.152
 5532SOL     OW17494   2.410   2.151   1.178
 5532SOL    HW117495   2.444   2.135   1.085
 5532SOL    HW217496   2.351   2.231   1.179
 5533SOL     OW17497   3.776   0.168   0.522
 5533SOL    HW117498   3.857   0.226   0.526
 5533SOL    HW217499   3.745   0.147   0.616
 5534SOL     OW17500   0.368   4.186   5.288
 5534SOL    HW117501   0.332   4.280   5.285
 5534SOL    HW217502   0.323   4.130   5.219
 5535SOL     OW17503   5.709   3.780   3.534
 5535SOL    HW117504   5.610   3.783   3.524
 5535SOL    HW217505   5.733   3.738   3.621
 5536SOL     OW17506   2.890   0.691   3.999
 5536SOL    HW117507   2.793   0.714   3.986
 5536SOL    HW217508   2.942   0.776   4.010
 5537SOL     OW17509   3.989   0.917   4.984
 5537SOL    HW117510   4.018   0.847   5.049
 5537SOL    HW217511   4.009   1.007   5.022
 5538SOL     OW17512   5.636   1.918   2.657
 5538SOL    HW117513   5.575   1.865   2.716
 5538SOL    HW217514   5.714   1.862   2.629
 5539SOL     OW17515   2.657   0.175   6.866
 5539SOL    HW117516   2.611   0.089   6.847
 5539SOL    HW217517   2.593   0.239   6.908
 5540SOL     OW17518   5.395   6.695   5.480
 5540SOL    HW117519   5.323   6.764   5.475
 5540SOL    HW217520   5.481   6.738   5.508
 5541SOL     OW17521   4.535   3.170   0.129
 5541SOL    HW117522   4.535   3.270   0.140
 5541SOL    HW217523   4.443   3.140   0.101
 5542SOL     OW17524   4.855   4.650   0.223
 5542SOL    HW117525   4.769   4.603   0.240
 5542SOL    HW217526   4.838   4.746   0.204
 5543SOL     OW17527   1.059   0.313   6.460
 5543SOL    HW117528   1.140   0.260   6.486
 5543SOL    HW217529   0.980   0.252   6.453
 5544SOL     OW17530   3.771   4.932   0.689
 5544SOL    HW117531   3.719   5.012   0.716
 5544SOL    HW217532   3.717   4.878   0.624
 5545SOL     OW17533   5.254   1.072   3.060
 5545SOL    HW117534   5.191   1.019   3.003
 5545SOL    HW217535   5.330   1.106   3.004
 5546SOL     OW17536   0.049   5.335   4.382
 5546SOL    HW117537   0.146   5.316   4.369
 5546SOL    HW217538   0.001   5.249   4.401
 5547SOL     OW17539   5.208   2.024   4.694
 5547SOL    HW117540   5.159   1.944   4.660
 5547SOL    HW217541   5.295   1.995   4.735
 5548SOL     OW17542   0.588   4.175   4.854
 5548SOL    HW117543   0.662   4.237   4.828
 5548SOL    HW217544   0.602   4.086   4.811
 5549SOL     OW17545   3.631   3.039   0.328
 5549SOL    HW117546   3.533   3.031   0.314
 5549SOL    HW217547   3.653   3.012   0.422
 5550SOL     OW17548   2.367   4.370   1.822
 5550SOL    HW117549   2.389   4.441   1.889
 5550SOL    HW217550   2.326   4.292   1.868
 5551SOL     OW17551   1.873   4.877   2.612
 5551SOL    HW117552   1.877   4.780   2.587
 5551SOL    HW217553   1.801   4.890   2.681
 5552SOL     OW17554   0.900   0.405   0.133
 5552SOL    HW117555   0.930   0.407   0.038
 5552SOL    HW217556   0.817   0.349   0.141
 5553SOL     OW17557   5.324   0.456   6.899
 5553SOL    HW117558   5.304   0.538   6.846
 5553SOL    HW217559   5.390   0.399   6.849
 5554SOL     OW17560   6.870   2.352   1.632
 5554SOL    HW117561   6.884   2.330   1.535
 5554SOL    HW217562   6.772   2.354   1.651
 5555SOL     OW17563   1.129   5.014   1.774
 5555SOL    HW117564   1.182   5.026   1.858
 5555SOL    HW217565   1.134   4.918   1.745
 5556SOL     OW17566   0.135   1.062   4.602
 5556SOL    HW117567   0.134   1.078   4.701
 5556SOL    HW217568   0.161   1.147   4.555
 5557SOL     OW17569   3.926   6.129   3.112
 5557SOL    HW117570   3.984   6.049   3.124
 5557SOL    HW217571   3.917   6.149   3.015
 5558SOL     OW17572   4.728   4.042   6.957
 5558SOL    HW117573   4.773   4.060   6.870
 5558SOL    HW217574   4.636   4.081   6.957
 5559SOL     OW17575   3.776   0.902   2.536
 5559SOL    HW117576   3.789   0.984   2.480
 5559SOL    HW217577   3.860   0.882   2.586
 5560SOL     OW17578   0.010   5.426   3.945
 5560SOL    HW117579   6.935   5.418   3.936
 5560SOL    HW217580   0.052   5.339   3.922
 5561SOL     OW17581   3.801   0.019   3.584
 5561SOL    HW117582   3.884   0.035   3.639
 5561SOL    HW217583   3.793   0.091   3.515
 5562SOL     OW17584   3.799   3.699   0.732
 5562SOL    HW117585   3.896   3.721   0.731
 5562SOL    HW217586   3.775   3.649   0.649
 5563SOL     OW17587   2.497   4.551   2.331
 5563SOL    HW117588   2.597   4.546   2.334
 5563SOL    HW217589   2.467   4.572   2.238
 5564SOL     OW17590   4.866   0.174   6.316
 5564SOL    HW117591   4.770   0.154   6.299
 5564SOL    HW217592   4.894   0.132   6.402
 5565SOL     OW17593   3.813   1.488   6.088
 5565SOL    HW117594   3.863   1.412   6.127
 5565SOL    HW217595   3.833   1.495   5.990
 5566SOL     OW17596   1.187   4.888   5.918
 5566SOL    HW117597   1.093   4.856   5.917
 5566SOL    HW217598   1.210   4.922   6.009
 5567SOL     OW17599   0.383   4.597   0.276
 5567SOL    HW117600   0.472   4.568   0.239
 5567SOL    HW217601   0.313   4.586   0.206
 5568SOL     OW17602   4.767   4.716   1.652
 5568SOL    HW117603   4.713   4.795   1.621
 5568SOL    HW217604   4.863   4.730   1.628
 5569SOL     OW17605   2.425   2.566   2.824
 5569SOL    HW117606   2.449   2.492   2.887
 5569SOL    HW217607   2.325   2.571   2.816
 5570SOL     OW17608   6.907   3.693   1.619
 5570SOL    HW117609   6.895   3.695   1.520
 5570SOL    HW217610   6.998   3.727   1.642
 5571SOL     OW17611   6.564   4.799   1.117
 5571SOL    HW117612   6.513   4.768   1.037
 5571SOL    HW217613   6.639   4.735   1.135
 5572SOL     OW17614   1.787   4.295   5.005
 5572SOL    HW117615   1.698   4.305   4.960
 5572SOL    HW217616   1.777   4.235   5.085
 5573SOL     OW17617   3.323   5.102   4.001
 5573SOL    HW117618   3.339   5.020   3.946
 5573SOL    HW217619   3.399   5.167   3.986
 5574SOL     OW17620   0.802   1.729   5.153
 5574SOL    HW117621   0.837   1.811   5.108
 5574SOL    HW217622   0.830   1.728   5.249
 5575SOL     OW17623   0.325   0.246   2.050
 5575SOL    HW117624   0.328   0.156   2.094
 5575SOL    HW217625   0.319   0.234   1.951
 5576SOL     OW17626   1.496   5.243   3.497
 5576SOL    HW117627   1.460   5.150   3.501
 5576SOL    HW217628   1.454   5.291   3.419
 5577SOL     OW17629   1.728   3.187   6.234
 5577SOL    HW117630   1.668   3.239   6.173
 5577SOL    HW217631   1.750   3.099   6.191
 5578SOL     OW17632   3.532   4.188   3.595
 5578SOL    HW117633   3.500   4.148   3.680
 5578SOL    HW217634   3.516   4.287   3.596
 5579SOL     OW17635   6.543   2.893   2.290
 5579SOL    HW117636   6.521   2.990   2.280
 5579SOL    HW217637   6.641   2.879   2.275
 5580SOL     OW17638   5.658   1.975   5.556
 5580SOL    HW117639   5.747   1.993   5.597
 5580SOL    HW217640   5.655   1.881   5.521
 5581SOL     OW17641   1.116   2.792   6.451
 5581SOL    HW117642   1.042   2.815   6.388
 5581SOL    HW217643   1.204   2.810   6.408
 5582SOL     OW17644   2.714   2.680   5.986
 5582SOL    HW117645   2.634   2.624   6.006
 5582SOL    HW217646   2.768   2.637   5.913
 5583SOL     OW17647   5.632   0.169   0.968
 5583SOL    HW117648   5.611   0.227   0.889
 5583SOL    HW217649   5.691   0.219   1.032
 5584SOL     OW17650   1.852   3.418   4.421
 5584SOL    HW117651   1.924   3.478   4.455
 5584SOL    HW217652   1.881   3.373   4.337
 5585SOL     OW17653   5.380   4.947   1.737
 5585SOL    HW117654   5.324   5.030   1.741
 5585SOL    HW217655   5.476   4.971   1.751
 5586SOL     OW17656   0.837   4.756   0.592
 5586SOL    HW117657   0.914   4.774   0.530
 5586SOL    HW217658   0.762   4.715   0.541
 5587SOL     OW17659   6.410   0.417   6.312
 5587SOL    HW117660   6.403   0.484   6.387
 5587SOL    HW217661   6.486   0.355   6.331
 5588SOL     OW17662   3.689   6.866   1.065
 5588SOL    HW117663   3.650   6.873   1.157
 5588SOL    HW217664   3.618   6.881   0.997
 5589SOL     OW17665   6.449   4.832   5.861
 5589SOL    HW117666   6.420   4.793   5.949
 5589SOL    HW217667   6.468   4.930   5.873
 5590SOL     OW17668   6.048   5.527   3.269
 5590SOL    HW117669   6.138   5.528   3.226
 5590SOL    HW217670   6.011   5.434   3.266
 5591SOL     OW17671   5.298   1.346   1.784
 5591SOL    HW117672   5.374   1.341   1.849
 5591SOL    HW217673   5.294   1.261   1.730
 5592SOL     OW17674   0.401   4.521   3.151
 5592SOL    HW117675   0.500   4.515   3.137
 5592SOL    HW217676   0.378   4.607   3.196
 5593SOL     OW17677   0.540   3.707   0.561
 5593SOL    HW117678   0.543   3.641   0.486
 5593SOL    HW217679   0.615   3.690   0.624
 5594SOL     OW17680   6.450   1.976   5.754
 5594SOL    HW117681   6.429   1.882   5.784
 5594SOL    HW217682   6.547   1.994   5.770
 5595SOL     OW17683   0.814   2.315   0.263
 5595SOL    HW117684   0.783   2.367   0.183
 5595SOL    HW217685   0.797   2.369   0.345
 5596SOL     OW17686   3.453   5.715   3.539
 5596SOL    HW117687   3.365   5.745   3.575
 5596SOL    HW217688   3.526   5.772   3.579
 5597SOL     OW17689   4.936   3.371   2.193
 5597SOL    HW117690   4.941   3.274   2.166
 5597SOL    HW217691   4.874   3.419   2.131
 5598SOL     OW17692   5.189   0.802   5.008
 5598SOL    HW117693   5.217   0.886   4.961
 5598SOL    HW217694   5.271   0.752   5.037
 5599SOL     OW17695   1.089   0.668   3.358
 5599SOL    HW117696   1.017   0.651   3.290
 5599SOL    HW217697   1.147   0.743   3.328
 5600SOL     OW17698   1.781   2.583   5.012
 5600SOL    HW117699   1.767   2.567   4.914
 5600SOL    HW217700   1.872   2.621   5.027
 5601SOL     OW17701   2.546   0.949   6.007
 5601SOL    HW117702   2.585   0.970   6.097
 5601SOL    HW217703   2.528   1.034   5.958
 5602SOL     OW17704   1.525   0.658   0.255
 5602SOL    HW117705   1.532   0.635   0.352
 5602SOL    HW217706   1.595   0.609   0.204
 5603SOL     OW17707   5.961   4.683   5.549
 5603SOL    HW117708   6.039   4.637   5.591
 5603SOL    HW217709   5.958   4.661   5.452
 5604SOL     OW17710   5.691   1.441   5.996
 5604SOL    HW117711   5.727   1.377   6.065
 5604SOL    HW217712   5.648   1.390   5.922
 5605SOL     OW17713   1.198   2.115   6.563
 5605SOL    HW117714   1.174   2.186   6.498
 5605SOL    HW217715   1.166   2.141   6.655
 5606SOL     OW17716   5.965   0.167   2.853
 5606SOL    HW117717   5.870   0.169   2.824
 5606SOL    HW217718   5.988   0.252   2.900
 5607SOL     OW17719   5.754   0.472   1.010
 5607SOL    HW117720   5.809   0.545   0.969
 5607SOL    HW217721   5.813   0.396   1.034
 5608SOL     OW17722   3.988   6.393   5.305
 5608SOL    HW117723   3.889   6.403   5.291
 5608SOL    HW217724   4.004   6.340   5.388
 5609SOL     OW17725   1.131   5.426   5.635
 5609SOL    HW117726   1.146   5.485   5.715
 5609SOL    HW217727   1.046   5.374   5.648
 5610SOL     OW17728   4.670   0.681   6.060
 5610SOL    HW117729   4.686   0.704   6.156
 5610SOL    HW217730   4.603   0.744   6.021
 5611SOL     OW17731   1.827   4.215   4.148
 5611SOL    HW117732   1.895   4.288   4.158
 5611SOL    HW217733   1.737   4.250   4.172
 5612SOL     OW17734   2.870   6.714   4.764
 5612SOL    HW117735   2.868   6.810   4.735
 5612SOL    HW217736   2.963   6.687   4.784
 5613SOL     OW17737   3.674   5.303   1.711
 5613SOL    HW117738   3.626   5.314   1.799
 5613SOL    HW217739   3.732   5.382   1.695
 5614SOL     OW17740   4.849   2.168   3.977
 5614SOL    HW117741   4.793   2.087   3.961
 5614SOL    HW217742   4.920   2.174   3.907
 5615SOL     OW17743   1.820   1.541   1.569
 5615SOL    HW117744   1.819   1.457   1.514
 5615SOL    HW217745   1.736   1.592   1.553
 5616SOL     OW17746   1.733   0.215   4.786
 5616SOL    HW117747   1.768   0.213   4.880
 5616SOL    HW217748   1.687   0.128   4.766
 5617SOL     OW17749   0.665   0.701   5.309
 5617SOL    HW117750   0.637   0.709   5.405
 5617SOL    HW217751   0.717   0.782   5.283
 5618SOL     OW17752   6.818   4.710   3.243
 5618SOL    HW117753   6.764   4.748   3.319
 5618SOL    HW217754   6.759   4.652   3.187
 5619SOL     OW17755   2.077   3.968   5.003
 5619SOL    HW117756   2.169   4.005   5.020
 5619SOL    HW217757   2.085   3.881   4.955
 5620SOL     OW17758   4.293   1.367   6.801
 5620SOL    HW117759   4.302   1.466   6.806
 5620SOL    HW217760   4.323   1.326   6.888
 5621SOL     OW17761   2.342   2.254   6.309
 5621SOL    HW117762   2.430   2.208   6.322
 5621SOL    HW217763   2.280   2.193   6.259
 5622SOL     OW17764   5.554   0.854   5.265
 5622SOL    HW117765   5.527   0.760   5.285
 5622SOL    HW217766   5.543   0.910   5.348
 5623SOL     OW17767   0.825   6.076   0.250
 5623SOL    HW117768   0.768   6.095   0.330
 5623SOL    HW217769   0.866   5.985   0.260
 5624SOL     OW17770   0.475   4.014   2.170
 5624SOL    HW117771   0.570   4.025   2.140
 5624SOL    HW217772   0.422   4.093   2.137
 5625SOL     OW17773   6.187   2.338   5.610
 5625SOL    HW117774   6.204   2.242   5.632
 5625SOL    HW217775   6.171   2.347   5.512
 5626SOL     OW17776   5.169   6.013   4.024
 5626SOL    HW117777   5.209   5.941   4.081
 5626SOL    HW217778   5.075   6.030   4.052
 5627SOL     OW17779   0.810   6.331   0.940
 5627SOL    HW117780   0.885   6.306   1.001
 5627SOL    HW217781   0.723   6.307   0.981
 5628SOL     OW17782   1.469   1.554   4.306
 5628SOL    HW117783   1.512   1.588   4.222
 5628SOL    HW217784   1.384   1.604   4.322
 5629SOL     OW17785   3.762   2.895   3.380
 5629SOL    HW117786   3.743   2.945   3.464
 5629SOL    HW217787   3.828   2.945   3.324
 5630SOL     OW17788   6.710   4.150   1.459
 5630SOL    HW117789   6.808   4.136   1.473
 5630SOL    HW217790   6.696   4.198   1.372
 5631SOL     OW17791   5.377   1.538   6.029
 5631SOL    HW117792   5.310   1.601   5.989
 5631SOL    HW217793   5.414   1.478   5.958
 5632SOL     OW17794   2.723   2.653   6.936
 5632SOL    HW117795   2.664   2.639   7.016
 5632SOL    HW217796   2.776   2.737   6.949
 5633SOL     OW17797   0.214   3.159   5.492
 5633SOL    HW117798   0.166   3.165   5.580
 5633SOL    HW217799   0.197   3.069   5.451
 5634SOL     OW17800   5.149   5.918   4.626
 5634SOL    HW117801   5.233   5.891   4.673
 5634SOL    HW217802   5.159   5.903   4.528
 5635SOL     OW17803   3.721   1.843   5.796
 5635SOL    HW117804   3.730   1.858   5.698
 5635SOL    HW217805   3.624   1.833   5.820
 5636SOL     OW17806   3.801   6.352   4.648
 5636SOL    HW117807   3.882   6.406   4.625
 5636SOL    HW217808   3.823   6.291   4.725
 5637SOL     OW17809   6.291   0.305   3.071
 5637SOL    HW117810   6.349   0.245   3.125
 5637SOL    HW217811   6.202   0.315   3.116
 5638SOL     OW17812   5.985   3.749   0.140
 5638SOL    HW117813   5.893   3.786   0.124
 5638SOL    HW217814   6.048   3.789   0.074
 5639SOL     OW17815   4.027   0.283   0.056
 5639SOL    HW117816   3.997   0.336   7.002
 5639SOL    HW217817   4.126   0.286   0.063
 5640SOL     OW17818   1.700   0.123   2.928
 5640SOL    HW117819   1.606   0.141   2.898
 5640SOL    HW217820   1.699   0.076   3.016
 5641SOL     OW17821   6.360   5.776   4.284
 5641SOL    HW117822   6.304   5.756   4.365
 5641SOL    HW217823   6.452   5.737   4.297
 5642SOL     OW17824   2.015   2.107   0.346
 5642SOL    HW117825   2.073   2.157   0.410
 5642SOL    HW217826   2.071   2.050   0.287
 5643SOL     OW17827   5.298   1.890   6.392
 5643SOL    HW117828   5.300   1.949   6.312
 5643SOL    HW217829   5.388   1.846   6.404
 5644SOL     OW17830   2.755   0.775   6.023
 5644SOL    HW117831   2.747   0.681   5.992
 5644SOL    HW217832   2.665   0.819   6.024
 5645SOL     OW17833   5.676   3.893   4.769
 5645SOL    HW117834   5.706   3.828   4.839
 5645SOL    HW217835   5.578   3.884   4.755
 5646SOL     OW17836   1.062   4.307   2.736
 5646SOL    HW117837   1.021   4.227   2.692
 5646SOL    HW217838   1.161   4.305   2.723
 5647SOL     OW17839   5.836   6.803   2.714
 5647SOL    HW117840   5.809   6.871   2.782
 5647SOL    HW217841   5.860   6.849   2.628
 5648SOL     OW17842   4.953   6.184   3.480
 5648SOL    HW117843   4.875   6.223   3.431
 5648SOL    HW217844   4.926   6.098   3.523
 5649SOL     OW17845   1.062   6.843   4.103
 5649SOL    HW117846   1.097   6.894   4.181
 5649SOL    HW217847   1.103   6.752   4.102
 5650SOL     OW17848   6.661   4.064   6.026
 5650SOL    HW117849   6.658   4.000   5.949
 5650SOL    HW217850   6.573   4.063   6.074
 5651SOL     OW17851   2.744   1.196   0.263
 5651SOL    HW117852   2.708   1.122   0.206
 5651SOL    HW217853   2.720   1.284   0.222
 5652SOL     OW17854   0.426   5.807   2.882
 5652SOL    HW117855   0.512   5.781   2.926
 5652SOL    HW217856   0.380   5.875   2.938
 5653SOL     OW17857   0.515   0.179   2.607
 5653SOL    HW117858   0.417   0.160   2.604
 5653SOL    HW217859   0.561   0.108   2.659
 5654SOL     OW17860   2.954   6.094   5.336
 5654SOL    HW117861   3.044   6.051   5.346
 5654SOL    HW217862   2.966   6.192   5.318
 5655SOL     OW17863   5.269   2.598   5.239
 5655SOL    HW117864   5.325   2.652   5.177
 5655SOL    HW217865   5.201   2.657   5.283
 5656SOL     OW17866   6.799   3.434   0.182
 5656SOL    HW117867   6.863   3.459   0.255
 5656SOL    HW217868   6.748   3.353   0.209
 5657SOL     OW17869   5.358   5.888   4.784
 5657SOL    HW117870   5.445   5.851   4.751
 5657SOL    HW217871   5.374   5.977   4.826
 5658SOL     OW17872   2.516   3.223   5.609
 5658SOL    HW117873   2.525   3.255   5.515
 5658SOL    HW217874   2.432   3.259   5.649
 5659SOL     OW17875   2.475   4.168   6.972
 5659SOL    HW117876   2.446   4.095   0.008
 5659SOL    HW217877   2.480   4.254   7.022
 5660SOL     OW17878   4.467   0.130   5.597
 5660SOL    HW117879   4.497   0.038   5.572
 5660SOL    HW217880   4.487   0.146   5.693
 5661SOL     OW17881   0.807   5.678   5.860
 5661SOL    HW117882   0.763   5.734   5.930
 5661SOL    HW217883   0.737   5.634   5.804
 5662SOL     OW17884   3.112   6.442   1.131
 5662SOL    HW117885   3.178   6.517   1.124
 5662SOL    HW217886   3.161   6.355   1.132
 5663SOL     OW17887   1.372   3.454   5.740
 5663SOL    HW117888   1.326   3.403   5.813
 5663SOL    HW217889   1.410   3.539   5.777
 5664SOL     OW17890   4.547   4.860   4.750
 5664SOL    HW117891   4.646   4.874   4.746
 5664SOL    HW217892   4.527   4.766   4.776
 5665SOL     OW17893   1.959   1.666   0.869
 5665SOL    HW117894   1.913   1.604   0.804
 5665SOL    HW217895   1.890   1.714   0.923
 5666SOL     OW17896   6.086   2.732   5.041
 5666SOL    HW117897   6.010   2.796   5.052
 5666SOL    HW217898   6.157   2.773   4.984
 5667SOL     OW17899   2.732   4.908   4.276
 5667SOL    HW117900   2.822   4.892   4.235
 5667SOL    HW217901   2.742   4.935   4.371
 5668SOL     OW17902   4.863   3.949   4.021
 5668SOL    HW117903   4.818   3.967   4.109
 5668SOL    HW217904   4.855   3.852   3.998
 5669SOL     OW17905   5.304   4.428   5.998
 5669SOL    HW117906   5.361   4.366   6.052
 5669SOL    HW217907   5.362   4.499   5.957
 5670SOL     OW17908   1.462   2.780   3.859
 5670SOL    HW117909   1.490   2.832   3.778
 5670SOL    HW217910   1.507   2.691   3.858
 5671SOL     OW17911   6.573   5.024   3.111
 5671SOL    HW117912   6.486   5.028   3.161
 5671SOL    HW217913   6.560   5.059   3.019
 5672SOL     OW17914   5.075   2.971   4.844
 5672SOL    HW117915   5.023   2.927   4.771
 5672SOL    HW217916   5.161   3.007   4.807
 5673SOL     OW17917   1.017   1.924   0.420
 5673SOL    HW117918   0.952   2.000   0.424
 5673SOL    HW217919   1.060   1.922   0.330
 5674SOL     OW17920   2.225   5.169   4.989
 5674SOL    HW117921   2.226   5.089   5.050
 5674SOL    HW217922   2.319   5.195   4.967
 5675SOL     OW17923   2.703   2.409   1.090
 5675SOL    HW117924   2.688   2.493   1.037
 5675SOL    HW217925   2.777   2.357   1.049
 5676SOL     OW17926   3.521   1.274   1.938
 5676SOL    HW117927   3.540   1.200   2.002
 5676SOL    HW217928   3.442   1.327   1.971
 5677SOL     OW17929   0.486   1.701   6.421
 5677SOL    HW117930   0.564   1.695   6.358
 5677SOL    HW217931   0.456   1.796   6.428
 5678SOL     OW17932   3.567   2.010   2.219
 5678SOL    HW117933   3.473   2.042   2.236
 5678SOL    HW217934   3.608   2.066   2.147
 5679SOL     OW17935   0.208   4.307   5.617
 5679SOL    HW117936   0.150   4.232   5.586
 5679SOL    HW217937   0.299   4.297   5.578
 5680SOL     OW17938   0.228   5.796   4.844
 5680SOL    HW117939   0.144   5.743   4.852
 5680SOL    HW217940   0.305   5.734   4.826
 5681SOL     OW17941   1.340   3.855   3.834
 5681SOL    HW117942   1.341   3.900   3.744
 5681SOL    HW217943   1.378   3.917   3.902
 5682SOL     OW17944   2.259   4.407   1.415
 5682SOL    HW117945   2.192   4.421   1.488
 5682SOL    HW217946   2.262   4.311   1.389
 5683SOL     OW17947   6.816   0.397   6.089
 5683SOL    HW117948   6.784   0.364   6.177
 5683SOL    HW217949   6.893   0.460   6.103
 5684SOL     OW17950   2.191   3.058   4.887
 5684SOL    HW117951   2.227   3.025   4.975
 5684SOL    HW217952   2.217   2.994   4.815
 5685SOL     OW17953   2.728   1.440   2.349
 5685SOL    HW117954   2.718   1.500   2.270
 5685SOL    HW217955   2.637   1.418   2.386
 5686SOL     OW17956   5.384   5.523   6.139
 5686SOL    HW117957   5.306   5.585   6.150
 5686SOL    HW217958   5.363   5.435   6.182
 5687SOL     OW17959   2.278   0.026   6.023
 5687SOL    HW117960   2.278   7.000   6.109
 5687SOL    HW217961   2.239   6.995   5.950
 5688SOL     OW17962   1.810   1.853   3.100
 5688SOL    HW117963   1.794   1.877   3.004
 5688SOL    HW217964   1.749   1.905   3.159
 5689SOL     OW17965   0.387   2.742   1.568
 5689SOL    HW117966   0.367   2.742   1.470
 5689SOL    HW217967   0.382   2.648   1.603
 5690SOL     OW17968   3.224   5.238   6.848
 5690SOL    HW117969   3.222   5.303   6.772
 5690SOL    HW217970   3.301   5.258   6.908
 5691SOL     OW17971   4.562   2.289   3.734
 5691SOL    HW117972   4.623   2.210   3.730
 5691SOL    HW217973   4.478   2.264   3.782
 5692SOL     OW17974   6.306   4.426   1.863
 5692SOL    HW117975   6.276   4.421   1.959
 5692SOL    HW217976   6.391   4.478   1.858
 5693SOL     OW17977   4.209   0.416   1.769
 5693SOL    HW117978   4.109   0.412   1.777
 5693SOL    HW217979   4.250   0.384   1.854
 5694SOL     OW17980   0.549   0.436   1.884
 5694SOL    HW117981   0.643   0.421   1.856
 5694SOL    HW217982   0.528   0.377   1.962
 5695SOL     OW17983   2.749   1.001   1.890
 5695SOL    HW117984   2.801   0.948   1.824
 5695SOL    HW217985   2.682   1.058   1.843
 5696SOL     OW17986   0.539   0.234   4.251
 5696SOL    HW117987   0.452   0.216   4.296
 5696SOL    HW217988   0.560   0.162   4.186
 5697SOL     OW17989   6.820   2.280   6.848
 5697SOL    HW117990   6.721   2.296   6.849
 5697SOL    HW217991   6.854   2.274   6.942
 5698SOL     OW17992   3.436   2.028   4.629
 5698SOL    HW117993   3.397   1.938   4.613
 5698SOL    HW217994   3.404   2.063   4.718
 5699SOL     OW17995   2.150   3.111   2.489
 5699SOL    HW117996   2.136   3.109   2.390
 5699SOL    HW217997   2.165   3.206   2.519
 5700SOL     OW17998   6.512   0.241   2.835
 5700SOL    HW117999   6.575   0.221   2.911
 5700SOL    HW218000   6.452   0.163   2.820
 5701SOL     OW18001   1.363   1.082   0.502
 5701SOL    HW118002   1.310   1.003   0.533
 5701SOL    HW218003   1.304   1.143   0.449
 5702SOL     OW18004   1.849   6.801   4.803
 5702SOL    HW118005   1.862   6.812   4.704
 5702SOL    HW218006   1.926   6.750   4.841
 5703SOL     OW18007   0.548   2.881   6.235
 5703SOL    HW118008   0.615   2.950   6.207
 5703SOL    HW218009   0.498   2.849   6.154
 5704SOL     OW18010   3.782   5.278   4.386
 5704SOL    HW118011   3.686   5.272   4.413
 5704SOL    HW218012   3.829   5.192   4.409
 5705SOL     OW18013   6.045   0.682   5.444
 5705SOL    HW118014   6.115   0.742   5.482
 5705SOL    HW218015   5.954   0.721   5.462
 5706SOL     OW18016   5.026   1.866   1.445
 5706SOL    HW118017   5.078   1.851   1.530
 5706SOL    HW218018   4.970   1.948   1.454
 5707SOL     OW18019   5.948   5.366   1.131
 5707SOL    HW118020   5.966   5.457   1.168
 5707SOL    HW218021   5.920   5.305   1.205
 5708SOL     OW18022   5.301   6.074   1.983
 5708SOL    HW118023   5.205   6.082   2.008
 5708SOL    HW218024   5.309   6.025   1.896
 5709SOL     OW18025   0.127   2.807   2.651
 5709SOL    HW118026   0.043   2.811   2.598
 5709SOL    HW218027   0.197   2.865   2.610
 5710SOL     OW18028   4.664   1.534   0.396
 5710SOL    HW118029   4.629   1.626   0.376
 5710SOL    HW218030   4.612   1.495   0.472
 5711SOL     OW18031   4.492   1.817   2.647
 5711SOL    HW118032   4.452   1.884   2.584
 5711SOL    HW218033   4.513   1.733   2.596
 5712SOL     OW18034   5.961   5.996   0.109
 5712SOL    HW118035   5.998   6.085   0.139
 5712SOL    HW218036   6.036   5.940   0.073
 5713SOL     OW18037   1.718   0.953   0.982
 5713SOL    HW118038   1.621   0.961   1.008
 5713SOL    HW218039   1.729   0.878   0.918
 5714SOL     OW18040   6.336   6.994   0.740
 5714SOL    HW118041   6.258   6.974   0.681
 5714SOL    HW218042   6.388   0.045   0.701
 5715SOL     OW18043   0.269   6.705   1.544
 5715SOL    HW118044   0.289   6.686   1.640
 5715SOL    HW218045   0.185   6.759   1.537
 5716SOL     OW18046   0.358   4.781   5.178
 5716SOL    HW118047   0.320   4.709   5.119
 5716SOL    HW218048   0.445   4.811   5.140
 5717SOL     OW18049   0.324   5.517   3.543
 5717SOL    HW118050   0.423   5.518   3.531
 5717SOL    HW218051   0.290   5.424   3.531
 5718SOL     OW18052   0.813   4.100   6.803
 5718SOL    HW118053   0.798   4.056   6.714
 5718SOL    HW218054   0.847   4.032   6.868
 5719SOL     OW18055   2.920   3.697   0.566
 5719SOL    HW118056   2.930   3.634   0.643
 5719SOL    HW218057   2.923   3.647   0.480
 5720SOL     OW18058   3.759   5.264   6.069
 5720SOL    HW118059   3.857   5.245   6.069
 5720SOL    HW218060   3.709   5.181   6.044
 5721SOL     OW18061   2.084   2.938   0.289
 5721SOL    HW118062   2.123   2.962   0.200
 5721SOL    HW218063   2.127   2.854   0.322
 5722SOL     OW18064   1.936   0.252   6.461
 5722SOL    HW118065   1.961   0.335   6.412
 5722SOL    HW218066   1.865   0.272   6.528
 5723SOL     OW18067   4.179   3.292   0.756
 5723SOL    HW118068   4.232   3.333   0.830
 5723SOL    HW218069   4.242   3.258   0.685
 5724SOL     OW18070   5.524   2.144   5.822
 5724SOL    HW118071   5.604   2.178   5.772
 5724SOL    HW218072   5.546   2.058   5.867
 5725SOL     OW18073   6.946   4.479   5.059
 5725SOL    HW118074   6.880   4.429   5.004
 5725SOL    HW218075   0.012   4.439   5.046
 5726SOL     OW18076   5.132   4.390   2.145
 5726SOL    HW118077   5.207   4.418   2.084
 5726SOL    HW218078   5.046   4.425   2.110
 5727SOL     OW18079   1.364   2.647   5.008
 5727SOL    HW118080   1.279   2.620   5.051
 5727SOL    HW218081   1.441   2.603   5.054
 5728SOL     OW18082   3.212   0.034   5.639
 5728SOL    HW118083   3.167   6.975   5.609
 5728SOL    HW218084   3.251   0.020   5.730
 5729SOL     OW18085   2.556   2.158   4.588
 5729SOL    HW118086   2.625   2.104   4.635
 5729SOL    HW218087   2.551   2.131   4.492
 5730SOL     OW18088   6.261   4.318   4.753
 5730SOL    HW118089   6.185   4.329   4.817
 5730SOL    HW218090   6.266   4.398   4.693
 5731SOL     OW18091   0.699   6.610   2.758
 5731SOL    HW118092   0.642   6.657   2.690
 5731SOL    HW218093   0.783   6.663   2.773
 5732SOL     OW18094   6.328   0.819   3.248
 5732SOL    HW118095   6.359   0.828   3.342
 5732SOL    HW218096   6.381   0.748   3.201
 5733SOL     OW18097   2.799   1.077   5.025
 5733SOL    HW118098   2.821   1.147   4.956
 5733SOL    HW218099   2.702   1.053   5.018
 5734SOL     OW18100   1.719   6.609   3.391
 5734SOL    HW118101   1.672   6.524   3.415
 5734SOL    HW218102   1.812   6.588   3.361
 5735SOL     OW18103   2.824   0.640   1.181
 5735SOL    HW118104   2.819   0.605   1.274
 5735SOL    HW218105   2.856   0.734   1.181
 5736SOL     OW18106   1.676   5.082   0.569
 5736SOL    HW118107   1.606   5.048   0.632
 5736SOL    HW218108   1.761   5.097   0.619
 5737SOL     OW18109   5.789   4.011   0.284
 5737SOL    HW118110   5.774   4.073   0.207
 5737SOL    HW218111   5.733   3.929   0.272
 5738SOL     OW18112   0.680   4.799   4.582
 5738SOL    HW118113   0.612   4.800   4.656
 5738SOL    HW218114   0.665   4.719   4.524
 5739SOL     OW18115   0.766   2.972   0.975
 5739SOL    HW118116   0.709   3.019   1.042
 5739SOL    HW218117   0.787   2.880   1.007
 5740SOL     OW18118   3.963   4.742   6.894
 5740SOL    HW118119   3.966   4.816   6.826
 5740SOL    HW218120   3.883   4.754   6.952
 5741SOL     OW18121   0.247   3.226   1.775
 5741SOL    HW118122   0.170   3.174   1.738
 5741SOL    HW218123   0.311   3.247   1.701
 5742SOL     OW18124   0.293   5.787   3.636
 5742SOL    HW118125   0.297   5.788   3.735
 5742SOL    HW218126   0.305   5.693   3.603
 5743SOL     OW18127   1.620   6.306   5.432
 5743SOL    HW118128   1.596   6.403   5.443
 5743SOL    HW218129   1.602   6.257   5.517
 5744SOL     OW18130   6.137   0.344   1.586
 5744SOL    HW118131   6.153   0.252   1.622
 5744SOL    HW218132   6.180   0.412   1.646
 5745SOL     OW18133   1.188   3.312   3.125
 5745SOL    HW118134   1.179   3.213   3.129
 5745SOL    HW218135   1.101   3.354   3.151
 5746SOL     OW18136   6.393   4.271   6.960
 5746SOL    HW118137   6.431   4.356   6.924
 5746SOL    HW218138   6.419   4.195   6.900
 5747SOL     OW18139   0.974   6.258   3.697
 5747SOL    HW118140   1.029   6.174   3.693
 5747SOL    HW218141   0.926   6.262   3.784
 5748SOL     OW18142   1.935   0.273   3.776
 5748SOL    HW118143   1.940   0.369   3.749
 5748SOL    HW218144   1.846   0.255   3.820
 5749SOL     OW18145   1.492   1.082   3.037
 5749SOL    HW118146   1.573   1.110   2.987
 5749SOL    HW218147   1.481   1.139   3.118
 5750SOL     OW18148   5.830   6.436   2.539
 5750SOL    HW118149   5.865   6.371   2.606
 5750SOL    HW218150   5.906   6.472   2.485
 5751SOL     OW18151   0.739   3.054   6.149
 5751SOL    HW118152   0.698   3.079   6.061
 5751SOL    HW218153   0.836   3.080   6.149
 5752SOL     OW18154   1.153   1.507   6.535
 5752SOL    HW118155   1.122   1.418   6.504
 5752SOL    HW218156   1.222   1.542   6.471
 5753SOL     OW18157   4.525   1.765   0.416
 5753SOL    HW118158   4.584   1.810   0.484
 5753SOL    HW218159   4.433   1.755   0.454
 5754SOL     OW18160   5.825   5.529   0.180
 5754SOL    HW118161   5.854   5.621   0.208
 5754SOL    HW218162   5.887   5.493   0.111
 5755SOL     OW18163   3.264   3.667   1.471
 5755SOL    HW118164   3.353   3.634   1.504
 5755SOL    HW218165   3.213   3.707   1.547
 5756SOL     OW18166   6.834   6.248   4.137
 5756SOL    HW118167   6.775   6.247   4.056
 5756SOL    HW218168   6.798   6.184   4.205
 5757SOL     OW18169   6.681   6.344   2.349
 5757SOL    HW118170   6.624   6.425   2.343
 5757SOL    HW218171   6.632   6.265   2.312
 5758SOL     OW18172   2.576   1.598   5.620
 5758SOL    HW118173   2.594   1.647   5.534
 5758SOL    HW218174   2.640   1.629   5.690
 5759SOL     OW18175   0.741   1.479   6.066
 5759SOL    HW118176   0.784   1.467   5.977
 5759SOL    HW218177   0.649   1.442   6.064
 5760SOL     OW18178   6.896   5.962   1.185
 5760SOL    HW118179   6.936   5.962   1.094
 5760SOL    HW218180   6.911   6.051   1.228
 5761SOL     OW18181   4.603   0.410   4.594
 5761SOL    HW118182   4.584   0.348   4.518
 5761SOL    HW218183   4.574   0.368   4.680
 5762SOL     OW18184   5.793   6.261   1.248
 5762SOL    HW118185   5.884   6.301   1.257
 5762SOL    HW218186   5.725   6.334   1.236
 5763SOL     OW18187   2.488   0.933   0.458
 5763SOL    HW118188   2.475   1.028   0.429
 5763SOL    HW218189   2.405   0.900   0.503
 5764SOL     OW18190   4.480   3.088   6.423
 5764SOL    HW118191   4.419   3.130   6.490
 5764SOL    HW218192   4.442   3.000   6.393
 5765SOL     OW18193   6.542   5.634   6.715
 5765SOL    HW118194   6.540   5.538   6.743
 5765SOL    HW218195   6.465   5.652   6.653
 5766SOL     OW18196   2.904   0.996   3.484
 5766SOL    HW118197   2.905   0.926   3.556
 5766SOL    HW218198   2.872   1.083   3.522
 5767SOL     OW18199   5.336   6.933   0.200
 5767SOL    HW118200   5.314   6.835   0.197
 5767SOL    HW218201   5.431   6.945   0.228
 5768SOL     OW18202   6.503   6.759   1.952
 5768SOL    HW118203   6.537   6.778   1.860
 5768SOL    HW218204   6.581   6.753   2.015
 5769SOL     OW18205   1.760   4.812   3.150
 5769SOL    HW118206   1.792   4.873   3.077
 5769SOL    HW218207   1.808   4.725   3.144
 5770SOL     OW18208   5.496   2.229   1.750
 5770SOL    HW118209   5.471   2.132   1.753
 5770SOL    HW218210   5.569   2.247   1.816
 5771SOL     OW18211   1.172   1.402   1.171
 5771SOL    HW118212   1.198   1.328   1.233
 5771SOL    HW218213   1.154   1.485   1.224
 5772SOL     OW18214   6.642   5.238   5.299
 5772SOL    HW118215   6.708   5.242   5.374
 5772SOL    HW218216   6.658   5.314   5.236
 5773SOL     OW18217   5.555   5.580   4.733
 5773SOL    HW118218   5.603   5.651   4.681
 5773SOL    HW218219   5.592   5.575   4.826
 5774SOL     OW18220   2.607   4.906   2.288
 5774SOL    HW118221   2.565   4.881   2.375
 5774SOL    HW218222   2.681   4.842   2.266
 5775SOL     OW18223   0.915   0.809   0.597
 5775SOL    HW118224   0.842   0.784   0.662
 5775SOL    HW218225   0.874   0.857   0.520
 5776SOL     OW18226   5.033   1.095   5.505
 5776SOL    HW118227   4.941   1.122   5.478
 5776SOL    HW218228   5.028   1.028   5.579
 5777SOL     OW18229   5.938   6.941   4.925
 5777SOL    HW118230   5.928   6.995   5.009
 5777SOL    HW218231   5.865   6.964   4.862
 5778SOL     OW18232   2.868   6.943   3.783
 5778SOL    HW118233   2.879   6.852   3.824
 5778SOL    HW218234   2.959   6.979   3.760
 5779SOL     OW18235   4.097   7.020   1.286
 5779SOL    HW118236   4.010   6.973   1.296
 5779SOL    HW218237   4.089   0.066   1.216
 5780SOL     OW18238   6.206   4.059   0.646
 5780SOL    HW118239   6.250   3.995   0.709
 5780SOL    HW218240   6.271   4.084   0.574
 5781SOL     OW18241   3.415   4.210   5.155
 5781SOL    HW118242   3.474   4.280   5.196
 5781SOL    HW218243   3.401   4.136   5.221
 5782SOL     OW18244   4.274   1.546   3.340
 5782SOL    HW118245   4.232   1.625   3.293
 5782SOL    HW218246   4.203   1.479   3.360
 5783SOL     OW18247   3.041   6.064   2.660
 5783SOL    HW118248   2.991   6.005   2.597
 5783SOL    HW218249   3.071   6.011   2.739
 5784SOL     OW18250   1.431   6.089   0.577
 5784SOL    HW118251   1.413   6.054   0.669
 5784SOL    HW218252   1.347   6.126   0.538
 5785SOL     OW18253   2.375   2.581   6.408
 5785SOL    HW118254   2.294   2.626   6.370
 5785SOL    HW218255   2.348   2.498   6.457
 5786SOL     OW18256   0.747   1.910   5.861
 5786SOL    HW118257   0.785   1.822   5.830
 5786SOL    HW218258   0.708   1.958   5.782
 5787SOL     OW18259   0.605   2.665   4.527
 5787SOL    HW118260   0.680   2.699   4.470
 5787SOL    HW218261   0.623   2.570   4.553
 5788SOL     OW18262   0.386   1.880   1.801
 5788SOL    HW118263   0.314   1.843   1.860
 5788SOL    HW218264   0.364   1.974   1.777
 5789SOL     OW18265   2.707   6.634   0.087
 5789SOL    HW118266   2.639   6.660   0.156
 5789SOL    HW218267   2.680   6.547   0.045
 5790SOL     OW18268   0.068   6.334   2.875
 5790SOL    HW118269   0.058   6.431   2.897
 5790SOL    HW218270   0.139   6.294   2.933
 5791SOL     OW18271   4.158   0.610   0.951
 5791SOL    HW118272   4.059   0.616   0.948
 5791SOL    HW218273   4.192   0.654   1.034
 5792SOL     OW18274   5.095   2.257   2.436
 5792SOL    HW118275   5.020   2.305   2.482
 5792SOL    HW218276   5.180   2.307   2.450
 5793SOL     OW18277   3.856   1.486   0.536
 5793SOL    HW118278   3.896   1.564   0.488
 5793SOL    HW218279   3.756   1.491   0.530
 5794SOL     OW18280   3.175   5.987   6.906
 5794SOL    HW118281   3.172   5.920   6.981
 5794SOL    HW218282   3.249   5.964   6.844
 5795SOL     OW18283   1.105   0.492   0.934
 5795SOL    HW118284   1.006   0.495   0.953
 5795SOL    HW218285   1.141   0.585   0.932
 5796SOL     OW18286   4.763   0.481   5.816
 5796SOL    HW118287   4.800   0.430   5.738
 5796SOL    HW218288   4.827   0.475   5.893
 5797SOL     OW18289   6.707   2.024   0.233
 5797SOL    HW118290   6.687   2.111   0.187
 5797SOL    HW218291   6.746   1.960   0.168
 5798SOL     OW18292   2.029   2.687   4.634
 5798SOL    HW118293   1.958   2.754   4.612
 5798SOL    HW218294   2.000   2.633   4.713
 5799SOL     OW18295   2.852   0.246   3.605
 5799SOL    HW118296   2.821   0.196   3.524
 5799SOL    HW218297   2.801   0.215   3.685
 5800SOL     OW18298   1.239   6.048   1.915
 5800SOL    HW118299   1.308   6.056   1.987
 5800SOL    HW218300   1.165   5.989   1.947
 5801SOL     OW18301   1.490   1.988   2.651
 5801SOL    HW118302   1.521   2.078   2.622
 5801SOL    HW218303   1.411   1.998   2.711
 5802SOL     OW18304   6.713   6.745   2.908
 5802SOL    HW118305   6.786   6.700   2.857
 5802SOL    HW218306   6.746   6.832   2.945
 5803SOL     OW18307   0.629   6.925   4.333
 5803SOL    HW118308   0.640   6.917   4.234
 5803SOL    HW218309   0.612   6.835   4.372
 5804SOL     OW18310   6.154   1.744   3.804
 5804SOL    HW118311   6.159   1.811   3.729
 5804SOL    HW218312   6.061   1.709   3.810
 5805SOL     OW18313   1.154   3.050   1.503
 5805SOL    HW118314   1.161   3.067   1.405
 5805SOL    HW218315   1.180   2.956   1.522
 5806SOL     OW18316   6.588   3.777   2.016
 5806SOL    HW118317   6.593   3.857   2.076
 5806SOL    HW218318   6.678   3.759   1.976
 5807SOL     OW18319   1.738   1.327   1.808
 5807SOL    HW118320   1.797   1.364   1.736
 5807SOL    HW218321   1.755   1.229   1.818
 5808SOL     OW18322   6.702   0.049   5.795
 5808SOL    HW118323   6.643   0.120   5.833
 5808SOL    HW218324   6.650   7.016   5.733
 5809SOL     OW18325   0.222   3.561   4.546
 5809SOL    HW118326   0.268   3.610   4.621
 5809SOL    HW218327   0.127   3.590   4.540
 5810SOL     OW18328   1.284   6.642   5.441
 5810SOL    HW118329   1.244   6.553   5.461
 5810SOL    HW218330   1.262   6.668   5.347
 5811SOL     OW18331   3.618   4.997   0.146
 5811SOL    HW118332   3.647   5.084   0.185
 5811SOL    HW218333   3.527   4.974   0.180
 5812SOL     OW18334   6.648   3.558   6.206
 5812SOL    HW118335   6.614   3.645   6.240
 5812SOL    HW218336   6.748   3.555   6.214
 5813SOL     OW18337   6.154   4.908   1.210
 5813SOL    HW118338   6.062   4.902   1.172
 5813SOL    HW218339   6.215   4.949   1.142
 5814SOL     OW18340   5.306   1.665   2.851
 5814SOL    HW118341   5.277   1.625   2.764
 5814SOL    HW218342   5.234   1.725   2.886
 5815SOL     OW18343   6.028   3.571   4.823
 5815SOL    HW118344   6.123   3.600   4.809
 5815SOL    HW218345   6.025   3.471   4.833
 5816SOL     OW18346   6.708   4.669   0.803
 5816SOL    HW118347   6.700   4.650   0.706
 5816SOL    HW218348   6.617   4.676   0.844
 5817SOL     OW18349   6.468   2.613   4.207
 5817SOL    HW118350   6.508   2.673   4.276
 5817SOL    HW218351   6.456   2.663   4.121
 5818SOL     OW18352   2.518   6.944   3.963
 5818SOL    HW118353   2.419   6.942   3.947
 5818SOL    HW218354   2.535   6.954   4.061
 5819SOL     OW18355   3.902   4.146   0.672
 5819SOL    HW118356   3.951   4.058   0.671
 5819SOL    HW218357   3.943   4.207   0.605
 5820SOL     OW18358   0.520   6.738   2.607
 5820SOL    HW118359   0.489   6.645   2.588
 5820SOL    HW218360   0.543   6.784   2.521
 5821SOL     OW18361   6.537   6.591   2.394
 5821SOL    HW118362   6.532   6.540   2.479
 5821SOL    HW218363   6.452   6.643   2.382
 5822SOL     OW18364   0.670   4.479   2.891
 5822SOL    HW118365   0.729   4.523   2.959
 5822SOL    HW218366   0.604   4.421   2.938
 5823SOL     OW18367   2.748   6.196   4.923
 5823SOL    HW118368   2.774   6.125   4.857
 5823SOL    HW218369   2.699   6.269   4.876
 5824SOL     OW18370   2.214   5.459   2.402
 5824SOL    HW118371   2.159   5.439   2.484
 5824SOL    HW218372   2.305   5.418   2.413
 5825SOL     OW18373   4.121   2.041   4.833
 5825SOL    HW118374   4.036   2.055   4.883
 5825SOL    HW218375   4.148   1.945   4.840
 5826SOL     OW18376   1.381   6.474   5.163
 5826SOL    HW118377   1.283   6.494   5.158
 5826SOL    HW218378   1.433   6.558   5.145
 5827SOL     OW18379   1.975   3.750   2.955
 5827SOL    HW118380   2.042   3.731   2.883
 5827SOL    HW218381   2.022   3.785   3.036
 5828SOL     OW18382   4.402   6.957   4.990
 5828SOL    HW118383   4.417   6.858   4.983
 5828SOL    HW218384   4.438   6.990   5.077
 5829SOL     OW18385   2.140   0.971   2.969
 5829SOL    HW118386   2.153   0.880   2.929
 5829SOL    HW218387   2.186   0.975   3.058
 5830SOL     OW18388   4.412   5.268   4.561
 5830SOL    HW118389   4.345   5.287   4.490
 5830SOL    HW218390   4.442   5.353   4.603
 5831SOL     OW18391   1.994   1.612   4.587
 5831SOL    HW118392   1.902   1.587   4.617
 5831SOL    HW218393   2.002   1.711   4.583
 5832SOL     OW18394   2.008   5.005   3.865
 5832SOL    HW118395   2.064   5.033   3.787
 5832SOL    HW218396   2.032   5.062   3.944
 5833SOL     OW18397   2.782   4.866   1.199
 5833SOL    HW118398   2.804   4.872   1.296
 5833SOL    HW218399   2.693   4.907   1.182
 5834SOL     OW18400   5.656   1.965   6.011
 5834SOL    HW118401   5.597   1.893   6.046
 5834SOL    HW218402   5.712   2.002   6.086
 5835SOL     OW18403   4.335   1.213   3.915
 5835SOL    HW118404   4.299   1.255   3.832
 5835SOL    HW218405   4.330   1.113   3.906
 5836SOL     OW18406   5.073   4.840   1.290
 5836SOL    HW118407   4.979   4.810   1.302
 5836SOL    HW218408   5.100   4.899   1.366
 5837SOL     OW18409   2.647   4.587   0.276
 5837SOL    HW118410   2.700   4.652   0.222
 5837SOL    HW218411   2.671   4.494   0.251
 5838SOL     OW18412   2.944   3.017   0.463
 5838SOL    HW118413   2.935   2.919   0.445
 5838SOL    HW218414   3.039   3.044   0.447
 5839SOL     OW18415   2.447   1.502   1.483
 5839SOL    HW118416   2.414   1.438   1.552
 5839SOL    HW218417   2.386   1.581   1.478
 5840SOL     OW18418   6.874   3.947   2.728
 5840SOL    HW118419   6.958   3.998   2.749
 5840SOL    HW218420   6.821   3.935   2.812
 5841SOL     OW18421   5.150   2.097   0.675
 5841SOL    HW118422   5.096   2.121   0.756
 5841SOL    HW218423   5.122   2.007   0.641
 5842SOL     OW18424   3.914   1.977   2.494
 5842SOL    HW118425   3.910   1.879   2.480
 5842SOL    HW218426   3.822   2.016   2.490
 5843SOL     OW18427   3.112   3.488   1.091
 5843SOL    HW118428   3.172   3.418   1.053
 5843SOL    HW218429   3.165   3.548   1.151
 5844SOL     OW18430   0.243   5.332   4.816
 5844SOL    HW118431   0.328   5.360   4.771
 5844SOL    HW218432   0.186   5.281   4.751
 5845SOL     OW18433   2.108   6.202   2.878
 5845SOL    HW118434   2.008   6.199   2.880
 5845SOL    HW218435   2.140   6.274   2.940
 5846SOL     OW18436   0.538   4.538   5.541
 5846SOL    HW118437   0.476   4.616   5.527
 5846SOL    HW218438   0.609   4.564   5.607
 5847SOL     OW18439   1.862   4.295   6.132
 5847SOL    HW118440   1.951   4.320   6.170
 5847SOL    HW218441   1.836   4.204   6.166
 5848SOL     OW18442   2.953   6.173   1.962
 5848SOL    HW118443   2.946   6.197   2.059
 5848SOL    HW218444   2.917   6.247   1.907
 5849SOL     OW18445   2.783   5.903   6.514
 5849SOL    HW118446   2.790   5.949   6.603
 5849SOL    HW218447   2.822   5.811   6.522
 5850SOL     OW18448   5.686   2.207   1.932
 5850SOL    HW118449   5.659   2.111   1.937
 5850SOL    HW218450   5.759   2.225   1.998
 5851SOL     OW18451   1.177   3.314   5.498
 5851SOL    HW118452   1.146   3.266   5.416
 5851SOL    HW218453   1.255   3.373   5.474
 5852SOL     OW18454   4.317   4.884   2.830
 5852SOL    HW118455   4.260   4.843   2.900
 5852SOL    HW218456   4.273   4.875   2.741
 5853SOL     OW18457   4.035   5.156   0.043
 5853SOL    HW118458   3.967   5.091   0.008
 5853SOL    HW218459   4.122   5.139   7.022
 5854SOL     OW18460   2.764   4.591   5.415
 5854SOL    HW118461   2.838   4.560   5.475
 5854SOL    HW218462   2.796   4.591   5.320
 5855SOL     OW18463   1.760   2.096   4.838
 5855SOL    HW118464   1.754   2.179   4.783
 5855SOL    HW218465   1.818   2.112   4.918
 5856SOL     OW18466   0.614   0.617   2.485
 5856SOL    HW118467   0.618   0.581   2.392
 5856SOL    HW218468   0.704   0.610   2.528
 5857SOL     OW18469   5.793   5.360   6.842
 5857SOL    HW118470   5.862   5.370   6.771
 5857SOL    HW218471   5.795   5.267   6.879
 5858SOL     OW18472   2.927   1.358   2.630
 5858SOL    HW118473   2.980   1.387   2.710
 5858SOL    HW218474   2.863   1.431   2.604
 5859SOL     OW18475   5.637   5.009   1.801
 5859SOL    HW118476   5.680   5.087   1.845
 5859SOL    HW218477   5.705   4.937   1.788
 5860SOL     OW18478   1.777   3.497   2.177
 5860SOL    HW118479   1.871   3.498   2.212
 5860SOL    HW218480   1.759   3.409   2.134
 5861SOL     OW18481   5.496   6.957   5.152
 5861SOL    HW118482   5.441   6.875   5.138
 5861SOL    HW218483   5.589   6.931   5.176
 5862SOL     OW18484   6.904   4.941   2.229
 5862SOL    HW118485   6.862   4.868   2.284
 5862SOL    HW218486   6.872   4.935   2.135
 5863SOL     OW18487   3.815   0.174   5.865
 5863SOL    HW118488   3.834   0.082   5.898
 5863SOL    HW218489   3.901   0.217   5.836
 5864SOL     OW18490   3.668   3.541   3.482
 5864SOL    HW118491   3.600   3.614   3.481
 5864SOL    HW218492   3.757   3.580   3.507
 5865SOL     OW18493   5.834   6.449   1.511
 5865SOL    HW118494   5.842   6.531   1.454
 5865SOL    HW218495   5.743   6.444   1.550
 5866SOL     OW18496   3.268   3.804   4.011
 5866SOL    HW118497   3.197   3.764   3.953
 5866SOL    HW218498   3.298   3.737   4.079
 5867SOL     OW18499   4.558   1.449   0.638
 5867SOL    HW118500   4.470   1.473   0.678
 5867SOL    HW218501   4.611   1.395   0.703
 5868SOL     OW18502   1.054   1.089   0.992
 5868SOL    HW118503   1.048   1.095   0.892
 5868SOL    HW218504   1.001   1.163   1.033
 5869SOL     OW18505   2.196   5.282   3.025
 5869SOL    HW118506   2.178   5.380   3.024
 5869SOL    HW218507   2.280   5.264   3.077
 5870SOL     OW18508   4.217   6.705   4.498
 5870SOL    HW118509   4.298   6.738   4.547
 5870SOL    HW218510   4.244   6.671   4.408
 5871SOL     OW18511   4.014   3.482   3.528
 5871SOL    HW118512   4.025   3.402   3.588
 5871SOL    HW218513   4.026   3.454   3.433
 5872SOL     OW18514   3.176   5.753   1.148
 5872SOL    HW118515   3.185   5.796   1.059
 5872SOL    HW218516   3.195   5.820   1.220
 5873SOL     OW18517   4.342   6.287   1.982
 5873SOL    HW118518   4.309   6.334   1.900
 5873SOL    HW218519   4.294   6.321   2.063
 5874SOL     OW18520   6.792   4.308   4.918
 5874SOL    HW118521   6.692   4.313   4.914
 5874SOL    HW218522   6.825   4.247   4.845
 5875SOL     OW18523   3.916   2.411   1.079
 5875SOL    HW118524   3.844   2.405   1.148
 5875SOL    HW218525   4.006   2.403   1.123
 5876SOL     OW18526   3.399   2.999   2.648
 5876SOL    HW118527   3.438   3.078   2.600
 5876SOL    HW218528   3.307   2.982   2.613
 5877SOL     OW18529   5.449   4.202   1.717
 5877SOL    HW118530   5.369   4.158   1.757
 5877SOL    HW218531   5.439   4.302   1.725
 5878SOL     OW18532   1.132   3.549   2.155
 5878SOL    HW118533   1.179   3.635   2.175
 5878SOL    HW218534   1.044   3.548   2.203
 5879SOL     OW18535   2.144   4.416   4.414
 5879SOL    HW118536   2.096   4.461   4.489
 5879SOL    HW218537   2.233   4.384   4.446
 5880SOL     OW18538   2.970   5.321   6.173
 5880SOL    HW118539   2.970   5.298   6.271
 5880SOL    HW218540   3.038   5.265   6.126
 5881SOL     OW18541   1.712   6.254   3.880
 5881SOL    HW118542   1.755   6.175   3.923
 5881SOL    HW218543   1.740   6.337   3.928
 5882SOL     OW18544   4.711   0.478   2.745
 5882SOL    HW118545   4.692   0.380   2.751
 5882SOL    HW218546   4.625   0.528   2.737
 5883SOL     OW18547   1.320   2.887   5.116
 5883SOL    HW118548   1.335   2.959   5.048
 5883SOL    HW218549   1.337   2.798   5.074
 5884SOL     OW18550   0.117   1.076   2.621
 5884SOL    HW118551   0.137   1.002   2.685
 5884SOL    HW218552   0.022   1.070   2.591
 5885SOL     OW18553   5.235   6.719   0.541
 5885SOL    HW118554   5.332   6.743   0.545
 5885SOL    HW218555   5.183   6.781   0.600
 5886SOL     OW18556   5.968   1.410   6.407
 5886SOL    HW118557   5.904   1.487   6.399
 5886SOL    HW218558   6.024   1.422   6.490
 5887SOL     OW18559   3.879   6.167   2.856
 5887SOL    HW118560   3.904   6.108   2.779
 5887SOL    HW218561   3.791   6.139   2.893
 5888SOL     OW18562   6.892   6.391   2.532
 5888SOL    HW118563   6.822   6.361   2.466
 5888SOL    HW218564   6.938   6.311   2.570
 5889SOL     OW18565   2.999   0.224   6.777
 5889SOL    HW118566   3.017   0.269   6.689
 5889SOL    HW218567   2.935   0.280   6.830
 5890SOL     OW18568   4.020   5.198   6.115
 5890SOL    HW118569   4.083   5.275   6.123
 5890SOL    HW218570   4.058   5.129   6.054
 5891SOL     OW18571   1.350   3.391   5.997
 5891SOL    HW118572   1.316   3.320   6.058
 5891SOL    HW218573   1.373   3.473   6.051
 5892SOL     OW18574   1.980   6.021   2.647
 5892SOL    HW118575   2.022   6.010   2.737
 5892SOL    HW218576   1.961   6.118   2.630
 5893SOL     OW18577   1.679   2.509   2.576
 5893SOL    HW118578   1.653   2.604   2.557
 5893SOL    HW218579   1.699   2.499   2.673
 5894SOL     OW18580   1.431   3.604   4.215
 5894SOL    HW118581   1.448   3.519   4.166
 5894SOL    HW218582   1.480   3.679   4.171
 5895SOL     OW18583   5.550   4.367   2.913
 5895SOL    HW118584   5.633   4.320   2.941
 5895SOL    HW218585   5.470   4.314   2.941
 5896SOL     OW18586   5.144   2.695   5.808
 5896SOL    HW118587   5.215   2.702   5.878
 5896SOL    HW218588   5.159   2.766   5.739
 5897SOL     OW18589   4.182   5.131   0.793
 5897SOL    HW118590   4.194   5.126   0.694
 5897SOL    HW218591   4.093   5.092   0.818
 5898SOL     OW18592   2.755   6.712   3.157
 5898SOL    HW118593   2.812   6.794   3.142
 5898SOL    HW218594   2.778   6.643   3.089
 5899SOL     OW18595   5.001   0.751   3.881
 5899SOL    HW118596   4.991   0.851   3.877
 5899SOL    HW218597   4.925   0.708   3.832
 5900SOL     OW18598   3.761   5.105   1.994
 5900SOL    HW118599   3.710   5.028   2.033
 5900SOL    HW218600   3.799   5.079   1.905
 5901SOL     OW18601   2.792   6.131   4.364
 5901SOL    HW118602   2.692   6.137   4.367
 5901SOL    HW218603   2.818   6.041   4.328
 5902SOL     OW18604   6.182   2.546   0.276
 5902SOL    HW118605   6.251   2.474   0.279
 5902SOL    HW218606   6.191   2.603   0.358
 5903SOL     OW18607   0.289   2.582   6.099
 5903SOL    HW118608   0.243   2.574   6.187
 5903SOL    HW218609   0.322   2.491   6.071
 5904SOL     OW18610   1.886   2.898   2.096
 5904SOL    HW118611   1.913   2.873   2.004
 5904SOL    HW218612   1.786   2.907   2.101
 5905SOL     OW18613   0.293   4.436   2.200
 5905SOL    HW118614   0.224   4.407   2.266
 5905SOL    HW218615   0.384   4.409   2.232
 5906SOL     OW18616   0.126   0.310   2.969
 5906SOL    HW118617   0.208   0.289   3.022
 5906SOL    HW218618   0.091   0.400   2.996
 5907SOL     OW18619   2.481   0.556   2.973
 5907SOL    HW118620   2.383   0.543   2.987
 5907SOL    HW218621   2.498   0.588   2.880
 5908SOL     OW18622   0.567   2.631   5.821
 5908SOL    HW118623   0.632   2.564   5.857
 5908SOL    HW218624   0.600   2.665   5.733
 5909SOL     OW18625   6.042   4.747   6.918
 5909SOL    HW118626   6.058   4.650   6.939
 5909SOL    HW218627   6.102   4.775   6.843
 5910SOL     OW18628   1.189   1.493   3.732
 5910SOL    HW118629   1.152   1.538   3.650
 5910SOL    HW218630   1.116   1.486   3.801
 5911SOL     OW18631   6.619   5.928   6.966
 5911SOL    HW118632   6.675   5.994   6.917
 5911SOL    HW218633   6.530   5.969   6.988
 5912SOL     OW18634   0.651   0.576   3.515
 5912SOL    HW118635   0.681   0.602   3.607
 5912SOL    HW218636   0.704   0.628   3.448
 5913SOL     OW18637   6.844   2.559   1.118
 5913SOL    HW118638   6.838   2.560   1.217
 5913SOL    HW218639   6.756   2.586   1.078
 5914SOL     OW18640   0.911   6.850   0.996
 5914SOL    HW118641   0.834   6.902   0.961
 5914SOL    HW218642   0.883   6.755   1.010
 5915SOL     OW18643   4.108   0.697   5.394
 5915SOL    HW118644   4.128   0.604   5.425
 5915SOL    HW218645   4.025   0.730   5.438
 5916SOL     OW18646   1.320   0.396   2.370
 5916SOL    HW118647   1.353   0.369   2.279
 5916SOL    HW218648   1.306   0.495   2.371
 5917SOL     OW18649   2.878   2.677   0.435
 5917SOL    HW118650   2.882   2.578   0.426
 5917SOL    HW218651   2.789   2.710   0.402
 5918SOL     OW18652   3.302   6.853   3.853
 5918SOL    HW118653   3.340   6.840   3.944
 5918SOL    HW218654   3.375   6.876   3.789
 5919SOL     OW18655   2.895   3.579   4.379
 5919SOL    HW118656   2.879   3.674   4.353
 5919SOL    HW218657   2.912   3.524   4.297
 5920SOL     OW18658   0.949   0.724   5.824
 5920SOL    HW118659   0.982   0.751   5.734
 5920SOL    HW218660   0.877   0.655   5.814
 5921SOL     OW18661   2.667   5.127   0.232
 5921SOL    HW118662   2.656   5.037   0.274
 5921SOL    HW218663   2.764   5.154   0.236
 5922SOL     OW18664   5.153   2.008   2.531
 5922SOL    HW118665   5.245   1.981   2.501
 5922SOL    HW218666   5.123   2.088   2.479
 5923SOL     OW18667   6.201   0.808   2.708
 5923SOL    HW118668   6.249   0.817   2.796
 5923SOL    HW218669   6.104   0.824   2.722
 5924SOL     OW18670   6.703   6.574   3.450
 5924SOL    HW118671   6.613   6.617   3.450
 5924SOL    HW218672   6.693   6.477   3.472
 5925SOL     OW18673   4.914   0.906   0.628
 5925SOL    HW118674   4.856   0.825   0.627
 5925SOL    HW218675   4.928   0.935   0.723
 5926SOL     OW18676   5.574   3.156   3.300
 5926SOL    HW118677   5.556   3.061   3.327
 5926SOL    HW218678   5.673   3.174   3.307
 5927SOL     OW18679   0.523   6.305   1.458
 5927SOL    HW118680   0.593   6.234   1.466
 5927SOL    HW218681   0.513   6.353   1.545
 5928SOL     OW18682   3.129   0.405   0.049
 5928SOL    HW118683   3.217   0.381   0.008
 5928SOL    HW218684   3.059   0.406   7.003
 5929SOL     OW18685   1.351   0.964   0.956
 5929SOL    HW118686   1.427   1.005   0.905
 5929SOL    HW218687   1.297   1.037   0.999
 5930SOL     OW18688   0.975   4.277   2.066
 5930SOL    HW118689   0.876   4.267   2.064
 5930SOL    HW218690   1.018   4.187   2.081
 5931SOL     OW18691   4.482   5.983   3.789
 5931SOL    HW118692   4.435   6.054   3.736
 5931SOL    HW218693   4.575   6.014   3.810
 5932SOL     OW18694   3.588   6.609   0.382
 5932SOL    HW118695   3.563   6.624   0.286
 5932SOL    HW218696   3.645   6.684   0.414
 5933SOL     OW18697   6.602   5.715   4.367
 5933SOL    HW118698   6.699   5.727   4.343
 5933SOL    HW218699   6.591   5.631   4.419
 5934SOL     OW18700   3.085   3.726   0.140
 5934SOL    HW118701   3.174   3.733   0.186
 5934SOL    HW218702   3.013   3.716   0.208
 5935SOL     OW18703   0.963   0.210   5.545
 5935SOL    HW118704   0.965   0.211   5.645
 5935SOL    HW218705   1.057   0.200   5.511
 5936SOL     OW18706   3.648   3.059   2.350
 5936SOL    HW118707   3.600   2.987   2.300
 5936SOL    HW218708   3.598   3.145   2.341
 5937SOL     OW18709   0.657   3.121   0.285
 5937SOL    HW118710   0.572   3.084   0.322
 5937SOL    HW218711   0.696   3.056   0.220
 5938SOL     OW18712   0.739   3.798   4.136
 5938SOL    HW118713   0.812   3.823   4.199
 5938SOL    HW218714   0.749   3.702   4.110
 5939SOL     OW18715   4.528   1.170   5.608
 5939SOL    HW118716   4.494   1.077   5.602
 5939SOL    HW218717   4.572   1.184   5.697
 5940SOL     OW18718   5.095   4.739   1.960
 5940SOL    HW118719   5.059   4.830   1.983
 5940SOL    HW218720   5.139   4.699   2.040
 5941SOL     OW18721   0.535   1.921   3.464
 5941SOL    HW118722   0.504   1.827   3.448
 5941SOL    HW218723   0.459   1.984   3.447
 5942SOL     OW18724   5.006   2.544   6.402
 5942SOL    HW118725   4.992   2.538   6.500
 5942SOL    HW218726   4.950   2.476   6.355
 5943SOL     OW18727   1.709   4.716   1.183
 5943SOL    HW118728   1.679   4.624   1.208
 5943SOL    HW218729   1.632   4.768   1.147
 5944SOL     OW18730   6.285   3.799   5.890
 5944SOL    HW118731   6.381   3.777   5.906
 5944SOL    HW218732   6.267   3.892   5.920
 5945SOL     OW18733   6.512   6.533   4.291
 5945SOL    HW118734   6.556   6.551   4.203
 5945SOL    HW218735   6.552   6.591   4.361
 5946SOL     OW18736   2.081   3.271   6.976
 5946SOL    HW118737   2.102   3.190   6.920
 5946SOL    HW218738   1.982   3.284   6.981
 5947SOL     OW18739   3.776   3.239   4.575
 5947SOL    HW118740   3.681   3.216   4.595
 5947SOL    HW218741   3.837   3.178   4.625
 5948SOL     OW18742   4.994   3.880   1.848
 5948SOL    HW118743   5.029   3.794   1.809
 5948SOL    HW218744   4.922   3.917   1.789
 5949SOL     OW18745   1.296   4.263   3.409
 5949SOL    HW118746   1.307   4.360   3.384
 5949SOL    HW218747   1.236   4.219   3.343
 5950SOL     OW18748   2.782   6.559   4.549
 5950SOL    HW118749   2.729   6.631   4.504
 5950SOL    HW218750   2.837   6.599   4.622
 5951SOL     OW18751   6.806   3.121   6.347
 5951SOL    HW118752   6.774   3.046   6.289
 5951SOL    HW218753   6.752   3.203   6.329
 5952SOL     OW18754   3.851   4.016   1.771
 5952SOL    HW118755   3.815   3.923   1.765
 5952SOL    HW218756   3.796   4.077   1.714
 5953SOL     OW18757   6.597   3.303   6.267
 5953SOL    HW118758   6.554   3.259   6.188
 5953SOL    HW218759   6.625   3.396   6.243
 5954SOL     OW18760   2.056   5.119   3.605
 5954SOL    HW118761   2.073   5.162   3.516
 5954SOL    HW218762   1.967   5.147   3.639
 5955SOL     OW18763   3.862   3.031   0.176
 5955SOL    HW118764   3.785   3.028   0.238
 5955SOL    HW218765   3.867   2.946   0.124
 5956SOL     OW18766   4.490   2.721   6.016
 5956SOL    HW118767   4.576   2.769   5.994
 5956SOL    HW218768   4.505   2.622   6.014
 5957SOL     OW18769   6.212   2.227   3.613
 5957SOL    HW118770   6.303   2.189   3.629
 5957SOL    HW218771   6.211   2.324   3.637
 5958SOL     OW18772   2.467   6.256   2.877
 5958SOL    HW118773   2.478   6.251   2.976
 5958SOL    HW218774   2.450   6.351   2.850
 5959SOL     OW18775   5.424   3.662   3.220
 5959SOL    HW118776   5.466   3.571   3.214
 5959SOL    HW218777   5.354   3.662   3.291
 5960SOL     OW18778   5.868   0.364   6.432
 5960SOL    HW118779   5.770   0.344   6.437
 5960SOL    HW218780   5.884   0.456   6.468
 5961SOL     OW18781   3.218   2.151   4.106
 5961SOL    HW118782   3.314   2.151   4.135
 5961SOL    HW218783   3.213   2.136   4.007
 5962SOL     OW18784   4.596   4.544   0.242
 5962SOL    HW118785   4.544   4.474   0.193
 5962SOL    HW218786   4.544   4.573   0.322
 5963SOL     OW18787   1.585   4.115   0.695
 5963SOL    HW118788   1.633   4.177   0.633
 5963SOL    HW218789   1.618   4.022   0.681
 5964SOL     OW18790   1.967   0.214   3.064
 5964SOL    HW118791   1.879   0.167   3.060
 5964SOL    HW218792   1.970   0.272   3.145
 5965SOL     OW18793   2.386   0.510   0.879
 5965SOL    HW118794   2.409   0.506   0.977
 5965SOL    HW218795   2.441   0.442   0.830
 5966SOL     OW18796   2.466   2.119   4.875
 5966SOL    HW118797   2.496   2.193   4.934
 5966SOL    HW218798   2.511   2.127   4.786
 5967SOL     OW18799   4.454   2.305   5.485
 5967SOL    HW118800   4.484   2.212   5.504
 5967SOL    HW218801   4.530   2.368   5.500
 5968SOL     OW18802   6.254   2.031   2.945
 5968SOL    HW118803   6.236   1.979   3.028
 5968SOL    HW218804   6.333   1.992   2.898
 5969SOL     OW18805   5.153   6.920   1.185
 5969SOL    HW118806   5.139   6.829   1.145
 5969SOL    HW218807   5.138   6.990   1.116
 5970SOL     OW18808   6.584   2.523   0.279
 5970SOL    HW118809   6.540   2.465   0.348
 5970SOL    HW218810   6.669   2.560   0.315
 5971SOL     OW18811   6.706   5.323   3.373
 5971SOL    HW118812   6.760   5.258   3.319
 5971SOL    HW218813   6.639   5.273   3.429
 5972SOL     OW18814   5.911   4.849   1.089
 5972SOL    HW118815   5.837   4.905   1.053
 5972SOL    HW218816   5.883   4.810   1.177
 5973SOL     OW18817   3.213   0.985   2.518
 5973SOL    HW118818   3.254   1.075   2.503
 5973SOL    HW218819   3.258   0.941   2.595
 5974SOL     OW18820   5.988   0.991   4.962
 5974SOL    HW118821   5.931   0.911   4.944
 5974SOL    HW218822   5.987   1.052   4.883
 5975SOL     OW18823   4.525   5.149   1.375
 5975SOL    HW118824   4.550   5.188   1.464
 5975SOL    HW218825   4.434   5.107   1.381
 5976SOL     OW18826   1.203   4.034   5.290
 5976SOL    HW118827   1.244   3.983   5.214
 5976SOL    HW218828   1.275   4.061   5.354
 5977SOL     OW18829   6.705   5.383   1.204
 5977SOL    HW118830   6.797   5.422   1.212
 5977SOL    HW218831   6.694   5.308   1.269
 5978SOL     OW18832   3.009   3.822   6.118
 5978SOL    HW118833   3.061   3.817   6.204
 5978SOL    HW218834   3.046   3.755   6.053
 5979SOL     OW18835   6.213   6.900   0.968
 5979SOL    HW118836   6.280   6.914   0.895
 5979SOL    HW218837   6.255   6.847   1.042
 5980SOL     OW18838   3.094   2.807   0.671
 5980SOL    HW118839   3.157   2.874   0.632
 5980SOL    HW218840   3.080   2.732   0.607
 5981SOL     OW18841   3.117   2.607   1.229
 5981SOL    HW118842   3.194   2.605   1.293
 5981SOL    HW218843   3.032   2.594   1.280
 5982SOL     OW18844   5.044   2.535   1.272
 5982SOL    HW118845   5.109   2.496   1.207
 5982SOL    HW218846   5.093   2.591   1.339
 5983SOL     OW18847   6.684   1.448   3.302
 5983SOL    HW118848   6.702   1.495   3.388
 5983SOL    HW218849   6.730   1.496   3.227
 5984SOL     OW18850   6.021   6.134   2.907
 5984SOL    HW118851   5.999   6.158   2.813
 5984SOL    HW218852   6.035   6.218   2.960
 5985SOL     OW18853   0.068   4.157   2.523
 5985SOL    HW118854   0.114   4.070   2.505
 5985SOL    HW218855   0.108   4.199   2.604
 5986SOL     OW18856   3.893   3.496   2.987
 5986SOL    HW118857   3.856   3.581   3.024
 5986SOL    HW218858   3.981   3.515   2.943
 5987SOL     OW18859   6.799   6.052   4.331
 5987SOL    HW118860   6.842   5.967   4.300
 5987SOL    HW218861   6.861   6.100   4.393
 5988SOL     OW18862   1.152   2.854   0.349
 5988SOL    HW118863   1.139   2.935   0.405
 5988SOL    HW218864   1.063   2.812   0.330
 5989SOL     OW18865   1.911   6.863   5.784
 5989SOL    HW118866   1.838   6.798   5.805
 5989SOL    HW218867   1.873   6.940   5.732
 5990SOL     OW18868   2.477   3.963   1.716
 5990SOL    HW118869   2.510   4.007   1.632
 5990SOL    HW218870   2.420   4.027   1.767
 5991SOL     OW18871   5.657   1.468   0.648
 5991SOL    HW118872   5.708   1.383   0.661
 5991SOL    HW218873   5.690   1.536   0.714
 5992SOL     OW18874   2.473   4.930   3.428
 5992SOL    HW118875   2.426   5.017   3.425
 5992SOL    HW218876   2.426   4.868   3.491
 5993SOL     OW18877   5.452   2.163   0.705
 5993SOL    HW118878   5.354   2.143   0.699
 5993SOL    HW218879   5.468   2.259   0.681
 5994SOL     OW18880   0.094   3.730   0.256
 5994SOL    HW118881   0.041   3.652   0.288
 5994SOL    HW218882   0.085   3.738   0.157
 5995SOL     OW18883   5.329   3.300   1.376
 5995SOL    HW118884   5.351   3.230   1.444
 5995SOL    HW218885   5.386   3.286   1.295
 5996SOL     OW18886   3.013   0.142   2.124
 5996SOL    HW118887   2.942   0.136   2.055
 5996SOL    HW218888   3.083   0.073   2.106
 5997SOL     OW18889   6.294   0.484   4.164
 5997SOL    HW118890   6.298   0.499   4.065
 5997SOL    HW218891   6.254   0.564   4.208
 5998SOL     OW18892   6.155   6.045   6.502
 5998SOL    HW118893   6.235   6.106   6.497
 5998SOL    HW218894   6.091   6.080   6.570
 5999SOL     OW18895   5.278   3.542   1.272
 5999SOL    HW118896   5.368   3.532   1.229
 5999SOL    HW218897   5.259   3.462   1.328
 6000SOL     OW18898   0.877   4.896   1.232
 6000SOL    HW118899   0.874   4.995   1.250
 6000SOL    HW218900   0.898   4.881   1.136
 6001SOL     OW18901   6.771   5.714   4.836
 6001SOL    HW118902   6.816   5.799   4.866
 6001SOL    HW218903   6.833   5.663   4.777
 6002SOL     OW18904   5.497   4.710   4.836
 6002SOL    HW118905   5.528   4.758   4.754
 6002SOL    HW218906   5.448   4.774   4.895
 6003SOL     OW18907   2.705   2.155   5.334
 6003SOL    HW118908   2.691   2.093   5.257
 6003SOL    HW218909   2.761   2.233   5.306
 6004SOL     OW18910   5.277   3.446   5.019
 6004SOL    HW118911   5.314   3.470   4.929
 6004SOL    HW218912   5.315   3.507   5.088
 6005SOL     OW18913   3.992   4.095   0.253
 6005SOL    HW118914   4.083   4.057   0.233
 6005SOL    HW218915   3.945   4.036   0.319
 6006SOL     OW18916   3.383   6.324   6.763
 6006SOL    HW118917   3.295   6.276   6.761
 6006SOL    HW218918   3.399   6.361   6.855
 6007SOL     OW18919   2.834   6.595   4.987
 6007SOL    HW118920   2.837   6.635   4.895
 6007SOL    HW218921   2.747   6.616   5.030
 6008SOL     OW18922   1.941   4.187   6.526
 6008SOL    HW118923   2.025   4.147   6.491
 6008SOL    HW218924   1.904   4.251   6.459
 6009SOL     OW18925   3.285   5.666   3.016
 6009SOL    HW118926   3.223   5.594   2.985
 6009SOL    HW218927   3.304   5.654   3.114
 6010SOL     OW18928   0.216   4.668   4.938
 6010SOL    HW118929   0.267   4.671   4.852
 6010SOL    HW218930   0.122   4.699   4.922
 6011SOL     OW18931   5.238   1.808   3.312
 6011SOL    HW118932   5.259   1.717   3.275
 6011SOL    HW218933   5.225   1.802   3.411
 6012SOL     OW18934   6.432   1.236   6.104
 6012SOL    HW118935   6.358   1.206   6.164
 6012SOL    HW218936   6.395   1.296   6.033
 6013SOL     OW18937   5.491   1.313   2.513
 6013SOL    HW118938   5.581   1.276   2.490
 6013SOL    HW218939   5.491   1.345   2.608
 6014SOL     OW18940   3.547   3.583   3.968
 6014SOL    HW118941   3.514   3.630   4.050
 6014SOL    HW218942   3.616   3.515   3.994
 6015SOL     OW18943   6.144   6.841   4.113
 6015SOL    HW118944   6.109   6.850   4.019
 6015SOL    HW218945   6.198   6.921   4.136
 6016SOL     OW18946   4.404   2.090   4.945
 6016SOL    HW118947   4.403   2.171   4.885
 6016SOL    HW218948   4.357   2.014   4.899
 6017SOL     OW18949   1.397   1.797   5.180
 6017SOL    HW118950   1.364   1.881   5.225
 6017SOL    HW218951   1.386   1.720   5.243
 6018SOL     OW18952   2.941   1.635   3.726
 6018SOL    HW118953   3.005   1.650   3.802
 6018SOL    HW218954   2.888   1.552   3.744
 6019SOL     OW18955   6.783   4.492   6.347
 6019SOL    HW118956   6.849   4.513   6.275
 6019SOL    HW218957   6.743   4.403   6.330
 6020SOL     OW18958   0.459   5.460   5.438
 6020SOL    HW118959   0.409   5.485   5.355
 6020SOL    HW218960   0.548   5.505   5.438
 6021SOL     OW18961   5.616   0.658   3.349
 6021SOL    HW118962   5.695   0.596   3.354
 6021SOL    HW218963   5.579   0.672   3.441
 6022SOL     OW18964   6.590   2.750   1.697
 6022SOL    HW118965   6.556   2.842   1.716
 6022SOL    HW218966   6.524   2.682   1.729
 6023SOL     OW18967   4.586   6.584   2.466
 6023SOL    HW118968   4.532   6.667   2.453
 6023SOL    HW218969   4.606   6.572   2.563
 6024SOL     OW18970   0.370   5.814   6.644
 6024SOL    HW118971   0.466   5.840   6.660
 6024SOL    HW218972   0.359   5.717   6.662
 6025SOL     OW18973   3.235   0.835   5.578
 6025SOL    HW118974   3.205   0.839   5.673
 6025SOL    HW218975   3.199   0.914   5.528
 6026SOL     OW18976   5.642   5.619   3.414
 6026SOL    HW118977   5.739   5.629   3.439
 6026SOL    HW218978   5.611   5.702   3.369
 6027SOL     OW18979   5.980   4.985   6.230
 6027SOL    HW118980   5.959   4.912   6.296
 6027SOL    HW218981   5.911   5.057   6.238
 6028SOL     OW18982   5.949   6.097   6.026
 6028SOL    HW118983   5.874   6.103   5.961
 6028SOL    HW218984   5.953   6.004   6.064
 6029SOL     OW18985   3.037   1.924   2.683
 6029SOL    HW118986   3.130   1.888   2.692
 6029SOL    HW218987   2.985   1.866   2.620
 6030SOL     OW18988   6.012   3.284   4.913
 6030SOL    HW118989   6.092   3.311   4.967
 6030SOL    HW218990   5.994   3.187   4.925
 6031SOL     OW18991   6.903   6.516   4.380
 6031SOL    HW118992   6.818   6.471   4.408
 6031SOL    HW218993   6.928   6.485   4.288
 6032SOL     OW18994   3.318   6.927   3.144
 6032SOL    HW118995   3.354   6.837   3.168
 6032SOL    HW218996   3.300   6.979   3.228
 6033SOL     OW18997   0.916   1.569   2.569
 6033SOL    HW118998   0.869   1.547   2.484
 6033SOL    HW218999   0.950   1.663   2.565
 6034SOL     OW19000   0.631   0.318   0.228
 6034SOL    HW119001   0.639   0.219   0.240
 6034SOL    HW219002   0.649   0.364   0.315
 6035SOL     OW19003   2.364   0.381   2.612
 6035SOL    HW119004   2.384   0.310   2.544
 6035SOL    HW219005   2.269   0.374   2.641
 6036SOL     OW19006   6.422   3.045   0.687
 6036SOL    HW119007   6.375   3.094   0.760
 6036SOL    HW219008   6.488   2.982   0.727
 6037SOL     OW19009   4.712   0.745   5.762
 6037SOL    HW119010   4.638   0.778   5.822
 6037SOL    HW219011   4.727   0.648   5.779
 6038SOL     OW19012   1.774   1.098   6.075
 6038SOL    HW119013   1.693   1.064   6.124
 6038SOL    HW219014   1.826   1.159   6.135
 6039SOL     OW19015   4.074   3.263   3.725
 6039SOL    HW119016   4.070   3.299   3.819
 6039SOL    HW219017   4.033   3.171   3.723
 6040SOL     OW19018   0.747   2.074   0.557
 6040SOL    HW119019   0.695   2.081   0.472
 6040SOL    HW219020   0.732   2.156   0.613
 6041SOL     OW19021   0.574   3.035   4.874
 6041SOL    HW119022   0.672   3.037   4.893
 6041SOL    HW219023   0.547   2.942   4.851
 6042SOL     OW19024   2.696   5.816   3.668
 6042SOL    HW119025   2.760   5.879   3.624
 6042SOL    HW219026   2.728   5.795   3.760
 6043SOL     OW19027   2.070   6.564   2.268
 6043SOL    HW119028   2.093   6.530   2.359
 6043SOL    HW219029   2.112   6.654   2.254
 6044SOL     OW19030   0.172   3.059   0.589
 6044SOL    HW119031   0.104   3.033   0.520
 6044SOL    HW219032   0.143   3.026   0.679
 6045SOL     OW19033   5.142   1.063   3.980
 6045SOL    HW119034   5.199   1.006   4.039
 6045SOL    HW219035   5.200   1.109   3.913
 6046SOL     OW19036   3.643   3.502   2.637
 6046SOL    HW119037   3.650   3.560   2.556
 6046SOL    HW219038   3.678   3.551   2.717
 6047SOL     OW19039   0.114   1.263   0.177
 6047SOL    HW119040   0.037   1.326   0.165
 6047SOL    HW219041   0.123   1.205   0.096
 6048SOL     OW19042   5.797   5.910   3.084
 6048SOL    HW119043   5.860   5.841   3.046
 6048SOL    HW219044   5.774   5.976   3.013
 6049SOL     OW19045   5.009   4.919   5.962
 6049SOL    HW119046   5.019   4.845   6.029
 6049SOL    HW219047   5.048   4.891   5.875
 6050SOL     OW19048   2.579   5.381   3.053
 6050SOL    HW119049   2.605   5.477   3.045
 6050SOL    HW219050   2.567   5.342   2.961
 6051SOL     OW19051   0.707   1.263   2.292
 6051SOL    HW119052   0.611   1.290   2.302
 6051SOL    HW219053   0.713   1.186   2.229
 6052SOL     OW19054   5.566   5.472   0.336
 6052SOL    HW119055   5.522   5.384   0.355
 6052SOL    HW219056   5.632   5.461   0.261
 6053SOL     OW19057   4.145   2.374   6.400
 6053SOL    HW119058   4.200   2.381   6.483
 6053SOL    HW219059   4.058   2.329   6.421
 6054SOL     OW19060   4.325   3.755   0.663
 6054SOL    HW119061   4.411   3.757   0.713
 6054SOL    HW219062   4.335   3.698   0.582
 6055SOL     OW19063   3.027   4.323   1.332
 6055SOL    HW119064   3.085   4.242   1.320
 6055SOL    HW219065   2.940   4.295   1.373
 6056SOL     OW19066   5.362   5.746   3.294
 6056SOL    HW119067   5.398   5.751   3.387
 6056SOL    HW219068   5.350   5.839   3.258
 6057SOL     OW19069   5.713   1.024   3.731
 6057SOL    HW119070   5.619   1.045   3.760
 6057SOL    HW219071   5.743   1.092   3.664
 6058SOL     OW19072   0.064   2.540   5.941
 6058SOL    HW119073   0.136   2.566   6.005
 6058SOL    HW219074   0.029   2.622   5.895
 6059SOL     OW19075   3.851   2.531   6.880
 6059SOL    HW119076   3.868   2.459   6.813
 6059SOL    HW219077   3.758   2.566   6.868
 6060SOL     OW19078   2.069   2.566   0.566
 6060SOL    HW119079   2.146   2.560   0.629
 6060SOL    HW219080   1.991   2.608   0.612
 6061SOL     OW19081   3.031   4.098   7.009
 6061SOL    HW119082   3.012   4.008   6.969
 6061SOL    HW219083   2.950   4.131   0.033
 6062SOL     OW19084   2.251   2.093   6.115
 6062SOL    HW119085   2.174   2.118   6.055
 6062SOL    HW219086   2.337   2.106   6.066
 6063SOL     OW19087   4.945   3.819   6.131
 6063SOL    HW119088   4.894   3.896   6.095
 6063SOL    HW219089   4.976   3.840   6.224
 6064SOL     OW19090   5.520   6.217   0.651
 6064SOL    HW119091   5.439   6.182   0.603
 6064SOL    HW219092   5.504   6.212   0.749
 6065SOL     OW19093   2.596   6.239   1.510
 6065SOL    HW119094   2.575   6.196   1.598
 6065SOL    HW219095   2.533   6.205   1.440
 6066SOL     OW19096   5.736   5.724   2.358
 6066SOL    HW119097   5.729   5.640   2.412
 6066SOL    HW219098   5.830   5.736   2.326
 6067SOL     OW19099   0.281   5.593   5.663
 6067SOL    HW119100   0.281   5.693   5.664
 6067SOL    HW219101   0.320   5.561   5.577
 6068SOL     OW19102   4.848   1.740   4.620
 6068SOL    HW119103   4.859   1.706   4.713
 6068SOL    HW219104   4.752   1.730   4.592
 6069SOL     OW19105   0.477   4.931   5.864
 6069SOL    HW119106   0.497   4.940   5.767
 6069SOL    HW219107   0.500   4.839   5.895
 6070SOL     OW19108   2.709   1.087   0.717
 6070SOL    HW119109   2.735   1.121   0.808
 6070SOL    HW219110   2.613   1.059   0.718
 6071SOL     OW19111   5.878   0.613   6.193
 6071SOL    HW119112   5.973   0.592   6.170
 6071SOL    HW219113   5.836   0.664   6.118
 6072SOL     OW19114   6.524   2.959   6.937
 6072SOL    HW119115   6.488   2.952   0.005
 6072SOL    HW219116   6.556   3.053   6.921
 6073SOL     OW19117   4.696   3.793   1.064
 6073SOL    HW119118   4.710   3.697   1.039
 6073SOL    HW219119   4.598   3.810   1.079
 6074SOL     OW19120   1.029   6.342   2.721
 6074SOL    HW119121   1.055   6.250   2.692
 6074SOL    HW219122   0.942   6.367   2.678
 6075SOL     OW19123   6.248   0.034   7.003
 6075SOL    HW119124   6.228   0.102   6.933
 6075SOL    HW219125   6.263   6.970   6.960
 6076SOL     OW19126   0.670   6.524   3.757
 6076SOL    HW119127   0.598   6.545   3.691
 6076SOL    HW219128   0.750   6.581   3.738
 6077SOL     OW19129   4.842   5.905   2.802
 6077SOL    HW119130   4.768   5.862   2.751
 6077SOL    HW219131   4.880   5.981   2.749
 6078SOL     OW19132   4.846   4.558   0.866
 6078SOL    HW119133   4.845   4.658   0.869
 6078SOL    HW219134   4.927   4.527   0.816
 6079SOL     OW19135   3.510   2.016   0.292
 6079SOL    HW119136   3.421   1.987   0.256
 6079SOL    HW219137   3.571   1.937   0.298
 6080SOL     OW19138   0.399   3.397   5.464
 6080SOL    HW119139   0.342   3.474   5.492
 6080SOL    HW219140   0.341   3.318   5.444
 6081SOL     OW19141   1.992   4.160   3.937
 6081SOL    HW119142   1.935   4.202   3.866
 6081SOL    HW219143   1.934   4.125   4.010
 6082SOL     OW19144   5.241   1.472   1.385
 6082SOL    HW119145   5.239   1.564   1.346
 6082SOL    HW219146   5.166   1.418   1.347
 6083SOL     OW19147   5.014   6.854   6.366
 6083SOL    HW119148   5.029   6.756   6.377
 6083SOL    HW219149   5.102   6.899   6.348
 6084SOL     OW19150   6.301   5.072   3.161
 6084SOL    HW119151   6.240   4.995   3.176
 6084SOL    HW219152   6.290   5.139   3.235
 6085SOL     OW19153   0.698   6.785   0.528
 6085SOL    HW119154   0.634   6.853   0.564
 6085SOL    HW219155   0.662   6.693   0.542
 6086SOL     OW19156   3.312   3.489   6.955
 6086SOL    HW119157   3.386   3.506   6.889
 6086SOL    HW219158   3.340   3.522   0.020
 6087SOL     OW19159   4.451   6.655   0.721
 6087SOL    HW119160   4.464   6.749   0.751
 6087SOL    HW219161   4.358   6.643   0.686
 6088SOL     OW19162   4.291   6.026   2.417
 6088SOL    HW119163   4.237   6.090   2.362
 6088SOL    HW219164   4.326   6.074   2.498
 6089SOL     OW19165   6.717   3.850   2.934
 6089SOL    HW119166   6.638   3.810   2.887
 6089SOL    HW219167   6.767   3.779   2.983
 6090SOL     OW19168   3.910   5.796   5.373
 6090SOL    HW119169   3.892   5.885   5.333
 6090SOL    HW219170   3.825   5.743   5.377
 6091SOL     OW19171   0.599   1.950   2.344
 6091SOL    HW119172   0.566   1.933   2.437
 6091SOL    HW219173   0.522   1.955   2.281
 6092SOL     OW19174   2.694   0.021   1.274
 6092SOL    HW119175   2.698   6.947   1.289
 6092SOL    HW219176   2.603   0.046   1.241
 6093SOL     OW19177   2.565   2.670   1.763
 6093SOL    HW119178   2.555   2.708   1.671
 6093SOL    HW219179   2.592   2.742   1.826
 6094SOL     OW19180   0.728   6.516   5.535
 6094SOL    HW119181   0.736   6.609   5.499
 6094SOL    HW219182   0.761   6.514   5.630
 6095SOL     OW19183   5.192   5.281   2.352
 6095SOL    HW119184   5.200   5.238   2.442
 6095SOL    HW219185   5.237   5.370   2.353
 6096SOL     OW19186   4.923   6.123   2.685
 6096SOL    HW119187   4.966   6.207   2.720
 6096SOL    HW219188   4.862   6.147   2.609
 6097SOL     OW19189   3.003   5.150   2.481
 6097SOL    HW119190   2.993   5.249   2.498
 6097SOL    HW219191   2.940   5.123   2.408
 6098SOL     OW19192   6.349   0.484   5.340
 6098SOL    HW119193   6.372   0.433   5.423
 6098SOL    HW219194   6.251   0.506   5.341
 6099SOL     OW19195   3.893   0.140   5.570
 6099SOL    HW119196   3.802   0.143   5.612
 6099SOL    HW219197   3.909   0.048   5.533
 6100SOL     OW19198   0.446   5.693   5.132
 6100SOL    HW119199   0.442   5.601   5.171
 6100SOL    HW219200   0.453   5.686   5.032
 6101SOL     OW19201   0.502   2.541   1.981
 6101SOL    HW119202   0.422   2.481   1.972
 6101SOL    HW219203   0.473   2.637   1.970
 6102SOL     OW19204   3.512   0.423   2.875
 6102SOL    HW119205   3.491   0.514   2.910
 6102SOL    HW219206   3.576   0.376   2.936
 6103SOL     OW19207   5.987   0.958   2.464
 6103SOL    HW119208   6.077   0.978   2.425
 6103SOL    HW219209   5.972   1.016   2.544
 6104SOL     OW19210   6.879   1.257   4.472
 6104SOL    HW119211   6.872   1.158   4.484
 6104SOL    HW219212   6.965   1.290   4.512
 6105SOL     OW19213   4.144   4.451   5.648
 6105SOL    HW119214   4.212   4.517   5.680
 6105SOL    HW219215   4.154   4.366   5.700
 6106SOL     OW19216   6.071   4.046   5.104
 6106SOL    HW119217   6.030   4.138   5.101
 6106SOL    HW219218   6.030   3.990   5.032
 6107SOL     OW19219   5.608   4.995   5.399
 6107SOL    HW119220   5.638   4.994   5.495
 6107SOL    HW219221   5.663   4.930   5.347
 6108SOL     OW19222   2.568   1.315   6.223
 6108SOL    HW119223   2.476   1.352   6.215
 6108SOL    HW219224   2.627   1.380   6.271
 6109SOL     OW19225   0.290   6.177   3.882
 6109SOL    HW119226   0.293   6.229   3.797
 6109SOL    HW219227   0.205   6.125   3.887
 6110SOL     OW19228   1.711   0.964   4.210
 6110SOL    HW119229   1.690   0.885   4.152
 6110SOL    HW219230   1.757   1.034   4.155
 6111SOL     OW19231   2.025   3.426   0.521
 6111SOL    HW119232   2.106   3.376   0.491
 6111SOL    HW219233   1.949   3.406   0.460
 6112SOL     OW19234   4.616   6.333   3.778
 6112SOL    HW119235   4.707   6.291   3.786
 6112SOL    HW219236   4.583   6.323   3.684
 6113SOL     OW19237   3.013   5.324   0.417
 6113SOL    HW119238   2.945   5.353   0.484
 6113SOL    HW219239   3.013   5.386   0.339
 6114SOL     OW19240   4.375   2.808   0.836
 6114SOL    HW119241   4.302   2.742   0.820
 6114SOL    HW219242   4.440   2.805   0.760
 6115SOL     OW19243   0.112   0.524   4.922
 6115SOL    HW119244   0.132   0.568   5.010
 6115SOL    HW219245   0.157   0.435   4.918
 6116SOL     OW19246   6.079   3.311   0.453
 6116SOL    HW119247   6.070   3.214   0.476
 6116SOL    HW219248   5.999   3.340   0.401
 6117SOL     OW19249   2.230   2.212   1.565
 6117SOL    HW119250   2.302   2.278   1.588
 6117SOL    HW219251   2.170   2.198   1.644
 6118SOL     OW19252   5.267   0.694   2.061
 6118SOL    HW119253   5.240   0.642   2.142
 6118SOL    HW219254   5.365   0.713   2.064
 6119SOL     OW19255   0.385   1.286   6.759
 6119SOL    HW119256   0.427   1.244   6.678
 6119SOL    HW219257   0.455   1.332   6.813
 6120SOL     OW19258   3.114   0.162   3.964
 6120SOL    HW119259   3.197   0.184   4.015
 6120SOL    HW219260   3.034   0.168   4.024
 6121SOL     OW19261   2.220   1.982   5.294
 6121SOL    HW119262   2.241   1.962   5.198
 6121SOL    HW219263   2.302   2.018   5.339
 6122SOL     OW19264   4.875   4.704   5.210
 6122SOL    HW119265   4.794   4.712   5.152
 6122SOL    HW219266   4.932   4.786   5.199
 6123SOL     OW19267   6.157   1.264   5.060
 6123SOL    HW119268   6.123   1.224   4.975
 6123SOL    HW219269   6.251   1.297   5.046
 6124SOL     OW19270   2.454   5.456   3.865
 6124SOL    HW119271   2.543   5.436   3.826
 6124SOL    HW219272   2.453   5.429   3.961
 6125SOL     OW19273   3.353   1.622   5.761
 6125SOL    HW119274   3.452   1.612   5.747
 6125SOL    HW219275   3.309   1.642   5.673
 6126SOL     OW19276   6.214   3.037   6.625
 6126SOL    HW119277   6.115   3.046   6.619
 6126SOL    HW219278   6.252   3.115   6.674
 6127SOL     OW19279   5.430   1.620   3.121
 6127SOL    HW119280   5.397   1.641   3.028
 6127SOL    HW219281   5.355   1.581   3.174
 6128SOL     OW19282   5.643   5.629   6.681
 6128SOL    HW119283   5.634   5.638   6.781
 6128SOL    HW219284   5.572   5.567   6.648
 6129SOL     OW19285   3.007   5.857   2.858
 6129SOL    HW119286   2.959   5.933   2.902
 6129SOL    HW219287   3.029   5.787   2.927
 6130SOL     OW19288   5.801   2.998   0.005
 6130SOL    HW119289   5.873   3.065   7.017
 6130SOL    HW219290   5.764   2.970   6.942
 6131SOL     OW19291   6.739   2.128   3.271
 6131SOL    HW119292   6.687   2.204   3.309
 6131SOL    HW219293   6.748   2.139   3.172
 6132SOL     OW19294   4.284   6.543   6.283
 6132SOL    HW119295   4.359   6.526   6.219
 6132SOL    HW219296   4.321   6.577   6.369
 6133SOL     OW19297   1.025   2.061   2.852
 6133SOL    HW119298   0.970   2.017   2.924
 6133SOL    HW219299   0.972   2.134   2.809
 6134SOL     OW19300   0.363   6.672   5.447
 6134SOL    HW119301   0.343   6.770   5.453
 6134SOL    HW219302   0.277   6.621   5.451
 6135SOL     OW19303   6.702   0.045   0.450
 6135SOL    HW119304   6.751   0.073   0.533
 6135SOL    HW219305   6.673   6.975   0.459
 6136SOL     OW19306   0.955   2.001   3.903
 6136SOL    HW119307   1.024   1.928   3.910
 6136SOL    HW219308   0.885   1.988   3.973
 6137SOL     OW19309   6.995   4.817   1.080
 6137SOL    HW119310   6.944   4.847   0.999
 6137SOL    HW219311   0.011   4.897   1.125
 6138SOL     OW19312   5.358   0.661   2.487
 6138SOL    HW119313   5.433   0.705   2.437
 6138SOL    HW219314   5.289   0.729   2.511
 6139SOL     OW19315   1.766   1.505   5.005
 6139SOL    HW119316   1.793   1.415   4.972
 6139SOL    HW219317   1.745   1.565   4.928
 6140SOL     OW19318   2.153   6.982   2.910
 6140SOL    HW119319   2.193   6.896   2.940
 6140SOL    HW219320   2.136   0.015   2.989
 6141SOL     OW19321   1.080   1.310   0.006
 6141SOL    HW119322   1.174   1.336   0.032
 6141SOL    HW219323   1.023   1.307   0.087
 6142SOL     OW19324   6.326   0.403   1.389
 6142SOL    HW119325   6.310   0.491   1.346
 6142SOL    HW219326   6.251   0.382   1.452
 6143SOL     OW19327   0.589   3.223   5.644
 6143SOL    HW119328   0.620   3.146   5.588
 6143SOL    HW219329   0.553   3.295   5.585
 6144SOL     OW19330   3.485   5.355   2.763
 6144SOL    HW119331   3.579   5.386   2.751
 6144SOL    HW219332   3.485   5.259   2.793
 6145SOL     OW19333   4.875   3.075   3.628
 6145SOL    HW119334   4.854   2.985   3.590
 6145SOL    HW219335   4.836   3.082   3.720
 6146SOL     OW19336   6.012   0.393   5.451
 6146SOL    HW119337   6.090   0.339   5.482
 6146SOL    HW219338   6.042   0.487   5.434
 6147SOL     OW19339   1.019   2.115   5.606
 6147SOL    HW119340   1.061   2.027   5.583
 6147SOL    HW219341   1.018   2.173   5.525
 6148SOL     OW19342   3.589   5.327   6.831
 6148SOL    HW119343   3.533   5.354   6.753
 6148SOL    HW219344   3.685   5.322   6.803
 6149SOL     OW19345   3.911   1.680   1.948
 6149SOL    HW119346   3.905   1.765   2.000
 6149SOL    HW219347   3.821   1.638   1.941
 6150SOL     OW19348   0.111   4.367   4.790
 6150SOL    HW119349   0.091   4.433   4.718
 6150SOL    HW219350   0.084   4.275   4.759
 6151SOL     OW19351   3.852   4.931   3.088
 6151SOL    HW119352   3.778   4.925   3.155
 6151SOL    HW219353   3.817   4.913   2.997
 6152SOL     OW19354   1.338   3.772   3.103
 6152SOL    HW119355   1.354   3.765   3.005
 6152SOL    HW219356   1.245   3.742   3.124
 6153SOL     OW19357   5.011   5.933   1.028
 6153SOL    HW119358   4.923   5.963   1.063
 6153SOL    HW219359   5.005   5.837   1.000
 6154SOL     OW19360   5.144   4.128   2.500
 6154SOL    HW119361   5.079   4.088   2.435
 6154SOL    HW219362   5.217   4.174   2.450
 6155SOL     OW19363   1.945   1.267   3.831
 6155SOL    HW119364   1.878   1.312   3.771
 6155SOL    HW219365   2.035   1.309   3.819
 6156SOL     OW19366   5.454   4.373   2.479
 6156SOL    HW119367   5.549   4.378   2.450
 6156SOL    HW219368   5.397   4.346   2.401
 6157SOL     OW19369   0.588   3.164   1.058
 6157SOL    HW119370   0.549   3.222   1.129
 6157SOL    HW219371   0.528   3.086   1.041
 6158SOL     OW19372   2.973   1.951   5.357
 6158SOL    HW119373   3.049   1.980   5.415
 6158SOL    HW219374   2.983   1.993   5.266
 6159SOL     OW19375   5.645   2.749   0.127
 6159SOL    HW119376   5.675   2.842   0.106
 6159SOL    HW219377   5.552   2.752   0.163
 6160SOL     OW19378   0.731   0.468   1.251
 6160SOL    HW119379   0.694   0.555   1.284
 6160SOL    HW219380   0.772   0.418   1.327
 6161SOL     OW19381   4.634   3.606   7.005
 6161SOL    HW119382   4.623   3.633   6.909
 6161SOL    HW219383   4.701   3.666   0.024
 6162SOL     OW19384   6.702   5.752   1.895
 6162SOL    HW119385   6.641   5.674   1.880
 6162SOL    HW219386   6.731   5.788   1.806
 6163SOL     OW19387   6.309   5.794   2.690
 6163SOL    HW119388   6.348   5.727   2.753
 6163SOL    HW219389   6.374   5.811   2.615
 6164SOL     OW19390   3.221   4.119   3.911
 6164SOL    HW119391   3.297   4.061   3.941
 6164SOL    HW219392   3.257   4.200   3.866
 6165SOL     OW19393   3.434   1.715   0.004
 6165SOL    HW119394   3.436   1.636   0.064
 6165SOL    HW219395   3.429   1.685   6.934
 6166SOL     OW19396   3.082   2.102   6.372
 6166SOL    HW119397   3.119   2.014   6.400
 6166SOL    HW219398   2.983   2.104   6.388
 6167SOL     OW19399   1.608   3.239   2.958
 6167SOL    HW119400   1.548   3.312   2.990
 6167SOL    HW219401   1.703   3.267   2.970
 6168SOL     OW19402   0.566   3.618   3.980
 6168SOL    HW119403   0.509   3.683   4.029
 6168SOL    HW219404   0.569   3.531   4.030
 6169SOL     OW19405   2.306   0.891   6.708
 6169SOL    HW119406   2.230   0.906   6.772
 6169SOL    HW219407   2.288   0.940   6.623
 6170SOL     OW19408   2.840   4.405   0.954
 6170SOL    HW119409   2.817   4.488   1.003
 6170SOL    HW219410   2.821   4.417   0.856
 6171SOL     OW19411   2.118   3.791   1.806
 6171SOL    HW119412   2.124   3.796   1.906
 6171SOL    HW219413   2.075   3.874   1.771
 6172SOL     OW19414   2.518   5.637   2.313
 6172SOL    HW119415   2.524   5.599   2.221
 6172SOL    HW219416   2.426   5.623   2.349
 6173SOL     OW19417   1.617   5.871   2.262
 6173SOL    HW119418   1.631   5.844   2.357
 6173SOL    HW219419   1.625   5.790   2.203
 6174SOL     OW19420   5.679   4.455   1.917
 6174SOL    HW119421   5.618   4.474   1.840
 6174SOL    HW219422   5.767   4.500   1.902
 6175SOL     OW19423   5.459   0.310   3.762
 6175SOL    HW119424   5.440   0.219   3.726
 6175SOL    HW219425   5.397   0.376   3.719
 6176SOL     OW19426   5.083   3.208   6.284
 6176SOL    HW119427   5.053   3.277   6.349
 6176SOL    HW219428   5.014   3.198   6.212
 6177SOL     OW19429   6.787   3.098   2.449
 6177SOL    HW119430   6.809   3.155   2.369
 6177SOL    HW219431   6.689   3.105   2.468
 6178SOL     OW19432   5.807   3.487   1.795
 6178SOL    HW119433   5.753   3.470   1.712
 6178SOL    HW219434   5.825   3.401   1.841
 6179SOL     OW19435   0.551   1.670   5.063
 6179SOL    HW119436   0.650   1.688   5.066
 6179SOL    HW219437   0.508   1.713   5.142
 6180SOL     OW19438   3.483   0.249   6.254
 6180SOL    HW119439   3.412   0.223   6.320
 6180SOL    HW219440   3.533   0.167   6.226
 6181SOL     OW19441   4.316   6.070   6.645
 6181SOL    HW119442   4.255   6.148   6.641
 6181SOL    HW219443   4.318   6.032   6.738
 6182SOL     OW19444   4.993   6.507   6.004
 6182SOL    HW119445   4.992   6.606   5.990
 6182SOL    HW219446   5.085   6.472   5.987
 6183SOL     OW19447   3.575   0.913   2.725
 6183SOL    HW119448   3.630   0.916   2.808
 6183SOL    HW219449   3.635   0.908   2.645
 6184SOL     OW19450   5.955   0.101   6.423
 6184SOL    HW119451   5.974   0.050   6.339
 6184SOL    HW219452   5.904   0.184   6.401
 6185SOL     OW19453   1.139   2.982   5.846
 6185SOL    HW119454   1.125   2.888   5.877
 6185SOL    HW219455   1.223   2.987   5.792
 6186SOL     OW19456   5.175   0.045   4.503
 6186SOL    HW119457   5.217   0.115   4.446
 6186SOL    HW219458   5.188   6.980   4.460
 6187SOL     OW19459   3.035   4.866   4.965
 6187SOL    HW119460   2.973   4.793   4.991
 6187SOL    HW219461   3.041   4.934   5.039
 6188SOL     OW19462   2.780   0.008   1.556
 6188SOL    HW119463   2.760   0.029   1.460
 6188SOL    HW219464   2.872   6.996   1.563
 6189SOL     OW19465   5.167   4.507   3.277
 6189SOL    HW119466   5.090   4.531   3.336
 6189SOL    HW219467   5.153   4.415   3.240
 6190SOL     OW19468   4.967   2.564   5.588
 6190SOL    HW119469   5.049   2.606   5.630
 6190SOL    HW219470   4.956   2.599   5.495
 6191SOL     OW19471   6.334   2.282   6.282
 6191SOL    HW119472   6.363   2.201   6.229
 6191SOL    HW219473   6.235   2.279   6.295
 6192SOL     OW19474   3.122   1.991   0.489
 6192SOL    HW119475   3.123   1.897   0.522
 6192SOL    HW219476   3.211   2.033   0.504
 6193SOL     OW19477   6.351   6.809   1.484
 6193SOL    HW119478   6.412   6.730   1.483
 6193SOL    HW219479   6.266   6.784   1.531
 6194SOL     OW19480   1.628   0.544   0.496
 6194SOL    HW119481   1.582   0.472   0.547
 6194SOL    HW219482   1.726   0.543   0.516
 6195SOL     OW19483   2.666   6.825   5.921
 6195SOL    HW119484   2.632   6.919   5.922
 6195SOL    HW219485   2.646   6.782   6.010
 6196SOL     OW19486   0.151   1.408   5.817
 6196SOL    HW119487   0.230   1.447   5.865
 6196SOL    HW219488   0.068   1.457   5.843
 6197SOL     OW19489   2.261   3.098   0.721
 6197SOL    HW119490   2.223   3.166   0.785
 6197SOL    HW219491   2.319   3.034   0.772
 6198SOL     OW19492   3.781   5.031   2.412
 6198SOL    HW119493   3.683   5.022   2.432
 6198SOL    HW219494   3.813   4.950   2.364
 6199SOL     OW19495   0.749   0.777   6.363
 6199SOL    HW119496   0.759   0.699   6.301
 6199SOL    HW219497   0.830   0.836   6.356
 6200SOL     OW19498   3.941   0.926   6.039
 6200SOL    HW119499   3.902   0.886   6.121
 6200SOL    HW219500   3.902   0.882   5.958
 6201SOL     OW19501   2.344   4.317   3.918
 6201SOL    HW119502   2.356   4.308   4.017
 6201SOL    HW219503   2.261   4.370   3.899
 6202SOL     OW19504   2.998   2.613   1.489
 6202SOL    HW119505   2.923   2.679   1.488
 6202SOL    HW219506   2.961   2.521   1.478
 6203SOL     OW19507   5.457   2.360   5.119
 6203SOL    HW119508   5.367   2.336   5.155
 6203SOL    HW219509   5.522   2.288   5.140
 6204SOL     OW19510   1.650   6.641   6.201
 6204SOL    HW119511   1.626   6.553   6.242
 6204SOL    HW219512   1.658   6.631   6.102
 6205SOL     OW19513   5.151   6.376   6.974
 6205SOL    HW119514   5.225   6.339   0.006
 6205SOL    HW219515   5.116   6.305   6.914
 6206SOL     OW19516   5.703   0.139   3.329
 6206SOL    HW119517   5.629   0.073   3.345
 6206SOL    HW219518   5.696   0.176   3.237
 6207SOL     OW19519   1.929   4.429   4.702
 6207SOL    HW119520   1.906   4.495   4.774
 6207SOL    HW219521   1.941   4.339   4.743
 6208SOL     OW19522   5.777   5.712   5.765
 6208SOL    HW119523   5.740   5.794   5.807
 6208SOL    HW219524   5.772   5.635   5.829
 6209SOL     OW19525   3.107   5.174   1.083
 6209SOL    HW119526   3.114   5.238   1.007
 6209SOL    HW219527   3.022   5.122   1.075
 6210SOL     OW19528   6.911   5.028   2.882
 6210SOL    HW119529   6.944   5.106   2.828
 6210SOL    HW219530   6.990   4.976   2.916
 6211SOL     OW19531   2.803   0.413   4.876
 6211SOL    HW119532   2.750   0.498   4.871
 6211SOL    HW219533   2.884   0.421   4.818
 6212SOL     OW19534   6.841   0.132   3.771
 6212SOL    HW119535   6.893   0.174   3.697
 6212SOL    HW219536   6.758   0.088   3.734
 6213SOL     OW19537   6.683   0.443   0.134
 6213SOL    HW119538   6.631   0.428   0.218
 6213SOL    HW219539   6.770   0.488   0.156
 6214SOL     OW19540   5.894   5.144   2.413
 6214SOL    HW119541   5.924   5.157   2.318
 6214SOL    HW219542   5.807   5.094   2.415
 6215SOL     OW19543   2.357   5.353   1.084
 6215SOL    HW119544   2.444   5.392   1.052
 6215SOL    HW219545   2.318   5.412   1.155
 6216SOL     OW19546   6.823   1.911   2.667
 6216SOL    HW119547   6.808   2.010   2.660
 6216SOL    HW219548   6.918   1.893   2.690
 6217SOL     OW19549   5.186   2.118   1.380
 6217SOL    HW119550   5.214   2.116   1.284
 6217SOL    HW219551   5.117   2.189   1.394
 6218SOL     OW19552   3.904   4.927   4.514
 6218SOL    HW119553   3.808   4.904   4.528
 6218SOL    HW219554   3.926   5.013   4.561
 6219SOL     OW19555   0.537   1.453   3.988
 6219SOL    HW119556   0.557   1.416   3.897
 6219SOL    HW219557   0.617   1.500   4.023
 6220SOL     OW19558   1.648   3.887   5.105
 6220SOL    HW119559   1.606   3.852   5.189
 6220SOL    HW219560   1.677   3.810   5.048
 6221SOL     OW19561   4.330   4.899   4.379
 6221SOL    HW119562   4.260   4.866   4.442
 6221SOL    HW219563   4.397   4.955   4.429
 6222SOL     OW19564   0.368   1.464   1.254
 6222SOL    HW119565   0.442   1.454   1.320
 6222SOL    HW219566   0.280   1.466   1.301
 6223SOL     OW19567   5.038   4.010   4.587
 6223SOL    HW119568   4.988   4.012   4.674
 6223SOL    HW219569   5.041   3.916   4.552
 6224SOL     OW19570   2.598   0.356   4.632
 6224SOL    HW119571   2.642   0.441   4.603
 6224SOL    HW219572   2.499   0.370   4.639
 6225SOL     OW19573   4.074   1.998   6.713
 6225SOL    HW119574   4.107   1.969   6.623
 6225SOL    HW219575   4.028   1.921   6.758
 6226SOL     OW19576   6.578   6.719   4.473
 6226SOL    HW119577   6.595   6.722   4.571
 6226SOL    HW219578   6.491   6.764   4.453
 6227SOL     OW19579   2.924   4.823   6.979
 6227SOL    HW119580   2.992   4.882   6.937
 6227SOL    HW219581   2.833   4.863   6.966
 6228SOL     OW19582   6.862   1.089   2.567
 6228SOL    HW119583   6.790   1.065   2.631
 6228SOL    HW219584   6.827   1.082   2.473
 6229SOL     OW19585   1.443   2.365   1.936
 6229SOL    HW119586   1.495   2.300   1.992
 6229SOL    HW219587   1.359   2.390   1.985
 6230SOL     OW19588   2.122   2.298   3.410
 6230SOL    HW119589   2.171   2.291   3.323
 6230SOL    HW219590   2.187   2.286   3.485
 6231SOL     OW19591   6.689   5.335   1.647
 6231SOL    HW119592   6.759   5.395   1.607
 6231SOL    HW219593   6.645   5.381   1.724
 6232SOL     OW19594   1.245   1.380   6.784
 6232SOL    HW119595   1.173   1.373   6.853
 6232SOL    HW219596   1.204   1.399   6.695
 6233SOL     OW19597   4.530   1.446   6.295
 6233SOL    HW119598   4.487   1.358   6.316
 6233SOL    HW219599   4.544   1.453   6.196
 6234SOL     OW19600   1.716   2.509   3.544
 6234SOL    HW119601   1.728   2.606   3.568
 6234SOL    HW219602   1.659   2.465   3.613
 6235SOL     OW19603   2.010   5.811   2.921
 6235SOL    HW119604   1.972   5.863   2.997
 6235SOL    HW219605   1.936   5.783   2.860
 6236SOL     OW19606   6.709   3.884   0.342
 6236SOL    HW119607   6.611   3.895   0.357
 6236SOL    HW219608   6.750   3.973   0.323
 6237SOL     OW19609   3.901   6.251   6.738
 6237SOL    HW119610   3.826   6.291   6.686
 6237SOL    HW219611   3.878   6.158   6.765
 6238SOL     OW19612   4.457   4.058   1.034
 6238SOL    HW119613   4.498   4.074   0.944
 6238SOL    HW219614   4.421   3.965   1.039
 6239SOL     OW19615   2.384   0.157   3.740
 6239SOL    HW119616   2.367   0.208   3.656
 6239SOL    HW219617   2.469   0.105   3.731
 6240SOL     OW19618   1.751   3.498   0.316
 6240SOL    HW119619   1.778   3.477   0.222
 6240SOL    HW219620   1.700   3.420   0.354
 6241SOL     OW19621   4.752   0.193   1.596
 6241SOL    HW119622   4.698   0.167   1.676
 6241SOL    HW219623   4.692   0.235   1.528
 6242SOL     OW19624   3.818   2.156   3.678
 6242SOL    HW119625   3.743   2.103   3.719
 6242SOL    HW219626   3.881   2.184   3.750
 6243SOL     OW19627   5.456   5.611   3.080
 6243SOL    HW119628   5.427   5.632   3.173
 6243SOL    HW219629   5.466   5.696   3.028
 6244SOL     OW19630   1.986   2.024   1.978
 6244SOL    HW119631   2.064   1.964   1.959
 6244SOL    HW219632   2.011   2.089   2.050
 6245SOL     OW19633   2.147   3.666   0.859
 6245SOL    HW119634   2.094   3.720   0.925
 6245SOL    HW219635   2.212   3.725   0.813
 6246SOL     OW19636   4.319   0.686   0.070
 6246SOL    HW119637   4.312   0.783   0.046
 6246SOL    HW219638   4.414   0.664   0.092
 6247SOL     OW19639   6.738   5.961   2.901
 6247SOL    HW119640   6.788   6.038   2.942
 6247SOL    HW219641   6.678   5.920   2.969
 6248SOL     OW19642   1.099   5.489   1.123
 6248SOL    HW119643   1.013   5.468   1.075
 6248SOL    HW219644   1.086   5.476   1.221
 6249SOL     OW19645   5.745   4.354   6.471
 6249SOL    HW119646   5.656   4.390   6.496
 6249SOL    HW219647   5.805   4.352   6.551
 6250SOL     OW19648   6.060   4.856   5.716
 6250SOL    HW119649   6.158   4.846   5.700
 6250SOL    HW219650   6.009   4.793   5.658
 6251SOL     OW19651   4.609   1.690   0.789
 6251SOL    HW119652   4.607   1.621   0.717
 6251SOL    HW219653   4.568   1.653   0.872
 6252SOL     OW19654   1.881   6.232   5.424
 6252SOL    HW119655   1.954   6.255   5.361
 6252SOL    HW219656   1.796   6.276   5.395
 6253SOL     OW19657   2.622   4.049   1.468
 6253SOL    HW119658   2.560   3.979   1.432
 6253SOL    HW219659   2.643   4.115   1.397
 6254SOL     OW19660   5.260   0.078   0.407
 6254SOL    HW119661   5.225   0.170   0.392
 6254SOL    HW219662   5.279   0.034   0.319
 6255SOL     OW19663   0.007   2.105   3.252
 6255SOL    HW119664   6.933   2.094   3.253
 6255SOL    HW219665   0.050   2.020   3.223
 6256SOL     OW19666   3.633   5.191   4.073
 6256SOL    HW119667   3.583   5.241   4.144
 6256SOL    HW219668   3.676   5.256   4.011
 6257SOL     OW19669   4.221   3.071   0.200
 6257SOL    HW119670   4.170   3.148   0.162
 6257SOL    HW219671   4.229   2.999   0.132
 6258SOL     OW19672   4.694   2.420   2.635
 6258SOL    HW119673   4.788   2.389   2.646
 6258SOL    HW219674   4.691   2.520   2.635
 6259SOL     OW19675   3.109   2.257   1.752
 6259SOL    HW119676   3.036   2.309   1.798
 6259SOL    HW219677   3.160   2.319   1.692
 6260SOL     OW19678   3.634   3.516   0.868
 6260SOL    HW119679   3.675   3.597   0.825
 6260SOL    HW219680   3.548   3.541   0.912
 6261SOL     OW19681   4.701   0.278   6.793
 6261SOL    HW119682   4.779   0.226   6.827
 6261SOL    HW219683   4.722   0.316   6.703
 6262SOL     OW19684   0.360   5.773   5.402
 6262SOL    HW119685   0.284   5.837   5.400
 6262SOL    HW219686   0.401   5.767   5.310
 6263SOL     OW19687   6.251   1.293   1.006
 6263SOL    HW119688   6.289   1.335   0.923
 6263SOL    HW219689   6.306   1.320   1.085
 6264SOL     OW19690   2.177   1.699   6.866
 6264SOL    HW119691   2.111   1.662   6.800
 6264SOL    HW219692   2.150   1.792   6.891
 6265SOL     OW19693   4.941   3.914   1.088
 6265SOL    HW119694   4.989   3.827   1.102
 6265SOL    HW219695   4.843   3.901   1.102
 6266SOL     OW19696   3.053   6.886   2.413
 6266SOL    HW119697   3.103   6.841   2.486
 6266SOL    HW219698   2.954   6.881   2.431
 6267SOL     OW19699   2.385   0.249   6.839
 6267SOL    HW119700   2.363   0.228   6.934
 6267SOL    HW219701   2.309   0.301   6.798
 6268SOL     OW19702   2.758   5.268   3.315
 6268SOL    HW119703   2.707   5.280   3.229
 6268SOL    HW219704   2.816   5.187   3.308
 6269SOL     OW19705   6.032   4.442   0.262
 6269SOL    HW119706   6.101   4.386   0.306
 6269SOL    HW219707   5.989   4.391   0.187
 6270SOL     OW19708   0.591   1.050   4.616
 6270SOL    HW119709   0.689   1.069   4.606
 6270SOL    HW219710   0.576   0.951   4.613
 6271SOL     OW19711   6.335   1.870   1.053
 6271SOL    HW119712   6.369   1.897   0.963
 6271SOL    HW219713   6.239   1.898   1.061
 6272SOL     OW19714   1.942   2.216   3.642
 6272SOL    HW119715   1.973   2.242   3.551
 6272SOL    HW219716   1.935   2.298   3.699
 6273SOL     OW19717   4.331   0.428   2.333
 6273SOL    HW119718   4.282   0.383   2.408
 6273SOL    HW219719   4.267   0.448   2.259
 6274SOL     OW19720   2.796   6.506   6.726
 6274SOL    HW119721   2.803   6.582   6.791
 6274SOL    HW219722   2.818   6.420   6.772
 6275SOL     OW19723   2.868   0.391   4.297
 6275SOL    HW119724   2.856   0.312   4.237
 6275SOL    HW219725   2.963   0.423   4.292
 6276SOL     OW19726   1.552   5.374   3.737
 6276SOL    HW119727   1.469   5.348   3.787
 6276SOL    HW219728   1.541   5.350   3.640
 6277SOL     OW19729   5.599   3.258   4.216
 6277SOL    HW119730   5.517   3.305   4.250
 6277SOL    HW219731   5.573   3.168   4.181
 6278SOL     OW19732   4.438   0.669   4.202
 6278SOL    HW119733   4.440   0.731   4.123
 6278SOL    HW219734   4.468   0.578   4.173
 6279SOL     OW19735   4.781   1.248   6.868
 6279SOL    HW119736   4.867   1.224   6.914
 6279SOL    HW219737   4.743   1.331   6.909
 6280SOL     OW19738   0.761   5.321   5.906
 6280SOL    HW119739   0.705   5.392   5.864
 6280SOL    HW219740   0.818   5.277   5.836
 6281SOL     OW19741   2.970   6.958   5.203
 6281SOL    HW119742   2.888   6.942   5.259
 6281SOL    HW219743   3.028   7.025   5.249
 6282SOL     OW19744   1.144   0.284   3.410
 6282SOL    HW119745   1.149   0.354   3.338
 6282SOL    HW219746   1.204   0.208   3.386
 6283SOL     OW19747   0.833   3.265   5.217
 6283SOL    HW119748   0.765   3.319   5.266
 6283SOL    HW219749   0.812   3.168   5.226
 6284SOL     OW19750   2.477   5.002   6.390
 6284SOL    HW119751   2.500   4.972   6.297
 6284SOL    HW219752   2.558   4.992   6.449
 6285SOL     OW19753   2.105   4.535   2.850
 6285SOL    HW119754   2.169   4.477   2.799
 6285SOL    HW219755   2.152   4.619   2.878
 6286SOL     OW19756   6.309   6.827   5.012
 6286SOL    HW119757   6.215   6.791   5.010
 6286SOL    HW219758   6.333   6.854   5.105
 6287SOL     OW19759   3.752   4.990   2.746
 6287SOL    HW119760   3.660   5.005   2.709
 6287SOL    HW219761   3.820   5.019   2.678
 6288SOL     OW19762   5.404   3.678   0.975
 6288SOL    HW119763   5.458   3.731   1.041
 6288SOL    HW219764   5.438   3.695   0.883
 6289SOL     OW19765   1.076   0.049   2.467
 6289SOL    HW119766   1.080   0.051   2.367
 6289SOL    HW219767   1.043   6.985   2.498
 6290SOL     OW19768   6.001   3.299   4.022
 6290SOL    HW119769   5.982   3.353   4.104
 6290SOL    HW219770   5.942   3.330   3.948
 6291SOL     OW19771   4.094   3.730   3.184
 6291SOL    HW119772   4.137   3.749   3.273
 6291SOL    HW219773   4.074   3.632   3.178
 6292SOL     OW19774   0.044   1.526   1.834
 6292SOL    HW119775   6.985   1.487   1.873
 6292SOL    HW219776   0.020   1.600   1.771
 6293SOL     OW19777   5.389   4.939   0.596
 6293SOL    HW119778   5.446   5.006   0.643
 6293SOL    HW219779   5.431   4.916   0.508
 6294SOL     OW19780   3.991   5.546   2.579
 6294SOL    HW119781   3.979   5.539   2.480
 6294SOL    HW219782   3.931   5.481   2.625
 6295SOL     OW19783   6.857   6.136   5.819
 6295SOL    HW119784   6.813   6.172   5.737
 6295SOL    HW219785   6.895   6.045   5.801
 6296SOL     OW19786   6.891   1.005   2.324
 6296SOL    HW119787   6.905   0.960   2.235
 6296SOL    HW219788   6.978   1.044   2.355
 6297SOL     OW19789   5.576   0.898   5.722
 6297SOL    HW119790   5.486   0.926   5.691
 6297SOL    HW219791   5.579   0.799   5.733
 6298SOL     OW19792   6.889   1.872   3.986
 6298SOL    HW119793   6.931   1.787   4.017
 6298SOL    HW219794   6.897   1.941   4.058
 6299SOL     OW19795   6.249   2.807   0.761
 6299SOL    HW119796   6.299   2.889   0.789
 6299SOL    HW219797   6.283   2.728   0.812
 6300SOL     OW19798   4.930   1.512   3.683
 6300SOL    HW119799   4.865   1.505   3.608
 6300SOL    HW219800   4.906   1.590   3.741
 6301SOL     OW19801   3.157   0.770   0.899
 6301SOL    HW119802   3.189   0.686   0.856
 6301SOL    HW219803   3.063   0.789   0.871
 6302SOL     OW19804   6.781   0.757   2.490
 6302SOL    HW119805   6.775   0.717   2.399
 6302SOL    HW219806   6.828   0.845   2.485
 6303SOL     OW19807   1.838   6.108   4.827
 6303SOL    HW119808   1.934   6.127   4.804
 6303SOL    HW219809   1.782   6.119   4.745
 6304SOL     OW19810   4.109   1.125   5.096
 6304SOL    HW119811   4.130   1.107   5.192
 6304SOL    HW219812   4.161   1.205   5.065
 6305SOL     OW19813   5.198   1.548   2.596
 6305SOL    HW119814   5.118   1.583   2.548
 6305SOL    HW219815   5.281   1.585   2.552
 6306SOL     OW19816   6.057   2.885   4.546
 6306SOL    HW119817   5.982   2.946   4.522
 6306SOL    HW219818   6.139   2.912   4.494
 6307SOL     OW19819   1.940   4.623   0.012
 6307SOL    HW119820   1.994   4.656   0.089
 6307SOL    HW219821   1.844   4.650   0.025
 6308SOL     OW19822   3.940   2.782   5.875
 6308SOL    HW119823   3.977   2.732   5.796
 6308SOL    HW219824   3.843   2.802   5.860
 6309SOL     OW19825   5.627   2.168   5.192
 6309SOL    HW119826   5.700   2.176   5.260
 6309SOL    HW219827   5.654   2.100   5.123
 6310SOL     OW19828   0.359   5.326   4.340
 6310SOL    HW119829   0.459   5.323   4.335
 6310SOL    HW219830   0.323   5.372   4.259
 6311SOL     OW19831   5.941   6.456   3.909
 6311SOL    HW119832   6.002   6.404   3.968
 6311SOL    HW219833   5.955   6.554   3.925
 6312SOL     OW19834   5.246   4.408   5.603
 6312SOL    HW119835   5.281   4.429   5.511
 6312SOL    HW219836   5.277   4.478   5.667
 6313SOL     OW19837   2.358   5.033   4.024
 6313SOL    HW119838   2.370   5.099   3.950
 6313SOL    HW219839   2.272   5.051   4.072
 6314SOL     OW19840   1.389   0.384   3.736
 6314SOL    HW119841   1.457   0.435   3.683
 6314SOL    HW219842   1.314   0.356   3.677
 6315SOL     OW19843   2.305   3.994   0.103
 6315SOL    HW119844   2.211   3.968   0.127
 6315SOL    HW219845   2.368   3.953   0.169
 6316SOL     OW19846   4.393   1.468   5.631
 6316SOL    HW119847   4.436   1.399   5.573
 6316SOL    HW219848   4.461   1.535   5.660
 6317SOL     OW19849   6.079   5.168   4.595
 6317SOL    HW119850   6.115   5.154   4.503
 6317SOL    HW219851   6.050   5.080   4.633
 6318SOL     OW19852   1.751   2.316   4.699
 6318SOL    HW119853   1.692   2.264   4.637
 6318SOL    HW219854   1.847   2.298   4.677
 6319SOL     OW19855   0.744   1.689   2.938
 6319SOL    HW119856   0.680   1.700   2.862
 6319SOL    HW219857   0.747   1.774   2.991
 6320SOL     OW19858   0.176   1.519   3.338
 6320SOL    HW119859   0.108   1.590   3.321
 6320SOL    HW219860   0.213   1.530   3.430
 6321SOL     OW19861   2.790   3.771   5.746
 6321SOL    HW119862   2.830   3.860   5.770
 6321SOL    HW219863   2.699   3.763   5.786
 6322SOL     OW19864   2.059   0.938   6.802
 6322SOL    HW119865   2.021   1.006   6.738
 6322SOL    HW219866   2.016   0.948   6.891
 6323SOL     OW19867   4.344   1.257   1.290
 6323SOL    HW119868   4.328   1.339   1.234
 6323SOL    HW219869   4.403   1.281   1.367
 6324SOL     OW19870   3.647   2.281   6.135
 6324SOL    HW119871   3.670   2.361   6.190
 6324SOL    HW219872   3.721   2.215   6.140
 6325SOL     OW19873   1.727   2.436   2.826
 6325SOL    HW119874   1.802   2.502   2.837
 6325SOL    HW219875   1.685   2.418   2.914
 6326SOL     OW19876   4.235   6.149   1.252
 6326SOL    HW119877   4.272   6.072   1.201
 6326SOL    HW219878   4.209   6.119   1.344
 6327SOL     OW19879   4.101   5.411   5.610
 6327SOL    HW119880   4.134   5.364   5.528
 6327SOL    HW219881   4.021   5.363   5.646
 6328SOL     OW19882   3.036   4.714   6.443
 6328SOL    HW119883   3.076   4.772   6.373
 6328SOL    HW219884   3.006   4.628   6.401
 6329SOL     OW19885   1.304   1.227   2.754
 6329SOL    HW119886   1.329   1.290   2.827
 6329SOL    HW219887   1.246   1.274   2.687
 6330SOL     OW19888   3.418   0.456   0.304
 6330SOL    HW119889   3.360   0.522   0.351
 6330SOL    HW219890   3.477   0.504   0.239
 6331SOL     OW19891   5.444   2.819   2.179
 6331SOL    HW119892   5.369   2.771   2.135
 6331SOL    HW219893   5.486   2.760   2.248
 6332SOL     OW19894   5.243   6.645   2.690
 6332SOL    HW119895   5.152   6.685   2.703
 6332SOL    HW219896   5.269   6.594   2.772
 6333SOL     OW19897   1.760   4.991   2.941
 6333SOL    HW119898   1.825   5.052   2.896
 6333SOL    HW219899   1.695   4.955   2.874
 6334SOL     OW19900   2.705   1.813   2.691
 6334SOL    HW119901   2.644   1.872   2.639
 6334SOL    HW219902   2.710   1.845   2.786
 6335SOL     OW19903   0.435   1.875   0.405
 6335SOL    HW119904   0.360   1.861   0.341
 6335SOL    HW219905   0.458   1.788   0.448
 6336SOL     OW19906   1.101   3.202   5.276
 6336SOL    HW119907   1.009   3.240   5.265
 6336SOL    HW219908   1.095   3.103   5.286
 6337SOL     OW19909   0.055   4.875   4.729
 6337SOL    HW119910   0.145   4.832   4.735
 6337SOL    HW219911   7.012   4.816   4.771
 6338SOL     OW19912   3.863   0.987   3.994
 6338SOL    HW119913   3.878   1.038   4.078
 6338SOL    HW219914   3.932   1.013   3.926
 6339SOL     OW19915   0.271   2.868   4.715
 6339SOL    HW119916   0.364   2.842   4.741
 6339SOL    HW219917   0.218   2.786   4.692
 6340SOL     OW19918   2.443   5.517   4.151
 6340SOL    HW119919   2.384   5.593   4.179
 6340SOL    HW219920   2.420   5.436   4.206
 6341SOL     OW19921   6.405   5.312   2.210
 6341SOL    HW119922   6.417   5.220   2.171
 6341SOL    HW219923   6.454   5.318   2.296
 6342SOL     OW19924   1.025   3.526   0.280
 6342SOL    HW119925   1.043   3.587   0.357
 6342SOL    HW219926   1.110   3.508   0.231
 6343SOL     OW19927   4.619   1.065   0.608
 6343SOL    HW119928   4.631   0.982   0.663
 6343SOL    HW219929   4.634   1.042   0.511
 6344SOL     OW19930   6.736   4.507   4.495
 6344SOL    HW119931   6.739   4.435   4.426
 6344SOL    HW219932   6.700   4.591   4.454
 6345SOL     OW19933   2.565   2.402   1.855
 6345SOL    HW119934   2.654   2.371   1.888
 6345SOL    HW219935   2.573   2.496   1.820
 6346SOL     OW19936   0.269   5.470   4.116
 6346SOL    HW119937   0.193   5.458   4.052
 6346SOL    HW219938   0.350   5.501   4.065
 6347SOL     OW19939   2.924   0.387   0.815
 6347SOL    HW119940   2.912   0.294   0.782
 6347SOL    HW219941   2.851   0.410   0.878
 6348SOL     OW19942   0.656   2.565   4.918
 6348SOL    HW119943   0.727   2.592   4.982
 6348SOL    HW219944   0.661   2.467   4.901
 6349SOL     OW19945   1.616   0.815   0.560
 6349SOL    HW119946   1.567   0.730   0.542
 6349SOL    HW219947   1.642   0.818   0.657
 6350SOL     OW19948   6.983   5.182   3.652
 6350SOL    HW119949   6.985   5.271   3.606
 6350SOL    HW219950   0.009   5.188   3.738
 6351SOL     OW19951   6.690   1.231   2.778
 6351SOL    HW119952   6.766   1.176   2.813
 6351SOL    HW219953   6.656   1.290   2.851
 6352SOL     OW19954   0.420   5.427   2.395
 6352SOL    HW119955   0.485   5.453   2.324
 6352SOL    HW219956   0.345   5.493   2.397
 6353SOL     OW19957   0.573   6.361   1.723
 6353SOL    HW119958   0.490   6.347   1.776
 6353SOL    HW219959   0.635   6.284   1.737
 6354SOL     OW19960   6.915   6.734   4.552
 6354SOL    HW119961   6.844   6.804   4.540
 6354SOL    HW219962   6.916   6.673   4.473
 6355SOL     OW19963   0.941   2.846   2.301
 6355SOL    HW119964   0.943   2.918   2.371
 6355SOL    HW219965   1.034   2.817   2.280
 6356SOL     OW19966   3.394   3.123   0.854
 6356SOL    HW119967   3.443   3.197   0.807
 6356SOL    HW219968   3.371   3.051   0.788
 6357SOL     OW19969   5.135   2.071   0.995
 6357SOL    HW119970   5.080   2.011   1.052
 6357SOL    HW219971   5.219   2.024   0.968
 6358SOL     OW19972   0.830   3.237   4.396
 6358SOL    HW119973   0.850   3.156   4.449
 6358SOL    HW219974   0.741   3.274   4.423
 6359SOL     OW19975   6.881   1.790   6.782
 6359SOL    HW119976   6.977   1.802   6.811
 6359SOL    HW219977   6.822   1.791   6.863
 6360SOL     OW19978   3.108   5.475   4.314
 6360SOL    HW119979   3.043   5.476   4.391
 6360SOL    HW219980   3.065   5.433   4.235
 6361SOL     OW19981   3.004   6.543   6.123
 6361SOL    HW119982   2.906   6.550   6.107
 6361SOL    HW219983   3.029   6.593   6.205
 6362SOL     OW19984   6.372   5.192   6.123
 6362SOL    HW119985   6.281   5.233   6.113
 6362SOL    HW219986   6.363   5.106   6.173
 6363SOL     OW19987   0.739   5.832   4.241
 6363SOL    HW119988   0.712   5.910   4.297
 6363SOL    HW219989   0.743   5.750   4.298
 6364SOL     OW19990   2.036   2.858   6.496
 6364SOL    HW119991   1.954   2.818   6.537
 6364SOL    HW219992   2.014   2.948   6.457
 6365SOL     OW19993   4.770   5.281   2.937
 6365SOL    HW119994   4.815   5.202   2.897
 6365SOL    HW219995   4.749   5.348   2.866
 6366SOL     OW19996   0.256   4.424   5.098
 6366SOL    HW119997   0.210   4.376   5.023
 6366SOL    HW219998   0.279   4.517   5.067
 6367SOL     OW19999   5.983   6.226   2.637
 6367SOL    HW120000   5.968   6.154   2.569
 6367SOL    HW220001   6.031   6.303   2.595
 6368SOL     OW20002   3.747   0.770   3.345
 6368SOL    HW120003   3.658   0.757   3.301
 6368SOL    HW220004   3.733   0.791   3.442
 6369SOL     OW20005   2.396   5.289   5.501
 6369SOL    HW120006   2.351   5.200   5.507
 6369SOL    HW220007   2.392   5.322   5.407
 6370SOL     OW20008   5.332   2.590   1.815
 6370SOL    HW120009   5.360   2.636   1.730
 6370SOL    HW220010   5.264   2.519   1.793
 6371SOL     OW20011   4.727   1.654   4.285
 6371SOL    HW120012   4.805   1.593   4.278
 6371SOL    HW220013   4.647   1.604   4.319
 6372SOL     OW20014   3.051   6.732   2.667
 6372SOL    HW120015   3.014   6.655   2.616
 6372SOL    HW220016   3.145   6.712   2.696
 6373SOL     OW20017   3.413   5.336   0.012
 6373SOL    HW120018   3.448   5.326   0.105
 6373SOL    HW220019   3.488   5.325   6.972
 6374SOL     OW20020   3.101   3.045   2.817
 6374SOL    HW120021   3.069   2.976   2.881
 6374SOL    HW220022   3.148   3.118   2.867
 6375SOL     OW20023   1.800   6.004   2.129
 6375SOL    HW120024   1.875   6.049   2.177
 6375SOL    HW220025   1.732   5.972   2.195
 6376SOL     OW20026   0.842   1.971   5.028
 6376SOL    HW120027   0.926   2.023   5.044
 6376SOL    HW220028   0.795   2.008   4.948
 6377SOL     OW20029   0.991   1.901   3.555
 6377SOL    HW120030   0.990   1.875   3.652
 6377SOL    HW220031   1.079   1.875   3.515
 6378SOL     OW20032   4.289   5.013   3.652
 6378SOL    HW120033   4.378   4.973   3.675
 6378SOL    HW220034   4.300   5.112   3.637
 6379SOL     OW20035   2.386   4.823   2.143
 6379SOL    HW120036   2.449   4.879   2.197
 6379SOL    HW220037   2.419   4.815   2.049
 6380SOL     OW20038   1.032   0.667   6.071
 6380SOL    HW120039   0.957   0.620   6.118
 6380SOL    HW220040   1.001   0.696   5.980
 6381SOL     OW20041   3.010   3.250   2.139
 6381SOL    HW120042   2.933   3.314   2.131
 6381SOL    HW220043   3.027   3.209   2.049
 6382SOL     OW20044   0.904   4.924   4.674
 6382SOL    HW120045   0.820   4.879   4.645
 6382SOL    HW220046   0.921   5.003   4.615
 6383SOL     OW20047   3.986   1.350   3.993
 6383SOL    HW120048   3.915   1.292   3.951
 6383SOL    HW220049   3.967   1.446   3.972
 6384SOL     OW20050   0.091   4.811   2.342
 6384SOL    HW120051   0.188   4.792   2.325
 6384SOL    HW220052   0.051   4.856   2.262
 6385SOL     OW20053   0.919   5.698   5.071
 6385SOL    HW120054   0.893   5.694   4.975
 6385SOL    HW220055   0.857   5.760   5.120
 6386SOL     OW20056   2.473   5.756   1.722
 6386SOL    HW120057   2.450   5.670   1.676
 6386SOL    HW220058   2.393   5.817   1.719
 6387SOL     OW20059   6.259   0.759   5.614
 6387SOL    HW120060   6.287   0.676   5.662
 6387SOL    HW220061   6.337   0.799   5.566
 6388SOL     OW20062   2.102   5.159   2.781
 6388SOL    HW120063   2.118   5.061   2.770
 6388SOL    HW220064   2.119   5.185   2.876
 6389SOL     OW20065   1.138   4.872   1.458
 6389SOL    HW120066   1.125   4.844   1.553
 6389SOL    HW220067   1.088   4.810   1.398
 6390SOL     OW20068   0.812   2.796   4.375
 6390SOL    HW120069   0.772   2.870   4.322
 6390SOL    HW220070   0.900   2.771   4.335
 6391SOL     OW20071   3.623   0.984   6.827
 6391SOL    HW120072   3.597   1.073   6.790
 6391SOL    HW220073   3.541   0.930   6.844
 6392SOL     OW20074   1.550   5.917   4.308
 6392SOL    HW120075   1.642   5.878   4.313
 6392SOL    HW220076   1.495   5.883   4.384
 6393SOL     OW20077   5.192   1.728   0.334
 6393SOL    HW120078   5.241   1.645   0.308
 6393SOL    HW220079   5.121   1.747   0.267
 6394SOL     OW20080   3.276   4.685   1.774
 6394SOL    HW120081   3.354   4.636   1.813
 6394SOL    HW220082   3.306   4.776   1.745
 6395SOL     OW20083   5.875   2.254   0.209
 6395SOL    HW120084   5.786   2.254   0.256
 6395SOL    HW220085   5.944   2.292   0.270
 6396SOL     OW20086   6.590   3.642   5.957
 6396SOL    HW120087   6.670   3.677   5.909
 6396SOL    HW220088   6.616   3.616   6.050
 6397SOL     OW20089   6.494   1.166   0.667
 6397SOL    HW120090   6.402   1.201   0.646
 6397SOL    HW220091   6.490   1.106   0.746
 6398SOL     OW20092   4.017   0.952   1.394
 6398SOL    HW120093   4.035   1.043   1.356
 6398SOL    HW220094   4.103   0.912   1.428
 6399SOL     OW20095   2.250   6.372   6.429
 6399SOL    HW120096   2.294   6.340   6.513
 6399SOL    HW220097   2.310   6.353   6.351
 6400SOL     OW20098   2.774   4.999   4.523
 6400SOL    HW120099   2.852   4.961   4.573
 6400SOL    HW220100   2.689   4.959   4.558
 6401SOL     OW20101   0.741   4.381   4.752
 6401SOL    HW120102   0.823   4.335   4.786
 6401SOL    HW220103   0.748   4.479   4.770
 6402SOL     OW20104   1.993   2.533   3.433
 6402SOL    HW120105   1.906   2.504   3.472
 6402SOL    HW220106   2.050   2.452   3.416
 6403SOL     OW20107   1.204   6.973   1.291
 6403SOL    HW120108   1.190   6.967   1.193
 6403SOL    HW220109   1.273   0.017   1.311
 6404SOL     OW20110   5.067   0.889   2.943
 6404SOL    HW120111   5.061   0.829   2.863
 6404SOL    HW220112   5.063   0.833   3.026
 6405SOL     OW20113   3.486   0.610   1.851
 6405SOL    HW120114   3.465   0.681   1.784
 6405SOL    HW220115   3.496   0.651   1.941
 6406SOL     OW20116   2.679   1.995   3.483
 6406SOL    HW120117   2.626   1.941   3.549
 6406SOL    HW220118   2.721   1.933   3.416
 6407SOL     OW20119   5.161   5.647   6.427
 6407SOL    HW120120   5.215   5.726   6.454
 6407SOL    HW220121   5.145   5.650   6.328
 6408SOL     OW20122   5.500   2.432   0.680
 6408SOL    HW120123   5.476   2.498   0.608
 6408SOL    HW220124   5.484   2.473   0.769
 6409SOL     OW20125   0.737   4.886   2.009
 6409SOL    HW120126   0.672   4.953   1.973
 6409SOL    HW220127   0.782   4.923   2.090
 6410SOL     OW20128   1.055   1.145   1.775
 6410SOL    HW120129   1.031   1.172   1.869
 6410SOL    HW220130   1.016   1.055   1.755
 6411SOL     OW20131   1.027   1.529   3.481
 6411SOL    HW120132   1.079   1.464   3.426
 6411SOL    HW220133   0.935   1.539   3.442
 6412SOL     OW20134   6.236   3.099   4.361
 6412SOL    HW120135   6.262   3.056   4.275
 6412SOL    HW220136   6.318   3.122   4.414
 6413SOL     OW20137   0.294   4.851   0.788
 6413SOL    HW120138   0.351   4.790   0.844
 6413SOL    HW220139   0.213   4.801   0.757
 6414SOL     OW20140   6.374   7.007   2.828
 6414SOL    HW120141   6.306   6.991   2.900
 6414SOL    HW220142   6.404   6.919   2.792
 6415SOL     OW20143   1.713   1.610   2.505
 6415SOL    HW120144   1.722   1.544   2.430
 6415SOL    HW220145   1.659   1.688   2.473
 6416SOL     OW20146   2.560   6.706   6.142
 6416SOL    HW120147   2.605   6.654   6.215
 6416SOL    HW220148   2.494   6.647   6.095
 6417SOL     OW20149   0.600   6.593   4.039
 6417SOL    HW120150   0.607   6.529   3.962
 6417SOL    HW220151   0.676   6.657   4.036
 6418SOL     OW20152   6.980   5.530   2.710
 6418SOL    HW120153   6.964   5.482   2.623
 6418SOL    HW220154   6.908   5.598   2.724
 6419SOL     OW20155   2.254   3.852   0.645
 6419SOL    HW120156   2.324   3.904   0.693
 6419SOL    HW220157   2.295   3.769   0.606
 6420SOL     OW20158   0.888   3.134   6.612
 6420SOL    HW120159   0.885   3.107   6.709
 6420SOL    HW220160   0.812   3.092   6.563
 6421SOL     OW20161   5.653   2.283   0.376
 6421SOL    HW120162   5.559   2.257   0.351
 6421SOL    HW220163   5.664   2.381   0.364
 6422SOL     OW20164   5.770   2.582   2.924
 6422SOL    HW120165   5.850   2.576   2.984
 6422SOL    HW220166   5.701   2.517   2.955
 6423SOL     OW20167   4.642   3.973   0.655
 6423SOL    HW120168   4.737   3.954   0.678
 6423SOL    HW220169   4.612   4.055   0.703
 6424SOL     OW20170   6.388   4.321   5.080
 6424SOL    HW120171   6.437   4.311   5.167
 6424SOL    HW220172   6.411   4.246   5.019
 6425SOL     OW20173   0.304   5.506   0.924
 6425SOL    HW120174   0.238   5.466   0.988
 6425SOL    HW220175   0.341   5.590   0.962
 6426SOL     OW20176   6.746   2.903   3.441
 6426SOL    HW120177   6.664   2.950   3.473
 6426SOL    HW220178   6.824   2.930   3.497
 6427SOL     OW20179   0.905   2.630   5.725
 6427SOL    HW120180   0.985   2.632   5.665
 6427SOL    HW220181   0.848   2.550   5.701
 6428SOL     OW20182   6.155   3.156   4.697
 6428SOL    HW120183   6.169   3.224   4.624
 6428SOL    HW220184   6.109   3.199   4.774
 6429SOL     OW20185   0.912   1.133   5.157
 6429SOL    HW120186   0.937   1.139   5.061
 6429SOL    HW220187   0.992   1.110   5.212
 6430SOL     OW20188   6.120   3.073   0.290
 6430SOL    HW120189   6.080   2.995   0.241
 6430SOL    HW220190   6.096   3.067   0.387
 6431SOL     OW20191   5.964   1.187   2.993
 6431SOL    HW120192   6.044   1.232   3.033
 6431SOL    HW220193   5.947   1.101   3.041
 6432SOL     OW20194   6.266   3.736   0.516
 6432SOL    HW120195   6.290   3.793   0.595
 6432SOL    HW220196   6.188   3.777   0.468
 6433SOL     OW20197   2.405   3.708   1.649
 6433SOL    HW120198   2.417   3.689   1.552
 6433SOL    HW220199   2.426   3.804   1.668
 6434SOL     OW20200   1.722   5.033   0.263
 6434SOL    HW120201   1.760   5.126   0.261
 6434SOL    HW220202   1.707   5.006   0.358
 6435SOL     OW20203   5.125   3.587   0.863
 6435SOL    HW120204   5.060   3.511   0.860
 6435SOL    HW220205   5.218   3.551   0.864
 6436SOL     OW20206   2.167   2.553   2.112
 6436SOL    HW120207   2.190   2.564   2.015
 6436SOL    HW220208   2.249   2.529   2.163
 6437SOL     OW20209   0.303   0.661   0.317
 6437SOL    HW120210   0.233   0.633   0.251
 6437SOL    HW220211   0.394   0.650   0.275
 6438SOL     OW20212   1.193   3.693   4.054
 6438SOL    HW120213   1.236   3.657   3.971
 6438SOL    HW220214   1.262   3.707   4.124
 6439SOL     OW20215   0.378   6.468   2.210
 6439SOL    HW120216   0.331   6.524   2.278
 6439SOL    HW220217   0.313   6.405   2.168
 6440SOL     OW20218   0.476   0.782   2.075
 6440SOL    HW120219   0.378   0.795   2.062
 6440SOL    HW220220   0.493   0.690   2.108
 6441SOL     OW20221   4.225   1.439   2.936
 6441SOL    HW120222   4.221   1.529   2.893
 6441SOL    HW220223   4.297   1.437   3.005
 6442SOL     OW20224   3.219   0.593   3.217
 6442SOL    HW120225   3.304   0.584   3.270
 6442SOL    HW220226   3.148   0.537   3.259
 6443SOL     OW20227   2.359   1.054   0.153
 6443SOL    HW120228   2.343   1.106   0.069
 6443SOL    HW220229   2.318   0.963   0.145
 6444SOL     OW20230   0.545   1.267   2.782
 6444SOL    HW120231   0.573   1.196   2.718
 6444SOL    HW220232   0.617   1.337   2.788
 6445SOL     OW20233   3.397   3.985   5.713
 6445SOL    HW120234   3.471   3.919   5.705
 6445SOL    HW220235   3.432   4.069   5.755
 6446SOL     OW20236   6.940   2.044   0.582
 6446SOL    HW120237   7.015   2.022   0.644
 6446SOL    HW220238   6.880   1.965   0.573
 6447SOL     OW20239   1.520   0.243   3.134
 6447SOL    HW120240   1.580   0.322   3.143
 6447SOL    HW220241   1.481   0.241   3.042
 6448SOL     OW20242   6.939   2.392   2.996
 6448SOL    HW120243   6.992   2.438   2.925
 6448SOL    HW220244   6.992   2.394   3.082
 6449SOL     OW20245   3.937   2.669   0.966
 6449SOL    HW120246   3.926   2.571   0.984
 6449SOL    HW220247   3.853   2.706   0.927
 6450SOL     OW20248   6.719   2.922   0.544
 6450SOL    HW120249   6.663   2.843   0.519
 6450SOL    HW220250   6.741   2.975   0.462
 6451SOL     OW20251   2.717   6.530   3.854
 6451SOL    HW120252   2.687   6.612   3.804
 6451SOL    HW220253   2.638   6.490   3.900
 6452SOL     OW20254   3.701   6.267   5.096
 6452SOL    HW120255   3.616   6.320   5.089
 6452SOL    HW220256   3.745   6.261   5.007
 6453SOL     OW20257   2.038   5.191   6.851
 6453SOL    HW120258   1.951   5.231   6.823
 6453SOL    HW220259   2.058   5.110   6.796
 6454SOL     OW20260   3.465   1.164   4.535
 6454SOL    HW120261   3.408   1.215   4.470
 6454SOL    HW220262   3.552   1.210   4.547
 6455SOL     OW20263   5.781   3.331   6.541
 6455SOL    HW120264   5.772   3.284   6.453
 6455SOL    HW220265   5.829   3.272   6.606
 6456SOL     OW20266   0.230   1.017   5.199
 6456SOL    HW120267   0.309   0.955   5.193
 6456SOL    HW220268   0.156   0.972   5.249
 6457SOL     OW20269   5.788   2.834   2.532
 6457SOL    HW120270   5.878   2.836   2.491
 6457SOL    HW220271   5.738   2.754   2.500
 6458SOL     OW20272   0.951   6.441   3.495
 6458SOL    HW120273   0.973   6.376   3.568
 6458SOL    HW220274   0.852   6.457   3.493
 6459SOL     OW20275   5.214   4.467   0.906
 6459SOL    HW120276   5.133   4.467   0.847
 6459SOL    HW220277   5.185   4.475   1.002
 6460SOL     OW20278   3.173   5.013   1.496
 6460SOL    HW120279   3.154   4.924   1.453
 6460SOL    HW220280   3.129   5.016   1.586
 6461SOL     OW20281   3.056   6.373   5.366
 6461SOL    HW120282   3.026   6.350   5.458
 6461SOL    HW220283   2.987   6.431   5.322
 6462SOL     OW20284   1.936   3.315   3.085
 6462SOL    HW120285   1.948   3.262   3.168
 6462SOL    HW220286   1.908   3.408   3.108
 6463SOL     OW20287   0.828   3.812   5.611
 6463SOL    HW120288   0.755   3.781   5.551
 6463SOL    HW220289   0.899   3.857   5.556
 6464SOL     OW20290   1.610   5.231   2.116
 6464SOL    HW120291   1.577   5.202   2.026
 6464SOL    HW220292   1.539   5.214   2.184
 6465SOL     OW20293   6.182   0.686   2.460
 6465SOL    HW120294   6.184   0.587   2.474
 6465SOL    HW220295   6.192   0.733   2.548
 6466SOL     OW20296   6.957   2.377   5.151
 6466SOL    HW120297   6.887   2.359   5.082
 6466SOL    HW220298   6.965   2.475   5.166
 6467SOL     OW20299   3.556   0.667   6.277
 6467SOL    HW120300   3.611   0.614   6.212
 6467SOL    HW220301   3.528   0.753   6.234
 6468SOL     OW20302   5.430   4.013   2.008
 6468SOL    HW120303   5.499   4.011   1.935
 6468SOL    HW220304   5.350   4.064   1.977
 6469SOL     OW20305   6.182   0.986   5.878
 6469SOL    HW120306   6.204   1.002   5.781
 6469SOL    HW220307   6.267   0.981   5.930
 6470SOL     OW20308   6.191   6.042   4.513
 6470SOL    HW120309   6.153   5.960   4.556
 6470SOL    HW220310   6.126   6.117   4.521
 6471SOL     OW20311   6.199   5.941   5.465
 6471SOL    HW120312   6.146   5.901   5.540
 6471SOL    HW220313   6.290   5.900   5.463
 6472SOL     OW20314   1.781   6.532   1.624
 6472SOL    HW120315   1.825   6.564   1.707
 6472SOL    HW220316   1.851   6.500   1.559
 6473SOL     OW20317   2.651   0.646   4.881
 6473SOL    HW120318   2.583   0.670   4.950
 6473SOL    HW220319   2.633   0.698   4.797
 6474SOL     OW20320   2.745   3.329   5.756
 6474SOL    HW120321   2.768   3.248   5.809
 6474SOL    HW220322   2.678   3.305   5.686
 6475SOL     OW20323   4.908   5.319   3.927
 6475SOL    HW120324   4.833   5.298   3.864
 6475SOL    HW220325   4.872   5.327   4.020
 6476SOL     OW20326   5.627   5.051   2.441
 6476SOL    HW120327   5.557   4.981   2.458
 6476SOL    HW220328   5.655   5.047   2.346
 6477SOL     OW20329   6.529   6.533   0.085
 6477SOL    HW120330   6.505   6.524   7.013
 6477SOL    HW220331   6.515   6.628   0.113
 6478SOL     OW20332   5.278   6.023   1.691
 6478SOL    HW120333   5.213   5.950   1.708
 6478SOL    HW220334   5.236   6.093   1.633
 6479SOL     OW20335   3.468   5.867   2.662
 6479SOL    HW120336   3.564   5.845   2.681
 6479SOL    HW220337   3.416   5.862   2.747
 6480SOL     OW20338   3.019   0.933   1.436
 6480SOL    HW120339   3.082   1.009   1.422
 6480SOL    HW220340   2.938   0.946   1.379
 6481SOL     OW20341   4.708   0.891   1.033
 6481SOL    HW120342   4.673   0.800   1.057
 6481SOL    HW220343   4.656   0.960   1.083
 6482SOL     OW20344   6.793   0.043   6.380
 6482SOL    HW120345   6.794   0.009   6.286
 6482SOL    HW220346   6.784   6.992   6.443
 6483SOL     OW20347   2.265   5.922   1.701
 6483SOL    HW120348   2.209   5.982   1.644
 6483SOL    HW220349   2.211   5.889   1.778
 6484SOL     OW20350   5.397   6.834   3.179
 6484SOL    HW120351   5.476   6.779   3.207
 6484SOL    HW220352   5.329   6.774   3.136
 6485SOL     OW20353   0.747   2.737   3.214
 6485SOL    HW120354   0.738   2.820   3.269
 6485SOL    HW220355   0.662   2.723   3.163
 6486SOL     OW20356   1.975   3.184   3.343
 6486SOL    HW120357   2.045   3.200   3.412
 6486SOL    HW220358   1.922   3.102   3.367
 6487SOL     OW20359   5.699   5.077   3.376
 6487SOL    HW120360   5.702   5.056   3.474
 6487SOL    HW220361   5.658   5.000   3.327
 6488SOL     OW20362   3.468   5.245   5.773
 6488SOL    HW120363   3.382   5.287   5.740
 6488SOL    HW220364   3.446   5.164   5.828
 6489SOL     OW20365   2.573   2.142   6.346
 6489SOL    HW120366   2.589   2.121   6.250
 6489SOL    HW220367   2.660   2.147   6.394
 6490SOL     OW20368   5.259   1.601   0.805
 6490SOL    HW120369   5.236   1.512   0.767
 6490SOL    HW220370   5.253   1.671   0.733
 6491SOL     OW20371   4.494   0.873   5.928
 6491SOL    HW120372   4.410   0.840   5.971
 6491SOL    HW220373   4.505   0.971   5.944
 6492SOL     OW20374   6.085   5.871   5.710
 6492SOL    HW120375   6.145   5.821   5.773
 6492SOL    HW220376   6.014   5.809   5.675
 6493SOL     OW20377   0.895   6.607   5.180
 6493SOL    HW120378   0.904   6.652   5.269
 6493SOL    HW220379   0.937   6.663   5.109
 6494SOL     OW20380   1.219   0.699   3.618
 6494SOL    HW120381   1.198   0.639   3.542
 6494SOL    HW220382   1.189   0.656   3.704
 6495SOL     OW20383   5.673   4.681   2.239
 6495SOL    HW120384   5.635   4.592   2.211
 6495SOL    HW220385   5.769   4.670   2.263
 6496SOL     OW20386   0.578   6.349   3.144
 6496SOL    HW120387   0.667   6.310   3.166
 6496SOL    HW220388   0.582   6.448   3.152
 6497SOL     OW20389   0.442   5.922   0.191
 6497SOL    HW120390   0.480   5.971   0.113
 6497SOL    HW220391   0.463   5.824   0.182
 6498SOL     OW20392   1.463   4.486   3.840
 6498SOL    HW120393   1.393   4.516   3.776
 6498SOL    HW220394   1.472   4.386   3.836
 6499SOL     OW20395   6.339   1.575   3.066
 6499SOL    HW120396   6.357   1.479   3.090
 6499SOL    HW220397   6.281   1.579   2.985
 6500SOL     OW20398   6.240   4.809   3.203
 6500SOL    HW120399   6.150   4.780   3.171
 6500SOL    HW220400   6.259   4.767   3.292
 6501SOL     OW20401   6.817   3.354   0.530
 6501SOL    HW120402   6.746   3.421   0.548
 6501SOL    HW220403   6.815   3.283   0.601
 6502SOL     OW20404   1.149   5.163   1.412
 6502SOL    HW120405   1.111   5.082   1.457
 6502SOL    HW220406   1.162   5.236   1.479
 6503SOL     OW20407   4.634   0.111   4.454
 6503SOL    HW120408   4.626   0.042   4.527
 6503SOL    HW220409   4.705   0.084   4.389
 6504SOL     OW20410   1.814   1.215   0.904
 6504SOL    HW120411   1.761   1.131   0.916
 6504SOL    HW220412   1.764   1.292   0.944
 6505SOL     OW20413   5.847   5.539   0.476
 6505SOL    HW120414   5.812   5.632   0.489
 6505SOL    HW220415   5.857   5.520   0.378
 6506SOL     OW20416   2.347   1.513   0.761
 6506SOL    HW120417   2.429   1.545   0.711
 6506SOL    HW220418   2.339   1.414   0.753
 6507SOL     OW20419   2.950   0.748   2.211
 6507SOL    HW120420   2.959   0.651   2.233
 6507SOL    HW220421   2.975   0.763   2.115
 6508SOL     OW20422   2.385   1.525   2.283
 6508SOL    HW120423   2.307   1.577   2.247
 6508SOL    HW220424   2.442   1.585   2.339
 6509SOL     OW20425   0.704   3.013   4.239
 6509SOL    HW120426   0.793   3.058   4.235
 6509SOL    HW220427   0.657   3.023   4.151
 6510SOL     OW20428   6.475   4.845   6.591
 6510SOL    HW120429   6.414   4.922   6.572
 6510SOL    HW220430   6.529   4.824   6.508
 6511SOL     OW20431   6.869   6.631   5.946
 6511SOL    HW120432   6.934   6.589   5.882
 6511SOL    HW220433   6.901   6.618   6.039
 6512SOL     OW20434   5.516   5.833   3.919
 6512SOL    HW120435   5.513   5.859   3.823
 6512SOL    HW220436   5.536   5.914   3.974
 6513SOL     OW20437   1.079   6.900   3.538
 6513SOL    HW120438   1.049   6.995   3.537
 6513SOL    HW220439   1.171   6.893   3.501
 6514SOL     OW20440   3.411   0.243   3.505
 6514SOL    HW120441   3.316   0.216   3.515
 6514SOL    HW220442   3.462   0.218   3.587
 6515SOL     OW20443   0.765   0.887   3.352
 6515SOL    HW120444   0.803   0.918   3.265
 6515SOL    HW220445   0.666   0.872   3.341
 6516SOL     OW20446   1.324   1.249   5.735
 6516SOL    HW120447   1.388   1.189   5.784
 6516SOL    HW220448   1.375   1.318   5.684
 6517SOL     OW20449   2.068   2.086   0.801
 6517SOL    HW120450   2.028   2.053   0.716
 6517SOL    HW220451   2.013   2.054   0.878
 6518SOL     OW20452   5.732   6.351   0.859
 6518SOL    HW120453   5.763   6.276   0.801
 6518SOL    HW220454   5.645   6.327   0.902
 6519SOL     OW20455   0.885   2.273   3.895
 6519SOL    HW120456   0.900   2.177   3.870
 6519SOL    HW220457   0.830   2.278   3.978
 6520SOL     OW20458   5.803   5.478   1.669
 6520SOL    HW120459   5.751   5.406   1.623
 6520SOL    HW220460   5.891   5.491   1.622
 6521SOL     OW20461   1.413   2.082   5.650
 6521SOL    HW120462   1.484   2.018   5.681
 6521SOL    HW220463   1.325   2.056   5.689
 6522SOL     OW20464   2.532   5.587   4.742
 6522SOL    HW120465   2.498   5.512   4.799
 6522SOL    HW220466   2.455   5.640   4.707
 6523SOL     OW20467   1.788   2.645   6.957
 6523SOL    HW120468   1.792   2.550   6.926
 6523SOL    HW220469   1.754   2.703   6.882
 6524SOL     OW20470   4.187   3.607   4.892
 6524SOL    HW120471   4.228   3.532   4.841
 6524SOL    HW220472   4.239   3.622   4.977
 6525SOL     OW20473   0.535   2.388   4.521
 6525SOL    HW120474   0.459   2.434   4.567
 6525SOL    HW220475   0.513   2.291   4.511
 6526SOL     OW20476   1.465   5.477   4.046
 6526SOL    HW120477   1.546   5.440   4.001
 6526SOL    HW220478   1.391   5.410   4.041
 6527SOL     OW20479   2.583   1.554   4.206
 6527SOL    HW120480   2.508   1.619   4.219
 6527SOL    HW220481   2.585   1.524   4.111
 6528SOL     OW20482   0.577   0.048   3.184
 6528SOL    HW120483   0.516   0.032   3.106
 6528SOL    HW220484   0.541   0.000   3.264
 6529SOL     OW20485   6.849   2.862   2.589
 6529SOL    HW120486   6.843   2.886   2.686
 6529SOL    HW220487   6.793   2.925   2.536
 6530SOL     OW20488   0.818   1.849   0.706
 6530SOL    HW120489   0.790   1.768   0.654
 6530SOL    HW220490   0.797   1.932   0.654
 6531SOL     OW20491   5.100   2.205   5.028
 6531SOL    HW120492   5.047   2.172   4.950
 6531SOL    HW220493   5.159   2.131   5.062
 6532SOL     OW20494   1.128   2.571   6.763
 6532SOL    HW120495   1.132   2.671   6.756
 6532SOL    HW220496   1.036   2.539   6.741
 6533SOL     OW20497   4.475   0.340   1.106
 6533SOL    HW120498   4.464   0.240   1.106
 6533SOL    HW220499   4.436   0.377   1.022
 6534SOL     OW20500   1.999   3.315   0.229
 6534SOL    HW120501   1.998   3.414   0.212
 6534SOL    HW220502   2.023   3.267   0.145
 6535SOL     OW20503   2.073   3.606   5.252
 6535SOL    HW120504   2.068   3.702   5.281
 6535SOL    HW220505   2.163   3.569   5.274
 6536SOL     OW20506   6.577   2.505   6.609
 6536SOL    HW120507   6.489   2.461   6.592
 6536SOL    HW220508   6.597   2.504   6.707
 6537SOL     OW20509   1.385   0.538   6.508
 6537SOL    HW120510   1.484   0.523   6.508
 6537SOL    HW220511   1.356   0.567   6.599
 6538SOL     OW20512   1.776   2.999   5.831
 6538SOL    HW120513   1.677   2.987   5.823
 6538SOL    HW220514   1.810   3.049   5.751
 6539SOL     OW20515   3.271   1.633   6.206
 6539SOL    HW120516   3.267   1.721   6.158
 6539SOL    HW220517   3.356   1.627   6.259
 6540SOL     OW20518   3.733   2.108   4.053
 6540SOL    HW120519   3.807   2.154   4.102
 6540SOL    HW220520   3.771   2.065   3.971
 6541SOL     OW20521   2.878   2.947   5.500
 6541SOL    HW120522   2.892   3.005   5.420
 6541SOL    HW220523   2.781   2.950   5.526
 6542SOL     OW20524   5.924   3.994   3.373
 6542SOL    HW120525   5.852   3.931   3.401
 6542SOL    HW220526   5.925   4.003   3.274
 6543SOL     OW20527   0.594   6.094   6.211
 6543SOL    HW120528   0.641   6.009   6.232
 6543SOL    HW220529   0.603   6.114   6.113
 6544SOL     OW20530   0.243   5.682   2.615
 6544SOL    HW120531   0.222   5.779   2.608
 6544SOL    HW220532   0.295   5.665   2.699
 6545SOL     OW20533   5.839   3.294   6.080
 6545SOL    HW120534   5.863   3.211   6.030
 6545SOL    HW220535   5.898   3.303   6.160
 6546SOL     OW20536   3.648   4.658   6.017
 6546SOL    HW120537   3.563   4.605   6.023
 6546SOL    HW220538   3.699   4.631   5.935
 6547SOL     OW20539   5.039   0.283   6.652
 6547SOL    HW120540   4.959   0.320   6.605
 6547SOL    HW220541   5.041   0.318   6.746
 6548SOL     OW20542   5.795   3.620   5.584
 6548SOL    HW120543   5.866   3.630   5.654
 6548SOL    HW220544   5.828   3.560   5.511
 6549SOL     OW20545   2.855   2.148   2.436
 6549SOL    HW120546   2.864   2.061   2.485
 6549SOL    HW220547   2.825   2.219   2.501
 6550SOL     OW20548   1.221   5.568   2.959
 6550SOL    HW120549   1.267   5.479   2.964
 6550SOL    HW220550   1.242   5.622   3.040
 6551SOL     OW20551   3.041   5.220   2.140
 6551SOL    HW120552   3.097   5.140   2.118
 6551SOL    HW220553   2.962   5.190   2.195
 6552SOL     OW20554   4.439   5.188   6.502
 6552SOL    HW120555   4.484   5.260   6.554
 6552SOL    HW220556   4.350   5.221   6.470
 6553SOL     OW20557   0.136   3.139   3.113
 6553SOL    HW120558   0.050   3.088   3.124
 6553SOL    HW220559   0.150   3.159   3.016
 6554SOL     OW20560   0.156   3.755   4.216
 6554SOL    HW120561   0.195   3.664   4.217
 6554SOL    HW220562   0.121   3.777   4.308
 6555SOL     OW20563   0.406   1.257   1.597
 6555SOL    HW120564   0.474   1.207   1.650
 6555SOL    HW220565   0.452   1.313   1.528
 6556SOL     OW20566   4.253   0.328   4.059
 6556SOL    HW120567   4.315   0.252   4.038
 6556SOL    HW220568   4.246   0.340   4.158
 6557SOL     OW20569   5.267   6.246   0.514
 6557SOL    HW120570   5.222   6.324   0.472
 6557SOL    HW220571   5.201   6.172   0.527
 6558SOL     OW20572   7.018   6.255   5.988
 6558SOL    HW120573   6.966   6.286   6.067
 6558SOL    HW220574   6.956   6.216   5.920
 6559SOL     OW20575   3.400   3.176   1.257
 6559SOL    HW120576   3.491   3.157   1.295
 6559SOL    HW220577   3.335   3.107   1.290
 6560SOL     OW20578   4.313   1.589   0.752
 6560SOL    HW120579   4.328   1.655   0.826
 6560SOL    HW220580   4.273   1.505   0.791
 6561SOL     OW20581   3.499   3.721   4.209
 6561SOL    HW120582   3.579   3.690   4.260
 6561SOL    HW220583   3.428   3.748   4.273
 6562SOL     OW20584   6.775   4.078   5.270
 6562SOL    HW120585   6.682   4.058   5.238
 6562SOL    HW220586   6.836   4.085   5.191
 6563SOL     OW20587   0.906   5.343   2.321
 6563SOL    HW120588   0.901   5.417   2.389
 6563SOL    HW220589   1.001   5.326   2.297
 6564SOL     OW20590   1.535   5.351   2.694
 6564SOL    HW120591   1.592   5.314   2.621
 6564SOL    HW220592   1.592   5.401   2.759
 6565SOL     OW20593   6.569   3.497   5.489
 6565SOL    HW120594   6.517   3.575   5.525
 6565SOL    HW220595   6.507   3.432   5.447
 6566SOL     OW20596   3.521   0.602   0.704
 6566SOL    HW120597   3.529   0.525   0.640
 6566SOL    HW220598   3.425   0.617   0.726
 6567SOL     OW20599   6.323   2.558   0.860
 6567SOL    HW120600   6.303   2.539   0.956
 6567SOL    HW220601   6.316   2.474   0.807
 6568SOL     OW20602   4.561   3.797   1.686
 6568SOL    HW120603   4.647   3.844   1.667
 6568SOL    HW220604   4.484   3.858   1.666
 6569SOL     OW20605   1.101   5.178   6.136
 6569SOL    HW120606   1.166   5.111   6.170
 6569SOL    HW220607   1.138   5.224   6.055
 6570SOL     OW20608   6.444   3.581   1.897
 6570SOL    HW120609   6.501   3.507   1.861
 6570SOL    HW220610   6.501   3.649   1.943
 6571SOL     OW20611   2.392   6.214   3.751
 6571SOL    HW120612   2.387   6.115   3.756
 6571SOL    HW220613   2.324   6.248   3.686
 6572SOL     OW20614   1.359   4.602   6.036
 6572SOL    HW120615   1.309   4.575   5.954
 6572SOL    HW220616   1.376   4.522   6.093
 6573SOL     OW20617   1.658   2.280   1.691
 6573SOL    HW120618   1.631   2.229   1.609
 6573SOL    HW220619   1.674   2.217   1.766
 6574SOL     OW20620   1.604   4.389   4.246
 6574SOL    HW120621   1.637   4.378   4.340
 6574SOL    HW220622   1.631   4.479   4.211
 6575SOL     OW20623   2.083   1.620   2.918
 6575SOL    HW120624   2.147   1.603   2.843
 6575SOL    HW220625   1.993   1.583   2.895
 6576SOL     OW20626   1.355   6.320   4.032
 6576SOL    HW120627   1.434   6.314   4.093
 6576SOL    HW220628   1.277   6.275   4.075
 6577SOL     OW20629   0.089   3.360   5.145
 6577SOL    HW120630   0.084   3.262   5.122
 6577SOL    HW220631   0.088   3.371   5.245
 6578SOL     OW20632   6.304   5.447   3.171
 6578SOL    HW120633   6.404   5.437   3.174
 6578SOL    HW220634   6.275   5.452   3.075
 6579SOL     OW20635   0.433   3.778   3.280
 6579SOL    HW120636   0.479   3.704   3.232
 6579SOL    HW220637   0.487   3.806   3.359
 6580SOL     OW20638   5.841   2.489   1.233
 6580SOL    HW120639   5.874   2.399   1.263
 6580SOL    HW220640   5.779   2.526   1.302
 6581SOL     OW20641   2.476   2.500   5.649
 6581SOL    HW120642   2.430   2.510   5.738
 6581SOL    HW220643   2.442   2.571   5.587
 6582SOL     OW20644   6.773   0.114   2.069
 6582SOL    HW120645   6.745   0.190   2.010
 6582SOL    HW220646   6.821   0.046   2.014
 6583SOL     OW20647   5.887   1.620   5.958
 6583SOL    HW120648   5.817   1.550   5.978
 6583SOL    HW220649   5.845   1.695   5.907
 6584SOL     OW20650   5.409   2.635   0.422
 6584SOL    HW120651   5.502   2.602   0.408
 6584SOL    HW220652   5.395   2.719   0.368
 6585SOL     OW20653   2.917   0.865   1.709
 6585SOL    HW120654   2.954   0.936   1.649
 6585SOL    HW220655   2.864   0.800   1.655
 6586SOL     OW20656   6.662   1.929   6.901
 6586SOL    HW120657   6.592   1.983   6.853
 6586SOL    HW220658   6.633   1.833   6.904
 6587SOL     OW20659   1.983   6.189   2.254
 6587SOL    HW120660   2.054   6.259   2.247
 6587SOL    HW220661   1.901   6.229   2.295
 6588SOL     OW20662   2.694   2.336   6.911
 6588SOL    HW120663   2.615   2.384   6.874
 6588SOL    HW220664   2.679   2.316   7.007
 6589SOL     OW20665   5.253   1.959   6.127
 6589SOL    HW120666   5.233   2.055   6.109
 6589SOL    HW220667   5.260   1.909   6.041
 6590SOL     OW20668   6.687   1.288   5.800
 6590SOL    HW120669   6.741   1.242   5.729
 6590SOL    HW220670   6.648   1.219   5.861
 6591SOL     OW20671   5.442   0.220   3.147
 6591SOL    HW120672   5.537   0.191   3.150
 6591SOL    HW220673   5.431   0.306   3.198
 6592SOL     OW20674   6.059   5.594   4.698
 6592SOL    HW120675   5.996   5.522   4.729
 6592SOL    HW220676   6.057   5.670   4.762
 6593SOL     OW20677   5.226   0.921   2.496
 6593SOL    HW120678   5.156   0.898   2.430
 6593SOL    HW220679   5.184   0.948   2.583
 6594SOL     OW20680   5.825   1.147   6.742
 6594SOL    HW120681   5.891   1.073   6.751
 6594SOL    HW220682   5.753   1.137   6.811
 6595SOL     OW20683   1.795   3.380   6.881
 6595SOL    HW120684   1.712   3.434   6.871
 6595SOL    HW220685   1.864   3.413   6.816
 6596SOL     OW20686   3.096   6.811   5.555
 6596SOL    HW120687   3.107   6.768   5.465
 6596SOL    HW220688   3.012   6.779   5.598
 6597SOL     OW20689   6.864   4.274   6.608
 6597SOL    HW120690   6.892   4.366   6.635
 6597SOL    HW220691   6.926   4.239   6.538
 6598SOL     OW20692   2.280   5.714   4.860
 6598SOL    HW120693   2.320   5.780   4.923
 6598SOL    HW220694   2.281   5.623   4.902
 6599SOL     OW20695   4.324   2.927   6.048
 6599SOL    HW120696   4.378   2.843   6.038
 6599SOL    HW220697   4.374   3.003   6.007
 6600SOL     OW20698   4.015   5.161   4.626
 6600SOL    HW120699   4.091   5.160   4.692
 6600SOL    HW220700   4.014   5.248   4.577
 6601SOL     OW20701   0.786   0.458   0.986
 6601SOL    HW120702   0.737   0.466   1.072
 6601SOL    HW220703   0.740   0.513   0.916
 6602SOL     OW20704   6.651   1.468   1.461
 6602SOL    HW120705   6.578   1.485   1.528
 6602SOL    HW220706   6.647   1.538   1.390
 6603SOL     OW20707   2.391   2.190   1.887
 6603SOL    HW120708   2.447   2.122   1.933
 6603SOL    HW220709   2.448   2.267   1.860
 6604SOL     OW20710   4.026   5.994   4.003
 6604SOL    HW120711   4.095   6.037   4.061
 6604SOL    HW220712   4.045   5.896   3.997
 6605SOL     OW20713   5.032   6.088   0.498
 6605SOL    HW120714   5.026   6.135   0.410
 6605SOL    HW220715   4.969   6.010   0.498
 6606SOL     OW20716   6.583   1.418   2.957
 6606SOL    HW120717   6.645   1.472   3.014
 6606SOL    HW220718   6.546   1.476   2.885
 6607SOL     OW20719   1.365   2.153   3.028
 6607SOL    HW120720   1.304   2.165   3.107
 6607SOL    HW220721   1.322   2.093   2.961
 6608SOL     OW20722   5.199   5.029   4.999
 6608SOL    HW120723   5.232   4.969   5.071
 6608SOL    HW220724   5.250   5.012   4.915
 6609SOL     OW20725   5.577   1.591   0.189
 6609SOL    HW120726   5.642   1.521   0.219
 6609SOL    HW220727   5.626   1.676   0.170
 6610SOL     OW20728   3.666   0.954   0.554
 6610SOL    HW120729   3.661   0.966   0.455
 6610SOL    HW220730   3.754   0.914   0.578
 6611SOL     OW20731   5.844   3.194   3.220
 6611SOL    HW120732   5.890   3.146   3.294
 6611SOL    HW220733   5.879   3.288   3.214
 6612SOL     OW20734   1.210   6.008   7.019
 6612SOL    HW120735   1.115   6.038   7.018
 6612SOL    HW220736   1.253   6.038   0.079
 6613SOL     OW20737   5.108   4.882   0.978
 6613SOL    HW120738   5.084   4.878   1.075
 6613SOL    HW220739   5.028   4.859   0.922
 6614SOL     OW20740   5.343   4.926   5.449
 6614SOL    HW120741   5.441   4.944   5.439
 6614SOL    HW220742   5.301   4.999   5.503
 6615SOL     OW20743   0.350   3.751   5.106
 6615SOL    HW120744   0.337   3.850   5.109
 6615SOL    HW220745   0.341   3.714   5.198
 6616SOL     OW20746   4.783   0.997   4.065
 6616SOL    HW120747   4.831   1.031   3.985
 6616SOL    HW220748   4.814   1.047   4.146
 6617SOL     OW20749   4.295   0.181   4.919
 6617SOL    HW120750   4.354   0.115   4.966
 6617SOL    HW220751   4.221   0.132   4.873
 6618SOL     OW20752   0.094   5.031   1.166
 6618SOL    HW120753   0.132   5.046   1.075
 6618SOL    HW220754   0.169   5.020   1.232
 6619SOL     OW20755   6.830   6.234   1.711
 6619SOL    HW120756   6.781   6.157   1.753
 6619SOL    HW220757   6.927   6.229   1.736
 6620SOL     OW20758   4.234   3.326   5.736
 6620SOL    HW120759   4.279   3.244   5.700
 6620SOL    HW220760   4.241   3.326   5.836
 6621SOL     OW20761   2.351   4.171   0.469
 6621SOL    HW120762   2.347   4.080   0.429
 6621SOL    HW220763   2.411   4.170   0.548
 6622SOL     OW20764   6.367   5.411   1.090
 6622SOL    HW120765   6.350   5.339   1.157
 6622SOL    HW220766   6.427   5.480   1.130
 6623SOL     OW20767   3.609   4.062   2.273
 6623SOL    HW120768   3.529   4.070   2.332
 6623SOL    HW220769   3.691   4.051   2.329
 6624SOL     OW20770   4.391   5.486   4.213
 6624SOL    HW120771   4.318   5.418   4.221
 6624SOL    HW220772   4.478   5.439   4.198
 6625SOL     OW20773   6.122   6.654   0.208
 6625SOL    HW120774   6.191   6.726   0.203
 6625SOL    HW220775   6.092   6.643   0.302
 6626SOL     OW20776   2.568   5.108   3.706
 6626SOL    HW120777   2.657   5.153   3.696
 6626SOL    HW220778   2.582   5.014   3.738
 6627SOL     OW20779   1.922   6.639   1.839
 6627SOL    HW120780   1.850   6.694   1.881
 6627SOL    HW220781   1.920   6.546   1.876
 6628SOL     OW20782   4.246   5.855   3.500
 6628SOL    HW120783   4.252   5.810   3.588
 6628SOL    HW220784   4.155   5.894   3.488
 6629SOL     OW20785   3.318   3.698   0.280
 6629SOL    HW120786   3.390   3.664   0.220
 6629SOL    HW220787   3.299   3.629   0.351
 6630SOL     OW20788   3.228   1.394   6.438
 6630SOL    HW120789   3.323   1.425   6.441
 6630SOL    HW220790   3.204   1.370   6.344
 6631SOL     OW20791   4.183   0.186   1.488
 6631SOL    HW120792   4.218   0.150   1.574
 6631SOL    HW220793   4.146   0.112   1.432
 6632SOL     OW20794   6.477   2.604   3.173
 6632SOL    HW120795   6.453   2.520   3.124
 6632SOL    HW220796   6.563   2.591   3.222
 6633SOL     OW20797   0.849   6.787   2.080
 6633SOL    HW120798   0.798   6.705   2.108
 6633SOL    HW220799   0.856   6.788   1.980
 6634SOL     OW20800   6.783   2.653   5.560
 6634SOL    HW120801   6.827   2.563   5.559
 6634SOL    HW220802   6.751   2.672   5.653
 6635SOL     OW20803   4.133   4.767   3.024
 6635SOL    HW120804   4.063   4.782   2.954
 6635SOL    HW220805   4.094   4.779   3.115
 6636SOL     OW20806   1.612   3.398   4.123
 6636SOL    HW120807   1.711   3.392   4.140
 6636SOL    HW220808   1.564   3.337   4.186
 6637SOL     OW20809   6.616   2.291   2.043
 6637SOL    HW120810   6.630   2.336   2.131
 6637SOL    HW220811   6.539   2.228   2.050
 6638SOL     OW20812   2.139   0.329   6.738
 6638SOL    HW120813   2.099   0.238   6.724
 6638SOL    HW220814   2.083   0.397   6.691
 6639SOL     OW20815   4.336   5.770   6.106
 6639SOL    HW120816   4.366   5.848   6.051
 6639SOL    HW220817   4.252   5.794   6.154
 6640SOL     OW20818   5.932   2.576   3.310
 6640SOL    HW120819   5.846   2.578   3.360
 6640SOL    HW220820   5.992   2.648   3.345
 6641SOL     OW20821   2.387   5.426   0.158
 6641SOL    HW120822   2.413   5.378   0.075
 6641SOL    HW220823   2.343   5.361   0.221
 6642SOL     OW20824   6.417   6.488   6.871
 6642SOL    HW120825   6.424   6.529   6.780
 6642SOL    HW220826   6.345   6.418   6.870
 6643SOL     OW20827   3.575   5.651   0.286
 6643SOL    HW120828   3.565   5.732   0.228
 6643SOL    HW220829   3.561   5.677   0.381
 6644SOL     OW20830   1.720   4.171   2.067
 6644SOL    HW120831   1.663   4.243   2.028
 6644SOL    HW220832   1.767   4.206   2.148
 6645SOL     OW20833   6.206   4.536   5.089
 6645SOL    HW120834   6.268   4.458   5.090
 6645SOL    HW220835   6.140   4.525   5.014
 6646SOL     OW20836   1.503   6.040   3.709
 6646SOL    HW120837   1.528   6.038   3.805
 6646SOL    HW220838   1.543   6.121   3.665
 6647SOL     OW20839   4.066   1.740   2.189
 6647SOL    HW120840   4.015   1.823   2.165
 6647SOL    HW220841   4.003   1.670   2.222
 6648SOL     OW20842   4.263   5.893   1.705
 6648SOL    HW120843   4.187   5.863   1.763
 6648SOL    HW220844   4.291   5.817   1.646
 6649SOL     OW20845   4.444   1.997   5.869
 6649SOL    HW120846   4.435   2.000   5.969
 6649SOL    HW220847   4.484   2.083   5.837
 6650SOL     OW20848   3.176   1.056   3.811
 6650SOL    HW120849   3.189   1.085   3.716
 6650SOL    HW220850   3.238   0.980   3.831
 6651SOL     OW20851   1.439   1.836   0.232
 6651SOL    HW120852   1.447   1.743   0.267
 6651SOL    HW220853   1.452   1.901   0.307
 6652SOL     OW20854   0.957   5.612   3.253
 6652SOL    HW120855   0.952   5.577   3.346
 6652SOL    HW220856   0.990   5.707   3.254
 6653SOL     OW20857   3.276   3.669   3.543
 6653SOL    HW120858   3.252   3.589   3.598
 6653SOL    HW220859   3.298   3.745   3.604
 6654SOL     OW20860   1.835   3.693   1.759
 6654SOL    HW120861   1.917   3.637   1.769
 6654SOL    HW220862   1.817   3.741   1.845
 6655SOL     OW20863   1.930   0.380   0.743
 6655SOL    HW120864   1.990   0.302   0.728
 6655SOL    HW220865   1.836   0.347   0.756
 6656SOL     OW20866   0.060   2.751   1.914
 6656SOL    HW120867   7.009   2.752   1.849
 6656SOL    HW220868   0.126   2.681   1.888
 6657SOL     OW20869   3.111   4.924   5.843
 6657SOL    HW120870   3.103   4.984   5.764
 6657SOL    HW220871   3.133   4.832   5.813
 6658SOL     OW20872   6.259   6.892   5.983
 6658SOL    HW120873   6.262   6.798   6.018
 6658SOL    HW220874   6.314   6.951   6.042
 6659SOL     OW20875   1.689   2.819   6.760
 6659SOL    HW120876   1.721   2.795   6.668
 6659SOL    HW220877   1.713   2.914   6.780
 6660SOL     OW20878   0.893   6.824   2.814
 6660SOL    HW120879   0.972   6.807   2.873
 6660SOL    HW220880   0.925   6.844   2.721
 6661SOL     OW20881   0.011   6.140   3.516
 6661SOL    HW120882   0.068   6.190   3.581
 6661SOL    HW220883   6.972   6.082   3.567
 6662SOL     OW20884   1.437   3.738   5.767
 6662SOL    HW120885   1.450   3.804   5.841
 6662SOL    HW220886   1.389   3.782   5.691
 6663SOL     OW20887   0.601   5.181   2.203
 6663SOL    HW120888   0.666   5.242   2.157
 6663SOL    HW220889   0.564   5.116   2.137
 6664SOL     OW20890   7.017   1.629   2.527
 6664SOL    HW120891   6.956   1.552   2.544
 6664SOL    HW220892   6.995   1.671   2.439
 6665SOL     OW20893   2.552   6.867   2.373
 6665SOL    HW120894   2.510   6.830   2.290
 6665SOL    HW220895   2.611   6.798   2.414
 6666SOL     OW20896   5.516   1.088   0.696
 6666SOL    HW120897   5.615   1.084   0.685
 6666SOL    HW220898   5.472   1.028   0.629
 6667SOL     OW20899   6.564   5.069   4.842
 6667SOL    HW120900   6.573   5.162   4.876
 6667SOL    HW220901   6.534   5.009   4.916
 6668SOL     OW20902   0.176   6.491   1.363
 6668SOL    HW120903   0.077   6.482   1.373
 6668SOL    HW220904   0.212   6.550   1.435
 6669SOL     OW20905   0.812   5.291   2.786
 6669SOL    HW120906   0.876   5.367   2.789
 6669SOL    HW220907   0.832   5.227   2.860
 6670SOL     OW20908   4.003   4.295   0.420
 6670SOL    HW120909   3.980   4.226   0.351
 6670SOL    HW220910   4.089   4.269   0.465
 6671SOL     OW20911   0.611   2.995   5.463
 6671SOL    HW120912   0.564   3.004   5.375
 6671SOL    HW220913   0.654   2.905   5.469
 6672SOL     OW20914   0.566   0.249   5.663
 6672SOL    HW120915   0.642   0.301   5.626
 6672SOL    HW220916   0.564   0.259   5.763
 6673SOL     OW20917   5.066   5.514   1.161
 6673SOL    HW120918   5.142   5.522   1.226
 6673SOL    HW220919   5.043   5.418   1.148
 6674SOL     OW20920   0.576   6.724   5.249
 6674SOL    HW120921   0.602   6.638   5.206
 6674SOL    HW220922   0.505   6.707   5.317
 6675SOL     OW20923   6.584   6.192   0.441
 6675SOL    HW120924   6.555   6.124   0.509
 6675SOL    HW220925   6.669   6.235   0.472
 6676SOL     OW20926   0.656   1.590   0.945
 6676SOL    HW120927   0.564   1.560   0.970
 6676SOL    HW220928   0.650   1.673   0.890
 6677SOL     OW20929   6.670   4.489   0.290
 6677SOL    HW120930   6.687   4.524   0.381
 6677SOL    HW220931   6.580   4.520   0.258
 6678SOL     OW20932   0.383   3.211   4.169
 6678SOL    HW120933   0.315   3.232   4.100
 6678SOL    HW220934   0.403   3.113   4.168
 6679SOL     OW20935   1.473   0.915   4.920
 6679SOL    HW120936   1.517   0.864   4.847
 6679SOL    HW220937   1.383   0.945   4.890
 6680SOL     OW20938   2.905   0.836   6.260
 6680SOL    HW120939   2.873   0.818   6.167
 6680SOL    HW220940   2.931   0.932   6.269
 6681SOL     OW20941   5.207   5.741   0.037
 6681SOL    HW120942   5.203   5.772   0.132
 6681SOL    HW220943   5.121   5.764   7.016
 6682SOL     OW20944   6.729   5.294   1.965
 6682SOL    HW120945   6.658   5.357   1.935
 6682SOL    HW220946   6.785   5.338   2.035
 6683SOL     OW20947   5.096   1.396   4.365
 6683SOL    HW120948   5.120   1.302   4.341
 6683SOL    HW220949   4.997   1.407   4.361
 6684SOL     OW20950   2.017   1.161   2.845
 6684SOL    HW120951   2.092   1.198   2.790
 6684SOL    HW220952   2.048   1.078   2.892
 6685SOL     OW20953   5.617   2.952   6.532
 6685SOL    HW120954   5.544   3.014   6.562
 6685SOL    HW220955   5.577   2.869   6.495
 6686SOL     OW20956   6.065   3.630   4.221
 6686SOL    HW120957   6.056   3.724   4.254
 6686SOL    HW220958   6.001   3.614   4.146
 6687SOL     OW20959   0.960   0.865   0.169
 6687SOL    HW120960   1.011   0.920   0.235
 6687SOL    HW220961   0.928   0.781   0.212
 6688SOL     OW20962   0.748   5.194   2.519
 6688SOL    HW120963   0.808   5.242   2.455
 6688SOL    HW220964   0.770   5.222   2.613
 6689SOL     OW20965   4.358   5.125   6.956
 6689SOL    HW120966   4.310   5.112   6.869
 6689SOL    HW220967   4.456   5.116   6.941
 6690SOL     OW20968   1.359   1.665   0.665
 6690SOL    HW120969   1.337   1.578   0.709
 6690SOL    HW220970   1.276   1.719   0.653
 6691SOL     OW20971   1.667   5.017   1.042
 6691SOL    HW120972   1.671   5.109   1.004
 6691SOL    HW220973   1.756   4.973   1.032
 6692SOL     OW20974   4.363   4.111   6.091
 6692SOL    HW120975   4.291   4.157   6.144
 6692SOL    HW220976   4.445   4.168   6.089
 6693SOL     OW20977   3.779   3.974   5.510
 6693SOL    HW120978   3.704   4.036   5.485
 6693SOL    HW220979   3.749   3.913   5.583
 6694SOL     OW20980   2.950   6.304   0.406
 6694SOL    HW120981   2.943   6.352   0.319
 6694SOL    HW220982   2.859   6.279   0.438
 6695SOL     OW20983   1.643   1.533   6.373
 6695SOL    HW120984   1.627   1.463   6.443
 6695SOL    HW220985   1.673   1.617   6.417
 6696SOL     OW20986   1.906   2.831   1.433
 6696SOL    HW120987   1.901   2.869   1.526
 6696SOL    HW220988   1.967   2.751   1.434
 6697SOL     OW20989   5.113   2.755   3.849
 6697SOL    HW120990   5.058   2.768   3.766
 6697SOL    HW220991   5.062   2.699   3.915
 6698SOL     OW20992   2.950   4.468   0.223
 6698SOL    HW120993   2.903   4.549   0.188
 6698SOL    HW220994   2.981   4.486   0.316
 6699SOL     OW20995   1.406   3.497   6.429
 6699SOL    HW120996   1.336   3.486   6.359
 6699SOL    HW220997   1.364   3.496   6.519
 6700SOL     OW20998   6.945   6.609   6.209
 6700SOL    HW120999   7.024   6.619   6.268
 6700SOL    HW221000   6.865   6.651   6.252
 6701SOL     OW21001   0.438   3.108   1.361
 6701SOL    HW121002   0.503   3.042   1.324
 6701SOL    HW221003   0.466   3.134   1.453
 6702SOL     OW21004   1.511   3.524   0.688
 6702SOL    HW121005   1.422   3.541   0.731
 6702SOL    HW221006   1.528   3.426   0.683
 6703SOL     OW21007   0.591   2.587   6.724
 6703SOL    HW121008   0.514   2.578   6.661
 6703SOL    HW221009   0.564   2.553   6.814
 6704SOL     OW21010   4.955   2.761   3.310
 6704SOL    HW121011   4.878   2.699   3.291
 6704SOL    HW221012   4.941   2.847   3.261
 6705SOL     OW21013   5.822   0.941   1.113
 6705SOL    HW121014   5.776   0.954   1.201
 6705SOL    HW221015   5.919   0.924   1.128
 6706SOL     OW21016   0.952   6.103   7.020
 6706SOL    HW121017   0.902   6.116   0.081
 6706SOL    HW221018   0.933   6.180   6.959
 6707SOL     OW21019   1.267   5.402   2.267
 6707SOL    HW121020   1.232   5.469   2.201
 6707SOL    HW221021   1.349   5.439   2.311
 6708SOL     OW21022   2.200   6.391   1.712
 6708SOL    HW121023   2.205   6.470   1.650
 6708SOL    HW221024   2.200   6.307   1.658
 6709SOL     OW21025   4.972   1.663   3.230
 6709SOL    HW121026   4.923   1.656   3.143
 6709SOL    HW221027   4.920   1.721   3.293
 6710SOL     OW21028   1.960   1.953   0.574
 6710SOL    HW121029   1.957   2.005   0.489
 6710SOL    HW221030   1.876   1.900   0.583
 6711SOL     OW21031   5.423   3.792   0.192
 6711SOL    HW121032   5.325   3.771   0.197
 6711SOL    HW221033   5.436   3.879   0.146
 6712SOL     OW21034   3.286   6.187   1.394
 6712SOL    HW121035   3.380   6.220   1.398
 6712SOL    HW221036   3.229   6.242   1.455
 6713SOL     OW21037   1.744   1.587   3.095
 6713SOL    HW121038   1.648   1.610   3.079
 6713SOL    HW221039   1.795   1.670   3.117
 6714SOL     OW21040   6.490   0.238   4.720
 6714SOL    HW121041   6.528   0.280   4.803
 6714SOL    HW221042   6.444   0.153   4.743
 6715SOL     OW21043   6.504   1.930   0.448
 6715SOL    HW121044   6.545   1.942   0.358
 6715SOL    HW221045   6.461   1.840   0.454
 6716SOL     OW21046   2.722   6.196   0.960
 6716SOL    HW121047   2.820   6.178   0.956
 6716SOL    HW221048   2.674   6.127   0.906
 6717SOL     OW21049   4.023   1.103   6.846
 6717SOL    HW121050   4.018   1.191   6.798
 6717SOL    HW221051   4.069   1.115   6.934
 6718SOL     OW21052   3.357   6.985   0.320
 6718SOL    HW121053   3.370   6.906   0.379
 6718SOL    HW221054   3.437   0.020   0.327
 6719SOL     OW21055   0.502   1.098   5.394
 6719SOL    HW121056   0.557   1.025   5.435
 6719SOL    HW221057   0.562   1.164   5.349
 6720SOL     OW21058   1.801   4.602   1.488
 6720SOL    HW121059   1.767   4.572   1.577
 6720SOL    HW221060   1.737   4.573   1.416
 6721SOL     OW21061   0.414   6.143   2.721
 6721SOL    HW121062   0.432   6.168   2.626
 6721SOL    HW221063   0.363   6.217   2.765
 6722SOL     OW21064   4.969   4.989   6.658
 6722SOL    HW121065   5.062   4.993   6.621
 6722SOL    HW221066   4.939   5.082   6.681
 6723SOL     OW21067   4.519   0.680   2.685
 6723SOL    HW121068   4.516   0.710   2.589
 6723SOL    HW221069   4.506   0.760   2.745
 6724SOL     OW21070   3.811   4.698   5.793
 6724SOL    HW121071   3.781   4.793   5.801
 6724SOL    HW221072   3.865   4.687   5.709
 6725SOL     OW21073   6.907   5.189   1.251
 6725SOL    HW121074   6.865   5.109   1.295
 6725SOL    HW221075   6.990   5.162   1.203
 6726SOL     OW21076   2.262   2.865   1.955
 6726SOL    HW121077   2.271   2.781   1.902
 6726SOL    HW221078   2.236   2.941   1.895
 6727SOL     OW21079   3.193   3.759   0.573
 6727SOL    HW121080   3.093   3.755   0.572
 6727SOL    HW221081   3.229   3.683   0.628
 6728SOL     OW21082   4.518   1.421   4.900
 6728SOL    HW121083   4.435   1.410   4.956
 6728SOL    HW221084   4.565   1.333   4.892
 6729SOL     OW21085   4.772   6.279   3.264
 6729SOL    HW121086   4.728   6.210   3.207
 6729SOL    HW221087   4.861   6.302   3.226
 6730SOL     OW21088   1.473   0.384   2.122
 6730SOL    HW121089   1.562   0.339   2.133
 6730SOL    HW221090   1.487   0.474   2.080
 6731SOL     OW21091   1.877   4.389   2.380
 6731SOL    HW121092   1.954   4.330   2.405
 6731SOL    HW221093   1.910   4.466   2.326
 6732SOL     OW21094   2.456   5.751   0.036
 6732SOL    HW121095   2.413   5.811   0.103
 6732SOL    HW221096   2.385   5.712   7.001
 6733SOL     OW21097   5.796   5.979   4.604
 6733SOL    HW121098   5.838   5.929   4.680
 6733SOL    HW221099   5.707   5.938   4.583
 6734SOL     OW21100   2.913   3.530   5.739
 6734SOL    HW121101   2.847   3.604   5.730
 6734SOL    HW221102   2.866   3.442   5.732
 6735SOL     OW21103   1.003   6.469   6.832
 6735SOL    HW121104   1.029   6.413   6.911
 6735SOL    HW221105   0.968   6.409   6.759
 6736SOL     OW21106   2.103   4.229   2.463
 6736SOL    HW121107   2.081   4.223   2.560
 6736SOL    HW221108   2.184   4.285   2.451
 6737SOL     OW21109   2.114   0.099   0.764
 6737SOL    HW121110   2.048   0.027   0.743
 6737SOL    HW221111   2.144   0.143   0.679
 6738SOL     OW21112   4.843   1.567   1.424
 6738SOL    HW121113   4.890   1.578   1.511
 6738SOL    HW221114   4.902   1.518   1.359
 6739SOL     OW21115   3.921   6.622   5.489
 6739SOL    HW121116   3.934   6.560   5.411
 6739SOL    HW221117   3.938   6.572   5.574
 6740SOL     OW21118   5.799   3.088   5.622
 6740SOL    HW121119   5.822   3.169   5.676
 6740SOL    HW221120   5.723   3.109   5.561
 6741SOL     OW21121   0.391   6.951   6.235
 6741SOL    HW121122   0.425   6.892   6.308
 6741SOL    HW221123   0.324   7.015   6.273
 6742SOL     OW21124   6.306   6.149   4.989
 6742SOL    HW121125   6.260   6.226   5.033
 6742SOL    HW221126   6.290   6.066   5.043
 6743SOL     OW21127   5.893   2.234   1.364
 6743SOL    HW121128   5.933   2.196   1.447
 6743SOL    HW221129   5.810   2.184   1.341
 6744SOL     OW21130   4.974   6.247   4.226
 6744SOL    HW121131   4.988   6.196   4.311
 6744SOL    HW221132   4.898   6.311   4.238
 6745SOL     OW21133   0.873   3.231   2.825
 6745SOL    HW121134   0.829   3.284   2.898
 6745SOL    HW221135   0.932   3.291   2.771
 6746SOL     OW21136   6.791   0.943   0.764
 6746SOL    HW121137   6.794   1.000   0.846
 6746SOL    HW221138   6.879   0.897   0.753
 6747SOL     OW21139   4.658   5.690   6.640
 6747SOL    HW121140   4.612   5.769   6.600
 6747SOL    HW221141   4.755   5.691   6.615
 6748SOL     OW21142   0.191   6.419   1.969
 6748SOL    HW121143   0.106   6.386   2.012
 6748SOL    HW221144   0.171   6.450   1.876
 6749SOL     OW21145   3.249   5.568   1.356
 6749SOL    HW121146   3.274   5.471   1.345
 6749SOL    HW221147   3.212   5.602   1.270
 6750SOL     OW21148   2.268   3.035   5.336
 6750SOL    HW121149   2.200   3.093   5.289
 6750SOL    HW221150   2.343   3.016   5.273
 6751SOL     OW21151   4.101   1.892   5.855
 6751SOL    HW121152   4.103   1.867   5.758
 6751SOL    HW221153   4.030   1.961   5.870
 6752SOL     OW21154   6.885   1.937   0.010
 6752SOL    HW121155   6.955   1.997   6.996
 6752SOL    HW221156   6.800   1.947   6.985
 6753SOL     OW21157   6.253   1.154   6.932
 6753SOL    HW121158   6.189   1.205   6.874
 6753SOL    HW221159   6.339   1.205   6.939
 6754SOL     OW21160   4.571   0.847   6.583
 6754SOL    HW121161   4.630   0.776   6.621
 6754SOL    HW221162   4.624   0.931   6.569
 6755SOL     OW21163   5.166   1.835   3.817
 6755SOL    HW121164   5.118   1.909   3.863
 6755SOL    HW221165   5.145   1.836   3.720
 6756SOL     OW21166   4.830   3.908   3.644
 6756SOL    HW121167   4.920   3.928   3.682
 6756SOL    HW221168   4.768   3.984   3.664
 6757SOL     OW21169   6.241   4.500   1.401
 6757SOL    HW121170   6.270   4.564   1.330
 6757SOL    HW221171   6.305   4.423   1.404
 6758SOL     OW21172   6.053   1.408   3.215
 6758SOL    HW121173   6.033   1.337   3.283
 6758SOL    HW221174   6.151   1.427   3.214
 6759SOL     OW21175   1.386   5.330   2.967
 6759SOL    HW121176   1.366   5.241   2.926
 6759SOL    HW221177   1.475   5.363   2.934
 6760SOL     OW21178   6.827   3.914   4.867
 6760SOL    HW121179   6.737   3.923   4.911
 6760SOL    HW221180   6.823   3.841   4.799
 6761SOL     OW21181   5.950   2.746   6.446
 6761SOL    HW121182   5.885   2.686   6.494
 6761SOL    HW221183   6.040   2.703   6.443
 6762SOL     OW21184   0.083   4.022   2.821
 6762SOL    HW121185   0.145   3.972   2.881
 6762SOL    HW221186   0.116   4.017   2.727
 6763SOL     OW21187   5.710   0.055   4.783
 6763SOL    HW121188   5.645   0.080   4.856
 6763SOL    HW221189   5.660   0.047   4.696
 6764SOL     OW21190   2.158   3.708   6.417
 6764SOL    HW121191   2.188   3.652   6.339
 6764SOL    HW221192   2.071   3.672   6.451
 6765SOL     OW21193   4.881   5.054   2.855
 6765SOL    HW121194   4.948   4.990   2.894
 6765SOL    HW221195   4.813   5.003   2.802
 6766SOL     OW21196   1.741   2.732   6.047
 6766SOL    HW121197   1.693   2.724   5.960
 6766SOL    HW221198   1.779   2.824   6.056
 6767SOL     OW21199   0.420   2.805   6.028
 6767SOL    HW121200   0.474   2.791   5.944
 6767SOL    HW221201   0.361   2.726   6.044
 6768SOL     OW21202   6.543   0.703   6.510
 6768SOL    HW121203   6.537   0.785   6.453
 6768SOL    HW221204   6.501   0.721   6.599
 6769SOL     OW21205   0.969   2.562   6.226
 6769SOL    HW121206   0.894   2.599   6.171
 6769SOL    HW221207   0.989   2.626   6.301
 6770SOL     OW21208   7.017   1.649   4.102
 6770SOL    HW121209   6.928   1.607   4.115
 6770SOL    HW221210   0.045   1.642   4.187
 6771SOL     OW21211   6.074   1.934   2.605
 6771SOL    HW121212   6.169   1.943   2.634
 6771SOL    HW221213   6.070   1.918   2.507
 6772SOL     OW21214   1.249   0.672   2.327
 6772SOL    HW121215   1.208   0.733   2.395
 6772SOL    HW221216   1.336   0.711   2.295
 6773SOL     OW21217   1.901   0.836   2.634
 6773SOL    HW121218   1.968   0.861   2.564
 6773SOL    HW221219   1.839   0.913   2.650
 6774SOL     OW21220   3.935   1.451   5.250
 6774SOL    HW121221   4.016   1.416   5.296
 6774SOL    HW221222   3.888   1.376   5.203
 6775SOL     OW21223   1.345   2.613   4.452
 6775SOL    HW121224   1.370   2.688   4.512
 6775SOL    HW221225   1.389   2.626   4.363
 6776SOL     OW21226   3.530   3.758   3.467
 6776SOL    HW121227   3.547   3.842   3.415
 6776SOL    HW221228   3.434   3.731   3.456
 6777SOL     OW21229   0.557   6.499   6.143
 6777SOL    HW121230   0.623   6.573   6.130
 6777SOL    HW221231   0.576   6.452   6.229
 6778SOL     OW21232   6.671   6.032   1.825
 6778SOL    HW121233   6.655   6.001   1.919
 6778SOL    HW221234   6.588   6.022   1.771
 6779SOL     OW21235   4.813   4.203   6.720
 6779SOL    HW121236   4.901   4.249   6.732
 6779SOL    HW221237   4.753   4.261   6.664
 6780SOL     OW21238   4.805   0.637   2.518
 6780SOL    HW121239   4.798   0.617   2.616
 6780SOL    HW221240   4.714   0.642   2.478
 6781SOL     OW21241   6.298   3.170   3.246
 6781SOL    HW121242   6.262   3.251   3.292
 6781SOL    HW221243   6.233   3.095   3.253
 6782SOL     OW21244   0.432   1.259   3.059
 6782SOL    HW121245   0.441   1.161   3.077
 6782SOL    HW221246   0.457   1.278   2.964
 6783SOL     OW21247   0.398   6.229   6.547
 6783SOL    HW121248   0.482   6.207   6.597
 6783SOL    HW221249   0.321   6.181   6.587
 6784SOL     OW21250   1.388   5.031   0.574
 6784SOL    HW121251   1.302   4.982   0.587
 6784SOL    HW221252   1.464   4.976   0.609
 6785SOL     OW21253   5.404   4.475   1.777
 6785SOL    HW121254   5.377   4.503   1.869
 6785SOL    HW221255   5.385   4.550   1.713
 6786SOL     OW21256   6.488   2.041   5.460
 6786SOL    HW121257   6.572   2.007   5.419
 6786SOL    HW221258   6.490   2.024   5.559
 6787SOL     OW21259   4.077   2.194   1.172
 6787SOL    HW121260   4.160   2.220   1.222
 6787SOL    HW221261   4.008   2.161   1.237
 6788SOL     OW21262   1.063   4.594   1.024
 6788SOL    HW121263   1.020   4.639   0.946
 6788SOL    HW221264   1.066   4.495   1.007
 6789SOL     OW21265   5.704   3.373   2.345
 6789SOL    HW121266   5.685   3.401   2.250
 6789SOL    HW221267   5.618   3.352   2.391
 6790SOL     OW21268   0.110   5.679   0.724
 6790SOL    HW121269   0.193   5.637   0.761
 6790SOL    HW221270   0.053   5.609   0.681
 6791SOL     OW21271   2.459   6.385   3.392
 6791SOL    HW121272   2.526   6.348   3.455
 6791SOL    HW221273   2.413   6.310   3.345
 6792SOL     OW21274   3.329   5.855   6.717
 6792SOL    HW121275   3.384   5.811   6.788
 6792SOL    HW221276   3.238   5.814   6.716
 6793SOL     OW21277   2.544   4.409   6.651
 6793SOL    HW121278   2.605   4.361   6.588
 6793SOL    HW221279   2.469   4.349   6.678
 6794SOL     OW21280   4.837   2.462   4.514
 6794SOL    HW121281   4.913   2.495   4.570
 6794SOL    HW221282   4.871   2.395   4.448
 6795SOL     OW21283   0.895   1.299   1.969
 6795SOL    HW121284   0.937   1.321   2.057
 6795SOL    HW221285   0.830   1.370   1.944
 6796SOL     OW21286   6.554   2.974   2.653
 6796SOL    HW121287   6.626   2.977   2.723
 6796SOL    HW221288   6.511   2.884   2.653
 6797SOL     OW21289   1.860   3.894   1.174
 6797SOL    HW121290   1.876   3.989   1.148
 6797SOL    HW221291   1.777   3.861   1.130
 6798SOL     OW21292   4.692   1.140   2.015
 6798SOL    HW121293   4.598   1.151   2.047
 6798SOL    HW221294   4.711   1.208   1.944
 6799SOL     OW21295   5.750   6.951   2.950
 6799SOL    HW121296   5.771   0.020   2.922
 6799SOL    HW221297   5.655   6.930   2.929
 6800SOL     OW21298   6.483   2.697   2.719
 6800SOL    HW121299   6.432   2.714   2.803
 6800SOL    HW221300   6.578   2.674   2.741
 6801SOL     OW21301   1.742   5.473   4.970
 6801SOL    HW121302   1.693   5.459   5.056
 6801SOL    HW221303   1.683   5.449   4.893
 6802SOL     OW21304   2.667   4.606   1.666
 6802SOL    HW121305   2.633   4.537   1.602
 6802SOL    HW221306   2.729   4.564   1.732
 6803SOL     OW21307   6.113   4.938   6.627
 6803SOL    HW121308   6.150   4.860   6.677
 6803SOL    HW221309   6.187   4.981   6.574
 6804SOL     OW21310   3.400   5.110   2.004
 6804SOL    HW121311   3.327   5.071   2.060
 6804SOL    HW221312   3.361   5.158   1.926
 6805SOL     OW21313   0.644   4.854   3.644
 6805SOL    HW121314   0.618   4.778   3.586
 6805SOL    HW221315   0.575   4.868   3.715
 6806SOL     OW21316   5.900   3.838   2.167
 6806SOL    HW121317   5.919   3.742   2.149
 6806SOL    HW221318   5.973   3.894   2.129
 6807SOL     OW21319   3.488   3.288   2.566
 6807SOL    HW121320   3.539   3.369   2.594
 6807SOL    HW221321   3.479   3.286   2.466
 6808SOL     OW21322   3.886   6.735   3.222
 6808SOL    HW121323   3.977   6.732   3.263
 6808SOL    HW221324   3.875   6.655   3.161
 6809SOL     OW21325   5.192   2.475   0.455
 6809SOL    HW121326   5.193   2.452   0.552
 6809SOL    HW221327   5.261   2.545   0.437
 6810SOL     OW21328   2.473   6.758   4.235
 6810SOL    HW121329   2.462   6.856   4.250
 6810SOL    HW221330   2.389   6.721   4.195
 6811SOL     OW21331   6.312   1.744   1.529
 6811SOL    HW121332   6.263   1.667   1.570
 6811SOL    HW221333   6.401   1.755   1.575
 6812SOL     OW21334   3.538   4.400   5.311
 6812SOL    HW121335   3.630   4.434   5.294
 6812SOL    HW221336   3.474   4.477   5.314
 6813SOL     OW21337   0.053   3.657   1.986
 6813SOL    HW121338   0.148   3.675   1.960
 6813SOL    HW221339   0.052   3.607   2.073
 6814SOL     OW21340   4.393   2.014   2.066
 6814SOL    HW121341   4.329   2.089   2.082
 6814SOL    HW221342   4.486   2.047   2.084
 6815SOL     OW21343   1.105   5.760   0.108
 6815SOL    HW121344   1.119   5.808   0.194
 6815SOL    HW221345   1.015   5.785   0.070
 6816SOL     OW21346   6.072   6.467   4.327
 6816SOL    HW121347   6.050   6.561   4.300
 6816SOL    HW221348   6.093   6.413   4.245
 6817SOL     OW21349   5.551   0.621   2.087
 6817SOL    HW121350   5.583   0.528   2.100
 6817SOL    HW221351   5.602   0.664   2.012
 6818SOL     OW21352   0.114   0.033   5.613
 6818SOL    HW121353   0.081   6.966   5.631
 6818SOL    HW221354   0.206   0.044   5.651
 6819SOL     OW21355   5.339   4.176   0.954
 6819SOL    HW121356   5.312   4.271   0.939
 6819SOL    HW221357   5.390   4.169   1.040
 6820SOL     OW21358   2.267   3.270   1.238
 6820SOL    HW121359   2.351   3.254   1.290
 6820SOL    HW221360   2.188   3.246   1.294
 6821SOL     OW21361   2.754   3.042   5.863
 6821SOL    HW121362   2.739   3.035   5.961
 6821SOL    HW221363   2.849   3.067   5.845
 6822SOL     OW21364   6.578   4.033   5.028
 6822SOL    HW121365   6.512   3.959   5.035
 6822SOL    HW221366   6.548   4.097   4.957
 6823SOL     OW21367   6.512   3.176   6.042
 6823SOL    HW121368   6.494   3.242   5.969
 6823SOL    HW221369   6.592   3.120   6.019
 6824SOL     OW21370   0.663   0.676   3.792
 6824SOL    HW121371   0.744   0.731   3.769
 6824SOL    HW221372   0.662   0.659   3.891
 6825SOL     OW21373   4.545   4.581   1.555
 6825SOL    HW121374   4.508   4.490   1.576
 6825SOL    HW221375   4.628   4.596   1.608
 6826SOL     OW21376   5.984   1.199   3.404
 6826SOL    HW121377   5.952   1.256   3.480
 6826SOL    HW221378   6.076   1.164   3.425
 6827SOL     OW21379   5.142   5.519   5.842
 6827SOL    HW121380   5.106   5.487   5.930
 6827SOL    HW221381   5.066   5.541   5.780
 6828SOL     OW21382   2.479   2.320   2.573
 6828SOL    HW121383   2.552   2.273   2.623
 6828SOL    HW221384   2.479   2.417   2.598
 6829SOL     OW21385   5.319   6.385   4.035
 6829SOL    HW121386   5.331   6.345   4.126
 6829SOL    HW221387   5.321   6.313   3.966
 6830SOL     OW21388   4.062   6.420   2.096
 6830SOL    HW121389   4.077   6.499   2.037
 6830SOL    HW221390   3.996   6.359   2.053
 6831SOL     OW21391   1.965   1.226   6.720
 6831SOL    HW121392   2.044   1.253   6.774
 6831SOL    HW221393   1.883   1.227   6.779
 6832SOL     OW21394   3.047   3.568   6.944
 6832SOL    HW121395   3.128   3.509   6.948
 6832SOL    HW221396   3.058   3.643   7.010
 6833SOL     OW21397   4.772   5.178   6.663
 6833SOL    HW121398   4.687   5.225   6.640
 6833SOL    HW221399   4.818   5.149   6.579
 6834SOL     OW21400   6.002   5.686   5.251
 6834SOL    HW121401   6.049   5.697   5.339
 6834SOL    HW221402   6.068   5.696   5.176
 6835SOL     OW21403   4.085   0.328   3.155
 6835SOL    HW121404   4.000   0.332   3.206
 6835SOL    HW221405   4.103   0.233   3.128
 6836SOL     OW21406   0.618   4.635   6.887
 6836SOL    HW121407   0.548   4.565   6.871
 6836SOL    HW221408   0.687   4.630   6.815
 6837SOL     OW21409   6.389   2.150   1.982
 6837SOL    HW121410   6.316   2.082   1.983
 6837SOL    HW221411   6.362   2.228   2.038
 6838SOL     OW21412   2.469   4.635   6.529
 6838SOL    HW121413   2.424   4.616   6.442
 6838SOL    HW221414   2.491   4.549   6.575
 6839SOL     OW21415   5.803   2.566   5.524
 6839SOL    HW121416   5.755   2.653   5.518
 6839SOL    HW221417   5.753   2.503   5.584
 6840SOL     OW21418   3.379   0.121   4.684
 6840SOL    HW121419   3.304   0.066   4.649
 6840SOL    HW221420   3.428   0.070   4.755
 6841SOL     OW21421   4.396   6.385   0.482
 6841SOL    HW121422   4.404   6.299   0.532
 6841SOL    HW221423   4.435   6.460   0.536
 6842SOL     OW21424   1.285   3.283   3.472
 6842SOL    HW121425   1.377   3.295   3.434
 6842SOL    HW221426   1.242   3.373   3.485
 6843SOL     OW21427   4.915   2.873   1.785
 6843SOL    HW121428   4.855   2.838   1.857
 6843SOL    HW221429   4.880   2.847   1.695
 6844SOL     OW21430   3.411   6.906   5.114
 6844SOL    HW121431   3.460   6.949   5.190
 6844SOL    HW221432   3.477   6.871   5.047
 6845SOL     OW21433   3.672   3.712   6.936
 6845SOL    HW121434   3.761   3.715   6.891
 6845SOL    HW221435   3.612   3.649   6.888
 6846SOL     OW21436   4.042   3.679   3.762
 6846SOL    HW121437   4.017   3.605   3.700
 6846SOL    HW221438   3.994   3.763   3.734
 6847SOL     OW21439   5.261   2.702   2.560
 6847SOL    HW121440   5.349   2.738   2.590
 6847SOL    HW221441   5.194   2.776   2.555
 6848SOL     OW21442   0.716   5.823   5.231
 6848SOL    HW121443   0.618   5.819   5.208
 6848SOL    HW221444   0.738   5.915   5.262
 6849SOL     OW21445   3.250   0.680   4.879
 6849SOL    HW121446   3.181   0.699   4.808
 6849SOL    HW221447   3.209   0.694   4.969
 6850SOL     OW21448   6.566   3.360   1.758
 6850SOL    HW121449   6.490   3.298   1.739
 6850SOL    HW221450   6.645   3.333   1.703
 6851SOL     OW21451   1.704   5.678   6.557
 6851SOL    HW121452   1.772   5.742   6.521
 6851SOL    HW221453   1.656   5.720   6.634
 6852SOL     OW21454   6.062   5.210   2.160
 6852SOL    HW121455   6.010   5.295   2.158
 6852SOL    HW221456   6.095   5.189   2.068
 6853SOL     OW21457   6.124   4.125   4.633
 6853SOL    HW121458   6.043   4.181   4.618
 6853SOL    HW221459   6.184   4.170   4.699
 6854SOL     OW21460   6.242   1.461   6.921
 6854SOL    HW121461   6.158   1.423   6.883
 6854SOL    HW221462   6.316   1.393   6.914
 6855SOL     OW21463   3.216   6.950   1.800
 6855SOL    HW121464   3.203   6.976   1.896
 6855SOL    HW221465   3.309   6.917   1.788
 6856SOL     OW21466   0.758   6.013   5.711
 6856SOL    HW121467   0.684   5.976   5.655
 6856SOL    HW221468   0.843   6.012   5.659
 6857SOL     OW21469   4.886   0.691   0.001
 6857SOL    HW121470   4.930   0.779   7.008
 6857SOL    HW221471   4.791   0.694   6.996
 6858SOL     OW21472   3.461   2.878   6.794
 6858SOL    HW121473   3.454   2.792   6.742
 6858SOL    HW221474   3.370   2.916   6.806
 6859SOL     OW21475   4.277   0.899   0.386
 6859SOL    HW121476   4.322   0.969   0.441
 6859SOL    HW221477   4.183   0.928   0.365
 6860SOL     OW21478   5.073   3.460   6.981
 6860SOL    HW121479   5.026   3.547   6.997
 6860SOL    HW221480   5.035   3.390   0.016
 6861SOL     OW21481   5.878   3.586   0.738
 6861SOL    HW121482   5.852   3.627   0.650
 6861SOL    HW221483   5.867   3.654   0.811
 6862SOL     OW21484   2.500   4.872   4.569
 6862SOL    HW121485   2.469   4.917   4.653
 6862SOL    HW221486   2.444   4.904   4.493
 6863SOL     OW21487   1.179   3.362   3.868
 6863SOL    HW121488   1.227   3.446   3.841
 6863SOL    HW221489   1.104   3.385   3.929
 6864SOL     OW21490   3.997   5.584   6.396
 6864SOL    HW121491   3.910   5.568   6.349
 6864SOL    HW221492   4.022   5.502   6.448
 6865SOL     OW21493   0.472   2.872   4.394
 6865SOL    HW121494   0.540   2.946   4.390
 6865SOL    HW221495   0.512   2.793   4.440
 6866SOL     OW21496   0.714   3.791   2.901
 6866SOL    HW121497   0.738   3.711   2.846
 6866SOL    HW221498   0.632   3.834   2.862
 6867SOL     OW21499   2.087   5.606   3.291
 6867SOL    HW121500   2.174   5.563   3.314
 6867SOL    HW221501   2.019   5.585   3.360
 6868SOL     OW21502   1.932   5.347   4.687
 6868SOL    HW121503   1.875   5.302   4.756
 6868SOL    HW221504   1.904   5.442   4.678
 6869SOL     OW21505   0.356   3.135   5.081
 6869SOL    HW121506   0.393   3.228   5.086
 6869SOL    HW221507   0.365   3.101   4.987
 6870SOL     OW21508   5.866   3.461   3.148
 6870SOL    HW121509   5.767   3.452   3.156
 6870SOL    HW221510   5.893   3.455   3.052
 6871SOL     OW21511   5.019   5.747   1.452
 6871SOL    HW121512   5.029   5.773   1.548
 6871SOL    HW221513   4.929   5.776   1.420
 6872SOL     OW21514   3.108   4.196   0.612
 6872SOL    HW121515   3.172   4.128   0.575
 6872SOL    HW221516   3.120   4.282   0.564
 6873SOL     OW21517   5.644   4.874   4.627
 6873SOL    HW121518   5.587   4.953   4.604
 6873SOL    HW221519   5.645   4.810   4.550
 6874SOL     OW21520   0.706   1.686   6.238
 6874SOL    HW121521   0.773   1.703   6.310
 6874SOL    HW221522   0.742   1.617   6.175
 6875SOL     OW21523   4.106   0.647   4.742
 6875SOL    HW121524   4.034   0.588   4.777
 6875SOL    HW221525   4.070   0.703   4.667
 6876SOL     OW21526   3.668   5.706   4.610
 6876SOL    HW121527   3.727   5.729   4.533
 6876SOL    HW221528   3.644   5.789   4.660
 6877SOL     OW21529   1.431   3.849   6.078
 6877SOL    HW121530   1.521   3.892   6.070
 6877SOL    HW221531   1.439   3.761   6.123
 6878SOL     OW21532   0.985   1.241   4.414
 6878SOL    HW121533   1.075   1.277   4.437
 6878SOL    HW221534   0.989   1.196   4.324
 6879SOL     OW21535   6.846   0.926   5.191
 6879SOL    HW121536   6.787   0.901   5.267
 6879SOL    HW221537   6.794   0.980   5.124
 6880SOL     OW21538   1.114   4.203   4.619
 6880SOL    HW121539   1.151   4.116   4.650
 6880SOL    HW221540   1.177   4.244   4.553
 6881SOL     OW21541   5.459   5.653   1.518
 6881SOL    HW121542   5.470   5.585   1.591
 6881SOL    HW221543   5.365   5.649   1.484
 6882SOL     OW21544   2.408   6.292   5.516
 6882SOL    HW121545   2.391   6.339   5.603
 6882SOL    HW221546   2.505   6.295   5.494
 6883SOL     OW21547   3.062   5.877   2.277
 6883SOL    HW121548   3.054   5.893   2.179
 6883SOL    HW221549   3.131   5.807   2.294
 6884SOL     OW21550   1.848   5.071   2.200
 6884SOL    HW121551   1.804   5.026   2.278
 6884SOL    HW221552   1.806   5.161   2.185
 6885SOL     OW21553   4.257   4.804   5.061
 6885SOL    HW121554   4.234   4.820   5.157
 6885SOL    HW221555   4.285   4.709   5.049
 6886SOL     OW21556   5.273   1.110   1.575
 6886SOL    HW121557   5.287   1.013   1.595
 6886SOL    HW221558   5.182   1.123   1.537
 6887SOL     OW21559   6.254   0.949   5.040
 6887SOL    HW121560   6.164   0.973   5.005
 6887SOL    HW221561   6.288   0.868   4.991
 6888SOL     OW21562   5.852   0.215   4.041
 6888SOL    HW121563   5.947   0.243   4.029
 6888SOL    HW221564   5.794   0.272   3.983
 6889SOL     OW21565   2.089   4.392   6.301
 6889SOL    HW121566   2.181   4.357   6.282
 6889SOL    HW221567   2.083   4.487   6.271
 6890SOL     OW21568   1.931   0.665   1.072
 6890SOL    HW121569   1.949   0.757   1.035
 6890SOL    HW221570   1.992   0.599   1.028
 6891SOL     OW21571   4.482   5.639   5.745
 6891SOL    HW121572   4.445   5.727   5.776
 6891SOL    HW221573   4.519   5.650   5.652
 6892SOL     OW21574   3.268   1.647   4.848
 6892SOL    HW121575   3.329   1.577   4.884
 6892SOL    HW221576   3.247   1.713   4.920
 6893SOL     OW21577   5.117   0.632   1.240
 6893SOL    HW121578   5.154   0.679   1.161
 6893SOL    HW221579   5.018   0.648   1.246
 6894SOL     OW21580   5.959   4.486   6.319
 6894SOL    HW121581   5.871   4.457   6.355
 6894SOL    HW221582   6.026   4.489   6.394
 6895SOL     OW21583   4.383   5.417   5.848
 6895SOL    HW121584   4.295   5.381   5.816
 6895SOL    HW221585   4.404   5.502   5.800
 6896SOL     OW21586   4.604   1.485   2.824
 6896SOL    HW121587   4.524   1.538   2.851
 6896SOL    HW221588   4.684   1.519   2.875
 6897SOL     OW21589   3.854   0.569   1.059
 6897SOL    HW121590   3.890   0.622   1.136
 6897SOL    HW221591   3.758   0.592   1.045
 6898SOL     OW21592   4.195   1.045   2.656
 6898SOL    HW121593   4.119   1.061   2.593
 6898SOL    HW221594   4.265   0.991   2.610
 6899SOL     OW21595   5.689   6.012   6.171
 6899SOL    HW121596   5.772   5.987   6.220
 6899SOL    HW221597   5.637   6.080   6.224
 6900SOL     OW21598   4.429   0.657   6.744
 6900SOL    HW121599   4.365   0.651   6.821
 6900SOL    HW221600   4.423   0.748   6.702
 6901SOL     OW21601   1.992   0.928   0.042
 6901SOL    HW121602   2.061   0.874   0.091
 6901SOL    HW221603   2.015   1.025   0.046
 6902SOL     OW21604   6.714   5.661   2.470
 6902SOL    HW121605   6.692   5.571   2.506
 6902SOL    HW221606   6.768   5.651   2.387
 6903SOL     OW21607   4.561   4.150   0.310
 6903SOL    HW121608   4.549   4.217   0.236
 6903SOL    HW221609   4.620   4.075   0.277
 6904SOL     OW21610   0.752   0.693   2.942
 6904SOL    HW121611   0.760   0.792   2.955
 6904SOL    HW221612   0.803   0.665   2.861
 6905SOL     OW21613   3.585   5.522   0.971
 6905SOL    HW121614   3.556   5.563   1.057
 6905SOL    HW221615   3.554   5.427   0.967
 6906SOL     OW21616   6.047   6.344   3.125
 6906SOL    HW121617   6.093   6.421   3.081
 6906SOL    HW221618   6.115   6.285   3.168
 6907SOL     OW21619   3.221   0.502   1.432
 6907SOL    HW121620   3.186   0.512   1.339
 6907SOL    HW221621   3.311   0.545   1.439
 6908SOL     OW21622   5.609   6.827   6.852
 6908SOL    HW121623   5.695   6.841   6.803
 6908SOL    HW221624   5.568   6.916   6.873
 6909SOL     OW21625   2.299   2.562   6.888
 6909SOL    HW121626   2.362   2.487   6.867
 6909SOL    HW221627   2.338   2.618   6.961
 6910SOL     OW21628   5.291   1.509   1.064
 6910SOL    HW121629   5.226   1.536   0.993
 6910SOL    HW221630   5.260   1.425   1.108
 6911SOL     OW21631   4.406   0.467   5.182
 6911SOL    HW121632   4.318   0.509   5.158
 6911SOL    HW221633   4.392   0.403   5.257
 6912SOL     OW21634   4.294   4.745   2.125
 6912SOL    HW121635   4.356   4.817   2.094
 6912SOL    HW221636   4.314   4.661   2.076
 6913SOL     OW21637   4.600   5.642   5.443
 6913SOL    HW121638   4.680   5.615   5.497
 6913SOL    HW221639   4.631   5.678   5.355
 6914SOL     OW21640   6.394   4.769   7.009
 6914SOL    HW121641   6.418   4.672   7.014
 6914SOL    HW221642   6.417   4.813   0.071
 6915SOL     OW21643   0.465   6.330   0.693
 6915SOL    HW121644   0.450   6.429   0.694
 6915SOL    HW221645   0.455   6.295   0.600
 6916SOL     OW21646   6.124   0.551   5.853
 6916SOL    HW121647   6.087   0.642   5.835
 6916SOL    HW221648   6.188   0.526   5.781
 6917SOL     OW21649   4.715   0.228   6.037
 6917SOL    HW121650   4.657   0.301   6.074
 6917SOL    HW221651   4.669   0.140   6.049
 6918SOL     OW21652   2.185   2.868   3.851
 6918SOL    HW121653   2.111   2.805   3.826
 6918SOL    HW221654   2.265   2.848   3.796
 6919SOL     OW21655   1.347   6.258   3.347
 6919SOL    HW121656   1.290   6.332   3.312
 6919SOL    HW221657   1.428   6.297   3.391
 6920SOL     OW21658   5.601   5.887   4.299
 6920SOL    HW121659   5.580   5.904   4.202
 6920SOL    HW221660   5.592   5.789   4.318
 6921SOL     OW21661   1.101   5.719   3.652
 6921SOL    HW121662   1.184   5.747   3.699
 6921SOL    HW221663   1.025   5.778   3.681
 6922SOL     OW21664   1.942   6.860   0.872
 6922SOL    HW121665   1.875   6.917   0.825
 6922SOL    HW221666   1.897   6.806   0.942
 6923SOL     OW21667   5.016   5.644   3.825
 6923SOL    HW121668   4.916   5.643   3.825
 6923SOL    HW221669   5.048   5.722   3.771
 6924SOL     OW21670   6.035   5.811   2.298
 6924SOL    HW121671   6.134   5.798   2.292
 6924SOL    HW221672   6.012   5.848   2.388
 6925SOL     OW21673   5.123   5.462   2.803
 6925SOL    HW121674   5.027   5.488   2.790
 6925SOL    HW221675   5.129   5.362   2.809
 6926SOL     OW21676   2.725   4.225   5.373
 6926SOL    HW121677   2.645   4.278   5.402
 6926SOL    HW221678   2.804   4.286   5.365
 6927SOL     OW21679   4.303   3.545   0.990
 6927SOL    HW121680   4.207   3.553   0.963
 6927SOL    HW221681   4.314   3.467   1.052
 6928SOL     OW21682   7.024   0.824   6.901
 6928SOL    HW121683   0.078   0.777   6.862
 6928SOL    HW221684   6.958   0.842   6.828
 6929SOL     OW21685   2.757   5.299   1.685
 6929SOL    HW121686   2.671   5.254   1.662
 6929SOL    HW221687   2.829   5.264   1.625
 6930SOL     OW21688   0.342   0.276   3.162
 6930SOL    HW121689   0.415   0.339   3.188
 6930SOL    HW221690   0.317   0.219   3.240
 6931SOL     OW21691   2.451   6.938   0.017
 6931SOL    HW121692   2.533   6.905   0.064
 6931SOL    HW221693   2.419   6.867   6.979
 6932SOL     OW21694   2.429   2.353   0.380
 6932SOL    HW121695   2.505   2.327   0.321
 6932SOL    HW221696   2.353   2.385   0.324
 6933SOL     OW21697   2.335   5.857   5.400
 6933SOL    HW121698   2.391   5.797   5.342
 6933SOL    HW221699   2.393   5.897   5.472
 6934SOL     OW21700   5.644   5.040   6.503
 6934SOL    HW121701   5.684   4.954   6.534
 6934SOL    HW221702   5.675   5.114   6.562
 6935SOL     OW21703   4.492   5.480   3.300
 6935SOL    HW121704   4.526   5.431   3.220
 6935SOL    HW221705   4.537   5.569   3.306
 6936SOL     OW21706   0.678   4.626   0.429
 6936SOL    HW121707   0.684   4.534   0.469
 6936SOL    HW221708   0.678   4.618   0.329
 6937SOL     OW21709   4.561   6.182   5.964
 6937SOL    HW121710   4.536   6.277   5.947
 6937SOL    HW221711   4.584   6.138   5.876
 6938SOL     OW21712   5.741   2.706   5.217
 6938SOL    HW121713   5.688   2.736   5.297
 6938SOL    HW221714   5.679   2.692   5.140
 6939SOL     OW21715   6.716   4.686   1.933
 6939SOL    HW121716   6.708   4.619   2.007
 6939SOL    HW221717   6.789   4.658   1.870
 6940SOL     OW21718   4.445   0.353   4.805
 6940SOL    HW121719   4.391   0.394   4.731
 6940SOL    HW221720   4.393   0.280   4.848
 6941SOL     OW21721   4.006   3.368   4.817
 6941SOL    HW121722   4.094   3.322   4.808
 6941SOL    HW221723   4.017   3.465   4.797
 6942SOL     OW21724   6.062   1.812   6.829
 6942SOL    HW121725   5.971   1.796   6.791
 6942SOL    HW221726   6.073   1.759   6.913
 6943SOL     OW21727   6.080   5.632   6.486
 6943SOL    HW121728   6.100   5.636   6.388
 6943SOL    HW221729   5.989   5.668   6.503
 6944SOL     OW21730   1.523   6.504   0.529
 6944SOL    HW121731   1.541   6.515   0.431
 6944SOL    HW221732   1.445   6.443   0.541
 6945SOL     OW21733   4.838   2.033   6.056
 6945SOL    HW121734   4.807   2.065   6.146
 6945SOL    HW221735   4.844   1.933   6.057
 6946SOL     OW21736   6.164   3.543   3.627
 6946SOL    HW121737   6.236   3.542   3.697
 6946SOL    HW221738   6.162   3.633   3.583
 6947SOL     OW21739   3.875   6.878   1.335
 6947SOL    HW121740   3.781   6.911   1.324
 6947SOL    HW221741   3.884   6.833   1.424
 6948SOL     OW21742   3.778   2.646   5.434
 6948SOL    HW121743   3.744   2.739   5.424
 6948SOL    HW221744   3.877   2.644   5.418
 6949SOL     OW21745   5.014   0.862   2.339
 6949SOL    HW121746   4.924   0.822   2.351
 6949SOL    HW221747   5.025   0.891   2.244
 6950SOL     OW21748   3.424   1.472   3.461
 6950SOL    HW121749   3.416   1.441   3.367
 6950SOL    HW221750   3.520   1.471   3.489
 6951SOL     OW21751   4.968   4.694   5.552
 6951SOL    HW121752   4.895   4.758   5.577
 6951SOL    HW221753   4.927   4.605   5.533
 6952SOL     OW21754   6.967   4.228   5.712
 6952SOL    HW121755   6.943   4.148   5.766
 6952SOL    HW221756   0.040   4.244   5.717
 6953SOL     OW21757   4.789   2.398   4.883
 6953SOL    HW121758   4.731   2.342   4.824
 6953SOL    HW221759   4.882   2.361   4.885
 6954SOL     OW21760   0.238   4.377   1.873
 6954SOL    HW121761   0.285   4.436   1.807
 6954SOL    HW221762   0.167   4.430   1.920
 6955SOL     OW21763   6.751   0.282   3.001
 6955SOL    HW121764   6.803   0.270   3.086
 6955SOL    HW221765   6.805   0.249   2.924
 6956SOL     OW21766   2.393   4.074   1.076
 6956SOL    HW121767   2.321   4.077   1.145
 6956SOL    HW221768   2.476   4.116   1.112
 6957SOL     OW21769   0.917   4.367   0.163
 6957SOL    HW121770   0.928   4.286   0.221
 6957SOL    HW221771   0.865   4.342   0.081
 6958SOL     OW21772   2.575   3.756   5.896
 6958SOL    HW121773   2.520   3.831   5.862
 6958SOL    HW221774   2.569   3.752   5.996
 6959SOL     OW21775   3.803   1.084   4.317
 6959SOL    HW121776   3.789   0.995   4.361
 6959SOL    HW221777   3.891   1.122   4.346
 6960SOL     OW21778   0.467   5.343   6.990
 6960SOL    HW121779   0.439   5.438   6.990
 6960SOL    HW221780   0.435   5.298   0.049
 6961SOL     OW21781   6.096   1.692   2.949
 6961SOL    HW121782   6.088   1.788   2.976
 6961SOL    HW221783   6.077   1.682   2.852
 6962SOL     OW21784   3.741   3.523   1.218
 6962SOL    HW121785   3.806   3.501   1.146
 6962SOL    HW221786   3.764   3.473   1.301
 6963SOL     OW21787   6.331   6.240   2.446
 6963SOL    HW121788   6.247   6.282   2.411
 6963SOL    HW221789   6.308   6.177   2.521
 6964SOL     OW21790   2.993   6.010   5.630
 6964SOL    HW121791   2.979   6.065   5.548
 6964SOL    HW221792   2.989   6.068   5.711
 6965SOL     OW21793   6.528   1.568   5.488
 6965SOL    HW121794   6.471   1.642   5.524
 6965SOL    HW221795   6.591   1.606   5.420
 6966SOL     OW21796   5.288   2.309   4.114
 6966SOL    HW121797   5.221   2.371   4.155
 6966SOL    HW221798   5.376   2.322   4.158
 6967SOL     OW21799   2.380   2.595   5.882
 6967SOL    HW121800   2.281   2.601   5.888
 6967SOL    HW221801   2.420   2.603   5.973
 6968SOL     OW21802   4.383   0.071   4.415
 6968SOL    HW121803   4.480   0.098   4.418
 6968SOL    HW221804   4.369   0.010   4.337
 6969SOL     OW21805   2.903   3.138   0.700
 6969SOL    HW121806   2.952   3.080   0.765
 6969SOL    HW221807   2.905   3.097   0.609
 6970SOL     OW21808   4.607   4.191   0.802
 6970SOL    HW121809   4.695   4.203   0.849
 6970SOL    HW221810   4.565   4.281   0.788
 6971SOL     OW21811   6.232   1.079   1.949
 6971SOL    HW121812   6.146   1.042   1.985
 6971SOL    HW221813   6.280   1.129   2.021
 6972SOL     OW21814   5.476   5.042   4.469
 6972SOL    HW121815   5.438   5.134   4.459
 6972SOL    HW221816   5.440   4.982   4.398
 6973SOL     OW21817   1.543   4.230   3.486
 6973SOL    HW121818   1.540   4.219   3.585
 6973SOL    HW221819   1.449   4.232   3.450
 6974SOL     OW21820   3.718   4.191   5.156
 6974SOL    HW121821   3.700   4.093   5.165
 6974SOL    HW221822   3.659   4.229   5.085
 6975SOL     OW21823   3.215   6.998   6.229
 6975SOL    HW121824   3.115   6.992   6.223
 6975SOL    HW221825   3.240   0.057   6.276
 6976SOL     OW21826   1.268   6.547   0.835
 6976SOL    HW121827   1.287   6.615   0.906
 6976SOL    HW221828   1.322   6.465   0.852
 6977SOL     OW21829   4.771   2.847   2.235
 6977SOL    HW121830   4.754   2.903   2.154
 6977SOL    HW221831   4.765   2.905   2.317
 6978SOL     OW21832   4.516   2.021   3.470
 6978SOL    HW121833   4.426   2.030   3.513
 6978SOL    HW221834   4.529   2.097   3.405
 6979SOL     OW21835   0.722   4.111   3.622
 6979SOL    HW121836   0.795   4.055   3.660
 6979SOL    HW221837   0.636   4.089   3.670
 6980SOL     OW21838   4.350   1.052   4.923
 6980SOL    HW121839   4.373   0.958   4.900
 6980SOL    HW221840   4.251   1.061   4.934
 6981SOL     OW21841   2.756   3.799   6.982
 6981SOL    HW121842   2.757   3.804   0.056
 6981SOL    HW221843   2.850   3.801   6.947
 6982SOL     OW21844   0.366   6.969   5.429
 6982SOL    HW121845   0.442   7.025   5.394
 6982SOL    HW221846   0.334   7.007   5.516
 6983SOL     OW21847   6.345   1.015   2.581
 6983SOL    HW121848   6.303   0.927   2.606
 6983SOL    HW221849   6.326   1.083   2.652
 6984SOL     OW21850   1.756   1.277   5.746
 6984SOL    HW121851   1.841   1.237   5.780
 6984SOL    HW221852   1.752   1.373   5.772
 6985SOL     OW21853   5.112   0.064   3.864
 6985SOL    HW121854   5.034   0.002   3.855
 6985SOL    HW221855   5.197   0.012   3.852
 6986SOL     OW21856   1.483   6.922   4.745
 6986SOL    HW121857   1.474   6.913   4.646
 6986SOL    HW221858   1.562   6.869   4.777
 6987SOL     OW21859   6.748   3.096   6.608
 6987SOL    HW121860   6.789   3.097   6.516
 6987SOL    HW221861   6.800   3.157   6.668
 6988SOL     OW21862   5.513   1.750   6.143
 6988SOL    HW121863   5.456   1.675   6.109
 6988SOL    HW221864   5.523   1.741   6.242
 6989SOL     OW21865   2.130   3.240   3.575
 6989SOL    HW121866   2.169   3.327   3.604
 6989SOL    HW221867   2.116   3.181   3.654
 6990SOL     OW21868   4.025   3.199   0.981
 6990SOL    HW121869   4.063   3.189   0.889
 6990SOL    HW221870   3.999   3.109   1.016
 6991SOL     OW21871   4.189   4.541   5.382
 6991SOL    HW121872   4.187   4.473   5.455
 6991SOL    HW221873   4.194   4.494   5.294
 6992SOL     OW21874   6.120   6.919   4.550
 6992SOL    HW121875   6.081   7.004   4.517
 6992SOL    HW221876   6.122   6.920   4.650
 6993SOL     OW21877   0.228   6.884   3.683
 6993SOL    HW121878   0.269   6.961   3.732
 6993SOL    HW221879   0.149   6.915   3.630
 6994SOL     OW21880   1.551   2.595   0.366
 6994SOL    HW121881   1.468   2.636   0.328
 6994SOL    HW221882   1.548   2.496   0.353
 6995SOL     OW21883   0.872   5.366   4.068
 6995SOL    HW121884   0.890   5.269   4.053
 6995SOL    HW221885   0.958   5.413   4.088
 6996SOL     OW21886   1.905   6.776   6.416
 6996SOL    HW121887   1.849   6.855   6.440
 6996SOL    HW221888   1.923   6.776   6.317
 6997SOL     OW21889   4.754   5.507   4.369
 6997SOL    HW121890   4.769   5.459   4.455
 6997SOL    HW221891   4.797   5.455   4.294
 6998SOL     OW21892   2.964   1.890   3.315
 6998SOL    HW121893   2.889   1.942   3.274
 6998SOL    HW221894   2.928   1.813   3.367
 6999SOL     OW21895   5.534   2.055   0.058
 6999SOL    HW121896   5.491   2.063   0.148
 6999SOL    HW221897   5.530   2.144   0.012
 7000SOL     OW21898   6.755   0.186   1.319
 7000SOL    HW121899   6.690   0.260   1.307
 7000SOL    HW221900   6.844   0.212   1.280
 7001SOL     OW21901   3.016   1.672   6.305
 7001SOL    HW121902   2.937   1.712   6.258
 7001SOL    HW221903   3.092   1.662   6.240
 7002SOL     OW21904   2.151   4.468   2.011
 7002SOL    HW121905   2.053   4.451   2.020
 7002SOL    HW221906   2.165   4.558   1.969
 7003SOL     OW21907   1.580   6.190   5.694
 7003SOL    HW121908   1.489   6.221   5.720
 7003SOL    HW221909   1.580   6.091   5.684
 7004SOL     OW21910   1.345   3.866   6.941
 7004SOL    HW121911   1.357   3.915   6.854
 7004SOL    HW221912   1.334   3.932   7.015
 7005SOL     OW21913   6.647   6.785   5.951
 7005SOL    HW121914   6.610   6.827   5.868
 7005SOL    HW221915   6.731   6.735   5.928
 7006SOL     OW21916   4.339   4.589   4.018
 7006SOL    HW121917   4.273   4.560   4.087
 7006SOL    HW221918   4.306   4.672   3.973
 7007SOL     OW21919   4.583   4.834   2.729
 7007SOL    HW121920   4.622   4.749   2.764
 7007SOL    HW221921   4.484   4.834   2.742
 7008SOL     OW21922   1.085   5.075   4.087
 7008SOL    HW121923   1.026   5.105   4.011
 7008SOL    HW221924   1.028   5.043   4.162
 7009SOL     OW21925   6.868   4.063   1.758
 7009SOL    HW121926   6.796   3.997   1.779
 7009SOL    HW221927   6.935   4.065   1.833
 7010SOL     OW21928   5.226   4.687   6.453
 7010SOL    HW121929   5.154   4.731   6.507
 7010SOL    HW221930   5.187   4.611   6.401
 7011SOL     OW21931   0.815   0.941   5.640
 7011SOL    HW121932   0.881   0.871   5.612
 7011SOL    HW221933   0.823   0.956   5.739
 7012SOL     OW21934   1.505   1.377   1.608
 7012SOL    HW121935   1.555   1.291   1.607
 7012SOL    HW221936   1.500   1.413   1.515
 7013SOL     OW21937   6.441   1.846   2.319
 7013SOL    HW121938   6.408   1.921   2.376
 7013SOL    HW221939   6.469   1.881   2.229
 7014SOL     OW21940   2.247   5.363   0.577
 7014SOL    HW121941   2.310   5.335   0.649
 7014SOL    HW221942   2.214   5.456   0.595
 7015SOL     OW21943   4.910   2.009   2.705
 7015SOL    HW121944   4.845   2.039   2.635
 7015SOL    HW221945   5.000   1.995   2.663
 7016SOL     OW21946   4.417   4.330   1.587
 7016SOL    HW121947   4.431   4.288   1.677
 7016SOL    HW221948   4.398   4.259   1.519
 7017SOL     OW21949   5.123   1.426   5.291
 7017SOL    HW121950   5.159   1.475   5.212
 7017SOL    HW221951   5.072   1.346   5.261
 7018SOL     OW21952   0.733   3.391   3.002
 7018SOL    HW121953   0.670   3.334   3.054
 7018SOL    HW221954   0.700   3.485   3.001
 7019SOL     OW21955   1.092   5.860   1.161
 7019SOL    HW121956   1.020   5.792   1.175
 7019SOL    HW221957   1.158   5.825   1.094
 7020SOL     OW21958   0.123   6.270   6.830
 7020SOL    HW121959   0.156   6.213   6.904
 7020SOL    HW221960   0.044   6.322   6.860
 7021SOL     OW21961   3.616   0.015   6.191
 7021SOL    HW121962   3.694   0.008   6.128
 7021SOL    HW221963   3.620   6.965   6.257
 7022SOL     OW21964   4.601   5.435   6.055
 7022SOL    HW121965   4.600   5.373   6.133
 7022SOL    HW221966   4.525   5.413   5.994
 7023SOL     OW21967   4.701   4.124   2.535
 7023SOL    HW121968   4.607   4.116   2.504
 7023SOL    HW221969   4.749   4.037   2.520
 7024SOL     OW21970   6.024   6.391   1.224
 7024SOL    HW121971   6.118   6.423   1.209
 7024SOL    HW221972   5.974   6.461   1.276
 7025SOL     OW21973   2.630   0.664   7.017
 7025SOL    HW121974   2.534   0.690   7.007
 7025SOL    HW221975   2.688   0.733   6.973
 7026SOL     OW21976   4.106   1.740   1.499
 7026SOL    HW121977   4.096   1.837   1.476
 7026SOL    HW221978   4.097   1.728   1.598
 7027SOL     OW21979   5.433   5.712   3.574
 7027SOL    HW121980   5.488   5.648   3.521
 7027SOL    HW221981   5.444   5.694   3.672
 7028SOL     OW21982   3.003   0.121   4.455
 7028SOL    HW121983   3.023   0.085   4.364
 7028SOL    HW221984   3.073   0.188   4.480
 7029SOL     OW21985   4.253   1.550   4.798
 7029SOL    HW121986   4.218   1.639   4.826
 7029SOL    HW221987   4.348   1.540   4.828
 7030SOL     OW21988   1.878   3.428   4.134
 7030SOL    HW121989   1.949   3.499   4.129
 7030SOL    HW221990   1.891   3.362   4.060
 7031SOL     OW21991   1.324   1.316   4.363
 7031SOL    HW121992   1.366   1.279   4.445
 7031SOL    HW221993   1.366   1.404   4.341
 7032SOL     OW21994   6.051   2.182   3.838
 7032SOL    HW121995   6.005   2.268   3.813
 7032SOL    HW221996   6.097   2.145   3.758
 7033SOL     OW21997   0.752   6.986   5.483
 7033SOL    HW121998   0.780   0.051   5.517
 7033SOL    HW221999   0.654   6.986   5.468
 7034SOL     OW22000   0.169   5.070   3.546
 7034SOL    HW122001   0.087   5.121   3.575
 7034SOL    HW222002   0.144   5.004   3.475
 7035SOL     OW22003   6.773   4.933   1.989
 7035SOL    HW122004   6.752   4.846   1.945
 7035SOL    HW222005   6.734   5.008   1.935
 7036SOL     OW22006   6.464   4.643   0.931
 7036SOL    HW122007   6.386   4.701   0.908
 7036SOL    HW222008   6.433   4.563   0.982
 7037SOL     OW22009   1.566   0.149   6.369
 7037SOL    HW122010   1.535   0.138   6.274
 7037SOL    HW222011   1.490   0.129   6.431
 7038SOL     OW22012   2.165   3.361   4.355
 7038SOL    HW122013   2.249   3.414   4.346
 7038SOL    HW222014   2.121   3.385   4.441
 7039SOL     OW22015   3.353   2.462   6.646
 7039SOL    HW122016   3.293   2.451   6.726
 7039SOL    HW222017   3.417   2.385   6.642
 7040SOL     OW22018   5.138   2.776   6.785
 7040SOL    HW122019   5.210   2.718   6.824
 7040SOL    HW222020   5.124   2.751   6.689
 7041SOL     OW22021   2.067   1.553   3.457
 7041SOL    HW122022   2.007   1.531   3.380
 7041SOL    HW222023   2.043   1.644   3.493
 7042SOL     OW22024   1.401   0.800   6.414
 7042SOL    HW122025   1.374   0.704   6.406
 7042SOL    HW222026   1.356   0.841   6.493
 7043SOL     OW22027   1.713   2.102   2.353
 7043SOL    HW122028   1.740   2.171   2.285
 7043SOL    HW222029   1.656   2.145   2.423
 7044SOL     OW22030   6.677   6.306   2.002
 7044SOL    HW122031   6.612   6.334   2.073
 7044SOL    HW222032   6.650   6.216   1.967
 7045SOL     OW22033   6.544   4.892   0.293
 7045SOL    HW122034   6.449   4.900   0.265
 7045SOL    HW222035   6.553   4.920   0.389
 7046SOL     OW22036   3.445   1.167   4.091
 7046SOL    HW122037   3.389   1.200   4.016
 7046SOL    HW222038   3.503   1.092   4.059
 7047SOL     OW22039   1.449   0.464   2.741
 7047SOL    HW122040   1.542   0.473   2.706
 7047SOL    HW222041   1.444   0.500   2.834
 7048SOL     OW22042   6.589   5.517   0.153
 7048SOL    HW122043   6.562   5.495   0.247
 7048SOL    HW222044   6.679   5.561   0.153
 7049SOL     OW22045   2.130   1.158   6.313
 7049SOL    HW122046   2.057   1.136   6.378
 7049SOL    HW222047   2.098   1.139   6.220
 7050SOL     OW22048   4.047   3.794   4.727
 7050SOL    HW122049   4.097   3.738   4.792
 7050SOL    HW222050   4.087   3.784   4.636
 7051SOL     OW22051   6.558   6.678   3.120
 7051SOL    HW122052   6.617   6.701   3.042
 7051SOL    HW222053   6.538   6.580   3.119
 7052SOL     OW22054   6.630   0.772   5.022
 7052SOL    HW122055   6.622   0.678   5.055
 7052SOL    HW222056   6.558   0.828   5.065
 7053SOL     OW22057   6.577   4.262   5.825
 7053SOL    HW122058   6.615   4.188   5.880
 7053SOL    HW222059   6.641   4.339   5.825
 7054SOL     OW22060   6.585   1.764   1.607
 7054SOL    HW122061   6.625   1.808   1.526
 7054SOL    HW222062   6.647   1.776   1.685
 7055SOL     OW22063   4.411   1.360   4.589
 7055SOL    HW122064   4.339   1.427   4.605
 7055SOL    HW222065   4.369   1.273   4.562
 7056SOL     OW22066   4.092   5.150   4.123
 7056SOL    HW122067   4.040   5.219   4.073
 7056SOL    HW222068   4.030   5.078   4.155
 7057SOL     OW22069   5.987   5.690   3.004
 7057SOL    HW122070   6.011   5.626   3.077
 7057SOL    HW222071   5.967   5.639   2.921
 7058SOL     OW22072   6.971   4.536   4.612
 7058SOL    HW122073   6.974   4.588   4.697
 7058SOL    HW222074   6.880   4.542   4.572
 7059SOL     OW22075   1.860   1.310   2.605
 7059SOL    HW122076   1.883   1.242   2.675
 7059SOL    HW222077   1.862   1.401   2.646
 7060SOL     OW22078   2.819   6.374   1.140
 7060SOL    HW122079   2.769   6.314   1.077
 7060SOL    HW222080   2.917   6.356   1.132
 7061SOL     OW22081   0.371   0.911   2.728
 7061SOL    HW122082   0.315   0.843   2.680
 7061SOL    HW222083   0.321   0.947   2.806
 7062SOL     OW22084   6.512   1.129   5.496
 7062SOL    HW122085   6.564   1.133   5.581
 7062SOL    HW222086   6.430   1.074   5.508
 7063SOL     OW22087   2.541   0.096   2.274
 7063SOL    HW122088   2.559   0.117   2.178
 7063SOL    HW222089   2.540   7.022   2.287
 7064SOL     OW22090   4.029   2.766   0.168
 7064SOL    HW122091   3.999   2.832   0.236
 7064SOL    HW222092   3.986   2.786   0.080
 7065SOL     OW22093   3.261   3.150   2.184
 7065SOL    HW122094   3.253   3.059   2.144
 7065SOL    HW222095   3.174   3.199   2.174
 7066SOL     OW22096   2.646   5.409   1.260
 7066SOL    HW122097   2.596   5.483   1.215
 7066SOL    HW222098   2.586   5.364   1.327
 7067SOL     OW22099   0.348   4.007   3.966
 7067SOL    HW122100   0.316   3.963   3.882
 7067SOL    HW222101   0.447   4.020   3.961
 7068SOL     OW22102   0.949   0.253   3.069
 7068SOL    HW122103   0.875   0.206   3.021
 7068SOL    HW222104   0.915   0.290   3.156
 7069SOL     OW22105   1.173   4.803   4.779
 7069SOL    HW122106   1.087   4.849   4.801
 7069SOL    HW222107   1.154   4.709   4.751
 7070SOL     OW22108   5.238   5.508   3.427
 7070SOL    HW122109   5.229   5.572   3.351
 7070SOL    HW222110   5.257   5.558   3.511
 7071SOL     OW22111   1.543   0.114   5.087
 7071SOL    HW122112   1.535   0.046   5.160
 7071SOL    HW222113   1.636   0.112   5.051
 7072SOL     OW22114   0.560   6.955   6.831
 7072SOL    HW122115   0.535   6.968   6.927
 7072SOL    HW222116   0.657   6.977   6.819
 7073SOL     OW22117   2.000   2.153   6.432
 7073SOL    HW122118   1.949   2.121   6.353
 7073SOL    HW222119   2.067   2.085   6.459
 7074SOL     OW22120   3.213   1.288   0.025
 7074SOL    HW122121   3.156   1.210   0.000
 7074SOL    HW222122   3.250   1.329   6.967
 7075SOL     OW22123   0.735   5.535   1.866
 7075SOL    HW122124   0.648   5.582   1.852
 7075SOL    HW222125   0.723   5.460   1.931
 7076SOL     OW22126   3.570   1.677   6.039
 7076SOL    HW122127   3.572   1.770   6.077
 7076SOL    HW222128   3.663   1.649   6.016
 7077SOL     OW22129   1.792   4.967   6.489
 7077SOL    HW122130   1.822   4.914   6.409
 7077SOL    HW222131   1.701   5.005   6.472
 7078SOL     OW22132   6.526   0.533   1.931
 7078SOL    HW122133   6.433   0.506   1.955
 7078SOL    HW222134   6.525   0.623   1.887
 7079SOL     OW22135   5.625   6.132   5.335
 7079SOL    HW122136   5.642   6.089   5.424
 7079SOL    HW222137   5.635   6.063   5.263
 7080SOL     OW22138   6.054   0.363   3.773
 7080SOL    HW122139   5.999   0.447   3.773
 7080SOL    HW222140   6.120   0.366   3.847
 7081SOL     OW22141   4.774   0.372   5.189
 7081SOL    HW122142   4.712   0.312   5.240
 7081SOL    HW222143   4.731   0.398   5.102
 7082SOL     OW22144   6.079   1.278   6.763
 7082SOL    HW122145   6.097   1.350   6.695
 7082SOL    HW222146   5.991   1.235   6.743
 7083SOL     OW22147   3.295   0.512   5.921
 7083SOL    HW122148   3.384   0.525   5.878
 7083SOL    HW222149   3.307   0.508   6.021
 7084SOL     OW22150   5.873   6.050   0.430
 7084SOL    HW122151   5.833   6.117   0.367
 7084SOL    HW222152   5.973   6.063   0.432
 7085SOL     OW22153   4.048   1.057   1.017
 7085SOL    HW122154   3.964   1.006   1.032
 7085SOL    HW222155   4.027   1.145   0.974
 7086SOL     OW22156   1.224   1.493   6.007
 7086SOL    HW122157   1.302   1.520   5.951
 7086SOL    HW222158   1.195   1.571   6.064
 7087SOL     OW22159   2.339   2.748   5.107
 7087SOL    HW122160   2.345   2.846   5.123
 7087SOL    HW222161   2.377   2.726   5.016
 7088SOL     OW22162   0.593   2.015   5.651
 7088SOL    HW122163   0.591   2.099   5.597
 7088SOL    HW222164   0.598   1.936   5.590
 7089SOL     OW22165   2.804   1.925   1.522
 7089SOL    HW122166   2.774   1.863   1.595
 7089SOL    HW222167   2.827   2.014   1.561
 7090SOL     OW22168   2.284   2.251   5.170
 7090SOL    HW122169   2.264   2.153   5.168
 7090SOL    HW222170   2.373   2.268   5.128
 7091SOL     OW22171   6.791   6.510   0.884
 7091SOL    HW122172   6.706   6.457   0.884
 7091SOL    HW222173   6.838   6.497   0.796
 7092SOL     OW22174   2.691   2.416   0.644
 7092SOL    HW122175   2.770   2.451   0.696
 7092SOL    HW222176   2.629   2.492   0.624
 7093SOL     OW22177   4.460   3.130   5.942
 7093SOL    HW122178   4.408   3.194   5.998
 7093SOL    HW222179   4.549   3.170   5.919
 7094SOL     OW22180   6.916   0.861   6.275
 7094SOL    HW122181   6.881   0.920   6.348
 7094SOL    HW222182   7.000   0.816   6.306
 7095SOL     OW22183   0.287   3.940   0.178
 7095SOL    HW122184   0.372   3.897   0.148
 7095SOL    HW222185   0.261   3.904   0.268
 7096SOL     OW22186   4.916   0.086   2.842
 7096SOL    HW122187   4.949   0.170   2.886
 7096SOL    HW222188   4.993   0.038   2.801
 7097SOL     OW22189   1.991   1.065   1.776
 7097SOL    HW122190   2.025   1.121   1.851
 7097SOL    HW222191   1.892   1.054   1.785
 7098SOL     OW22192   1.267   0.451   6.250
 7098SOL    HW122193   1.207   0.526   6.225
 7098SOL    HW222194   1.305   0.468   6.341
 7099SOL     OW22195   6.860   1.152   5.564
 7099SOL    HW122196   6.949   1.187   5.592
 7099SOL    HW222197   6.862   1.052   5.566
 7100SOL     OW22198   5.653   2.098   1.291
 7100SOL    HW122199   5.572   2.149   1.321
 7100SOL    HW222200   5.625   2.027   1.226
 7101SOL     OW22201   1.534   0.657   4.317
 7101SOL    HW122202   1.618   0.647   4.264
 7101SOL    HW222203   1.535   0.591   4.393
 7102SOL     OW22204   5.029   3.046   0.343
 7102SOL    HW122205   4.944   2.996   0.356
 7102SOL    HW222206   5.055   3.044   0.247
 7103SOL     OW22207   3.164   0.332   5.762
 7103SOL    HW122208   3.211   0.398   5.821
 7103SOL    HW222209   3.225   0.255   5.743
 7104SOL     OW22210   0.496   2.377   2.197
 7104SOL    HW122211   0.406   2.411   2.225
 7104SOL    HW222212   0.530   2.431   2.120
 7105SOL     OW22213   2.126   3.947   5.551
 7105SOL    HW122214   2.149   3.927   5.456
 7105SOL    HW222215   2.028   3.935   5.565
 7106SOL     OW22216   3.192   2.658   5.296
 7106SOL    HW122217   3.104   2.704   5.308
 7106SOL    HW222218   3.178   2.565   5.262
 7107SOL     OW22219   2.023   1.275   0.563
 7107SOL    HW122220   1.999   1.192   0.512
 7107SOL    HW222221   2.116   1.266   0.599
 7108SOL     OW22222   4.739   6.754   1.829
 7108SOL    HW122223   4.670   6.686   1.851
 7108SOL    HW222224   4.791   6.724   1.749
 7109SOL     OW22225   4.036   6.210   6.374
 7109SOL    HW122226   4.106   6.171   6.315
 7109SOL    HW222227   4.078   6.244   6.458
 7110SOL     OW22228   2.906   4.942   3.856
 7110SOL    HW122229   2.986   4.954   3.798
 7110SOL    HW222230   2.830   4.906   3.802
 7111SOL     OW22231   1.635   2.341   3.335
 7111SOL    HW122232   1.648   2.398   3.416
 7111SOL    HW222233   1.684   2.254   3.347
 7112SOL     OW22234   1.823   6.504   2.182
 7112SOL    HW122235   1.812   6.465   2.090
 7112SOL    HW222236   1.920   6.507   2.206
 7113SOL     OW22237   3.779   3.666   5.056
 7113SOL    HW122238   3.785   3.738   5.126
 7113SOL    HW222239   3.823   3.583   5.089
 7114SOL     OW22240   3.619   6.729   0.735
 7114SOL    HW122241   3.547   6.696   0.674
 7114SOL    HW222242   3.645   6.657   0.799
 7115SOL     OW22243   4.520   1.336   1.487
 7115SOL    HW122244   4.521   1.296   1.579
 7115SOL    HW222245   4.523   1.435   1.494
 7116SOL     OW22246   6.118   3.861   3.159
 7116SOL    HW122247   6.164   3.948   3.175
 7116SOL    HW222248   6.061   3.868   3.077
 7117SOL     OW22249   6.036   6.870   2.432
 7117SOL    HW122250   6.047   6.910   2.341
 7117SOL    HW222251   6.074   6.931   2.501
 7118SOL     OW22252   7.000   3.205   2.629
 7118SOL    HW122253   6.954   3.135   2.573
 7118SOL    HW222254   6.953   3.293   2.617
 7119SOL     OW22255   0.850   2.233   2.681
 7119SOL    HW122256   0.820   2.325   2.707
 7119SOL    HW222257   0.916   2.239   2.606
 7120SOL     OW22258   4.867   6.488   2.861
 7120SOL    HW122259   4.940   6.486   2.794
 7120SOL    HW222260   4.906   6.487   2.954
 7121SOL     OW22261   3.047   6.944   1.566
 7121SOL    HW122262   3.114   6.929   1.638
 7121SOL    HW222263   3.092   6.939   1.477
 7122SOL     OW22264   6.594   6.722   0.442
 7122SOL    HW122265   6.500   6.728   0.475
 7122SOL    HW222266   6.597   6.745   0.345
 7123SOL     OW22267   2.561   5.539   0.557
 7123SOL    HW122268   2.501   5.587   0.493
 7123SOL    HW222269   2.570   5.444   0.530
 7124SOL     OW22270   6.798   5.749   0.339
 7124SOL    HW122271   6.704   5.781   0.323
 7124SOL    HW222272   6.846   5.743   0.251
 7125SOL     OW22273   0.018   6.466   3.322
 7125SOL    HW122274   0.042   6.371   3.303
 7125SOL    HW222275   6.989   6.471   3.406
 7126SOL     OW22276   1.633   4.426   0.965
 7126SOL    HW122277   1.593   4.362   1.031
 7126SOL    HW222278   1.716   4.465   1.003
 7127SOL     OW22279   2.726   0.146   4.438
 7127SOL    HW122280   2.702   0.234   4.478
 7127SOL    HW222281   2.825   0.133   4.441
 7128SOL     OW22282   3.118   3.839   1.696
 7128SOL    HW122283   3.114   3.937   1.677
 7128SOL    HW222284   3.200   3.819   1.749
 7129SOL     OW22285   2.506   2.134   1.456
 7129SOL    HW122286   2.474   2.115   1.363
 7129SOL    HW222287   2.565   2.059   1.486
 7130SOL     OW22288   2.884   0.112   2.740
 7130SOL    HW122289   2.946   0.038   2.765
 7130SOL    HW222290   2.816   0.078   2.674
 7131SOL     OW22291   3.105   1.541   3.499
 7131SOL    HW122292   3.199   1.572   3.510
 7131SOL    HW222293   3.051   1.571   3.578
 7132SOL     OW22294   3.287   4.083   2.054
 7132SOL    HW122295   3.259   4.177   2.069
 7132SOL    HW222296   3.212   4.021   2.077
 7133SOL     OW22297   5.821   4.159   2.080
 7133SOL    HW122298   5.851   4.067   2.105
 7133SOL    HW222299   5.779   4.156   1.989
 7134SOL     OW22300   5.492   4.758   2.712
 7134SOL    HW122301   5.455   4.667   2.691
 7134SOL    HW222302   5.501   4.769   2.811
 7135SOL     OW22303   0.556   2.261   5.538
 7135SOL    HW122304   0.514   2.296   5.455
 7135SOL    HW222305   0.511   2.301   5.618
 7136SOL     OW22306   2.497   1.901   6.520
 7136SOL    HW122307   2.452   1.836   6.459
 7136SOL    HW222308   2.547   1.969   6.465
 7137SOL     OW22309   4.536   1.673   5.319
 7137SOL    HW122310   4.485   1.588   5.334
 7137SOL    HW222311   4.579   1.671   5.229
 7138SOL     OW22312   2.102   3.078   6.770
 7138SOL    HW122313   2.049   3.068   6.686
 7138SOL    HW222314   2.194   3.040   6.756
 7139SOL     OW22315   2.803   1.743   0.441
 7139SOL    HW122316   2.814   1.806   0.364
 7139SOL    HW222317   2.828   1.650   0.413
 7140SOL     OW22318   6.969   4.103   5.050
 7140SOL    HW122319   6.920   4.032   4.998
 7140SOL    HW222320   6.933   4.193   5.025
 7141SOL     OW22321   1.114   6.309   1.975
 7141SOL    HW122322   1.147   6.219   1.948
 7141SOL    HW222323   1.058   6.301   2.058
 7142SOL     OW22324   3.680   6.804   3.582
 7142SOL    HW122325   3.737   6.886   3.571
 7142SOL    HW222326   3.710   6.753   3.663
 7143SOL     OW22327   2.446   2.293   4.121
 7143SOL    HW122328   2.360   2.299   4.070
 7143SOL    HW222329   2.505   2.370   4.097
 7144SOL     OW22330   1.443   3.230   3.744
 7144SOL    HW122331   1.460   3.248   3.647
 7144SOL    HW222332   1.347   3.247   3.766
 7145SOL     OW22333   4.230   6.425   5.822
 7145SOL    HW122334   4.281   6.361   5.765
 7145SOL    HW222335   4.181   6.375   5.893
 7146SOL     OW22336   2.999   5.368   1.897
 7146SOL    HW122337   2.997   5.334   1.991
 7146SOL    HW222338   2.924   5.326   1.846
 7147SOL     OW22339   0.222   1.022   2.967
 7147SOL    HW122340   0.287   1.016   3.042
 7147SOL    HW222341   0.170   0.937   2.960
 7148SOL     OW22342   0.160   1.478   0.890
 7148SOL    HW122343   0.223   1.413   0.933
 7148SOL    HW222344   0.088   1.503   0.955
 7149SOL     OW22345   0.354   0.553   4.729
 7149SOL    HW122346   0.376   0.605   4.646
 7149SOL    HW222347   0.261   0.576   4.759
 7150SOL     OW22348   6.211   3.811   6.984
 7150SOL    HW122349   6.301   3.834   7.022
 7150SOL    HW222350   6.219   3.803   6.884
 7151SOL     OW22351   2.467   6.726   0.971
 7151SOL    HW122352   2.489   6.657   1.040
 7151SOL    HW222353   2.384   6.774   0.996
 7152SOL     OW22354   1.015   2.671   3.947
 7152SOL    HW122355   1.085   2.736   3.917
 7152SOL    HW222356   1.027   2.584   3.899
 7153SOL     OW22357   3.503   1.782   3.432
 7153SOL    HW122358   3.434   1.737   3.489
 7153SOL    HW222359   3.468   1.870   3.400
 7154SOL     OW22360   4.058   6.003   5.035
 7154SOL    HW122361   4.086   5.918   5.079
 7154SOL    HW222362   4.138   6.061   5.021
 7155SOL     OW22363   2.370   1.456   3.421
 7155SOL    HW122364   2.410   1.418   3.337
 7155SOL    HW222365   2.278   1.419   3.433
 7156SOL     OW22366   1.595   5.383   5.212
 7156SOL    HW122367   1.498   5.375   5.235
 7156SOL    HW222368   1.640   5.443   5.278
 7157SOL     OW22369   4.955   4.008   0.593
 7157SOL    HW122370   4.979   4.037   0.685
 7157SOL    HW222371   5.032   3.961   0.551
 7158SOL     OW22372   4.940   6.823   4.165
 7158SOL    HW122373   5.038   6.815   4.148
 7158SOL    HW222374   4.890   6.760   4.106
 7159SOL     OW22375   0.834   5.421   0.276
 7159SOL    HW122376   0.769   5.400   0.203
 7159SOL    HW222377   0.918   5.459   0.235
 7160SOL     OW22378   6.165   0.866   1.738
 7160SOL    HW122379   6.165   0.915   1.825
 7160SOL    HW222380   6.246   0.893   1.685
 7161SOL     OW22381   3.628   4.103   4.303
 7161SOL    HW122382   3.553   4.124   4.366
 7161SOL    HW222383   3.713   4.090   4.355
 7162SOL     OW22384   3.362   4.988   4.328
 7162SOL    HW122385   3.315   4.975   4.415
 7162SOL    HW222386   3.295   5.006   4.256
 7163SOL     OW22387   1.658   6.471   2.950
 7163SOL    HW122388   1.627   6.556   2.993
 7163SOL    HW222389   1.698   6.412   3.020
 7164SOL     OW22390   2.367   2.360   4.562
 7164SOL    HW122391   2.301   2.362   4.637
 7164SOL    HW222392   2.405   2.268   4.552
 7165SOL     OW22393   5.179   6.047   2.583
 7165SOL    HW122394   5.087   6.075   2.610
 7165SOL    HW222395   5.223   6.120   2.532
 7166SOL     OW22396   4.312   5.796   2.273
 7166SOL    HW122397   4.303   5.885   2.318
 7166SOL    HW222398   4.247   5.789   2.198
 7167SOL     OW22399   5.300   3.377   6.166
 7167SOL    HW122400   5.374   3.325   6.209
 7167SOL    HW222401   5.212   3.340   6.196
 7168SOL     OW22402   0.482   1.864   3.911
 7168SOL    HW122403   0.452   1.800   3.981
 7168SOL    HW222404   0.554   1.922   3.948
 7169SOL     OW22405   1.814   2.699   6.561
 7169SOL    HW122406   1.789   2.675   6.467
 7169SOL    HW222407   1.814   2.617   6.618
 7170SOL     OW22408   5.897   4.827   3.764
 7170SOL    HW122409   5.984   4.843   3.718
 7170SOL    HW222410   5.835   4.905   3.747
 7171SOL     OW22411   4.361   3.034   5.360
 7171SOL    HW122412   4.430   3.102   5.335
 7171SOL    HW222413   4.397   2.942   5.340
 7172SOL     OW22414   0.717   6.983   1.831
 7172SOL    HW122415   0.707   7.011   1.927
 7172SOL    HW222416   0.694   6.886   1.823
 7173SOL     OW22417   6.090   6.487   4.825
 7173SOL    HW122418   6.187   6.505   4.811
 7173SOL    HW222419   6.049   6.563   4.876
 7174SOL     OW22420   0.911   5.842   6.176
 7174SOL    HW122421   0.956   5.787   6.247
 7174SOL    HW222422   0.814   5.850   6.196
 7175SOL     OW22423   6.156   3.395   5.553
 7175SOL    HW122424   6.212   3.439   5.623
 7175SOL    HW222425   6.103   3.465   5.504
 7176SOL     OW22426   0.152   3.347   1.509
 7176SOL    HW122427   0.108   3.373   1.595
 7176SOL    HW222428   0.203   3.425   1.473
 7177SOL     OW22429   1.130   5.575   1.656
 7177SOL    HW122430   1.083   5.487   1.653
 7177SOL    HW222431   1.222   5.563   1.695
 7178SOL     OW22432   6.642   1.689   6.308
 7178SOL    HW122433   6.578   1.744   6.255
 7178SOL    HW222434   6.724   1.742   6.327
 7179SOL     OW22435   1.834   4.882   6.214
 7179SOL    HW122436   1.754   4.825   6.233
 7179SOL    HW222437   1.913   4.823   6.194
 7180SOL     OW22438   0.180   6.956   2.695
 7180SOL    HW122439   0.163   6.896   2.616
 7180SOL    HW222440   0.222   0.016   2.664
 7181SOL     OW22441   5.620   6.332   2.672
 7181SOL    HW122442   5.648   6.243   2.638
 7181SOL    HW222443   5.678   6.403   2.632
 7182SOL     OW22444   4.139   3.625   5.932
 7182SOL    HW122445   4.198   3.623   6.013
 7182SOL    HW222446   4.060   3.566   5.946
 7183SOL     OW22447   2.136   3.750   3.808
 7183SOL    HW122448   2.127   3.846   3.779
 7183SOL    HW222449   2.125   3.691   3.728
 7184SOL     OW22450   2.348   5.578   3.160
 7184SOL    HW122451   2.442   5.590   3.127
 7184SOL    HW222452   2.286   5.631   3.103
 7185SOL     OW22453   4.118   2.983   6.817
 7185SOL    HW122454   4.156   2.925   6.745
 7185SOL    HW222455   4.087   2.927   6.893
 7186SOL     OW22456   0.211   6.884   4.399
 7186SOL    HW122457   0.194   6.931   4.486
 7186SOL    HW222458   0.146   6.917   4.331
 7187SOL     OW22459   1.664   5.275   0.931
 7187SOL    HW122460   1.618   5.309   0.849
 7187SOL    HW222461   1.761   5.302   0.929
 7188SOL     OW22462   5.128   0.156   1.878
 7188SOL    HW122463   5.152   0.148   1.975
 7188SOL    HW222464   5.045   0.211   1.868
 7189SOL     OW22465   6.470   0.840   5.470
 7189SOL    HW122466   6.563   0.806   5.480
 7189SOL    HW222467   6.453   0.864   5.374
 7190SOL     OW22468   4.279   5.185   3.332
 7190SOL    HW122469   4.184   5.155   3.322
 7190SOL    HW222470   4.335   5.143   3.260
 7191SOL     OW22471   0.805   3.220   1.637
 7191SOL    HW122472   0.872   3.171   1.693
 7191SOL    HW222473   0.850   3.257   1.556
 7192SOL     OW22474   3.671   4.655   6.651
 7192SOL    HW122475   3.696   4.673   6.746
 7192SOL    HW222476   3.631   4.564   6.643
 7193SOL     OW22477   5.563   1.578   4.317
 7193SOL    HW122478   5.565   1.587   4.218
 7193SOL    HW222479   5.634   1.514   4.346
 7194SOL     OW22480   3.317   1.627   1.565
 7194SOL    HW122481   3.406   1.671   1.578
 7194SOL    HW222482   3.269   1.669   1.488
 7195SOL     OW22483   0.366   6.205   1.867
 7195SOL    HW122484   0.303   6.263   1.917
 7195SOL    HW222485   0.319   6.164   1.788
 7196SOL     OW22486   3.629   3.192   1.409
 7196SOL    HW122487   3.645   3.167   1.504
 7196SOL    HW222488   3.709   3.238   1.372
 7197SOL     OW22489   1.209   1.405   4.120
 7197SOL    HW122490   1.231   1.361   4.207
 7197SOL    HW222491   1.293   1.436   4.076
 7198SOL     OW22492   0.320   6.538   5.984
 7198SOL    HW122493   0.387   6.517   6.054
 7198SOL    HW222494   0.367   6.572   5.902
 7199SOL     OW22495   5.311   6.174   2.822
 7199SOL    HW122496   5.274   6.134   2.738
 7199SOL    HW222497   5.317   6.104   2.893
 7200SOL     OW22498   2.467   1.986   2.071
 7200SOL    HW122499   2.557   1.944   2.065
 7200SOL    HW222500   2.460   2.039   2.156
 7201SOL     OW22501   2.118   4.748   3.219
 7201SOL    HW122502   2.132   4.782   3.312
 7201SOL    HW222503   2.113   4.826   3.156
 7202SOL     OW22504   3.138   0.414   5.475
 7202SOL    HW122505   3.135   0.420   5.575
 7202SOL    HW222506   3.087   0.490   5.436
 7203SOL     OW22507   5.906   6.947   6.882
 7203SOL    HW122508   5.953   0.010   6.892
 7203SOL    HW222509   5.920   6.893   6.965
 7204SOL     OW22510   5.911   2.056   3.042
 7204SOL    HW122511   5.917   2.062   2.942
 7204SOL    HW222512   5.985   1.998   3.077
 7205SOL     OW22513   1.743   4.268   1.397
 7205SOL    HW122514   1.813   4.274   1.468
 7205SOL    HW222515   1.699   4.178   1.400
 7206SOL     OW22516   5.623   1.705   1.788
 7206SOL    HW122517   5.587   1.699   1.695
 7206SOL    HW222518   5.722   1.689   1.786
 7207SOL     OW22519   4.076   6.261   1.632
 7207SOL    HW122520   4.092   6.333   1.565
 7207SOL    HW222521   3.980   6.259   1.657
 7208SOL     OW22522   2.976   0.416   5.159
 7208SOL    HW122523   2.906   0.376   5.218
 7208SOL    HW222524   2.945   0.506   5.127
 7209SOL     OW22525   2.983   3.462   4.150
 7209SOL    HW122526   3.074   3.499   4.166
 7209SOL    HW222527   2.960   3.472   4.053
 7210SOL     OW22528   4.879   0.064   4.228
 7210SOL    HW122529   4.905   6.993   4.236
 7210SOL    HW222530   4.961   0.121   4.222
 7211SOL     OW22531   0.888   5.044   2.196
 7211SOL    HW122532   0.966   4.980   2.197
 7211SOL    HW222533   0.854   5.057   2.289
 7212SOL     OW22534   5.157   6.900   3.390
 7212SOL    HW122535   5.221   6.848   3.448
 7212SOL    HW222536   5.089   6.944   3.448
 7213SOL     OW22537   4.953   6.408   4.707
 7213SOL    HW122538   4.968   6.500   4.745
 7213SOL    HW222539   5.012   6.343   4.753
 7214SOL     OW22540   0.664   4.383   5.347
 7214SOL    HW122541   0.614   4.440   5.413
 7214SOL    HW222542   0.622   4.392   5.257
 7215SOL     OW22543   1.195   3.166   2.041
 7215SOL    HW122544   1.221   3.202   1.951
 7215SOL    HW222545   1.098   3.181   2.056
 7216SOL     OW22546   3.008   1.570   2.367
 7216SOL    HW122547   3.007   1.603   2.272
 7216SOL    HW222548   2.981   1.474   2.369
 7217SOL     OW22549   0.461   2.830   2.020
 7217SOL    HW122550   0.384   2.894   2.022
 7217SOL    HW222551   0.519   2.850   1.941
 7218SOL     OW22552   6.149   2.642   5.470
 7218SOL    HW122553   6.094   2.621   5.389
 7218SOL    HW222554   6.189   2.734   5.460
 7219SOL     OW22555   3.431   0.801   1.258
 7219SOL    HW122556   3.424   0.726   1.324
 7219SOL    HW222557   3.379   0.880   1.291
 7220SOL     OW22558   6.367   1.254   2.795
 7220SOL    HW122559   6.370   1.309   2.878
 7220SOL    HW222560   6.340   1.312   2.718
 7221SOL     OW22561   6.215   4.350   5.435
 7221SOL    HW122562   6.243   4.299   5.517
 7221SOL    HW222563   6.293   4.362   5.375
 7222SOL     OW22564   6.854   6.810   3.652
 7222SOL    HW122565   6.852   6.807   3.752
 7222SOL    HW222566   6.889   6.722   3.617
 7223SOL     OW22567   4.736   0.696   4.892
 7223SOL    HW122568   4.653   0.721   4.942
 7223SOL    HW222569   4.716   0.693   4.794
 7224SOL     OW22570   5.902   0.983   3.934
 7224SOL    HW122571   5.850   0.997   4.018
 7224SOL    HW222572   5.855   1.026   3.858
 7225SOL     OW22573   2.858   0.562   1.458
 7225SOL    HW122574   2.913   0.500   1.515
 7225SOL    HW222575   2.814   0.630   1.516
 7226SOL     OW22576   6.075   6.740   5.216
 7226SOL    HW122577   6.131   6.671   5.262
 7226SOL    HW222578   6.104   6.831   5.246
 7227SOL     OW22579   6.717   2.691   5.832
 7227SOL    HW122580   6.669   2.757   5.890
 7227SOL    HW222581   6.703   2.598   5.869
 7228SOL     OW22582   2.476   0.765   3.153
 7228SOL    HW122583   2.417   0.755   3.233
 7228SOL    HW222584   2.456   0.693   3.087
 7229SOL     OW22585   0.024   0.294   3.235
 7229SOL    HW122586   0.119   0.269   3.254
 7229SOL    HW222587   6.990   0.214   3.248
 7230SOL     OW22588   6.288   5.464   1.455
 7230SOL    HW122589   6.331   5.407   1.525
 7230SOL    HW222590   6.188   5.461   1.468
 7231SOL     OW22591   5.844   1.012   0.179
 7231SOL    HW122592   5.774   0.998   0.248
 7231SOL    HW222593   5.803   1.010   0.088
 7232SOL     OW22594   3.730   4.220   0.869
 7232SOL    HW122595   3.643   4.207   0.822
 7232SOL    HW222596   3.805   4.195   0.808
 7233SOL     OW22597   0.686   1.804   5.473
 7233SOL    HW122598   0.671   1.721   5.527
 7233SOL    HW222599   0.784   1.826   5.472
 7234SOL     OW22600   5.058   1.846   3.568
 7234SOL    HW122601   4.961   1.824   3.577
 7234SOL    HW222602   5.069   1.945   3.556
 7235SOL     OW22603   5.932   3.104   4.422
 7235SOL    HW122604   5.899   3.198   4.431
 7235SOL    HW222605   6.027   3.105   4.391
 7236SOL     OW22606   1.894   1.477   3.265
 7236SOL    HW122607   1.829   1.518   3.201
 7236SOL    HW222608   1.959   1.420   3.215
 7237SOL     OW22609   5.347   4.982   4.780
 7237SOL    HW122610   5.349   5.037   4.697
 7237SOL    HW222611   5.414   5.018   4.845
 7238SOL     OW22612   1.765   0.926   1.524
 7238SOL    HW122613   1.710   0.846   1.499
 7238SOL    HW222614   1.790   0.919   1.621
 7239SOL     OW22615   3.951   0.939   2.039
 7239SOL    HW122616   3.939   1.028   1.996
 7239SOL    HW222617   4.015   0.884   1.985
 7240SOL     OW22618   2.995   3.142   2.392
 7240SOL    HW122619   2.961   3.217   2.448
 7240SOL    HW222620   2.998   3.171   2.296
 7241SOL     OW22621   4.165   6.979   4.552
 7241SOL    HW122622   4.233   0.010   4.504
 7241SOL    HW222623   4.172   6.884   4.520
 7242SOL     OW22624   5.854   5.251   0.899
 7242SOL    HW122625   5.897   5.313   0.833
 7242SOL    HW222626   5.866   5.288   0.991
 7243SOL     OW22627   0.226   5.927   0.656
 7243SOL    HW122628   0.256   5.927   0.560
 7243SOL    HW222629   0.187   5.837   0.678
 7244SOL     OW22630   4.758   1.930   1.072
 7244SOL    HW122631   4.851   1.941   1.107
 7244SOL    HW222632   4.760   1.927   0.972
 7245SOL     OW22633   5.852   2.244   4.162
 7245SOL    HW122634   5.809   2.330   4.137
 7245SOL    HW222635   5.950   2.248   4.143
 7246SOL     OW22636   1.204   5.782   5.701
 7246SOL    HW122637   1.288   5.777   5.754
 7246SOL    HW222638   1.139   5.714   5.734
 7247SOL     OW22639   3.711   5.505   4.060
 7247SOL    HW122640   3.748   5.598   4.057
 7247SOL    HW222641   3.652   5.495   4.140
 7248SOL     OW22642   3.345   0.742   4.142
 7248SOL    HW122643   3.374   0.684   4.219
 7248SOL    HW222644   3.309   0.828   4.178
 7249SOL     OW22645   4.812   3.813   5.660
 7249SOL    HW122646   4.867   3.897   5.656
 7249SOL    HW222647   4.843   3.756   5.735
 7250SOL     OW22648   2.786   3.436   6.656
 7250SOL    HW122649   2.775   3.490   6.740
 7250SOL    HW222650   2.723   3.470   6.586
 7251SOL     OW22651   5.905   0.935   5.296
 7251SOL    HW122652   5.907   0.851   5.243
 7251SOL    HW222653   5.848   0.923   5.377
 7252SOL     OW22654   4.284   3.560   5.214
 7252SOL    HW122655   4.371   3.510   5.217
 7252SOL    HW222656   4.208   3.494   5.213
 7253SOL     OW22657   5.339   4.732   1.329
 7253SOL    HW122658   5.324   4.651   1.272
 7253SOL    HW222659   5.253   4.781   1.340
 7254SOL     OW22660   5.725   6.550   4.609
 7254SOL    HW122661   5.794   6.617   4.582
 7254SOL    HW222662   5.762   6.458   4.597
 7255SOL     OW22663   3.960   3.031   3.232
 7255SOL    HW122664   4.035   3.044   3.297
 7255SOL    HW222665   3.998   3.017   3.141
 7256SOL     OW22666   3.366   5.562   4.226
 7256SOL    HW122667   3.344   5.659   4.213
 7256SOL    HW222668   3.283   5.512   4.252
 7257SOL     OW22669   6.271   4.745   2.664
 7257SOL    HW122670   6.348   4.768   2.606
 7257SOL    HW222671   6.209   4.683   2.616
 7258SOL     OW22672   2.754   0.365   5.344
 7258SOL    HW122673   2.722   0.393   5.434
 7258SOL    HW222674   2.675   0.354   5.283
 7259SOL     OW22675   3.401   4.210   6.078
 7259SOL    HW122676   3.301   4.204   6.082
 7259SOL    HW222677   3.438   4.215   6.170
 7260SOL     OW22678   4.452   2.356   3.013
 7260SOL    HW122679   4.447   2.450   2.977
 7260SOL    HW222680   4.513   2.302   2.955
 7261SOL     OW22681   2.543   5.016   1.202
 7261SOL    HW122682   2.608   5.091   1.190
 7261SOL    HW222683   2.479   5.015   1.125
 7262SOL     OW22684   6.504   0.859   4.757
 7262SOL    HW122685   6.546   0.883   4.844
 7262SOL    HW222686   6.482   0.943   4.707
 7263SOL     OW22687   5.163   5.647   1.834
 7263SOL    HW122688   5.177   5.573   1.768
 7263SOL    HW222689   5.172   5.611   1.927
 7264SOL     OW22690   0.644   6.435   4.272
 7264SOL    HW122691   0.644   6.485   4.359
 7264SOL    HW222692   0.628   6.500   4.197
 7265SOL     OW22693   4.434   3.406   6.647
 7265SOL    HW122694   4.428   3.455   6.560
 7265SOL    HW222695   4.368   3.332   6.648
 7266SOL     OW22696   4.302   1.434   1.864
 7266SOL    HW122697   4.320   1.353   1.808
 7266SOL    HW222698   4.204   1.443   1.879
 7267SOL     OW22699   5.464   2.724   4.640
 7267SOL    HW122700   5.494   2.759   4.728
 7267SOL    HW222701   5.542   2.686   4.590
 7268SOL     OW22702   4.080   0.240   0.400
 7268SOL    HW122703   4.108   0.259   0.494
 7268SOL    HW222704   4.084   0.325   0.347
 7269SOL     OW22705   1.460   0.762   1.686
 7269SOL    HW122706   1.439   0.814   1.602
 7269SOL    HW222707   1.551   0.721   1.679
 7270SOL     OW22708   3.257   2.086   2.302
 7270SOL    HW122709   3.279   2.123   2.392
 7270SOL    HW222710   3.170   2.126   2.270
 7271SOL     OW22711   5.968   5.445   3.983
 7271SOL    HW122712   6.035   5.518   3.969
 7271SOL    HW222713   5.900   5.447   3.909
 7272SOL     OW22714   5.881   2.197   0.731
 7272SOL    HW122715   5.938   2.114   0.733
 7272SOL    HW222716   5.836   2.208   0.819
 7273SOL     OW22717   5.926   5.404   5.249
 7273SOL    HW122718   5.903   5.323   5.302
 7273SOL    HW222719   5.963   5.474   5.310
 7274SOL     OW22720   5.346   4.889   4.288
 7274SOL    HW122721   5.440   4.856   4.278
 7274SOL    HW222722   5.290   4.852   4.213
 7275SOL     OW22723   5.975   6.539   1.765
 7275SOL    HW122724   5.972   6.489   1.679
 7275SOL    HW222725   6.027   6.487   1.833
 7276SOL     OW22726   3.555   2.102   3.761
 7276SOL    HW122727   3.498   2.128   3.839
 7276SOL    HW222728   3.500   2.100   3.678
 7277SOL     OW22729   6.132   1.845   4.201
 7277SOL    HW122730   6.069   1.897   4.144
 7277SOL    HW222731   6.220   1.836   4.154
 7278SOL     OW22732   3.998   2.131   3.958
 7278SOL    HW122733   4.076   2.179   3.918
 7278SOL    HW222734   3.983   2.163   4.051
 7279SOL     OW22735   4.293   3.405   1.247
 7279SOL    HW122736   4.220   3.337   1.251
 7279SOL    HW222737   4.274   3.477   1.314
 7280SOL     OW22738   6.771   1.885   5.522
 7280SOL    HW122739   6.850   1.835   5.556
 7280SOL    HW222740   6.727   1.833   5.448
 7281SOL     OW22741   3.162   6.289   2.946
 7281SOL    HW122742   3.106   6.313   2.866
 7281SOL    HW222743   3.211   6.369   2.978
 7282SOL     OW22744   0.243   3.053   1.025
 7282SOL    HW122745   0.234   3.152   1.024
 7282SOL    HW222746   0.171   3.012   0.969
 7283SOL     OW22747   3.323   5.888   2.882
 7283SOL    HW122748   3.291   5.973   2.924
 7283SOL    HW222749   3.294   5.811   2.938
 7284SOL     OW22750   0.385   0.362   2.845
 7284SOL    HW122751   0.288   0.342   2.858
 7284SOL    HW222752   0.396   0.437   2.781
 7285SOL     OW22753   4.810   2.368   2.147
 7285SOL    HW122754   4.744   2.443   2.156
 7285SOL    HW222755   4.895   2.403   2.109
 7286SOL     OW22756   6.736   1.534   4.097
 7286SOL    HW122757   6.725   1.464   4.167
 7286SOL    HW222758   6.703   1.622   4.131
 7287SOL     OW22759   3.610   1.781   4.358
 7287SOL    HW122760   3.537   1.796   4.291
 7287SOL    HW222761   3.573   1.795   4.450
 7288SOL     OW22762   3.285   1.869   1.825
 7288SOL    HW122763   3.208   1.910   1.875
 7288SOL    HW222764   3.355   1.939   1.809
 7289SOL     OW22765   6.534   2.472   1.851
 7289SOL    HW122766   6.528   2.424   1.763
 7289SOL    HW222767   6.574   2.412   1.920
 7290SOL     OW22768   3.672   1.922   4.676
 7290SOL    HW122769   3.589   1.968   4.646
 7290SOL    HW222770   3.652   1.869   4.759
 7291SOL     OW22771   1.522   1.096   0.771
 7291SOL    HW122772   1.473   1.067   0.689
 7291SOL    HW222773   1.572   1.180   0.752
 7292SOL     OW22774   4.004   1.087   2.480
 7292SOL    HW122775   3.919   1.140   2.475
 7292SOL    HW222776   3.998   1.009   2.418
 7293SOL     OW22777   6.528   0.814   4.231
 7293SOL    HW122778   6.533   0.847   4.326
 7293SOL    HW222779   6.488   0.723   4.230
 7294SOL     OW22780   3.783   0.522   3.230
 7294SOL    HW122781   3.782   0.595   3.298
 7294SOL    HW222782   3.824   0.440   3.269
 7295SOL     OW22783   5.348   3.875   1.601
 7295SOL    HW122784   5.375   3.914   1.513
 7295SOL    HW222785   5.255   3.903   1.623
 7296SOL     OW22786   3.510   6.224   2.307
 7296SOL    HW122787   3.513   6.140   2.252
 7296SOL    HW222788   3.511   6.200   2.404
 7297SOL     OW22789   3.790   6.928   0.801
 7297SOL    HW122790   3.725   6.853   0.791
 7297SOL    HW222791   3.883   6.891   0.805
 7298SOL     OW22792   3.999   4.927   1.558
 7298SOL    HW122793   3.973   4.870   1.480
 7298SOL    HW222794   4.085   4.891   1.597
 7299SOL     OW22795   0.575   3.338   6.852
 7299SOL    HW122796   0.623   3.377   6.773
 7299SOL    HW222797   0.515   3.408   6.891
 7300SOL     OW22798   0.857   3.818   1.215
 7300SOL    HW122799   0.949   3.782   1.229
 7300SOL    HW222800   0.803   3.803   1.298
 7301SOL     OW22801   4.201   1.710   0.302
 7301SOL    HW122802   4.227   1.768   0.380
 7301SOL    HW222803   4.118   1.747   0.260
 7302SOL     OW22804   5.530   1.757   6.423
 7302SOL    HW122805   5.544   1.660   6.445
 7302SOL    HW222806   5.616   1.806   6.436
 7303SOL     OW22807   3.191   2.058   1.504
 7303SOL    HW122808   3.191   2.049   1.603
 7303SOL    HW222809   3.101   2.089   1.473
 7304SOL     OW22810   2.488   6.988   0.333
 7304SOL    HW122811   2.464   0.035   0.268
 7304SOL    HW222812   2.468   6.899   0.292
 7305SOL     OW22813   6.726   6.680   6.377
 7305SOL    HW122814   6.744   6.666   6.475
 7305SOL    HW222815   6.657   6.615   6.347
 7306SOL     OW22816   1.142   3.506   1.081
 7306SOL    HW122817   1.241   3.520   1.083
 7306SOL    HW222818   1.122   3.408   1.089
 7307SOL     OW22819   3.239   6.539   1.835
 7307SOL    HW122820   3.196   6.550   1.925
 7307SOL    HW222821   3.338   6.526   1.847
 7308SOL     OW22822   4.026   1.365   3.092
 7308SOL    HW122823   4.085   1.416   3.030
 7308SOL    HW222824   3.994   1.281   3.048
 7309SOL     OW22825   2.105   4.497   3.942
 7309SOL    HW122826   2.063   4.496   3.851
 7309SOL    HW222827   2.035   4.478   4.011
 7310SOL     OW22828   2.581   3.357   0.003
 7310SOL    HW122829   2.659   3.403   6.986
 7310SOL    HW222830   2.499   3.374   6.974
 7311SOL     OW22831   0.620   6.331   5.925
 7311SOL    HW122832   0.599   6.394   6.000
 7311SOL    HW222833   0.696   6.271   5.952
 7312SOL     OW22834   6.157   2.094   4.710
 7312SOL    HW122835   6.152   2.041   4.625
 7312SOL    HW222836   6.114   2.043   4.784
 7313SOL     OW22837   3.485   1.169   2.844
 7313SOL    HW122838   3.429   1.241   2.803
 7313SOL    HW222839   3.496   1.094   2.780
 7314SOL     OW22840   1.965   5.750   5.086
 7314SOL    HW122841   1.990   5.749   5.183
 7314SOL    HW222842   1.966   5.657   5.050
 7315SOL     OW22843   2.344   5.549   2.698
 7315SOL    HW122844   2.296   5.618   2.752
 7315SOL    HW222845   2.438   5.579   2.682
 7316SOL     OW22846   4.045   0.783   1.789
 7316SOL    HW122847   4.098   0.817   1.711
 7316SOL    HW222848   3.948   0.792   1.770
 7317SOL     OW22849   6.057   1.907   1.082
 7317SOL    HW122850   6.029   1.991   1.129
 7317SOL    HW222851   5.994   1.888   1.007
 7318SOL     OW22852   5.183   6.161   1.214
 7318SOL    HW122853   5.256   6.093   1.220
 7318SOL    HW222854   5.127   6.143   1.133
 7319SOL     OW22855   4.672   6.110   6.560
 7319SOL    HW122856   4.602   6.179   6.580
 7319SOL    HW222857   4.631   6.036   6.507
 7320SOL     OW22858   1.172   3.116   0.160
 7320SOL    HW122859   1.084   3.148   0.196
 7320SOL    HW222860   1.179   3.017   0.172
 7321SOL     OW22861   2.040   2.619   5.343
 7321SOL    HW122862   1.967   2.629   5.411
 7321SOL    HW222863   2.128   2.638   5.386
 7322SOL     OW22864   1.705   1.923   4.105
 7322SOL    HW122865   1.748   1.880   4.184
 7322SOL    HW222866   1.674   1.853   4.041
 7323SOL     OW22867   1.917   2.015   1.020
 7323SOL    HW122868   1.867   1.929   1.029
 7323SOL    HW222869   1.910   2.067   1.105
 7324SOL     OW22870   4.861   3.778   4.437
 7324SOL    HW122871   4.926   3.721   4.387
 7324SOL    HW222872   4.853   3.746   4.531
 7325SOL     OW22873   4.363   1.237   6.349
 7325SOL    HW122874   4.345   1.236   6.448
 7325SOL    HW222875   4.389   1.146   6.319
 7326SOL     OW22876   3.376   6.421   0.858
 7326SOL    HW122877   3.424   6.428   0.771
 7326SOL    HW222878   3.278   6.411   0.841
 7327SOL     OW22879   1.414   4.319   2.948
 7327SOL    HW122880   1.384   4.408   2.982
 7327SOL    HW222881   1.512   4.308   2.963
 7328SOL     OW22882   4.955   5.218   6.431
 7328SOL    HW122883   5.023   5.235   6.502
 7328SOL    HW222884   4.998   5.227   6.341
 7329SOL     OW22885   2.623   3.927   0.626
 7329SOL    HW122886   2.695   3.988   0.661
 7329SOL    HW222887   2.534   3.959   0.658
 7330SOL     OW22888   2.555   3.483   0.707
 7330SOL    HW122889   2.521   3.529   0.624
 7330SOL    HW222890   2.578   3.388   0.686
 7331SOL     OW22891   5.141   1.270   2.541
 7331SOL    HW122892   5.163   1.219   2.457
 7331SOL    HW222893   5.192   1.355   2.543
 7332SOL     OW22894   2.937   0.047   5.642
 7332SOL    HW122895   2.915   0.057   5.545
 7332SOL    HW222896   3.034   0.070   5.657
 7333SOL     OW22897   6.044   1.492   0.991
 7333SOL    HW122898   6.022   1.510   1.087
 7333SOL    HW222899   6.098   1.408   0.984
 7334SOL     OW22900   1.127   4.498   4.714
 7334SOL    HW122901   1.159   4.406   4.691
 7334SOL    HW222902   1.061   4.529   4.645
 7335SOL     OW22903   0.610   3.129   2.774
 7335SOL    HW122904   0.601   3.040   2.819
 7335SOL    HW222905   0.703   3.163   2.787
 7336SOL     OW22906   2.437   0.443   0.356
 7336SOL    HW122907   2.509   0.512   0.355
 7336SOL    HW222908   2.468   0.364   0.409
 7337SOL     OW22909   3.497   1.367   3.181
 7337SOL    HW122910   3.587   1.371   3.139
 7337SOL    HW222911   3.431   1.417   3.124
 7338SOL     OW22912   5.241   3.978   0.769
 7338SOL    HW122913   5.269   4.034   0.847
 7338SOL    HW222914   5.159   3.926   0.794
 7339SOL     OW22915   0.062   6.702   4.104
 7339SOL    HW122916   0.037   6.794   4.135
 7339SOL    HW222917   0.155   6.682   4.134
 7340SOL     OW22918   2.820   6.300   6.908
 7340SOL    HW122919   2.724   6.322   6.928
 7340SOL    HW222920   2.873   6.304   6.993
 7341SOL     OW22921   6.157   5.614   3.675
 7341SOL    HW122922   6.224   5.557   3.723
 7341SOL    HW222923   6.194   5.706   3.664
 7342SOL     OW22924   0.475   5.603   0.513
 7342SOL    HW122925   0.398   5.579   0.573
 7342SOL    HW222926   0.530   5.521   0.497
 7343SOL     OW22927   0.099   2.349   3.216
 7343SOL    HW122928   0.060   2.257   3.217
 7343SOL    HW222929   0.122   2.377   3.309
 7344SOL     OW22930   2.182   1.377   6.501
 7344SOL    HW122931   2.089   1.408   6.522
 7344SOL    HW222932   2.179   1.314   6.424
 7345SOL     OW22933   2.087   0.040   6.623
 7345SOL    HW122934   2.069   0.075   6.531
 7345SOL    HW222935   2.104   6.967   6.618
 7346SOL     OW22936   3.433   4.940   3.825
 7346SOL    HW122937   3.530   4.932   3.847
 7346SOL    HW222938   3.422   5.006   3.750
 7347SOL     OW22939   6.559   3.099   3.324
 7347SOL    HW122940   6.581   3.091   3.422
 7347SOL    HW222941   6.470   3.142   3.313
 7348SOL     OW22942   6.129   0.660   6.097
 7348SOL    HW122943   6.128   0.621   6.005
 7348SOL    HW222944   6.196   0.734   6.101
 7349SOL     OW22945   3.964   1.849   1.182
 7349SOL    HW122946   4.056   1.889   1.187
 7349SOL    HW222947   3.898   1.920   1.156
 7350SOL     OW22948   2.252   1.018   3.271
 7350SOL    HW122949   2.223   0.927   3.303
 7350SOL    HW222950   2.331   1.048   3.325
 7351SOL     OW22951   4.493   4.327   0.512
 7351SOL    HW122952   4.549   4.392   0.564
 7351SOL    HW222953   4.549   4.282   0.443
 7352SOL     OW22954   6.537   0.874   3.440
 7352SOL    HW122955   6.601   0.941   3.479
 7352SOL    HW222956   6.585   0.788   3.423
 7353SOL     OW22957   5.510   1.733   5.499
 7353SOL    HW122958   5.522   1.636   5.475
 7353SOL    HW222959   5.508   1.742   5.599
 7354SOL     OW22960   5.692   4.384   5.030
 7354SOL    HW122961   5.711   4.468   4.979
 7354SOL    HW222962   5.602   4.349   5.005
 7355SOL     OW22963   6.655   5.690   0.973
 7355SOL    HW122964   6.696   5.768   0.926
 7355SOL    HW222965   6.567   5.668   0.930
 7356SOL     OW22966   0.010   1.847   5.995
 7356SOL    HW122967   7.003   1.928   5.946
 7356SOL    HW222968   0.087   1.871   6.053
 7357SOL     OW22969   1.075   1.298   0.613
 7357SOL    HW122970   1.032   1.209   0.624
 7357SOL    HW222971   1.005   1.366   0.590
 7358SOL     OW22972   3.881   0.893   3.699
 7358SOL    HW122973   3.925   0.982   3.712
 7358SOL    HW222974   3.819   0.898   3.621
 7359SOL     OW22975   3.044   3.482   3.683
 7359SOL    HW122976   3.017   3.414   3.614
 7359SOL    HW222977   3.133   3.456   3.721
 7360SOL     OW22978   0.866   4.338   6.666
 7360SOL    HW122979   0.892   4.305   6.576
 7360SOL    HW222980   0.845   4.260   6.725
 7361SOL     OW22981   4.254   6.384   1.169
 7361SOL    HW122982   4.283   6.447   1.241
 7361SOL    HW222983   4.266   6.290   1.200
 7362SOL     OW22984   1.528   5.952   6.624
 7362SOL    HW122985   1.490   5.860   6.629
 7362SOL    HW222986   1.601   5.962   6.692
 7363SOL     OW22987   4.484   2.340   6.463
 7363SOL    HW122988   4.482   2.247   6.426
 7363SOL    HW222989   4.528   2.339   6.553
 7364SOL     OW22990   4.750   0.045   0.849
 7364SOL    HW122991   4.654   0.050   0.878
 7364SOL    HW222992   4.802   7.014   0.914
 7365SOL     OW22993   4.669   6.735   1.205
 7365SOL    HW122994   4.713   6.647   1.221
 7365SOL    HW222995   4.640   6.774   1.292
 7366SOL     OW22996   1.640   0.230   0.368
 7366SOL    HW122997   1.594   0.257   0.283
 7366SOL    HW222998   1.596   0.275   0.445
 7367SOL     OW22999   4.268   2.433   6.679
 7367SOL    HW123000   4.362   2.463   6.695
 7367SOL    HW223001   4.205   2.506   6.706
 7368SOL     OW23002   3.167   3.011   4.410
 7368SOL    HW123003   3.164   2.978   4.504
 7368SOL    HW223004   3.144   3.109   4.408
 7369SOL     OW23005   6.195   0.682   6.405
 7369SOL    HW123006   6.222   0.777   6.420
 7369SOL    HW223007   6.185   0.666   6.306
 7370SOL     OW23008   0.676   5.776   0.574
 7370SOL    HW123009   0.765   5.729   0.578
 7370SOL    HW223010   0.606   5.712   0.543
 7371SOL     OW23011   1.311   4.975   4.542
 7371SOL    HW123012   1.272   5.047   4.485
 7371SOL    HW223013   1.304   5.002   4.638
 7372SOL     OW23014   3.117   0.704   5.101
 7372SOL    HW123015   3.155   0.695   5.193
 7372SOL    HW223016   3.075   0.794   5.091
 7373SOL     OW23017   3.593   0.671   1.062
 7373SOL    HW123018   3.543   0.728   1.126
 7373SOL    HW223019   3.597   0.716   0.973
 7374SOL     OW23020   2.407   3.780   6.551
 7374SOL    HW123021   2.338   3.717   6.514
 7374SOL    HW223022   2.421   3.760   6.648
 7375SOL     OW23023   2.915   5.992   3.692
 7375SOL    HW123024   2.893   6.089   3.705
 7375SOL    HW223025   3.002   5.971   3.736
 7376SOL     OW23026   3.171   3.853   6.560
 7376SOL    HW123027   3.178   3.880   6.464
 7376SOL    HW223028   3.104   3.911   6.606
 7377SOL     OW23029   6.273   5.878   1.808
 7377SOL    HW123030   6.238   5.946   1.743
 7377SOL    HW223031   6.242   5.902   1.900
 7378SOL     OW23032   0.472   1.786   5.309
 7378SOL    HW123033   0.557   1.795   5.362
 7378SOL    HW223034   0.413   1.718   5.352
 7379SOL     OW23035   4.779   0.586   0.353
 7379SOL    HW123036   4.806   0.490   0.355
 7379SOL    HW223037   4.771   0.621   0.446
 7380SOL     OW23038   6.621   2.676   6.405
 7380SOL    HW123039   6.573   2.615   6.342
 7380SOL    HW223040   6.615   2.639   6.498
 7381SOL     OW23041   5.149   2.110   6.909
 7381SOL    HW123042   5.144   2.149   7.001
 7381SOL    HW223043   5.244   2.085   6.889
 7382SOL     OW23044   1.292   5.269   3.798
 7382SOL    HW123045   1.289   5.234   3.891
 7382SOL    HW223046   1.248   5.359   3.795
 7383SOL     OW23047   1.691   4.361   2.961
 7383SOL    HW123048   1.692   4.351   2.862
 7383SOL    HW223049   1.767   4.418   2.990
 7384SOL     OW23050   6.363   2.014   0.649
 7384SOL    HW123051   6.330   1.930   0.692
 7384SOL    HW223052   6.418   1.991   0.569
 7385SOL     OW23053   5.450   0.209   1.757
 7385SOL    HW123054   5.354   0.237   1.766
 7385SOL    HW223055   5.501   0.238   1.837
 7386SOL     OW23056   6.537   1.708   5.976
 7386SOL    HW123057   6.590   1.666   5.903
 7386SOL    HW223058   6.580   1.794   6.004
 7387SOL     OW23059   5.223   6.274   3.373
 7387SOL    HW123060   5.249   6.364   3.408
 7387SOL    HW223061   5.150   6.236   3.430
 7388SOL     OW23062   5.276   3.924   4.867
 7388SOL    HW123063   5.318   3.895   4.953
 7388SOL    HW223064   5.281   3.850   4.800
 7389SOL     OW23065   0.838   2.968   5.197
 7389SOL    HW123066   0.843   2.959   5.097
 7389SOL    HW223067   0.913   2.916   5.239
 7390SOL     OW23068   4.294   0.472   6.898
 7390SOL    HW123069   4.212   0.459   6.842
 7390SOL    HW223070   4.271   0.530   6.976
 7391SOL     OW23071   0.380   4.939   0.053
 7391SOL    HW123072   0.294   4.897   0.025
 7391SOL    HW223073   0.421   4.886   0.128
 7392SOL     OW23074   2.421   4.519   2.049
 7392SOL    HW123075   2.327   4.484   2.048
 7392SOL    HW223076   2.431   4.592   1.982
 7393SOL     OW23077   0.875   3.844   6.938
 7393SOL    HW123078   0.818   3.796   7.005
 7393SOL    HW223079   0.881   3.789   6.855
 7394SOL     OW23080   2.099   2.894   6.093
 7394SOL    HW123081   2.177   2.941   6.133
 7394SOL    HW223082   2.123   2.859   6.003
 7395SOL     OW23083   2.551   0.780   6.687
 7395SOL    HW123084   2.535   0.686   6.717
 7395SOL    HW223085   2.468   0.834   6.700
 7396SOL     OW23086   7.015   6.698   2.055
 7396SOL    HW123087   0.012   6.667   2.147
 7396SOL    HW223088   6.922   6.668   2.031
 7397SOL     OW23089   6.371   4.154   4.508
 7397SOL    HW123090   6.282   4.175   4.550
 7397SOL    HW223091   6.356   4.120   4.415
 7398SOL     OW23092   4.380   6.415   3.228
 7398SOL    HW123093   4.298   6.470   3.212
 7398SOL    HW223094   4.441   6.463   3.292
 7399SOL     OW23095   5.053   5.148   4.382
 7399SOL    HW123096   5.092   5.147   4.475
 7399SOL    HW223097   4.954   5.141   4.388
 7400SOL     OW23098   2.843   4.053   0.357
 7400SOL    HW123099   2.913   4.072   0.427
 7400SOL    HW223100   2.758   4.099   0.382
 7401SOL     OW23101   5.926   3.092   5.183
 7401SOL    HW123102   5.891   3.032   5.111
 7401SOL    HW223103   5.989   3.041   5.241
 7402SOL     OW23104   2.131   6.089   4.410
 7402SOL    HW123105   2.119   5.998   4.450
 7402SOL    HW223106   2.050   6.113   4.357
 7403SOL     OW23107   2.544   3.139   1.700
 7403SOL    HW123108   2.589   3.225   1.678
 7403SOL    HW223109   2.512   3.095   1.616
 7404SOL     OW23110   1.266   1.953   2.814
 7404SOL    HW123111   1.236   1.861   2.836
 7404SOL    HW223112   1.189   2.016   2.821
 7405SOL     OW23113   3.948   4.775   6.048
 7405SOL    HW123114   3.875   4.721   6.006
 7405SOL    HW223115   3.926   4.872   6.042
 7406SOL     OW23116   0.744   6.358   2.645
 7406SOL    HW123117   0.738   6.288   2.716
 7406SOL    HW223118   0.672   6.427   2.659
 7407SOL     OW23119   3.040   1.181   5.774
 7407SOL    HW123120   3.078   1.272   5.793
 7407SOL    HW223121   3.098   1.112   5.817
 7408SOL     OW23122   0.644   3.700   5.450
 7408SOL    HW123123   0.684   3.734   5.366
 7408SOL    HW223124   0.554   3.741   5.464
 7409SOL     OW23125   2.568   6.811   4.762
 7409SOL    HW123126   2.517   6.888   4.724
 7409SOL    HW223127   2.666   6.825   4.747
 7410SOL     OW23128   4.396   5.894   5.814
 7410SOL    HW123129   4.474   5.941   5.775
 7410SOL    HW223130   4.315   5.953   5.810
 7411SOL     OW23131   5.244   4.141   5.664
 7411SOL    HW123132   5.332   4.134   5.710
 7411SOL    HW223133   5.225   4.237   5.642
 7412SOL     OW23134   2.098   1.423   6.914
 7412SOL    HW123135   2.032   1.488   6.953
 7412SOL    HW223136   2.185   1.470   6.898
 7413SOL     OW23137   6.937   3.710   3.816
 7413SOL    HW123138   6.929   3.775   3.892
 7413SOL    HW223139   0.002   3.668   3.818
 7414SOL     OW23140   0.458   5.371   1.357
 7414SOL    HW123141   0.460   5.314   1.275
 7414SOL    HW223142   0.406   5.454   1.339
 7415SOL     OW23143   3.297   1.531   3.031
 7415SOL    HW123144   3.235   1.558   3.104
 7415SOL    HW223145   3.372   1.596   3.025
 7416SOL     OW23146   6.582   7.017   3.006
 7416SOL    HW123147   6.505   6.965   2.969
 7416SOL    HW223148   6.658   7.016   2.941
 7417SOL     OW23149   0.201   5.080   0.913
 7417SOL    HW123150   0.234   4.990   0.884
 7417SOL    HW223151   0.274   5.147   0.904
 7418SOL     OW23152   1.297   3.473   0.236
 7418SOL    HW123153   1.297   3.391   0.293
 7418SOL    HW223154   1.319   3.448   0.142
 7419SOL     OW23155   6.169   2.355   5.349
 7419SOL    HW123156   6.240   2.343   5.281
 7419SOL    HW223157   6.102   2.422   5.317
 7420SOL     OW23158   6.818   5.743   2.145
 7420SOL    HW123159   6.836   5.645   2.142
 7420SOL    HW223160   6.784   5.774   2.056
 7421SOL     OW23161   4.234   1.719   1.795
 7421SOL    HW123162   4.282   1.713   1.883
 7421SOL    HW223163   4.137   1.697   1.809
 7422SOL     OW23164   0.753   1.320   0.870
 7422SOL    HW123165   0.704   1.402   0.838
 7422SOL    HW223166   0.842   1.346   0.906
 7423SOL     OW23167   2.592   4.209   0.310
 7423SOL    HW123168   2.563   4.117   0.286
 7423SOL    HW223169   2.562   4.230   0.404
 7424SOL     OW23170   5.135   0.277   4.139
 7424SOL    HW123171   5.116   0.356   4.198
 7424SOL    HW223172   5.112   0.300   4.045
 7425SOL     OW23173   3.490   0.340   4.539
 7425SOL    HW123174   3.452   0.271   4.601
 7425SOL    HW223175   3.585   0.316   4.517
 7426SOL     OW23176   0.395   1.037   6.614
 7426SOL    HW123177   0.490   1.027   6.645
 7426SOL    HW223178   0.392   1.104   6.540
 7427SOL     OW23179   5.460   5.400   5.111
 7427SOL    HW123180   5.390   5.369   5.047
 7427SOL    HW223181   5.454   5.346   5.195
 7428SOL     OW23182   4.564   0.746   5.435
 7428SOL    HW123183   4.504   0.797   5.373
 7428SOL    HW223184   4.547   0.775   5.529
 7429SOL     OW23185   6.321   6.378   3.919
 7429SOL    HW123186   6.326   6.478   3.929
 7429SOL    HW223187   6.373   6.335   3.993
 7430SOL     OW23188   0.564   4.229   3.905
 7430SOL    HW123189   0.522   4.285   3.976
 7430SOL    HW223190   0.600   4.145   3.945
 7431SOL     OW23191   0.110   4.381   2.367
 7431SOL    HW123192   0.103   4.462   2.425
 7431SOL    HW223193   0.105   4.299   2.424
 7432SOL     OW23194   1.737   6.619   5.354
 7432SOL    HW123195   1.831   6.594   5.379
 7432SOL    HW223196   1.683   6.634   5.437
 7433SOL     OW23197   0.543   6.597   0.995
 7433SOL    HW123198   0.643   6.598   1.001
 7433SOL    HW223199   0.511   6.503   1.004
 7434SOL     OW23200   3.931   6.547   0.440
 7434SOL    HW123201   3.984   6.472   0.479
 7434SOL    HW223202   3.994   6.611   0.394
 7435SOL     OW23203   1.437   5.516   0.214
 7435SOL    HW123204   1.461   5.422   0.192
 7435SOL    HW223205   1.411   5.522   0.311
 7436SOL     OW23206   4.304   3.779   6.995
 7436SOL    HW123207   4.372   3.802   0.039
 7436SOL    HW223208   4.254   3.861   6.968
 7437SOL     OW23209   6.973   6.327   5.123
 7437SOL    HW123210   0.028   6.293   5.171
 7437SOL    HW223211   7.001   6.364   5.034
 7438SOL     OW23212   5.368   3.890   1.310
 7438SOL    HW123213   5.303   3.957   1.274
 7438SOL    HW223214   5.344   3.799   1.276
 7439SOL     OW23215   1.678   6.654   2.623
 7439SOL    HW123216   1.701   6.608   2.708
 7439SOL    HW223217   1.578   6.662   2.616
 7440SOL     OW23218   0.943   1.165   3.923
 7440SOL    HW123219   1.015   1.157   3.855
 7440SOL    HW223220   0.854   1.155   3.879
 7441SOL     OW23221   6.514   0.106   3.972
 7441SOL    HW123222   6.478   0.142   3.886
 7441SOL    HW223223   6.585   0.168   4.006
 7442SOL     OW23224   1.637   0.909   6.272
 7442SOL    HW123225   1.679   0.821   6.249
 7442SOL    HW223226   1.540   0.895   6.292
 7443SOL     OW23227   6.929   2.368   1.955
 7443SOL    HW123228   6.879   2.293   1.910
 7443SOL    HW223229   6.917   2.452   1.903
 7444SOL     OW23230   1.148   2.576   5.148
 7444SOL    HW123231   1.142   2.526   5.234
 7444SOL    HW223232   1.060   2.618   5.127
 7445SOL     OW23233   6.176   2.931   1.795
 7445SOL    HW123234   6.108   2.952   1.726
 7445SOL    HW223235   6.171   2.835   1.820
 7446SOL     OW23236   6.084   3.603   3.245
 7446SOL    HW123237   6.092   3.700   3.222
 7446SOL    HW223238   6.001   3.566   3.202
 7447SOL     OW23239   0.530   3.687   6.635
 7447SOL    HW123240   0.567   3.595   6.624
 7447SOL    HW223241   0.434   3.688   6.607
 7448SOL     OW23242   0.175   0.099   6.307
 7448SOL    HW123243   0.133   0.058   6.388
 7448SOL    HW223244   0.125   0.071   6.225
 7449SOL     OW23245   4.072   6.964   1.773
 7449SOL    HW123246   4.159   7.013   1.770
 7449SOL    HW223247   4.001   7.019   1.730
 7450SOL     OW23248   3.678   1.315   1.683
 7450SOL    HW123249   3.652   1.306   1.779
 7450SOL    HW223250   3.730   1.234   1.655
 7451SOL     OW23251   1.295   0.708   2.618
 7451SOL    HW123252   1.292   0.618   2.575
 7451SOL    HW223253   1.320   0.698   2.715
 7452SOL     OW23254   1.727   5.743   3.474
 7452SOL    HW123255   1.682   5.832   3.467
 7452SOL    HW223256   1.671   5.674   3.428
 7453SOL     OW23257   6.596   4.525   5.402
 7453SOL    HW123258   6.582   4.435   5.361
 7453SOL    HW223259   6.666   4.574   5.350
 7454SOL     OW23260   1.181   3.258   6.763
 7454SOL    HW123261   1.090   3.227   6.736
 7454SOL    HW223262   1.190   3.250   6.862
 7455SOL     OW23263   4.986   0.348   0.757
 7455SOL    HW123264   4.954   0.365   0.850
 7455SOL    HW223265   4.919   0.291   0.709
 7456SOL     OW23266   0.921   3.976   6.189
 7456SOL    HW123267   1.016   3.977   6.219
 7456SOL    HW223268   0.913   3.920   6.106
 7457SOL     OW23269   6.821   6.347   6.190
 7457SOL    HW123270   6.744   6.353   6.127
 7457SOL    HW223271   6.867   6.435   6.194
 7458SOL     OW23272   2.483   0.755   0.803
 7458SOL    HW123273   2.439   0.665   0.806
 7458SOL    HW223274   2.583   0.743   0.805
 7459SOL     OW23275   3.483   6.289   4.383
 7459SOL    HW123276   3.567   6.317   4.339
 7459SOL    HW223277   3.480   6.326   4.477
 7460SOL     OW23278   1.122   5.260   0.236
 7460SOL    HW123279   1.205   5.210   0.212
 7460SOL    HW223280   1.114   5.341   0.177
 7461SOL     OW23281   4.124   0.897   4.400
 7461SOL    HW123282   4.211   0.868   4.438
 7461SOL    HW223283   4.114   0.996   4.410
 7462SOL     OW23284   2.443   1.634   3.230
 7462SOL    HW123285   2.436   1.603   3.325
 7462SOL    HW223286   2.352   1.644   3.191
 7463SOL     OW23287   3.873   4.024   2.058
 7463SOL    HW123288   3.916   4.105   2.098
 7463SOL    HW223289   3.865   4.036   1.959
 7464SOL     OW23290   4.616   6.454   0.054
 7464SOL    HW123291   4.548   6.384   0.078
 7464SOL    HW223292   4.668   6.480   0.135
 7465SOL     OW23293   4.142   0.547   3.040
 7465SOL    HW123294   4.123   0.470   3.100
 7465SOL    HW223295   4.216   0.524   2.977
 7466SOL     OW23296   6.001   0.101   0.453
 7466SOL    HW123297   5.918   0.108   0.508
 7466SOL    HW223298   5.977   0.073   0.360
 7467SOL     OW23299   4.713   2.293   0.856
 7467SOL    HW123300   4.637   2.250   0.903
 7467SOL    HW223301   4.703   2.278   0.757
 7468SOL     OW23302   5.646   4.231   4.142
 7468SOL    HW123303   5.590   4.269   4.068
 7468SOL    HW223304   5.732   4.197   4.104
 7469SOL     OW23305   5.253   1.452   2.052
 7469SOL    HW123306   5.280   1.423   2.144
 7469SOL    HW223307   5.320   1.516   2.015
 7470SOL     OW23308   7.006   3.264   3.480
 7470SOL    HW123309   6.952   3.195   3.432
 7470SOL    HW223310   0.006   3.337   3.417
 7471SOL     OW23311   6.427   4.727   5.421
 7471SOL    HW123312   6.471   4.638   5.432
 7471SOL    HW223313   6.378   4.730   5.334
 7472SOL     OW23314   4.059   5.102   3.267
 7472SOL    HW123315   4.027   5.040   3.196
 7472SOL    HW223316   4.035   5.064   3.357
 7473SOL     OW23317   1.296   3.088   5.627
 7473SOL    HW123318   1.350   3.136   5.696
 7473SOL    HW223319   1.240   3.154   5.576
 7474SOL     OW23320   2.499   1.329   3.185
 7474SOL    HW123321   2.437   1.378   3.123
 7474SOL    HW223322   2.565   1.277   3.131
 7475SOL     OW23323   4.709   0.718   6.339
 7475SOL    HW123324   4.625   0.747   6.384
 7475SOL    HW223325   4.788   0.753   6.390
 7476SOL     OW23326   2.079   6.657   4.861
 7476SOL    HW123327   2.029   6.622   4.940
 7476SOL    HW223328   2.176   6.668   4.885
 7477SOL     OW23329   5.111   3.711   4.177
 7477SOL    HW123330   5.063   3.628   4.205
 7477SOL    HW223331   5.056   3.759   4.109
 7478SOL     OW23332   0.616   4.449   1.678
 7478SOL    HW123333   0.688   4.515   1.655
 7478SOL    HW223334   0.527   4.493   1.674
 7479SOL     OW23335   3.947   0.284   5.224
 7479SOL    HW123336   3.850   0.304   5.214
 7479SOL    HW223337   3.966   0.190   5.198
 7480SOL     OW23338   6.012   5.127   0.551
 7480SOL    HW123339   6.109   5.135   0.574
 7480SOL    HW223340   5.967   5.067   0.617
 7481SOL     OW23341   6.238   6.232   0.132
 7481SOL    HW123342   6.237   6.322   0.089
 7481SOL    HW223343   6.331   6.195   0.130
 7482SOL     OW23344   5.288   0.169   4.708
 7482SOL    HW123345   5.355   0.238   4.682
 7482SOL    HW223346   5.243   0.134   4.626
 7483SOL     OW23347   3.624   0.532   6.497
 7483SOL    HW123348   3.595   0.566   6.408
 7483SOL    HW223349   3.549   0.479   6.538
 7484SOL     OW23350   3.681   0.042   1.891
 7484SOL    HW123351   3.664   0.078   1.982
 7484SOL    HW223352   3.622   0.089   1.825
 7485SOL     OW23353   0.998   6.363   4.918
 7485SOL    HW123354   0.995   6.457   4.950
 7485SOL    HW223355   1.090   6.341   4.886
 7486SOL     OW23356   0.962   1.758   5.459
 7486SOL    HW123357   0.966   1.659   5.453
 7486SOL    HW223358   1.034   1.790   5.521
 7487SOL     OW23359   3.348   5.110   3.616
 7487SOL    HW123360   3.414   5.140   3.547
 7487SOL    HW223361   3.318   5.189   3.670
 7488SOL     OW23362   4.661   0.411   4.937
 7488SOL    HW123363   4.570   0.383   4.906
 7488SOL    HW223364   4.668   0.511   4.934
 7489SOL     OW23365   6.767   3.505   3.943
 7489SOL    HW123366   6.707   3.457   3.879
 7489SOL    HW223367   6.820   3.574   3.894
 7490SOL     OW23368   5.726   0.247   3.074
 7490SOL    HW123369   5.823   0.271   3.081
 7490SOL    HW223370   5.707   0.211   2.982
 7491SOL     OW23371   0.353   6.754   0.617
 7491SOL    HW123372   0.336   6.682   0.550
 7491SOL    HW223373   0.290   6.830   0.601
 7492SOL     OW23374   2.313   2.005   3.588
 7492SOL    HW123375   2.214   2.007   3.583
 7492SOL    HW223376   2.343   1.997   3.683
 7493SOL     OW23377   5.055   4.517   6.732
 7493SOL    HW123378   4.990   4.586   6.699
 7493SOL    HW223379   5.120   4.560   6.794
 7494SOL     OW23380   4.855   1.861   1.923
 7494SOL    HW123381   4.863   1.952   1.963
 7494SOL    HW223382   4.827   1.869   1.828
 7495SOL     OW23383   0.982   1.833   2.558
 7495SOL    HW123384   1.055   1.881   2.510
 7495SOL    HW223385   0.920   1.899   2.600
 7496SOL     OW23386   0.569   5.540   5.781
 7496SOL    HW123387   0.478   5.524   5.743
 7496SOL    HW223388   0.560   5.589   5.868
 7497SOL     OW23389   1.729   4.966   2.410
 7497SOL    HW123390   1.670   4.900   2.363
 7497SOL    HW223391   1.771   4.921   2.489
 7498SOL     OW23392   5.740   2.139   4.588
 7498SOL    HW123393   5.708   2.223   4.632
 7498SOL    HW223394   5.831   2.154   4.550
 7499SOL     OW23395   3.718   4.891   3.918
 7499SOL    HW123396   3.675   4.927   4.001
 7499SOL    HW223397   3.810   4.858   3.941
 7500SOL     OW23398   5.190   4.116   1.893
 7500SOL    HW123399   5.139   4.031   1.912
 7500SOL    HW223400   5.125   4.189   1.871
 7501SOL     OW23401   0.588   4.651   3.858
 7501SOL    HW123402   0.670   4.595   3.846
 7501SOL    HW223403   0.509   4.591   3.872
 7502SOL     OW23404   1.757   2.206   3.927
 7502SOL    HW123405   1.831   2.273   3.916
 7502SOL    HW223406   1.729   2.173   3.837
 7503SOL     OW23407   2.388   2.986   6.847
 7503SOL    HW123408   2.441   3.025   6.772
 7503SOL    HW223409   2.355   2.895   6.820
 7504SOL     OW23410   3.981   5.540   4.141
 7504SOL    HW123411   3.902   5.489   4.107
 7504SOL    HW223412   3.958   5.583   4.228
 7505SOL     OW23413   1.849   1.461   4.186
 7505SOL    HW123414   1.851   1.375   4.237
 7505SOL    HW223415   1.933   1.469   4.132
 7506SOL     OW23416   4.236   1.085   3.262
 7506SOL    HW123417   4.311   1.116   3.204
 7506SOL    HW223418   4.202   0.997   3.230
 7507SOL     OW23419   2.362   0.030   5.426
 7507SOL    HW123420   2.380   7.007   5.512
 7507SOL    HW223421   2.277   7.021   5.386
 7508SOL     OW23422   5.412   5.079   3.646
 7508SOL    HW123423   5.341   5.086   3.716
 7508SOL    HW223424   5.383   5.127   3.563
 7509SOL     OW23425   4.109   4.201   6.081
 7509SOL    HW123426   4.169   4.259   6.026
 7509SOL    HW223427   4.078   4.123   6.027
 7510SOL     OW23428   3.473   3.615   4.646
 7510SOL    HW123429   3.443   3.523   4.621
 7510SOL    HW223430   3.503   3.664   4.565
 7511SOL     OW23431   1.367   1.510   2.402
 7511SOL    HW123432   1.308   1.461   2.466
 7511SOL    HW223433   1.364   1.608   2.421
 7512SOL     OW23434   1.672   2.970   1.819
 7512SOL    HW123435   1.709   2.956   1.727
 7512SOL    HW223436   1.712   3.052   1.858
 7513SOL     OW23437   1.517   3.633   6.174
 7513SOL    HW123438   1.584   3.579   6.124
 7513SOL    HW223439   1.514   3.602   6.269
 7514SOL     OW23440   3.689   5.566   3.515
 7514SOL    HW123441   3.763   5.601   3.457
 7514SOL    HW223442   3.605   5.616   3.495
 7515SOL     OW23443   0.511   5.024   3.129
 7515SOL    HW123444   0.537   5.079   3.209
 7515SOL    HW223445   0.423   4.979   3.147
 7516SOL     OW23446   1.990   2.319   1.435
 7516SOL    HW123447   2.068   2.280   1.483
 7516SOL    HW223448   1.934   2.372   1.498
 7517SOL     OW23449   0.602   5.003   1.605
 7517SOL    HW123450   0.645   4.952   1.531
 7517SOL    HW223451   0.601   5.100   1.583
 7518SOL     OW23452   5.155   4.123   3.399
 7518SOL    HW123453   5.131   4.167   3.312
 7518SOL    HW223454   5.125   4.181   3.475
 7519SOL     OW23455   2.153   0.120   4.109
 7519SOL    HW123456   2.134   0.077   4.021
 7519SOL    HW223457   2.069   0.126   4.163
 7520SOL     OW23458   2.328   6.849   3.679
 7520SOL    HW123459   2.250   6.847   3.616
 7520SOL    HW223460   2.296   6.873   3.771
 7521SOL     OW23461   4.565   3.489   5.279
 7521SOL    HW123462   4.634   3.531   5.220
 7521SOL    HW223463   4.584   3.392   5.288
 7522SOL     OW23464   1.938   0.293   2.505
 7522SOL    HW123465   1.995   0.215   2.479
 7522SOL    HW223466   1.895   0.332   2.424
 7523SOL     OW23467   6.678   6.317   5.960
 7523SOL    HW123468   6.677   6.401   5.906
 7523SOL    HW223469   6.711   6.241   5.904
 7524SOL     OW23470   6.262   1.142   4.733
 7524SOL    HW123471   6.292   1.237   4.722
 7524SOL    HW223472   6.175   1.140   4.781
 7525SOL     OW23473   1.125   0.174   0.859
 7525SOL    HW123474   1.083   0.229   0.931
 7525SOL    HW223475   1.059   0.161   0.785
 7526SOL     OW23476   3.298   3.731   4.850
 7526SOL    HW123477   3.229   3.796   4.820
 7526SOL    HW223478   3.344   3.692   4.771
 7527SOL     OW23479   3.872   5.959   2.055
 7527SOL    HW123480   3.807   5.964   1.979
 7527SOL    HW223481   3.949   6.019   2.037
 7528SOL     OW23482   5.954   3.190   6.739
 7528SOL    HW123483   5.944   3.112   6.677
 7528SOL    HW223484   5.998   3.160   6.823
 7529SOL     OW23485   2.430   0.059   4.581
 7529SOL    HW123486   2.525   0.064   4.550
 7529SOL    HW223487   2.369   0.082   4.505
 7530SOL     OW23488   6.804   3.193   3.245
 7530SOL    HW123489   6.871   3.123   3.218
 7530SOL    HW223490   6.718   3.148   3.269
 7531SOL     OW23491   2.494   1.441   4.467
 7531SOL    HW123492   2.531   1.441   4.374
 7531SOL    HW223493   2.523   1.524   4.515
 7532SOL     OW23494   4.950   4.950   2.014
 7532SOL    HW123495   4.890   4.904   2.079
 7532SOL    HW223496   5.012   5.012   2.064
 7533SOL     OW23497   3.459   0.827   4.917
 7533SOL    HW123498   3.538   0.784   4.874
 7533SOL    HW223499   3.379   0.768   4.907
 7534SOL     OW23500   5.137   6.590   3.961
 7534SOL    HW123501   5.144   6.677   4.011
 7534SOL    HW223502   5.212   6.530   3.990
 7535SOL     OW23503   2.775   4.962   0.776
 7535SOL    HW123504   2.833   4.958   0.695
 7535SOL    HW223505   2.683   4.931   0.752
 7536SOL     OW23506   4.121   5.568   5.828
 7536SOL    HW123507   4.111   5.519   5.741
 7536SOL    HW223508   4.182   5.646   5.815
 7537SOL     OW23509   1.654   4.727   5.336
 7537SOL    HW123510   1.613   4.648   5.381
 7537SOL    HW223511   1.745   4.704   5.304
 7538SOL     OW23512   3.230   4.135   4.636
 7538SOL    HW123513   3.197   4.044   4.661
 7538SOL    HW223514   3.153   4.199   4.634
 7539SOL     OW23515   0.836   2.080   4.558
 7539SOL    HW123516   0.894   2.030   4.494
 7539SOL    HW223517   0.888   2.155   4.599
 7540SOL     OW23518   1.989   1.234   0.048
 7540SOL    HW123519   2.039   1.286   7.004
 7540SOL    HW223520   2.035   1.244   0.136
 7541SOL     OW23521   0.088   2.950   5.334
 7541SOL    HW123522   0.002   2.927   5.381
 7541SOL    HW223523   0.067   3.004   5.252
 7542SOL     OW23524   1.361   0.238   5.672
 7542SOL    HW123525   1.347   0.180   5.752
 7542SOL    HW223526   1.344   0.334   5.697
 7543SOL     OW23527   3.106   2.462   0.341
 7543SOL    HW123528   3.014   2.424   0.351
 7543SOL    HW223529   3.172   2.387   0.336
 7544SOL     OW23530   1.641   1.821   2.323
 7544SOL    HW123531   1.661   1.916   2.345
 7544SOL    HW223532   1.680   1.798   2.234
 7545SOL     OW23533   4.317   0.427   3.840
 7545SOL    HW123534   4.283   0.382   3.922
 7545SOL    HW223535   4.250   0.416   3.766
 7546SOL     OW23536   5.348   0.026   5.619
 7546SOL    HW123537   5.295   6.973   5.586
 7546SOL    HW223538   5.367   0.087   5.542
 7547SOL     OW23539   2.848   0.387   6.944
 7547SOL    HW123540   2.777   0.316   6.937
 7547SOL    HW223541   2.839   0.434   0.006
 7548SOL     OW23542   1.761   3.078   1.574
 7548SOL    HW123543   1.680   3.114   1.528
 7548SOL    HW223544   1.816   3.153   1.609
 7549SOL     OW23545   5.652   1.103   2.706
 7549SOL    HW123546   5.619   1.059   2.622
 7549SOL    HW223547   5.582   1.096   2.777
 7550SOL     OW23548   1.496   5.696   0.861
 7550SOL    HW123549   1.514   5.603   0.893
 7550SOL    HW223550   1.569   5.757   0.891
 7551SOL     OW23551   5.100   3.898   6.354
 7551SOL    HW123552   5.092   3.932   6.448
 7551SOL    HW223553   5.195   3.905   6.324
 7552SOL     OW23554   3.793   5.818   3.965
 7552SOL    HW123555   3.716   5.827   4.029
 7552SOL    HW223556   3.867   5.878   3.994
 7553SOL     OW23557   4.036   4.010   5.879
 7553SOL    HW123558   4.108   3.991   5.812
 7553SOL    HW223559   3.963   3.942   5.870
 7554SOL     OW23560   6.968   1.527   1.075
 7554SOL    HW123561   6.969   1.474   1.159
 7554SOL    HW223562   6.904   1.486   1.010
 7555SOL     OW23563   1.445   5.920   5.593
 7555SOL    HW123564   1.346   5.906   5.592
 7555SOL    HW223565   1.482   5.889   5.681
 7556SOL     OW23566   6.427   4.004   3.468
 7556SOL    HW123567   6.466   3.972   3.381
 7556SOL    HW223568   6.394   3.925   3.520
 7557SOL     OW23569   4.144   3.984   0.678
 7557SOL    HW123570   4.203   3.905   0.662
 7557SOL    HW223571   4.151   4.012   0.774
 7558SOL     OW23572   1.541   2.606   3.169
 7558SOL    HW123573   1.531   2.641   3.262
 7558SOL    HW223574   1.628   2.639   3.131
 7559SOL     OW23575   1.191   4.828   0.144
 7559SOL    HW123576   1.171   4.892   0.070
 7559SOL    HW223577   1.158   4.737   0.119
 7560SOL     OW23578   4.824   0.497   5.477
 7560SOL    HW123579   4.881   0.509   5.396
 7560SOL    HW223580   4.749   0.563   5.475
 7561SOL     OW23581   0.045   4.087   0.413
 7561SOL    HW123582   0.008   3.994   0.412
 7561SOL    HW223583   0.145   4.083   0.422
 7562SOL     OW23584   4.774   5.782   4.967
 7562SOL    HW123585   4.847   5.745   4.909
 7562SOL    HW223586   4.773   5.882   4.958
 7563SOL     OW23587   2.196   1.326   4.135
 7563SOL    HW123588   2.236   1.292   4.051
 7563SOL    HW223589   2.135   1.403   4.115
 7564SOL     OW23590   5.552   5.578   4.056
 7564SOL    HW123591   5.651   5.560   4.057
 7564SOL    HW223592   5.531   5.642   3.982
 7565SOL     OW23593   4.839   5.451   0.069
 7565SOL    HW123594   4.832   5.550   0.084
 7565SOL    HW223595   4.855   5.433   6.997
 7566SOL     OW23596   1.493   5.758   4.068
 7566SOL    HW123597   1.495   5.784   4.164
 7566SOL    HW223598   1.466   5.662   4.061
 7567SOL     OW23599   2.491   3.452   0.329
 7567SOL    HW123600   2.588   3.470   0.311
 7567SOL    HW223601   2.473   3.354   0.314
 7568SOL     OW23602   3.965   4.831   2.808
 7568SOL    HW123603   4.039   4.822   2.742
 7568SOL    HW223604   3.901   4.901   2.777
 7569SOL     OW23605   3.890   6.826   2.019
 7569SOL    HW123606   3.832   6.907   2.033
 7569SOL    HW223607   3.960   6.846   1.950
 7570SOL     OW23608   5.826   4.769   4.807
 7570SOL    HW123609   5.909   4.823   4.813
 7570SOL    HW223610   5.767   4.806   4.735
 7571SOL     OW23611   5.486   4.143   1.175
 7571SOL    HW123612   5.512   4.145   1.271
 7571SOL    HW223613   5.501   4.052   1.137
 7572SOL     OW23614   6.852   1.046   2.923
 7572SOL    HW123615   6.762   1.010   2.947
 7572SOL    HW223616   6.871   1.128   2.976
 7573SOL     OW23617   3.102   5.474   5.453
 7573SOL    HW123618   3.165   5.441   5.383
 7573SOL    HW223619   3.009   5.448   5.430
 7574SOL     OW23620   4.719   6.420   2.064
 7574SOL    HW123621   4.673   6.360   1.998
 7574SOL    HW223622   4.815   6.392   2.073
 7575SOL     OW23623   4.825   2.583   5.081
 7575SOL    HW123624   4.762   2.653   5.050
 7575SOL    HW223625   4.834   2.512   5.011
 7576SOL     OW23626   7.011   3.462   1.725
 7576SOL    HW123627   6.959   3.530   1.675
 7576SOL    HW223628   0.029   3.504   1.804
 7577SOL     OW23629   4.548   1.157   4.762
 7577SOL    HW123630   4.523   1.232   4.700
 7577SOL    HW223631   4.466   1.106   4.786
 7578SOL     OW23632   2.272   5.438   4.880
 7578SOL    HW123633   2.348   5.384   4.914
 7578SOL    HW223634   2.231   5.392   4.801
 7579SOL     OW23635   4.323   2.112   3.720
 7579SOL    HW123636   4.244   2.152   3.674
 7579SOL    HW223637   4.327   2.144   3.815
 7580SOL     OW23638   2.033   3.504   2.249
 7580SOL    HW123639   2.065   3.577   2.309
 7580SOL    HW223640   2.096   3.493   2.173
 7581SOL     OW23641   5.253   0.347   0.717
 7581SOL    HW123642   5.273   0.398   0.633
 7581SOL    HW223643   5.154   0.344   0.730
 7582SOL     OW23644   3.401   2.395   0.805
 7582SOL    HW123645   3.428   2.351   0.890
 7582SOL    HW223646   3.371   2.488   0.823
 7583SOL     OW23647   6.831   4.276   2.678
 7583SOL    HW123648   6.931   4.264   2.682
 7583SOL    HW223649   6.791   4.241   2.763
 7584SOL     OW23650   2.345   1.656   1.787
 7584SOL    HW123651   2.326   1.709   1.705
 7584SOL    HW223652   2.431   1.606   1.775
 7585SOL     OW23653   2.038   4.679   6.198
 7585SOL    HW123654   2.121   4.731   6.177
 7585SOL    HW223655   2.013   4.622   6.120
 7586SOL     OW23656   2.130   1.935   2.959
 7586SOL    HW123657   2.180   1.854   2.930
 7586SOL    HW223658   2.039   1.934   2.917
 7587SOL     OW23659   2.603   1.148   5.577
 7587SOL    HW123660   2.506   1.171   5.582
 7587SOL    HW223661   2.634   1.157   5.482
 7588SOL     OW23662   0.549   4.273   1.866
 7588SOL    HW123663   0.598   4.329   1.800
 7588SOL    HW223664   0.462   4.243   1.827
 7589SOL     OW23665   5.154   6.560   6.765
 7589SOL    HW123666   5.178   6.504   6.845
 7589SOL    HW223667   5.223   6.631   6.751
 7590SOL     OW23668   1.504   0.686   5.958
 7590SOL    HW123669   1.426   0.713   6.014
 7590SOL    HW223670   1.474   0.671   5.864
 7591SOL     OW23671   6.315   5.730   6.588
 7591SOL    HW123672   6.239   5.694   6.535
 7591SOL    HW223673   6.280   5.794   6.657
 7592SOL     OW23674   4.700   4.907   6.029
 7592SOL    HW123675   4.793   4.910   5.993
 7592SOL    HW223676   4.686   4.984   6.091
 7593SOL     OW23677   5.700   4.380   0.764
 7593SOL    HW123678   5.704   4.284   0.793
 7593SOL    HW223679   5.604   4.407   0.753
 7594SOL     OW23680   0.979   7.023   3.882
 7594SOL    HW123681   1.011   6.960   3.953
 7594SOL    HW223682   0.972   6.974   3.795
 7595SOL     OW23683   6.026   2.577   6.787
 7595SOL    HW123684   6.074   2.501   6.743
 7595SOL    HW223685   6.073   2.603   6.871
 7596SOL     OW23686   4.663   5.235   1.881
 7596SOL    HW123687   4.650   5.267   1.974
 7596SOL    HW223688   4.726   5.157   1.881
 7597SOL     OW23689   2.108   6.067   1.512
 7597SOL    HW123690   2.170   6.115   1.450
 7597SOL    HW223691   2.016   6.105   1.502
 7598SOL     OW23692   6.438   0.901   1.975
 7598SOL    HW123693   6.360   0.957   1.947
 7598SOL    HW223694   6.452   0.910   2.074
 7599SOL     OW23695   6.038   2.871   2.112
 7599SOL    HW123696   6.028   2.899   2.017
 7599SOL    HW223697   6.134   2.849   2.131
 7600SOL     OW23698   2.383   2.249   3.020
 7600SOL    HW123699   2.316   2.250   2.945
 7600SOL    HW223700   2.452   2.179   3.002
 7601SOL     OW23701   2.394   0.270   5.036
 7601SOL    HW123702   2.431   0.249   5.126
 7601SOL    HW223703   2.381   0.369   5.027
 7602SOL     OW23704   2.331   3.452   5.306
 7602SOL    HW123705   2.397   3.379   5.324
 7602SOL    HW223706   2.378   3.540   5.309
 7603SOL     OW23707   6.655   1.156   1.976
 7603SOL    HW123708   6.640   1.187   2.070
 7603SOL    HW223709   6.587   1.088   1.952
 7604SOL     OW23710   5.398   5.308   0.105
 7604SOL    HW123711   5.355   5.350   0.185
 7604SOL    HW223712   5.483   5.356   0.085
 7605SOL     OW23713   6.018   3.762   6.434
 7605SOL    HW123714   6.035   3.793   6.528
 7605SOL    HW223715   6.011   3.662   6.433
 7606SOL     OW23716   5.989   1.627   3.423
 7606SOL    HW123717   6.002   1.581   3.335
 7606SOL    HW223718   5.972   1.558   3.494
 7607SOL     OW23719   4.932   6.772   5.956
 7607SOL    HW123720   4.933   6.854   6.013
 7607SOL    HW223721   4.862   6.780   5.886
 7608SOL     OW23722   3.453   3.360   4.550
 7608SOL    HW123723   3.397   3.290   4.506
 7608SOL    HW223724   3.477   3.330   4.643
 7609SOL     OW23725   1.825   2.820   3.580
 7609SOL    HW123726   1.764   2.869   3.642
 7609SOL    HW223727   1.820   2.862   3.489
 7610SOL     OW23728   5.778   0.387   2.103
 7610SOL    HW123729   5.866   0.339   2.107
 7610SOL    HW223730   5.721   0.358   2.180
 7611SOL     OW23731   2.320   1.948   1.628
 7611SOL    HW123732   2.409   1.963   1.670
 7611SOL    HW223733   2.278   2.036   1.605
 7612SOL     OW23734   4.366   1.674   2.870
 7612SOL    HW123735   4.279   1.711   2.903
 7612SOL    HW223736   4.389   1.715   2.782
 7613SOL     OW23737   5.967   0.902   2.835
 7613SOL    HW123738   5.959   0.905   2.934
 7613SOL    HW223739   5.879   0.879   2.795
 7614SOL     OW23740   4.287   1.182   0.336
 7614SOL    HW123741   4.260   1.219   0.425
 7614SOL    HW223742   4.284   1.255   0.268
 7615SOL     OW23743   4.180   4.567   6.060
 7615SOL    HW123744   4.113   4.639   6.079
 7615SOL    HW223745   4.153   4.517   5.977
 7616SOL     OW23746   0.049   4.944   3.352
 7616SOL    HW123747   0.014   4.855   3.382
 7616SOL    HW223748   6.997   5.002   3.327
 7617SOL     OW23749   3.602   5.807   3.104
 7617SOL    HW123750   3.540   5.750   3.050
 7617SOL    HW223751   3.548   5.866   3.164
 7618SOL     OW23752   2.217   1.878   0.592
 7618SOL    HW123753   2.127   1.918   0.578
 7618SOL    HW223754   2.236   1.874   0.691
 7619SOL     OW23755   6.137   3.894   6.201
 7619SOL    HW123756   6.098   3.913   6.290
 7619SOL    HW223757   6.123   3.798   6.177
 7620SOL     OW23758   3.311   6.259   1.798
 7620SOL    HW123759   3.343   6.199   1.726
 7620SOL    HW223760   3.254   6.332   1.758
 7621SOL     OW23761   2.103   2.772   0.871
 7621SOL    HW123762   2.029   2.794   0.807
 7621SOL    HW223763   2.144   2.684   0.844
 7622SOL     OW23764   4.338   1.623   1.393
 7622SOL    HW123765   4.309   1.576   1.310
 7622SOL    HW223766   4.259   1.642   1.450
 7623SOL     OW23767   5.797   6.853   5.294
 7623SOL    HW123768   5.813   6.948   5.268
 7623SOL    HW223769   5.863   6.794   5.248
 7624SOL     OW23770   0.264   0.913   3.967
 7624SOL    HW123771   0.328   0.881   3.897
 7624SOL    HW223772   0.172   0.917   3.928
 7625SOL     OW23773   3.406   5.930   0.759
 7625SOL    HW123774   3.497   5.917   0.796
 7625SOL    HW223775   3.412   5.980   0.672
 7626SOL     OW23776   2.404   4.442   5.059
 7626SOL    HW123777   2.443   4.535   5.060
 7626SOL    HW223778   2.460   4.382   5.115
 7627SOL     OW23779   6.750   1.409   0.274
 7627SOL    HW123780   6.681   1.340   0.249
 7627SOL    HW223781   6.811   1.372   0.344
 7628SOL     OW23782   4.696   1.638   1.221
 7628SOL    HW123783   4.690   1.738   1.214
 7628SOL    HW223784   4.735   1.613   1.310
 7629SOL     OW23785   6.126   5.923   3.029
 7629SOL    HW123786   6.092   5.995   2.969
 7629SOL    HW223787   6.094   5.834   2.997
 7630SOL     OW23788   6.356   1.194   2.161
 7630SOL    HW123789   6.342   1.285   2.121
 7630SOL    HW223790   6.454   1.177   2.169
 7631SOL     OW23791   1.459   1.099   3.426
 7631SOL    HW123792   1.537   1.047   3.391
 7631SOL    HW223793   1.448   1.080   3.524
 7632SOL     OW23794   4.309   0.867   5.335
 7632SOL    HW123795   4.236   0.805   5.364
 7632SOL    HW223796   4.275   0.960   5.333
 7633SOL     OW23797   5.516   4.114   6.684
 7633SOL    HW123798   5.476   4.034   6.730
 7633SOL    HW223799   5.567   4.084   6.603
 7634SOL     OW23800   1.080   2.559   2.326
 7634SOL    HW123801   1.040   2.471   2.302
 7634SOL    HW223802   1.064   2.578   2.422
 7635SOL     OW23803   2.565   5.002   5.871
 7635SOL    HW123804   2.485   5.046   5.831
 7635SOL    HW223805   2.634   4.987   5.800
 7636SOL     OW23806   2.067   0.172   3.419
 7636SOL    HW123807   2.013   0.122   3.487
 7636SOL    HW223808   2.144   0.216   3.464
 7637SOL     OW23809   2.846   6.253   3.761
 7637SOL    HW123810   2.898   6.336   3.780
 7637SOL    HW223811   2.798   6.225   3.844
 7638SOL     OW23812   4.239   4.509   1.683
 7638SOL    HW123813   4.307   4.455   1.634
 7638SOL    HW223814   4.147   4.475   1.662
 7639SOL     OW23815   0.171   1.924   4.297
 7639SOL    HW123816   0.222   1.840   4.313
 7639SOL    HW223817   0.188   1.989   4.371
 7640SOL     OW23818   2.504   3.520   5.778
 7640SOL    HW123819   2.581   3.466   5.812
 7640SOL    HW223820   2.515   3.615   5.806
 7641SOL     OW23821   6.092   2.943   3.261
 7641SOL    HW123822   6.094   2.973   3.166
 7641SOL    HW223823   6.130   2.850   3.267
 7642SOL     OW23824   1.578   1.449   2.721
 7642SOL    HW123825   1.534   1.512   2.785
 7642SOL    HW223826   1.588   1.494   2.632
 7643SOL     OW23827   5.422   3.117   3.729
 7643SOL    HW123828   5.514   3.119   3.768
 7643SOL    HW223829   5.361   3.067   3.790
 7644SOL     OW23830   6.363   3.549   3.828
 7644SOL    HW123831   6.447   3.524   3.875
 7644SOL    HW223832   6.314   3.618   3.881
 7645SOL     OW23833   3.374   2.999   0.249
 7645SOL    HW123834   3.446   3.006   0.180
 7645SOL    HW223835   3.347   2.903   0.259
 7646SOL     OW23836   1.261   0.783   1.874
 7646SOL    HW123837   1.248   0.718   1.949
 7646SOL    HW223838   1.341   0.757   1.821
 7647SOL     OW23839   2.176   4.974   0.357
 7647SOL    HW123840   2.220   5.063   0.344
 7647SOL    HW223841   2.103   4.963   0.290
 7648SOL     OW23842   3.535   1.198   3.769
 7648SOL    HW123843   3.555   1.107   3.805
 7648SOL    HW223844   3.466   1.191   3.697
 7649SOL     OW23845   3.162   1.514   1.756
 7649SOL    HW123846   3.091   1.469   1.703
 7649SOL    HW223847   3.231   1.553   1.695
 7650SOL     OW23848   6.058   4.562   0.619
 7650SOL    HW123849   5.969   4.532   0.587
 7650SOL    HW223850   6.058   4.565   0.719
 7651SOL     OW23851   5.027   2.243   6.057
 7651SOL    HW123852   5.122   2.260   6.083
 7651SOL    HW223853   4.993   2.161   6.103
 7652SOL     OW23854   0.940   3.400   3.207
 7652SOL    HW123855   0.896   3.405   3.297
 7652SOL    HW223856   0.870   3.393   3.136
 7653SOL     OW23857   4.439   2.402   2.291
 7653SOL    HW123858   4.487   2.461   2.227
 7653SOL    HW223859   4.450   2.437   2.384
 7654SOL     OW23860   5.261   3.875   3.861
 7654SOL    HW123861   5.329   3.948   3.851
 7654SOL    HW223862   5.300   3.788   3.830
 7655SOL     OW23863   5.198   5.123   5.603
 7655SOL    HW123864   5.239   5.197   5.657
 7655SOL    HW223865   5.101   5.113   5.629
 7656SOL     OW23866   0.903   0.266   4.600
 7656SOL    HW123867   0.864   0.223   4.519
 7656SOL    HW223868   0.872   0.217   4.682
 7657SOL     OW23869   4.311   1.507   3.998
 7657SOL    HW123870   4.305   1.460   3.910
 7657SOL    HW223871   4.279   1.445   4.071
 7658SOL     OW23872   3.936   0.335   6.094
 7658SOL    HW123873   3.894   0.304   6.009
 7658SOL    HW223874   3.869   0.330   6.168
 7659SOL     OW23875   5.029   6.182   0.241
 7659SOL    HW123876   5.068   6.121   0.172
 7659SOL    HW223877   4.975   6.253   0.196
 7660SOL     OW23878   5.620   4.698   4.086
 7660SOL    HW123879   5.715   4.679   4.111
 7660SOL    HW223880   5.617   4.734   3.992
 7661SOL     OW23881   5.884   3.367   4.481
 7661SOL    HW123882   5.966   3.404   4.524
 7661SOL    HW223883   5.884   3.391   4.384
 7662SOL     OW23884   6.242   5.460   2.911
 7662SOL    HW123885   6.306   5.519   2.862
 7662SOL    HW223886   6.224   5.377   2.857
 7663SOL     OW23887   6.993   6.032   0.087
 7663SOL    HW123888   6.981   5.938   0.119
 7663SOL    HW223889   6.917   6.088   0.121
 7664SOL     OW23890   2.754   5.703   5.169
 7664SOL    HW123891   2.661   5.736   5.151
 7664SOL    HW223892   2.796   5.760   5.239
 7665SOL     OW23893   2.707   5.634   4.248
 7665SOL    HW123894   2.616   5.639   4.206
 7665SOL    HW223895   2.718   5.545   4.292
 7666SOL     OW23896   2.554   0.692   1.907
 7666SOL    HW123897   2.553   0.593   1.922
 7666SOL    HW223898   2.578   0.738   1.993
 7667SOL     OW23899   5.464   6.227   5.595
 7667SOL    HW123900   5.386   6.275   5.635
 7667SOL    HW223901   5.524   6.292   5.549
 7668SOL     OW23902   3.099   4.084   1.616
 7668SOL    HW123903   3.040   4.033   1.554
 7668SOL    HW223904   3.058   4.173   1.636
 7669SOL     OW23905   4.507   6.148   4.904
 7669SOL    HW123906   4.510   6.120   5.000
 7669SOL    HW223907   4.464   6.077   4.850
 7670SOL     OW23908   1.264   5.960   0.796
 7670SOL    HW123909   1.285   5.869   0.761
 7670SOL    HW223910   1.166   5.966   0.818
 7671SOL     OW23911   5.487   1.970   4.817
 7671SOL    HW123912   5.475   2.069   4.828
 7671SOL    HW223913   5.581   1.952   4.787
 7672SOL     OW23914   5.973   0.505   1.853
 7672SOL    HW123915   6.063   0.515   1.812
 7672SOL    HW223916   5.951   0.408   1.863
 7673SOL     OW23917   0.041   3.974   6.947
 7673SOL    HW123918   0.102   4.033   7.001
 7673SOL    HW223919   6.982   4.024   6.928
 7674SOL     OW23920   6.219   0.213   5.518
 7674SOL    HW123921   6.295   0.199   5.454
 7674SOL    HW223922   6.240   0.170   5.606
 7675SOL     OW23923   5.115   0.064   3.187
 7675SOL    HW123924   5.186   0.071   3.117
 7675SOL    HW223925   5.140   7.018   3.253
 7676SOL     OW23926   1.585   0.764   1.416
 7676SOL    HW123927   1.519   0.804   1.352
 7676SOL    HW223928   1.596   0.667   1.396
 7677SOL     OW23929   1.646   2.108   3.043
 7677SOL    HW123930   1.708   2.180   3.073
 7677SOL    HW223931   1.552   2.135   3.063
 7678SOL     OW23932   5.626   6.712   5.991
 7678SOL    HW123933   5.607   6.688   6.086
 7678SOL    HW223934   5.563   6.784   5.962
 7679SOL     OW23935   1.320   5.224   4.414
 7679SOL    HW123936   1.413   5.219   4.376
 7679SOL    HW223937   1.261   5.274   4.350
 7680SOL     OW23938   5.422   0.869   6.665
 7680SOL    HW123939   5.371   0.952   6.645
 7680SOL    HW223940   5.474   0.841   6.584
 7681SOL     OW23941   2.901   2.459   6.220
 7681SOL    HW123942   2.840   2.427   6.147
 7681SOL    HW223943   2.989   2.410   6.214
 7682SOL     OW23944   2.813   6.960   0.877
 7682SOL    HW123945   2.836   6.892   0.947
 7682SOL    HW223946   2.790   6.913   0.792
 7683SOL     OW23947   6.864   2.401   3.546
 7683SOL    HW123948   6.962   2.385   3.552
 7683SOL    HW223949   6.816   2.313   3.548
 7684SOL     OW23950   3.960   2.379   5.803
 7684SOL    HW123951   3.995   2.437   5.876
 7684SOL    HW223952   4.038   2.336   5.755
 7685SOL     OW23953   3.999   3.946   1.409
 7685SOL    HW123954   4.043   3.856   1.400
 7685SOL    HW223955   4.042   3.996   1.484
 7686SOL     OW23956   3.226   0.887   3.491
 7686SOL    HW123957   3.184   0.928   3.410
 7686SOL    HW223958   3.164   0.817   3.528
 7687SOL     OW23959   4.709   4.800   6.405
 7687SOL    HW123960   4.760   4.857   6.341
 7687SOL    HW223961   4.616   4.835   6.416
 7688SOL     OW23962   6.657   0.475   3.170
 7688SOL    HW123963   6.725   0.500   3.238
 7688SOL    HW223964   6.696   0.410   3.105
 7689SOL     OW23965   3.511   6.107   4.921
 7689SOL    HW123966   3.462   6.183   4.878
 7689SOL    HW223967   3.554   6.139   5.005
 7690SOL     OW23968   0.786   5.338   2.083
 7690SOL    HW123969   0.838   5.334   2.169
 7690SOL    HW223970   0.825   5.273   2.018
 7691SOL     OW23971   5.982   3.739   5.784
 7691SOL    HW123972   5.987   3.822   5.728
 7691SOL    HW223973   6.071   3.724   5.828
 7692SOL     OW23974   1.298   6.563   1.174
 7692SOL    HW123975   1.322   6.585   1.269
 7692SOL    HW223976   1.206   6.524   1.172
 7693SOL     OW23977   5.514   1.616   0.452
 7693SOL    HW123978   5.579   1.565   0.509
 7693SOL    HW223979   5.539   1.605   0.356
 7694SOL     OW23980   5.717   5.016   3.694
 7694SOL    HW123981   5.617   5.015   3.699
 7694SOL    HW223982   5.753   5.097   3.739
 7695SOL     OW23983   4.809   0.377   6.544
 7695SOL    HW123984   4.785   0.368   6.448
 7695SOL    HW223985   4.820   0.474   6.567
 7696SOL     OW23986   1.342   4.140   5.490
 7696SOL    HW123987   1.350   4.070   5.560
 7696SOL    HW223988   1.432   4.183   5.476
 7697SOL     OW23989   4.531   1.259   2.650
 7697SOL    HW123990   4.451   1.307   2.613
 7697SOL    HW223991   4.566   1.309   2.729
 7698SOL     OW23992   6.863   2.892   5.435
 7698SOL    HW123993   6.830   2.808   5.479
 7698SOL    HW223994   6.848   2.969   5.497
 7699SOL     OW23995   3.247   4.115   0.174
 7699SOL    HW123996   3.301   4.193   0.143
 7699SOL    HW223997   3.171   4.100   0.110
 7700SOL     OW23998   5.549   0.004   4.308
 7700SOL    HW123999   5.483   0.027   4.236
 7700SOL    HW224000   5.616   6.964   4.272
 7701SOL     OW24001   6.787   2.168   5.282
 7701SOL    HW124002   6.830   2.088   5.241
 7701SOL    HW224003   6.848   2.247   5.273
 7702SOL     OW24004   1.968   6.778   6.109
 7702SOL    HW124005   1.936   6.866   6.074
 7702SOL    HW224006   1.977   6.714   6.033
 7703SOL     OW24007   1.110   2.449   5.374
 7703SOL    HW124008   1.095   2.356   5.341
 7703SOL    HW224009   1.204   2.458   5.407
 7704SOL     OW24010   2.789   4.576   1.171
 7704SOL    HW124011   2.797   4.674   1.155
 7704SOL    HW224012   2.848   4.549   1.247
 7705SOL     OW24013   3.598   3.983   4.746
 7705SOL    HW124014   3.553   4.070   4.761
 7705SOL    HW224015   3.593   3.927   4.829
 7706SOL     OW24016   6.624   0.782   5.838
 7706SOL    HW124017   6.565   0.844   5.889
 7706SOL    HW224018   6.642   0.700   5.892
 7707SOL     OW24019   0.126   5.736   6.956
 7707SOL    HW124020   0.137   5.829   6.922
 7707SOL    HW224021   0.068   5.684   6.894
 7708SOL     OW24022   5.219   1.275   4.709
 7708SOL    HW124023   5.237   1.371   4.686
 7708SOL    HW224024   5.142   1.242   4.656
 7709SOL     OW24025   3.932   2.279   1.750
 7709SOL    HW124026   3.849   2.319   1.788
 7709SOL    HW224027   3.931   2.289   1.651
 7710SOL     OW24028   2.826   2.110   6.465
 7710SOL    HW124029   2.840   2.193   6.519
 7710SOL    HW224030   2.838   2.030   6.523
 7711SOL     OW24031   4.927   5.685   4.739
 7711SOL    HW124032   4.913   5.728   4.649
 7711SOL    HW224033   5.022   5.698   4.767
 7712SOL     OW24034   5.217   4.668   6.902
 7712SOL    HW124035   5.201   4.764   6.881
 7712SOL    HW224036   5.293   4.634   6.846
 7713SOL     OW24037   0.654   5.582   6.464
 7713SOL    HW124038   0.643   5.580   6.364
 7713SOL    HW224039   0.714   5.508   6.492
 7714SOL     OW24040   5.358   3.634   4.329
 7714SOL    HW124041   5.422   3.696   4.374
 7714SOL    HW224042   5.333   3.672   4.240
 7715SOL     OW24043   3.837   2.073   1.897
 7715SOL    HW124044   3.884   2.148   1.851
 7715SOL    HW224045   3.759   2.109   1.948
 7716SOL     OW24046   4.457   2.458   4.034
 7716SOL    HW124047   4.532   2.401   4.067
 7716SOL    HW224048   4.386   2.463   4.104
 7717SOL     OW24049   3.271   0.170   6.702
 7717SOL    HW124050   3.194   0.181   6.765
 7717SOL    HW224051   3.354   0.151   6.755
 7718SOL     OW24052   2.778   6.349   4.192
 7718SOL    HW124053   2.705   6.414   4.213
 7718SOL    HW224054   2.799   6.296   4.274
 7719SOL     OW24055   5.976   2.866   5.334
 7719SOL    HW124056   5.894   2.819   5.302
 7719SOL    HW224057   5.960   2.903   5.426
 7720SOL     OW24058   6.093   6.365   1.947
 7720SOL    HW124059   6.075   6.424   2.026
 7720SOL    HW224060   6.040   6.281   1.955
 7721SOL     OW24061   0.823   4.910   2.864
 7721SOL    HW124062   0.817   4.850   2.784
 7721SOL    HW224063   0.910   4.959   2.861
 7722SOL     OW24064   0.632   6.144   4.280
 7722SOL    HW124065   0.645   6.243   4.288
 7722SOL    HW224066   0.638   6.102   4.370
 7723SOL     OW24067   6.973   2.078   0.303
 7723SOL    HW124068   6.987   2.068   0.401
 7723SOL    HW224069   6.876   2.071   0.281
 7724SOL     OW24070   1.994   6.685   0.038
 7724SOL    HW124071   1.956   6.657   0.126
 7724SOL    HW224072   2.034   6.776   0.046
 7725SOL     OW24073   4.887   3.293   4.345
 7725SOL    HW124074   4.880   3.197   4.317
 7725SOL    HW224075   4.878   3.298   4.445
 7726SOL     OW24076   5.324   4.256   2.986
 7726SOL    HW124077   5.247   4.253   3.049
 7726SOL    HW224078   5.293   4.284   2.895
 7727SOL     OW24079   5.676   3.058   2.162
 7727SOL    HW124080   5.631   3.075   2.074
 7727SOL    HW224081   5.648   2.969   2.198
 7728SOL     OW24082   2.310   2.632   2.441
 7728SOL    HW124083   2.398   2.644   2.486
 7728SOL    HW224084   2.299   2.703   2.371
 7729SOL     OW24085   4.877   2.121   6.980
 7729SOL    HW124086   4.976   2.110   6.965
 7729SOL    HW224087   4.862   2.178   0.035
 7730SOL     OW24088   4.345   0.267   1.950
 7730SOL    HW124089   4.426   0.224   1.908
 7730SOL    HW224090   4.330   0.227   2.040
 7731SOL     OW24091   0.287   1.655   4.338
 7731SOL    HW124092   0.227   1.584   4.302
 7731SOL    HW224093   0.267   1.671   4.435
 7732SOL     OW24094   4.254   5.115   0.540
 7732SOL    HW124095   4.303   5.060   0.472
 7732SOL    HW224096   4.293   5.207   0.542
 7733SOL     OW24097   2.581   6.609   0.477
 7733SOL    HW124098   2.562   6.625   0.574
 7733SOL    HW224099   2.677   6.586   0.464
 7734SOL     OW24100   1.633   2.944   2.178
 7734SOL    HW124101   1.616   2.928   2.276
 7734SOL    HW224102   1.631   3.042   2.160
 7735SOL     OW24103   4.971   4.086   0.869
 7735SOL    HW124104   4.965   4.022   0.946
 7735SOL    HW224105   4.933   4.174   0.896
 7736SOL     OW24106   5.638   4.176   6.296
 7736SOL    HW124107   5.681   4.239   6.362
 7736SOL    HW224108   5.680   4.086   6.304
 7737SOL     OW24109   4.611   2.853   0.162
 7737SOL    HW124110   4.632   2.802   0.078
 7737SOL    HW224111   4.516   2.836   0.188
 7738SOL     OW24112   2.239   4.959   0.083
 7738SOL    HW124113   2.145   4.929   0.094
 7738SOL    HW224114   2.295   4.884   0.049
 7739SOL     OW24115   5.530   3.453   2.900
 7739SOL    HW124116   5.561   3.515   2.828
 7739SOL    HW224117   5.438   3.480   2.929
 7740SOL     OW24118   0.638   6.271   3.839
 7740SOL    HW124119   0.634   6.366   3.808
 7740SOL    HW224120   0.585   6.213   3.776
 7741SOL     OW24121   2.995   5.785   4.501
 7741SOL    HW124122   2.963   5.692   4.518
 7741SOL    HW224123   2.934   5.829   4.435
 7742SOL     OW24124   6.940   1.033   4.128
 7742SOL    HW124125   7.024   1.088   4.124
 7742SOL    HW224126   6.964   0.938   4.148
 7743SOL     OW24127   4.950   3.097   2.129
 7743SOL    HW124128   4.867   3.052   2.096
 7743SOL    HW224129   5.015   3.028   2.161
 7744SOL     OW24130   0.308   6.374   4.941
 7744SOL    HW124131   0.373   6.360   4.866
 7744SOL    HW224132   0.353   6.353   5.028
 7745SOL     OW24133   4.830   3.284   5.195
 7745SOL    HW124134   4.794   3.374   5.170
 7745SOL    HW224135   4.860   3.236   5.112
 7746SOL     OW24136   1.725   0.688   6.531
 7746SOL    HW124137   1.733   0.591   6.508
 7746SOL    HW224138   1.652   0.730   6.476
 7747SOL     OW24139   4.793   5.258   1.002
 7747SOL    HW124140   4.876   5.239   1.053
 7747SOL    HW224141   4.741   5.173   0.990
 7748SOL     OW24142   2.350   4.283   6.324
 7748SOL    HW124143   2.369   4.242   6.414
 7748SOL    HW224144   2.336   4.210   6.257
 7749SOL     OW24145   5.662   3.725   6.261
 7749SOL    HW124146   5.636   3.674   6.180
 7749SOL    HW224147   5.742   3.782   6.241
 7750SOL     OW24148   4.664   5.433   2.723
 7750SOL    HW124149   4.734   5.372   2.685
 7750SOL    HW224150   4.706   5.520   2.748
 7751SOL     OW24151   0.582   2.897   1.259
 7751SOL    HW124152   0.645   2.841   1.313
 7751SOL    HW224153   0.542   2.840   1.187
 7752SOL     OW24154   3.682   1.381   3.485
 7752SOL    HW124155   3.727   1.297   3.516
 7752SOL    HW224156   3.686   1.386   3.385
 7753SOL     OW24157   4.132   1.399   5.464
 7753SOL    HW124158   4.198   1.439   5.527
 7753SOL    HW224159   4.041   1.401   5.505
 7754SOL     OW24160   5.173   5.502   1.604
 7754SOL    HW124161   5.225   5.467   1.526
 7754SOL    HW224162   5.090   5.547   1.571
 7755SOL     OW24163   0.069   5.023   5.318
 7755SOL    HW124164   0.039   4.930   5.339
 7755SOL    HW224165   0.163   5.035   5.350
 7756SOL     OW24166   2.159   4.244   2.140
 7756SOL    HW124167   2.147   4.259   2.238
 7756SOL    HW224168   2.184   4.330   2.096
 7757SOL     OW24169   6.978   4.055   0.809
 7757SOL    HW124170   6.970   4.128   0.741
 7757SOL    HW224171   6.929   3.974   0.776
 7758SOL     OW24172   0.435   1.722   5.801
 7758SOL    HW124173   0.512   1.700   5.741
 7758SOL    HW224174   0.426   1.652   5.871
 7759SOL     OW24175   3.653   1.437   2.322
 7759SOL    HW124176   3.646   1.453   2.223
 7759SOL    HW224177   3.564   1.454   2.364
 7760SOL     OW24178   5.152   3.030   6.841
 7760SOL    HW124179   5.085   3.062   6.774
 7760SOL    HW224180   5.167   2.932   6.830
 7761SOL     OW24181   5.280   5.236   3.444
 7761SOL    HW124182   5.331   5.203   3.364
 7761SOL    HW224183   5.254   5.331   3.430
 7762SOL     OW24184   5.109   1.871   2.095
 7762SOL    HW124185   5.023   1.865   2.146
 7762SOL    HW224186   5.111   1.801   2.023
 7763SOL     OW24187   2.215   0.560   3.037
 7763SOL    HW124188   2.190   0.469   3.004
 7763SOL    HW224189   2.210   0.562   3.137
 7764SOL     OW24190   3.687   4.952   5.746
 7764SOL    HW124191   3.603   4.984   5.789
 7764SOL    HW224192   3.736   5.030   5.707
 7765SOL     OW24193   5.247   4.181   4.419
 7765SOL    HW124194   5.166   4.132   4.448
 7765SOL    HW224195   5.236   4.212   4.325
 7766SOL     OW24196   6.451   2.545   6.223
 7766SOL    HW124197   6.420   2.456   6.256
 7766SOL    HW224198   6.408   2.566   6.136
 7767SOL     OW24199   4.551   0.377   4.233
 7767SOL    HW124200   4.562   0.296   4.176
 7767SOL    HW224201   4.641   0.419   4.248
 7768SOL     OW24202   3.331   5.988   4.604
 7768SOL    HW124203   3.315   5.902   4.557
 7768SOL    HW224204   3.424   5.988   4.643
 7769SOL     OW24205   3.595   2.637   6.910
 7769SOL    HW124206   3.538   2.604   6.985
 7769SOL    HW224207   3.578   2.735   6.895
 7770SOL     OW24208   1.360   3.585   3.779
 7770SOL    HW124209   1.453   3.557   3.802
 7770SOL    HW224210   1.356   3.685   3.776
 7771SOL     OW24211   1.159   3.647   5.321
 7771SOL    HW124212   1.152   3.638   5.222
 7771SOL    HW224213   1.222   3.578   5.357
 7772SOL     OW24214   5.399   5.909   2.175
 7772SOL    HW124215   5.375   5.982   2.111
 7772SOL    HW224216   5.420   5.826   2.124
 7773SOL     OW24217   2.987   0.380   6.558
 7773SOL    HW124218   3.047   0.411   6.485
 7773SOL    HW224219   2.911   0.444   6.568
 7774SOL     OW24220   5.128   1.087   2.727
 7774SOL    HW124221   5.110   1.161   2.662
 7774SOL    HW224222   5.053   1.079   2.791
 7775SOL     OW24223   3.781   1.665   1.325
 7775SOL    HW124224   3.851   1.725   1.287
 7775SOL    HW224225   3.774   1.678   1.424
 7776SOL     OW24226   3.598   0.977   3.908
 7776SOL    HW124227   3.691   1.004   3.936
 7776SOL    HW224228   3.589   0.878   3.918
 7777SOL     OW24229   5.632   5.232   2.977
 7777SOL    HW124230   5.537   5.222   2.947
 7777SOL    HW224231   5.633   5.272   3.069
 7778SOL     OW24232   1.043   4.524   2.212
 7778SOL    HW124233   1.109   4.512   2.286
 7778SOL    HW224234   1.034   4.438   2.161
 7779SOL     OW24235   3.660   6.347   2.636
 7779SOL    HW124236   3.587   6.402   2.677
 7779SOL    HW224237   3.623   6.259   2.608
 7780SOL     OW24238   6.883   5.729   4.251
 7780SOL    HW124239   6.933   5.725   4.165
 7780SOL    HW224240   6.939   5.776   4.320
 7781SOL     OW24241   2.370   2.958   0.442
 7781SOL    HW124242   2.288   3.005   0.475
 7781SOL    HW224243   2.344   2.871   0.401
 7782SOL     OW24244   5.965   4.049   4.389
 7782SOL    HW124245   5.956   3.950   4.388
 7782SOL    HW224246   6.017   4.077   4.470
 7783SOL     OW24247   1.474   6.638   4.073
 7783SOL    HW124248   1.431   6.713   4.123
 7783SOL    HW224249   1.557   6.610   4.120
 7784SOL     OW24250   1.805   2.194   2.762
 7784SOL    HW124251   1.798   2.294   2.757
 7784SOL    HW224252   1.725   2.157   2.809
 7785SOL     OW24253   6.520   6.385   2.609
 7785SOL    HW124254   6.443   6.326   2.585
 7785SOL    HW224255   6.605   6.332   2.607
 7786SOL     OW24256   5.132   0.893   6.162
 7786SOL    HW124257   5.064   0.832   6.120
 7786SOL    HW224258   5.116   0.987   6.133
 7787SOL     OW24259   1.501   2.681   1.163
 7787SOL    HW124260   1.532   2.625   1.241
 7787SOL    HW224261   1.417   2.642   1.125
 7788SOL     OW24262   0.855   3.941   1.907
 7788SOL    HW124263   0.875   4.019   1.967
 7788SOL    HW224264   0.780   3.887   1.945
 7789SOL     OW24265   3.514   1.001   5.896
 7789SOL    HW124266   3.428   1.046   5.873
 7789SOL    HW224267   3.590   1.059   5.869
 7790SOL     OW24268   3.944   4.937   4.241
 7790SOL    HW124269   3.932   4.914   4.337
 7790SOL    HW224270   3.863   4.987   4.209
 7791SOL     OW24271   2.969   5.767   1.769
 7791SOL    HW124272   2.971   5.694   1.701
 7791SOL    HW224273   2.939   5.852   1.726
 7792SOL     OW24274   1.607   1.412   2.307
 7792SOL    HW124275   1.609   1.405   2.207
 7792SOL    HW224276   1.517   1.445   2.336
 7793SOL     OW24277   4.921   1.615   1.042
 7793SOL    HW124278   4.828   1.617   1.078
 7793SOL    HW224279   4.922   1.562   0.957
 7794SOL     OW24280   1.706   0.990   3.331
 7794SOL    HW124281   1.774   1.037   3.275
 7794SOL    HW224282   1.728   0.893   3.334
 7795SOL     OW24283   4.105   3.688   1.415
 7795SOL    HW124284   4.203   3.685   1.400
 7795SOL    HW224285   4.076   3.604   1.461
 7796SOL     OW24286   3.603   1.545   0.488
 7796SOL    HW124287   3.555   1.478   0.431
 7796SOL    HW224288   3.627   1.625   0.434
 7797SOL     OW24289   1.411   6.298   2.846
 7797SOL    HW124290   1.340   6.365   2.825
 7797SOL    HW224291   1.479   6.339   2.906
 7798SOL     OW24292   1.951   3.525   1.221
 7798SOL    HW124293   1.951   3.494   1.126
 7798SOL    HW224294   2.041   3.511   1.261
 7799SOL     OW24295   2.485   6.437   3.926
 7799SOL    HW124296   2.401   6.489   3.908
 7799SOL    HW224297   2.476   6.346   3.887
 7800SOL     OW24298   1.774   1.193   2.351
 7800SOL    HW124299   1.720   1.276   2.337
 7800SOL    HW224300   1.813   1.194   2.443
 7801SOL     OW24301   1.702   2.030   0.784
 7801SOL    HW124302   1.754   2.113   0.802
 7801SOL    HW224303   1.655   2.002   0.868
 7802SOL     OW24304   6.268   4.755   3.894
 7802SOL    HW124305   6.222   4.842   3.913
 7802SOL    HW224306   6.209   4.698   3.836
 7803SOL     OW24307   3.165   2.597   6.356
 7803SOL    HW124308   3.183   2.515   6.411
 7803SOL    HW224309   3.067   2.613   6.351
 7804SOL     OW24310   2.660   1.967   5.134
 7804SOL    HW124311   2.600   1.948   5.057
 7804SOL    HW224312   2.740   1.907   5.130
 7805SOL     OW24313   5.369   3.094   6.596
 7805SOL    HW124314   5.374   3.158   6.519
 7805SOL    HW224315   5.275   3.060   6.605
 7806SOL     OW24316   6.214   2.053   5.338
 7806SOL    HW124317   6.292   2.056   5.401
 7806SOL    HW224318   6.175   2.145   5.328
 7807SOL     OW24319   1.790   5.637   5.702
 7807SOL    HW124320   1.714   5.598   5.754
 7807SOL    HW224321   1.841   5.700   5.760
 7808SOL     OW24322   0.201   3.227   3.972
 7808SOL    HW124323   0.119   3.237   4.029
 7808SOL    HW224324   0.174   3.208   3.878
 7809SOL     OW24325   4.461   6.856   2.430
 7809SOL    HW124326   4.413   6.902   2.504
 7809SOL    HW224327   4.520   6.921   2.383
 7810SOL     OW24328   1.780   0.046   5.648
 7810SOL    HW124329   1.725   0.036   5.731
 7810SOL    HW224330   1.729   0.097   5.579
 7811SOL     OW24331   1.047   5.877   3.283
 7811SOL    HW124332   1.127   5.877   3.223
 7811SOL    HW224333   1.069   5.925   3.368
 7812SOL     OW24334   2.865   1.598   5.792
 7812SOL    HW124335   2.937   1.604   5.723
 7812SOL    HW224336   2.870   1.510   5.839
 7813SOL     OW24337   5.671   1.317   1.037
 7813SOL    HW124338   5.608   1.262   1.091
 7813SOL    HW224339   5.741   1.258   0.997
 7814SOL     OW24340   6.130   2.654   1.781
 7814SOL    HW124341   6.087   2.582   1.836
 7814SOL    HW224342   6.229   2.647   1.790
 7815SOL     OW24343   4.826   5.041   3.639
 7815SOL    HW124344   4.867   5.130   3.662
 7815SOL    HW224345   4.777   5.049   3.552
 7816SOL     OW24346   1.179   1.184   5.300
 7816SOL    HW124347   1.241   1.115   5.339
 7816SOL    HW224348   1.204   1.200   5.204
 7817SOL     OW24349   4.356   1.763   6.469
 7817SOL    HW124350   4.387   1.851   6.434
 7817SOL    HW224351   4.313   1.710   6.396
 7818SOL     OW24352   5.951   0.923   3.111
 7818SOL    HW124353   5.883   0.970   3.166
 7818SOL    HW224354   5.956   0.827   3.137
 7819SOL     OW24355   1.799   2.852   4.512
 7819SOL    HW124356   1.727   2.907   4.556
 7819SOL    HW224357   1.876   2.911   4.488
 7820SOL     OW24358   1.531   1.121   5.828
 7820SOL    HW124359   1.618   1.170   5.819
 7820SOL    HW224360   1.530   1.044   5.765
 7821SOL     OW24361   4.123   5.760   6.778
 7821SOL    HW124362   4.053   5.767   6.707
 7821SOL    HW224363   4.149   5.664   6.790
 7822SOL     OW24364   0.778   1.250   4.678
 7822SOL    HW124365   0.823   1.272   4.592
 7822SOL    HW224366   0.767   1.334   4.732
 7823SOL     OW24367   2.771   2.966   6.114
 7823SOL    HW124368   2.770   2.882   6.059
 7823SOL    HW224369   2.844   2.960   6.182
 7824SOL     OW24370   6.064   4.415   2.704
 7824SOL    HW124371   6.098   4.475   2.631
 7824SOL    HW224372   5.973   4.443   2.732
 7825SOL     OW24373   3.780   3.223   3.162
 7825SOL    HW124374   3.721   3.242   3.241
 7825SOL    HW224375   3.841   3.147   3.183
 7826SOL     OW24376   6.496   0.136   0.930
 7826SOL    HW124377   6.489   0.114   1.027
 7826SOL    HW224378   6.442   0.071   0.876
 7827SOL     OW24379   4.344   3.628   0.410
 7827SOL    HW124380   4.362   3.539   0.452
 7827SOL    HW224381   4.395   3.635   0.324
 7828SOL     OW24382   1.348   6.770   1.019
 7828SOL    HW124383   1.325   6.692   1.077
 7828SOL    HW224384   1.268   6.827   1.005
 7829SOL     OW24385   3.675   3.697   2.403
 7829SOL    HW124386   3.716   3.786   2.425
 7829SOL    HW224387   3.730   3.651   2.333
 7830SOL     OW24388   6.688   4.120   0.634
 7830SOL    HW124389   6.697   4.034   0.684
 7830SOL    HW224390   6.776   4.168   0.633
 7831SOL     OW24391   2.081   2.301   0.536
 7831SOL    HW124392   2.025   2.271   0.613
 7831SOL    HW224393   2.080   2.401   0.530
 7832SOL     OW24394   3.721   2.951   6.182
 7832SOL    HW124395   3.783   2.875   6.160
 7832SOL    HW224396   3.765   3.037   6.157
 7833SOL     OW24397   6.750   6.590   1.931
 7833SOL    HW124398   6.711   6.500   1.917
 7833SOL    HW224399   6.797   6.620   1.848
 7834SOL     OW24400   5.522   1.190   1.220
 7834SOL    HW124401   5.514   1.223   1.315
 7834SOL    HW224402   5.504   1.092   1.218
 7835SOL     OW24403   2.088   2.060   4.294
 7835SOL    HW124404   1.990   2.077   4.284
 7835SOL    HW224405   2.115   1.985   4.232
 7836SOL     OW24406   1.946   0.489   6.909
 7836SOL    HW124407   1.989   0.522   6.825
 7836SOL    HW224408   1.915   0.567   6.964
 7837SOL     OW24409   5.527   5.632   2.209
 7837SOL    HW124410   5.613   5.666   2.247
 7837SOL    HW224411   5.533   5.629   2.109
 7838SOL     OW24412   3.791   6.217   4.007
 7838SOL    HW124413   3.887   6.187   3.998
 7838SOL    HW224414   3.733   6.159   3.950
 7839SOL     OW24415   6.655   4.256   3.394
 7839SOL    HW124416   6.562   4.284   3.374
 7839SOL    HW224417   6.686   4.300   3.479
 7840SOL     OW24418   4.695   3.259   5.884
 7840SOL    HW124419   4.782   3.272   5.836
 7840SOL    HW224420   4.628   3.325   5.848
 7841SOL     OW24421   1.155   2.364   6.339
 7841SOL    HW124422   1.203   2.406   6.416
 7841SOL    HW224423   1.129   2.435   6.273
 7842SOL     OW24424   2.501   0.613   2.699
 7842SOL    HW124425   2.514   0.666   2.615
 7842SOL    HW224426   2.470   0.521   2.676
 7843SOL     OW24427   0.240   2.442   2.311
 7843SOL    HW124428   0.220   2.405   2.401
 7843SOL    HW224429   0.169   2.509   2.286
 7844SOL     OW24430   4.077   2.092   3.591
 7844SOL    HW124431   4.070   1.992   3.591
 7844SOL    HW224432   3.986   2.132   3.602
 7845SOL     OW24433   0.429   1.042   4.369
 7845SOL    HW124434   0.403   0.946   4.374
 7845SOL    HW224435   0.457   1.074   4.460
 7846SOL     OW24436   4.860   0.262   2.208
 7846SOL    HW124437   4.905   0.318   2.278
 7846SOL    HW224438   4.826   0.322   2.135
 7847SOL     OW24439   0.203   0.062   6.909
 7847SOL    HW124440   0.202   7.022   6.985
 7847SOL    HW224441   0.212   0.012   6.823
 7848SOL     OW24442   3.451   3.918   1.374
 7848SOL    HW124443   3.492   3.889   1.461
 7848SOL    HW224444   3.352   3.907   1.379
 7849SOL     OW24445   5.058   4.359   4.796
 7849SOL    HW124446   4.986   4.416   4.835
 7849SOL    HW224447   5.147   4.400   4.814
 7850SOL     OW24448   0.955   2.573   4.762
 7850SOL    HW124449   0.997   2.578   4.671
 7850SOL    HW224450   0.860   2.545   4.754
 7851SOL     OW24451   3.865   6.648   1.057
 7851SOL    HW124452   3.805   6.727   1.064
 7851SOL    HW224453   3.817   6.575   1.008
 7852SOL     OW24454   2.763   6.970   0.047
 7852SOL    HW124455   2.746   0.030   0.097
 7852SOL    HW224456   2.741   6.983   6.976
 7853SOL     OW24457   2.293   2.460   0.174
 7853SOL    HW124458   2.273   2.373   0.129
 7853SOL    HW224459   2.210   2.497   0.216
 7854SOL     OW24460   3.868   3.880   3.699
 7854SOL    HW124461   3.770   3.859   3.695
 7854SOL    HW224462   3.896   3.923   3.613
 7855SOL     OW24463   3.009   0.130   4.733
 7855SOL    HW124464   3.067   0.053   4.760
 7855SOL    HW224465   2.976   0.115   4.640
 7856SOL     OW24466   2.565   3.746   6.762
 7856SOL    HW124467   2.616   3.811   6.818
 7856SOL    HW224468   2.577   3.654   6.798
 7857SOL     OW24469   0.822   2.591   5.190
 7857SOL    HW124470   0.731   2.632   5.199
 7857SOL    HW224471   0.847   2.547   5.277
 7858SOL     OW24472   5.497   3.188   2.744
 7858SOL    HW124473   5.471   3.270   2.795
 7858SOL    HW224474   5.593   3.167   2.762
 7859SOL     OW24475   0.572   6.614   0.733
 7859SOL    HW124476   0.489   6.653   0.694
 7859SOL    HW224477   0.575   6.633   0.831
 7860SOL     OW24478   4.573   6.374   1.291
 7860SOL    HW124479   4.526   6.325   1.218
 7860SOL    HW224480   4.511   6.440   1.333
 7861SOL     OW24481   5.729   3.845   0.639
 7861SOL    HW124482   5.796   3.914   0.611
 7861SOL    HW224483   5.739   3.765   0.580
 7862SOL     OW24484   3.034   4.552   1.679
 7862SOL    HW124485   2.972   4.551   1.757
 7862SOL    HW224486   3.117   4.603   1.703
 7863SOL     OW24487   4.282   5.946   2.770
 7863SOL    HW124488   4.251   5.979   2.859
 7863SOL    HW224489   4.294   5.847   2.774
 7864SOL     OW24490   1.124   5.524   5.200
 7864SOL    HW124491   1.181   5.581   5.258
 7864SOL    HW224492   1.075   5.582   5.134
 7865SOL     OW24493   4.592   0.516   3.057
 7865SOL    HW124494   4.682   0.549   3.027
 7865SOL    HW224495   4.539   0.593   3.093
 7866SOL     OW24496   2.811   2.555   5.760
 7866SOL    HW124497   2.907   2.526   5.763
 7866SOL    HW224498   2.804   2.643   5.713
 7867SOL     OW24499   5.883   3.233   1.571
 7867SOL    HW124500   5.783   3.239   1.566
 7867SOL    HW224501   5.922   3.316   1.531
 7868SOL     OW24502   4.804   0.297   0.295
 7868SOL    HW124503   4.750   0.215   0.278
 7868SOL    HW224504   4.832   0.337   0.208
 7869SOL     OW24505   6.161   1.652   4.383
 7869SOL    HW124506   6.151   1.695   4.293
 7869SOL    HW224507   6.234   1.584   4.380
 7870SOL     OW24508   6.937   0.227   2.786
 7870SOL    HW124509   6.896   0.277   2.710
 7870SOL    HW224510   7.012   0.282   2.825
 7871SOL     OW24511   5.546   3.105   4.511
 7871SOL    HW124512   5.591   3.194   4.504
 7871SOL    HW224513   5.611   3.033   4.487
 7872SOL     OW24514   0.095   4.249   4.039
 7872SOL    HW124515   0.024   4.182   4.019
 7872SOL    HW224516   0.161   4.209   4.103
 7873SOL     OW24517   6.864   5.489   4.657
 7873SOL    HW124518   6.859   5.529   4.566
 7873SOL    HW224519   6.954   5.509   4.697
 7874SOL     OW24520   5.941   0.389   0.401
 7874SOL    HW124521   5.974   0.415   0.311
 7874SOL    HW224522   5.958   0.292   0.417
 7875SOL     OW24523   4.630   3.130   0.391
 7875SOL    HW124524   4.588   3.126   0.301
 7875SOL    HW224525   4.720   3.087   0.388
 7876SOL     OW24526   0.341   1.566   4.941
 7876SOL    HW124527   0.321   1.469   4.954
 7876SOL    HW224528   0.429   1.588   4.984
 7877SOL     OW24529   5.776   3.564   2.509
 7877SOL    HW124530   5.766   3.476   2.462
 7877SOL    HW224531   5.872   3.586   2.518
 7878SOL     OW24532   3.664   3.791   1.145
 7878SOL    HW124533   3.640   3.755   1.055
 7878SOL    HW224534   3.727   3.727   1.190
 7879SOL     OW24535   6.626   1.110   4.755
 7879SOL    HW124536   6.660   1.202   4.738
 7879SOL    HW224537   6.703   1.045   4.748
 7880SOL     OW24538   1.627   6.380   6.320
 7880SOL    HW124539   1.581   6.306   6.270
 7880SOL    HW224540   1.691   6.340   6.386
 7881SOL     OW24541   0.920   5.492   4.418
 7881SOL    HW124542   0.856   5.426   4.458
 7881SOL    HW224543   0.869   5.556   4.361
 7882SOL     OW24544   1.731   4.950   1.576
 7882SOL    HW124545   1.651   5.008   1.589
 7882SOL    HW224546   1.701   4.859   1.546
 7883SOL     OW24547   3.172   1.747   2.461
 7883SOL    HW124548   3.108   1.673   2.443
 7883SOL    HW224549   3.207   1.783   2.374
 7884SOL     OW24550   1.093   3.224   4.638
 7884SOL    HW124551   1.071   3.272   4.723
 7884SOL    HW224552   1.015   3.166   4.612
 7885SOL     OW24553   6.181   5.372   2.402
 7885SOL    HW124554   6.144   5.339   2.488
 7885SOL    HW224555   6.201   5.294   2.342
 7886SOL     OW24556   4.165   4.835   2.609
 7886SOL    HW124557   4.160   4.934   2.593
 7886SOL    HW224558   4.162   4.787   2.521
 7887SOL     OW24559   0.844   3.301   0.751
 7887SOL    HW124560   0.918   3.368   0.758
 7887SOL    HW224561   0.875   3.213   0.788
 7888SOL     OW24562   6.627   1.360   5.033
 7888SOL    HW124563   6.566   1.388   5.107
 7888SOL    HW224564   6.716   1.403   5.045
 7889SOL     OW24565   5.542   5.179   0.645
 7889SOL    HW124566   5.633   5.203   0.610
 7889SOL    HW224567   5.483   5.260   0.641
 7890SOL     OW24568   2.234   2.894   3.175
 7890SOL    HW124569   2.175   2.959   3.125
 7890SOL    HW224570   2.329   2.921   3.163
 7891SOL     OW24571   6.522   1.168   4.344
 7891SOL    HW124572   6.608   1.213   4.365
 7891SOL    HW224573   6.488   1.201   4.256
 7892SOL     OW24574   1.396   1.383   4.883
 7892SOL    HW124575   1.435   1.475   4.890
 7892SOL    HW224576   1.467   1.315   4.901
 7893SOL     OW24577   6.042   6.441   0.870
 7893SOL    HW124578   5.950   6.477   0.885
 7893SOL    HW224579   6.050   6.352   0.914
 7894SOL     OW24580   3.436   1.091   6.272
 7894SOL    HW124581   3.372   1.112   6.198
 7894SOL    HW224582   3.386   1.054   6.350
 7895SOL     OW24583   6.241   6.690   2.511
 7895SOL    HW124584   6.178   6.748   2.459
 7895SOL    HW224585   6.233   6.712   2.608
 7896SOL     OW24586   2.356   1.711   0.392
 7896SOL    HW124587   2.318   1.622   0.370
 7896SOL    HW224588   2.304   1.752   0.468
 7897SOL     OW24589   4.665   1.362   0.893
 7897SOL    HW124590   4.623   1.272   0.894
 7897SOL    HW224591   4.618   1.422   0.958
 7898SOL     OW24592   5.059   6.690   3.254
 7898SOL    HW124593   5.109   6.747   3.319
 7898SOL    HW224594   4.962   6.688   3.280
 7899SOL     OW24595   5.798   4.299   3.080
 7899SOL    HW124596   5.732   4.314   3.154
 7899SOL    HW224597   5.798   4.203   3.053
 7900SOL     OW24598   0.371   3.248   0.605
 7900SOL    HW124599   0.439   3.216   0.672
 7900SOL    HW224600   0.287   3.195   0.614
 7901SOL     OW24601   0.490   2.150   0.328
 7901SOL    HW124602   0.416   2.203   0.370
 7901SOL    HW224603   0.470   2.052   0.339
 7902SOL     OW24604   1.670   6.698   1.340
 7902SOL    HW124605   1.595   6.632   1.340
 7902SOL    HW224606   1.651   6.770   1.406
 7903SOL     OW24607   3.191   1.981   5.550
 7903SOL    HW124608   3.170   1.995   5.647
 7903SOL    HW224609   3.158   1.892   5.521
 7904SOL     OW24610   4.886   2.949   2.469
 7904SOL    HW124611   4.856   2.979   2.560
 7904SOL    HW224612   4.957   3.012   2.436
 7905SOL     OW24613   6.331   2.263   1.327
 7905SOL    HW124614   6.305   2.180   1.377
 7905SOL    HW224615   6.421   2.293   1.356
 7906SOL     OW24616   0.889   5.595   6.660
 7906SOL    HW124617   0.969   5.565   6.713
 7906SOL    HW224618   0.907   5.687   6.624
 7907SOL     OW24619   6.170   6.484   2.905
 7907SOL    HW124620   6.258   6.500   2.950
 7907SOL    HW224621   6.138   6.568   2.861
 7908SOL     OW24622   2.034   0.431   6.214
 7908SOL    HW124623   2.122   0.385   6.224
 7908SOL    HW224624   2.048   0.528   6.193
 7909SOL     OW24625   6.549   3.138   1.348
 7909SOL    HW124626   6.636   3.165   1.306
 7909SOL    HW224627   6.564   3.119   1.445
 7910SOL     OW24628   1.466   4.670   4.992
 7910SOL    HW124629   1.434   4.667   4.897
 7910SOL    HW224630   1.391   4.702   5.051
 7911SOL     OW24631   5.708   4.782   5.657
 7911SOL    HW124632   5.694   4.703   5.717
 7911SOL    HW224633   5.802   4.781   5.622
 7912SOL     OW24634   5.851   5.814   0.576
 7912SOL    HW124635   5.798   5.792   0.658
 7912SOL    HW224636   5.803   5.885   0.524
 7913SOL     OW24637   1.488   5.195   6.914
 7913SOL    HW124638   1.515   5.109   6.957
 7913SOL    HW224639   1.439   5.175   6.829
 7914SOL     OW24640   1.010   6.984   4.479
 7914SOL    HW124641   1.008   7.024   4.571
 7914SOL    HW224642   0.931   7.016   4.427
 7915SOL     OW24643   2.836   5.099   2.252
 7915SOL    HW124644   2.747   5.142   2.238
 7915SOL    HW224645   2.827   5.000   2.242
 7916SOL     OW24646   1.000   0.135   3.572
 7916SOL    HW124647   1.000   0.164   3.668
 7916SOL    HW224648   1.046   0.204   3.516
 7917SOL     OW24649   4.906   1.824   2.268
 7917SOL    HW124650   4.878   1.855   2.359
 7917SOL    HW224651   4.830   1.775   2.225
 7918SOL     OW24652   1.988   3.076   2.722
 7918SOL    HW124653   2.064   3.038   2.669
 7918SOL    HW224654   1.958   3.162   2.680
 7919SOL     OW24655   0.711   6.283   4.533
 7919SOL    HW124656   0.748   6.190   4.535
 7919SOL    HW224657   0.786   6.349   4.538
 7920SOL     OW24658   4.912   0.153   1.288
 7920SOL    HW124659   4.893   0.183   1.381
 7920SOL    HW224660   5.006   0.177   1.264
 7921SOL     OW24661   5.306   2.830   0.581
 7921SOL    HW124662   5.350   2.750   0.541
 7921SOL    HW224663   5.235   2.800   0.646
 7922SOL     OW24664   2.650   6.991   2.591
 7922SOL    HW124665   2.602   6.949   2.514
 7922SOL    HW224666   2.583   0.001   2.657
 7923SOL     OW24667   4.582   0.595   0.144
 7923SOL    HW124668   4.608   0.576   0.050
 7923SOL    HW224669   4.664   0.592   0.203
 7924SOL     OW24670   5.713   6.151   0.256
 7924SOL    HW124671   5.706   6.053   0.238
 7924SOL    HW224672   5.622   6.191   0.264
 7925SOL     OW24673   1.259   4.990   6.191
 7925SOL    HW124674   1.346   5.039   6.178
 7925SOL    HW224675   1.271   4.919   6.261
 7926SOL     OW24676   5.267   5.766   5.957
 7926SOL    HW124677   5.250   5.679   5.910
 7926SOL    HW224678   5.331   5.821   5.905
 7927SOL     OW24679   4.425   6.896   3.485
 7927SOL    HW124680   4.466   6.869   3.398
 7927SOL    HW224681   4.366   6.822   3.518
 7928SOL     OW24682   5.707   1.834   3.875
 7928SOL    HW124683   5.739   1.870   3.788
 7928SOL    HW224684   5.611   1.859   3.889
 7929SOL     OW24685   4.630   4.115   5.716
 7929SOL    HW124686   4.641   4.068   5.628
 7929SOL    HW224687   4.588   4.052   5.782
 7930SOL     OW24688   4.265   5.845   6.500
 7930SOL    HW124689   4.253   5.760   6.552
 7930SOL    HW224690   4.269   5.922   6.564
 7931SOL     OW24691   4.919   1.487   0.798
 7931SOL    HW124692   4.827   1.450   0.810
 7931SOL    HW224693   4.976   1.420   0.751
 7932SOL     OW24694   1.098   3.925   1.470
 7932SOL    HW124695   1.112   3.956   1.376
 7932SOL    HW224696   1.080   3.827   1.470
 7933SOL     OW24697   1.017   1.902   6.941
 7933SOL    HW124698   1.076   1.891   6.861
 7933SOL    HW224699   0.935   1.954   6.915
 7934SOL     OW24700   0.098   5.370   1.067
 7934SOL    HW124701   0.078   5.286   1.018
 7934SOL    HW224702   0.014   5.420   1.084
 7935SOL     OW24703   6.804   3.465   3.377
 7935SOL    HW124704   6.724   3.499   3.426
 7935SOL    HW224705   6.777   3.395   3.311
 7936SOL     OW24706   2.564   6.023   3.486
 7936SOL    HW124707   2.601   6.112   3.512
 7936SOL    HW224708   2.556   5.965   3.567
 7937SOL     OW24709   4.575   1.072   1.204
 7937SOL    HW124710   4.477   1.071   1.222
 7937SOL    HW224711   4.624   1.078   1.291
 7938SOL     OW24712   2.526   6.900   3.249
 7938SOL    HW124713   2.554   6.867   3.159
 7938SOL    HW224714   2.606   6.934   3.299
 7939SOL     OW24715   1.544   0.784   2.543
 7939SOL    HW124716   1.448   0.774   2.569
 7939SOL    HW224717   1.585   0.693   2.533
 7940SOL     OW24718   5.941   1.693   5.002
 7940SOL    HW124719   6.035   1.715   4.978
 7940SOL    HW224720   5.882   1.771   4.980
 7941SOL     OW24721   3.323   6.925   1.036
 7941SOL    HW124722   3.309   6.984   1.115
 7941SOL    HW224723   3.369   6.976   0.964
 7942SOL     OW24724   1.190   4.253   0.683
 7942SOL    HW124725   1.267   4.283   0.627
 7942SOL    HW224726   1.120   4.324   0.684
 7943SOL     OW24727   1.172   6.218   6.125
 7943SOL    HW124728   1.166   6.133   6.178
 7943SOL    HW224729   1.092   6.275   6.144
 7944SOL     OW24730   1.577   1.851   1.274
 7944SOL    HW124731   1.669   1.815   1.285
 7944SOL    HW224732   1.528   1.848   1.362
 7945SOL     OW24733   6.169   3.354   2.899
 7945SOL    HW124734   6.152   3.317   2.807
 7945SOL    HW224735   6.237   3.297   2.945
 7946SOL     OW24736   4.288   1.622   6.232
 7946SOL    HW124737   4.348   1.542   6.221
 7946SOL    HW224738   4.281   1.670   6.144
 7947SOL     OW24739   6.981   3.767   6.230
 7947SOL    HW124740   0.056   3.771   6.232
 7947SOL    HW224741   6.952   3.687   6.177
 7948SOL     OW24742   1.282   6.187   0.950
 7948SOL    HW124743   1.292   6.118   0.878
 7948SOL    HW224744   1.195   6.173   0.997
 7949SOL     OW24745   2.490   5.617   5.294
 7949SOL    HW124746   2.448   5.531   5.264
 7949SOL    HW224747   2.579   5.598   5.336
 7950SOL     OW24748   6.449   4.341   5.598
 7950SOL    HW124749   6.492   4.273   5.659
 7950SOL    HW224750   6.454   4.431   5.641
 7951SOL     OW24751   4.148   0.060   2.988
 7951SOL    HW124752   4.060   0.072   2.941
 7951SOL    HW224753   4.220   0.108   2.938
 7952SOL     OW24754   6.757   3.632   5.063
 7952SOL    HW124755   6.853   3.643   5.089
 7952SOL    HW224756   6.721   3.549   5.105
 7953SOL     OW24757   1.932   0.293   0.365
 7953SOL    HW124758   1.840   0.265   0.340
 7953SOL    HW224759   1.935   0.391   0.379
 7954SOL     OW24760   3.543   3.033   0.030
 7954SOL    HW124761   3.510   3.063   6.966
 7954SOL    HW224762   3.642   3.027   0.030
 7955SOL     OW24763   0.627   1.424   6.877
 7955SOL    HW124764   0.685   1.355   6.835
 7955SOL    HW224765   0.632   1.509   6.826
 7956SOL     OW24766   0.189   6.989   0.151
 7956SOL    HW124767   0.132   6.914   0.182
 7956SOL    HW224768   0.190   0.036   0.220
 7957SOL     OW24769   5.178   1.482   5.562
 7957SOL    HW124770   5.094   1.526   5.531
 7957SOL    HW224771   5.209   1.418   5.493
 7958SOL     OW24772   4.240   2.152   0.027
 7958SOL    HW124773   4.322   2.126   0.079
 7958SOL    HW224774   4.266   2.181   6.960
 7959SOL     OW24775   5.046   3.013   0.077
 7959SOL    HW124776   4.949   3.020   0.058
 7959SOL    HW224777   5.097   3.007   7.016
 7960SOL     OW24778   0.866   1.467   5.098
 7960SOL    HW124779   0.844   1.565   5.105
 7960SOL    HW224780   0.838   1.434   5.008
 7961SOL     OW24781   5.966   0.065   0.783
 7961SOL    HW124782   5.881   0.091   0.736
 7961SOL    HW224783   6.028   0.143   0.784
 7962SOL     OW24784   5.964   6.683   4.960
 7962SOL    HW124785   6.012   6.675   5.047
 7962SOL    HW224786   5.925   6.775   4.951
 7963SOL     OW24787   5.813   6.303   2.983
 7963SOL    HW124788   5.898   6.324   3.032
 7963SOL    HW224789   5.778   6.386   2.939
 7964SOL     OW24790   6.335   3.279   1.359
 7964SOL    HW124791   6.381   3.349   1.414
 7964SOL    HW224792   6.394   3.198   1.352
 7965SOL     OW24793   4.906   1.731   6.468
 7965SOL    HW124794   4.811   1.761   6.461
 7965SOL    HW224795   4.952   1.747   6.381
 7966SOL     OW24796   5.632   3.369   4.892
 7966SOL    HW124797   5.650   3.404   4.984
 7966SOL    HW224798   5.543   3.403   4.860
 7967SOL     OW24799   1.386   4.514   0.858
 7967SOL    HW124800   1.482   4.496   0.880
 7967SOL    HW224801   1.340   4.428   0.836
 7968SOL     OW24802   2.036   2.687   3.721
 7968SOL    HW124803   1.999   2.743   3.646
 7968SOL    HW224804   1.967   2.678   3.793
 7969SOL     OW24805   3.201   4.383   6.455
 7969SOL    HW124806   3.259   4.304   6.436
 7969SOL    HW224807   3.255   4.455   6.498
 7970SOL     OW24808   6.672   2.859   4.060
 7970SOL    HW124809   6.748   2.795   4.047
 7970SOL    HW224810   6.622   2.835   4.143
 7971SOL     OW24811   3.171   1.005   6.831
 7971SOL    HW124812   3.221   0.920   6.809
 7971SOL    HW224813   3.089   0.982   6.884
 7972SOL     OW24814   3.914   4.044   4.414
 7972SOL    HW124815   3.872   4.059   4.504
 7972SOL    HW224816   3.933   4.133   4.372
 7973SOL     OW24817   6.562   4.836   2.164
 7973SOL    HW124818   6.529   4.746   2.193
 7973SOL    HW224819   6.651   4.825   2.119
 7974SOL     OW24820   0.600   3.423   4.702
 7974SOL    HW124821   0.537   3.346   4.711
 7974SOL    HW224822   0.568   3.499   4.759
 7975SOL     OW24823   4.444   0.260   6.913
 7975SOL    HW124824   4.537   0.268   6.878
 7975SOL    HW224825   4.388   0.334   6.875
 7976SOL     OW24826   0.820   0.629   0.277
 7976SOL    HW124827   0.777   0.576   0.351
 7976SOL    HW224828   0.838   0.569   0.200
 7977SOL     OW24829   5.341   5.261   2.970
 7977SOL    HW124830   5.291   5.338   3.010
 7977SOL    HW224831   5.299   5.236   2.882
 7978SOL     OW24832   0.257   3.606   1.361
 7978SOL    HW124833   0.225   3.675   1.426
 7978SOL    HW224834   0.317   3.650   1.293
 7979SOL     OW24835   2.945   2.683   5.380
 7979SOL    HW124836   2.941   2.770   5.430
 7979SOL    HW224837   2.854   2.643   5.374
 7980SOL     OW24838   3.599   5.309   2.120
 7980SOL    HW124839   3.524   5.243   2.126
 7980SOL    HW224840   3.672   5.271   2.063
 7981SOL     OW24841   1.649   3.770   4.629
 7981SOL    HW124842   1.660   3.867   4.651
 7981SOL    HW224843   1.737   3.731   4.606
 7982SOL     OW24844   6.855   1.021   6.485
 7982SOL    HW124845   6.789   1.092   6.463
 7982SOL    HW224846   6.946   1.048   6.451
 7983SOL     OW24847   3.683   0.841   2.018
 7983SOL    HW124848   3.693   0.769   2.087
 7983SOL    HW224849   3.773   0.863   1.981
 7984SOL     OW24850   6.588   2.994   3.073
 7984SOL    HW124851   6.595   3.025   3.168
 7984SOL    HW224852   6.502   2.945   3.061
 7985SOL     OW24853   3.020   2.894   5.738
 7985SOL    HW124854   3.119   2.895   5.725
 7985SOL    HW224855   2.975   2.911   5.651
 7986SOL     OW24856   4.098   1.034   3.870
 7986SOL    HW124857   4.186   0.988   3.880
 7986SOL    HW224858   4.093   1.078   3.780
 7987SOL     OW24859   1.064   3.180   6.365
 7987SOL    HW124860   1.065   3.119   6.286
 7987SOL    HW224861   1.004   3.143   6.436
 7988SOL     OW24862   6.348   0.766   0.811
 7988SOL    HW124863   6.286   0.810   0.746
 7988SOL    HW224864   6.388   0.684   0.769
 7989SOL     OW24865   0.422   4.790   1.315
 7989SOL    HW124866   0.412   4.690   1.308
 7989SOL    HW224867   0.515   4.812   1.344
 7990SOL     OW24868   4.525   5.028   4.535
 7990SOL    HW124869   4.517   4.981   4.623
 7990SOL    HW224870   4.487   5.120   4.543
 7991SOL     OW24871   5.912   0.858   4.454
 7991SOL    HW124872   5.999   0.892   4.418
 7991SOL    HW224873   5.890   0.771   4.411
 7992SOL     OW24874   1.832   0.323   6.707
 7992SOL    HW124875   1.839   0.231   6.747
 7992SOL    HW224876   1.848   0.392   6.777
 7993SOL     OW24877   6.387   6.139   0.664
 7993SOL    HW124878   6.375   6.153   0.762
 7993SOL    HW224879   6.321   6.196   0.614
 7994SOL     OW24880   0.124   0.804   4.531
 7994SOL    HW124881   0.060   0.763   4.596
 7994SOL    HW224882   0.128   0.902   4.547
 7995SOL     OW24883   0.195   6.091   1.366
 7995SOL    HW124884   0.240   6.161   1.311
 7995SOL    HW224885   0.206   6.002   1.322
 7996SOL     OW24886   2.140   6.311   3.605
 7996SOL    HW124887   2.059   6.370   3.600
 7996SOL    HW224888   2.138   6.246   3.530
 7997SOL     OW24889   2.146   1.490   5.855
 7997SOL    HW124890   2.095   1.472   5.939
 7997SOL    HW224891   2.107   1.436   5.780
 7998SOL     OW24892   2.279   0.633   1.306
 7998SOL    HW124893   2.308   0.683   1.225
 7998SOL    HW224894   2.204   0.682   1.351
 7999SOL     OW24895   0.495   0.498   3.239
 7999SOL    HW124896   0.473   0.585   3.194
 7999SOL    HW224897   0.512   0.516   3.337
 8000SOL     OW24898   4.231   5.871   0.698
 8000SOL    HW124899   4.156   5.816   0.662
 8000SOL    HW224900   4.239   5.955   0.644
 8001SOL     OW24901   4.964   4.219   1.607
 8001SOL    HW124902   5.026   4.267   1.669
 8001SOL    HW224903   4.874   4.211   1.651
 8002SOL     OW24904   0.823   0.536   4.669
 8002SOL    HW124905   0.823   0.589   4.584
 8002SOL    HW224906   0.848   0.441   4.649
 8003SOL     OW24907   2.928   5.712   3.091
 8003SOL    HW124908   2.961   5.644   3.156
 8003SOL    HW224909   2.906   5.796   3.141
 8004SOL     OW24910   2.147   3.577   4.028
 8004SOL    HW124911   2.179   3.611   3.939
 8004SOL    HW224912   2.119   3.654   4.085
 8005SOL     OW24913   2.674   0.113   3.780
 8005SOL    HW124914   2.725   0.028   3.768
 8005SOL    HW224915   2.649   0.123   3.876
 8006SOL     OW24916   5.060   5.193   6.183
 8006SOL    HW124917   5.032   5.272   6.127
 8006SOL    HW224918   5.025   5.109   6.142
 8007SOL     OW24919   6.941   0.634   0.789
 8007SOL    HW124920   6.991   0.711   0.750
 8007SOL    HW224921   6.914   0.571   0.716
 8008SOL     OW24922   4.317   4.788   0.778
 8008SOL    HW124923   4.299   4.817   0.683
 8008SOL    HW224924   4.332   4.690   0.780
 8009SOL     OW24925   6.683   1.397   1.125
 8009SOL    HW124926   6.720   1.420   1.036
 8009SOL    HW224927   6.696   1.299   1.142
 8010SOL     OW24928   3.648   0.521   6.066
 8010SOL    HW124929   3.641   0.572   5.980
 8010SOL    HW224930   3.699   0.437   6.051
 8011SOL     OW24931   4.020   2.102   2.733
 8011SOL    HW124932   4.040   2.056   2.647
 8011SOL    HW224933   4.084   2.177   2.747
 8012SOL     OW24934   6.319   0.713   4.916
 8012SOL    HW124935   6.271   0.632   4.881
 8012SOL    HW224936   6.381   0.748   4.847
 8013SOL     OW24937   3.871   0.295   3.335
 8013SOL    HW124938   3.821   0.320   3.418
 8013SOL    HW224939   3.902   0.200   3.341
 8014SOL     OW24940   2.341   2.436   3.250
 8014SOL    HW124941   2.358   2.361   3.187
 8014SOL    HW224942   2.342   2.523   3.200
 8015SOL     OW24943   3.379   6.638   4.700
 8015SOL    HW124944   3.424   6.558   4.738
 8015SOL    HW224945   3.416   6.657   4.609
 8016SOL     OW24946   3.400   2.687   5.501
 8016SOL    HW124947   3.410   2.617   5.572
 8016SOL    HW224948   3.348   2.651   5.424
 8017SOL     OW24949   6.112   6.209   0.999
 8017SOL    HW124950   6.029   6.162   0.968
 8017SOL    HW224951   6.095   6.252   1.088
 8018SOL     OW24952   2.853   3.944   0.860
 8018SOL    HW124953   2.950   3.921   0.853
 8018SOL    HW224954   2.799   3.859   0.861
 8019SOL     OW24955   2.338   3.598   0.506
 8019SOL    HW124956   2.381   3.543   0.434
 8019SOL    HW224957   2.269   3.543   0.552
 8020SOL     OW24958   0.032   0.524   6.861
 8020SOL    HW124959   0.046   0.439   6.811
 8020SOL    HW224960   0.120   0.567   6.879
 8021SOL     OW24961   1.362   3.260   0.890
 8021SOL    HW124962   1.422   3.184   0.911
 8021SOL    HW224963   1.295   3.271   0.964
 8022SOL     OW24964   4.305   6.729   2.250
 8022SOL    HW124965   4.357   6.767   2.326
 8022SOL    HW224966   4.310   6.629   2.253
 8023SOL     OW24967   3.960   5.085   2.613
 8023SOL    HW124968   4.053   5.104   2.582
 8023SOL    HW224969   3.898   5.086   2.534
 8024SOL     OW24970   2.439   1.216   6.694
 8024SOL    HW124971   2.390   1.303   6.694
 8024SOL    HW224972   2.427   1.171   6.606
 8025SOL     OW24973   0.850   6.287   1.220
 8025SOL    HW124974   0.826   6.300   1.316
 8025SOL    HW224975   0.778   6.235   1.175
 8026SOL     OW24976   0.792   6.523   6.512
 8026SOL    HW124977   0.739   6.454   6.464
 8026SOL    HW224978   0.879   6.536   6.464
 8027SOL     OW24979   4.066   0.457   6.737
 8027SOL    HW124980   4.044   0.554   6.725
 8027SOL    HW224981   3.999   0.401   6.689
 8028SOL     OW24982   3.706   5.951   6.500
 8028SOL    HW124983   3.648   5.981   6.576
 8028SOL    HW224984   3.746   6.031   6.456
 8029SOL     OW24985   0.842   0.514   1.972
 8029SOL    HW124986   0.880   0.448   2.036
 8029SOL    HW224987   0.862   0.487   1.878
 8030SOL     OW24988   0.296   4.385   1.090
 8030SOL    HW124989   0.266   4.291   1.103
 8030SOL    HW224990   0.355   4.391   1.010
 8031SOL     OW24991   6.903   0.440   2.105
 8031SOL    HW124992   6.898   0.383   2.187
 8031SOL    HW224993   6.985   0.416   2.053
 8032SOL     OW24994   0.146   2.858   0.184
 8032SOL    HW124995   0.047   2.854   0.199
 8032SOL    HW224996   0.178   2.952   0.196
 8033SOL     OW24997   3.523   4.239   1.315
 8033SOL    HW124998   3.512   4.181   1.396
 8033SOL    HW224999   3.452   4.309   1.314
 8034SOL     OW25000   0.800   7.017   5.829
 8034SOL    HW125001   0.751   6.998   5.744
 8034SOL    HW225002   0.759   6.965   5.903
 8035SOL     OW25003   6.000   0.132   4.488
 8035SOL    HW125004   5.939   0.142   4.409
 8035SOL    HW225005   5.975   0.198   4.558
 8036SOL     OW25006   4.883   3.677   3.964
 8036SOL    HW125007   4.905   3.601   4.025
 8036SOL    HW225008   4.890   3.647   3.869
 8037SOL     OW25009   2.502   1.189   5.856
 8037SOL    HW125010   2.478   1.285   5.844
 8037SOL    HW225011   2.592   1.172   5.817
 8038SOL     OW25012   6.403   5.564   2.098
 8038SOL    HW125013   6.417   5.485   2.158
 8038SOL    HW225014   6.310   5.561   2.061
 8039SOL     OW25015   2.125   2.398   5.023
 8039SOL    HW125016   2.149   2.493   5.040
 8039SOL    HW225017   2.170   2.340   5.091
 8040SOL     OW25018   0.618   6.314   6.368
 8040SOL    HW125019   0.622   6.225   6.322
 8040SOL    HW225020   0.539   6.317   6.428
 8041SOL     OW25021   3.260   1.206   3.027
 8041SOL    HW125022   3.252   1.184   3.124
 8041SOL    HW225023   3.347   1.252   3.010
 8042SOL     OW25024   3.579   3.826   6.016
 8042SOL    HW125025   3.600   3.856   6.109
 8042SOL    HW225026   3.483   3.847   5.995
 8043SOL     OW25027   4.889   5.014   0.080
 8043SOL    HW125028   4.904   5.082   0.152
 8043SOL    HW225029   4.797   5.025   0.043
 8044SOL     OW25030   1.271   3.258   1.783
 8044SOL    HW125031   1.298   3.322   1.711
 8044SOL    HW225032   1.182   3.219   1.760
 8045SOL     OW25033   6.152   3.737   5.372
 8045SOL    HW125034   6.055   3.754   5.356
 8045SOL    HW225035   6.206   3.780   5.301
 8046SOL     OW25036   0.036   4.233   1.196
 8046SOL    HW125037   0.111   4.175   1.165
 8046SOL    HW225038   6.991   4.238   1.125
 8047SOL     OW25039   3.105   6.238   6.787
 8047SOL    HW125040   3.095   6.153   6.840
 8047SOL    HW225041   3.078   6.220   6.692
 8048SOL     OW25042   3.907   1.712   6.549
 8048SOL    HW125043   3.882   1.809   6.554
 8048SOL    HW225044   3.913   1.685   6.453
 8049SOL     OW25045   1.885   1.438   0.728
 8049SOL    HW125046   1.906   1.385   0.645
 8049SOL    HW225047   1.903   1.383   0.809
 8050SOL     OW25048   0.378   5.252   5.941
 8050SOL    HW125049   0.416   5.293   6.024
 8050SOL    HW225050   0.429   5.169   5.919
 8051SOL     OW25051   4.643   6.574   2.742
 8051SOL    HW125052   4.580   6.507   2.781
 8051SOL    HW225053   4.737   6.552   2.771
 8052SOL     OW25054   2.877   1.650   3.086
 8052SOL    HW125055   2.926   1.696   3.012
 8052SOL    HW225056   2.904   1.554   3.089
 8053SOL     OW25057   1.295   2.477   6.541
 8053SOL    HW125058   1.243   2.514   6.618
 8053SOL    HW225059   1.345   2.551   6.496
 8054SOL     OW25060   5.284   3.886   5.151
 8054SOL    HW125061   5.198   3.843   5.126
 8054SOL    HW225062   5.270   3.948   5.228
 8055SOL     OW25063   6.380   0.012   0.254
 8055SOL    HW125064   6.470   0.052   0.240
 8055SOL    HW225065   6.328   0.012   0.169
 8056SOL     OW25066   2.734   1.645   3.895
 8056SOL    HW125067   2.754   1.671   3.989
 8056SOL    HW225068   2.815   1.658   3.838
 8057SOL     OW25069   2.976   2.163   2.182
 8057SOL    HW125070   2.935   2.179   2.272
 8057SOL    HW225071   2.960   2.242   2.123
 8058SOL     OW25072   3.824   6.253   1.735
 8058SOL    HW125073   3.744   6.294   1.691
 8058SOL    HW225074   3.826   6.280   1.831
 8059SOL     OW25075   3.856   3.253   5.536
 8059SOL    HW125076   3.882   3.189   5.608
 8059SOL    HW225077   3.910   3.337   5.545
 8060SOL     OW25078   0.209   0.845   6.023
 8060SOL    HW125079   0.230   0.748   6.030
 8060SOL    HW225080   0.268   0.897   6.086
 8061SOL     OW25081   6.729   0.964   1.561
 8061SOL    HW125082   6.673   0.981   1.642
 8061SOL    HW225083   6.693   0.885   1.511
 8062SOL     OW25084   4.665   4.640   5.734
 8062SOL    HW125085   4.694   4.713   5.673
 8062SOL    HW225086   4.669   4.671   5.829
 8063SOL     OW25087   1.970   4.375   3.027
 8063SOL    HW125088   2.056   4.327   3.043
 8063SOL    HW225089   1.982   4.440   2.951
 8064SOL     OW25090   6.977   2.296   0.566
 8064SOL    HW125091   6.968   2.198   0.580
 8064SOL    HW225092   6.939   2.321   0.477
 8065SOL     OW25093   4.873   0.024   6.562
 8065SOL    HW125094   4.946   0.048   6.625
 8065SOL    HW225095   4.902   6.972   6.504
 8066SOL     OW25096   0.260   0.295   6.086
 8066SOL    HW125097   0.277   0.322   6.181
 8066SOL    HW225098   0.171   0.250   6.080
 8067SOL     OW25099   5.505   0.595   4.308
 8067SOL    HW125100   5.575   0.599   4.237
 8067SOL    HW225101   5.477   0.688   4.332
 8068SOL     OW25102   6.816   3.707   1.896
 8068SOL    HW125103   6.809   3.705   1.796
 8068SOL    HW225104   6.910   3.689   1.923
 8069SOL     OW25105   1.184   2.349   2.040
 8069SOL    HW125106   1.093   2.312   2.058
 8069SOL    HW225107   1.227   2.376   2.126
 8070SOL     OW25108   5.683   3.725   1.329
 8070SOL    HW125109   5.713   3.754   1.238
 8070SOL    HW225110   5.730   3.779   1.399
 8071SOL     OW25111   3.097   0.687   5.921
 8071SOL    HW125112   3.177   0.629   5.910
 8071SOL    HW225113   3.019   0.644   5.875
 8072SOL     OW25114   2.265   2.265   5.451
 8072SOL    HW125115   2.266   2.247   5.352
 8072SOL    HW225116   2.355   2.245   5.489
 8073SOL     OW25117   5.592   0.330   6.458
 8073SOL    HW125118   5.576   0.256   6.392
 8073SOL    HW225119   5.504   0.364   6.491
 8074SOL     OW25120   6.648   0.761   0.579
 8074SOL    HW125121   6.567   0.709   0.605
 8074SOL    HW225122   6.658   0.840   0.640
 8075SOL     OW25123   0.279   0.071   1.025
 8075SOL    HW125124   0.376   0.094   1.018
 8075SOL    HW225125   0.240   0.062   0.933
 8076SOL     OW25126   6.466   6.439   0.383
 8076SOL    HW125127   6.469   6.460   0.285
 8076SOL    HW225128   6.506   6.348   0.398
 8077SOL     OW25129   6.129   4.191   1.490
 8077SOL    HW125130   6.221   4.227   1.470
 8077SOL    HW225131   6.093   4.236   1.572
 8078SOL     OW25132   6.298   1.145   1.617
 8078SOL    HW125133   6.227   1.180   1.678
 8078SOL    HW225134   6.295   1.194   1.530
 8079SOL     OW25135   0.449   1.120   7.004
 8079SOL    HW125136   0.396   1.159   6.928
 8079SOL    HW225137   0.417   1.159   0.065
 8080SOL     OW25138   1.850   3.713   3.659
 8080SOL    HW125139   1.848   3.700   3.758
 8080SOL    HW225140   1.769   3.763   3.630
 8081SOL     OW25141   6.592   0.356   5.667
 8081SOL    HW125142   6.681   0.389   5.634
 8081SOL    HW225143   6.562   0.280   5.611
 8082SOL     OW25144   4.268   2.345   4.564
 8082SOL    HW125145   4.352   2.399   4.561
 8082SOL    HW225146   4.248   2.319   4.659
 8083SOL     OW25147   6.465   2.953   4.543
 8083SOL    HW125148   6.465   2.895   4.624
 8083SOL    HW225149   6.504   3.042   4.566
 8084SOL     OW25150   5.003   1.407   6.457
 8084SOL    HW125151   4.975   1.457   6.539
 8084SOL    HW225152   5.067   1.463   6.405
 8085SOL     OW25153   1.827   6.027   4.053
 8085SOL    HW125154   1.738   5.982   4.053
 8085SOL    HW225155   1.898   5.961   4.027
 8086SOL     OW25156   6.863   2.174   2.666
 8086SOL    HW125157   6.820   2.258   2.634
 8086SOL    HW225158   6.923   2.194   2.743
 8087SOL     OW25159   6.853   1.452   6.445
 8087SOL    HW125160   6.902   1.368   6.422
 8087SOL    HW225161   6.909   1.531   6.419
 8088SOL     OW25162   0.220   6.901   5.162
 8088SOL    HW125163   0.154   6.844   5.209
 8088SOL    HW225164   0.273   6.953   5.229
 8089SOL     OW25165   6.567   1.683   6.861
 8089SOL    HW125166   6.619   1.598   6.849
 8089SOL    HW225167   6.484   1.679   6.805
 8090SOL     OW25168   4.469   2.447   5.181
 8090SOL    HW125169   4.449   2.531   5.231
 8090SOL    HW225170   4.411   2.443   5.099
 8091SOL     OW25171   0.260   4.006   4.795
 8091SOL    HW125172   0.174   4.044   4.761
 8091SOL    HW225173   0.331   4.017   4.725
 8092SOL     OW25174   4.958   0.290   5.900
 8092SOL    HW125175   4.867   0.266   5.932
 8092SOL    HW225176   5.024   0.222   5.932
 8093SOL     OW25177   3.338   6.069   3.471
 8093SOL    HW125178   3.378   6.001   3.533
 8093SOL    HW225179   3.375   6.055   3.379
 8094SOL     OW25180   2.223   4.108   4.303
 8094SOL    HW125181   2.289   4.180   4.284
 8094SOL    HW225182   2.228   4.039   4.231
 8095SOL     OW25183   1.137   5.327   4.910
 8095SOL    HW125184   1.146   5.411   4.857
 8095SOL    HW225185   1.228   5.288   4.926
 8096SOL     OW25186   0.914   4.877   0.964
 8096SOL    HW125187   0.905   4.793   0.910
 8096SOL    HW225188   0.945   4.951   0.904
 8097SOL     OW25189   4.388   6.643   6.532
 8097SOL    HW125190   4.371   6.739   6.553
 8097SOL    HW225191   4.347   6.586   6.603
 8098SOL     OW25192   2.034   5.751   4.804
 8098SOL    HW125193   1.993   5.761   4.895
 8098SOL    HW225194   2.133   5.752   4.812
 8099SOL     OW25195   1.976   4.178   2.692
 8099SOL    HW125196   1.925   4.160   2.607
 8099SOL    HW225197   1.931   4.130   2.768
 8100SOL     OW25198   7.015   0.241   0.263
 8100SOL    HW125199   0.056   0.260   0.191
 8100SOL    HW225200   7.010   0.319   0.325
 8101SOL     OW25201   2.167   6.045   0.539
 8101SOL    HW125202   2.190   6.098   0.620
 8101SOL    HW225203   2.114   6.102   0.476
 8102SOL     OW25204   1.079   4.076   4.205
 8102SOL    HW125205   1.093   4.045   4.111
 8102SOL    HW225206   1.076   4.176   4.207
 8103SOL     OW25207   4.250   0.685   1.222
 8103SOL    HW125208   4.319   0.641   1.279
 8103SOL    HW225209   4.253   0.784   1.235
 8104SOL     OW25210   1.232   5.551   6.883
 8104SOL    HW125211   1.305   5.500   6.838
 8104SOL    HW225212   1.146   5.502   6.874
 8105SOL     OW25213   7.023   6.981   3.527
 8105SOL    HW125214   0.007   6.930   3.441
 8105SOL    HW225215   6.948   6.943   3.581
 8106SOL     OW25216   2.942   6.965   6.143
 8106SOL    HW125217   2.887   6.898   6.192
 8106SOL    HW225218   2.943   6.945   6.046
 8107SOL     OW25219   1.140   6.784   0.047
 8107SOL    HW125220   1.077   6.862   0.044
 8107SOL    HW225221   1.211   6.801   0.116
 8108SOL     OW25222   1.337   1.337   0.148
 8108SOL    HW125223   1.326   1.351   0.246
 8108SOL    HW225224   1.343   1.239   0.129
 8109SOL     OW25225   6.829   3.287   2.270
 8109SOL    HW125226   6.779   3.365   2.307
 8109SOL    HW225227   6.922   3.314   2.246
 8110SOL     OW25228   4.483   4.676   0.441
 8110SOL    HW125229   4.531   4.755   0.480
 8110SOL    HW225230   4.386   4.698   0.429
 8111SOL     OW25231   6.204   1.055   2.321
 8111SOL    HW125232   6.253   1.106   2.250
 8111SOL    HW225233   6.265   1.043   2.400
 8112SOL     OW25234   1.938   5.273   6.028
 8112SOL    HW125235   1.928   5.174   6.028
 8112SOL    HW225236   2.027   5.297   6.068
 8113SOL     OW25237   4.886   4.974   6.297
 8113SOL    HW125238   4.965   4.919   6.270
 8113SOL    HW225239   4.917   5.058   6.341
 8114SOL     OW25240   1.838   3.547   2.730
 8114SOL    HW125241   1.805   3.641   2.743
 8114SOL    HW225242   1.819   3.518   2.636
 8115SOL     OW25243   1.938   1.671   5.996
 8115SOL    HW125244   1.977   1.601   6.055
 8115SOL    HW225245   1.994   1.754   6.000
 8116SOL     OW25246   3.881   3.459   2.000
 8116SOL    HW125247   3.971   3.494   1.976
 8116SOL    HW225248   3.891   3.384   2.066
 8117SOL     OW25249   1.905   6.639   3.671
 8117SOL    HW125250   1.955   6.710   3.621
 8117SOL    HW225251   1.818   6.677   3.703
 8118SOL     OW25252   6.621   2.855   6.688
 8118SOL    HW125253   6.567   2.876   6.770
 8118SOL    HW225254   6.656   2.940   6.649
 8119SOL     OW25255   5.214   6.270   6.658
 8119SOL    HW125256   5.279   6.338   6.623
 8119SOL    HW225257   5.166   6.228   6.582
 8120SOL     OW25258   2.284   6.188   2.469
 8120SOL    HW125259   2.348   6.126   2.426
 8120SOL    HW225260   2.281   6.171   2.567
 8121SOL     OW25261   1.807   2.439   2.330
 8121SOL    HW125262   1.769   2.456   2.421
 8121SOL    HW225263   1.753   2.488   2.262
 8122SOL     OW25264   0.691   4.268   1.136
 8122SOL    HW125265   0.629   4.311   1.201
 8122SOL    HW225266   0.744   4.197   1.182
 8123SOL     OW25267   6.919   2.164   6.594
 8123SOL    HW125268   6.901   2.066   6.600
 8123SOL    HW225269   6.897   2.208   6.681
 8124SOL     OW25270   6.031   6.331   5.522
 8124SOL    HW125271   5.947   6.278   5.532
 8124SOL    HW225272   6.089   6.288   5.453
 8125SOL     OW25273   1.179   5.268   1.675
 8125SOL    HW125274   1.273   5.293   1.697
 8125SOL    HW225275   1.158   5.179   1.714
 8126SOL     OW25276   3.221   5.854   5.056
 8126SOL    HW125277   3.204   5.910   5.137
 8126SOL    HW225278   3.193   5.904   4.974
 8127SOL     OW25279   3.920   1.678   6.268
 8127SOL    HW125280   4.003   1.723   6.234
 8127SOL    HW225281   3.887   1.615   6.198
 8128SOL     OW25282   3.099   3.060   0.926
 8128SOL    HW125283   3.186   3.108   0.932
 8128SOL    HW225284   3.115   2.964   0.901
 8129SOL     OW25285   0.768   2.296   2.980
 8129SOL    HW125286   0.820   2.313   3.064
 8129SOL    HW225287   0.793   2.363   2.911
 8130SOL     OW25288   6.767   6.188   6.830
 8130SOL    HW125289   6.719   6.224   6.910
 8130SOL    HW225290   6.784   6.263   6.765
 8131SOL     OW25291   1.793   2.349   0.713
 8131SOL    HW125292   1.790   2.348   0.813
 8131SOL    HW225293   1.732   2.421   0.679
 8132SOL     OW25294   6.184   1.766   4.880
 8132SOL    HW125295   6.280   1.751   4.902
 8132SOL    HW225296   6.170   1.755   4.782
 8133SOL     OW25297   3.800   5.071   1.372
 8133SOL    HW125298   3.742   5.138   1.417
 8133SOL    HW225299   3.766   5.055   1.279
 8134SOL     OW25300   5.752   2.399   5.938
 8134SOL    HW125301   5.754   2.303   5.911
 8134SOL    HW225302   5.697   2.410   6.021
 8135SOL     OW25303   2.352   6.548   1.962
 8135SOL    HW125304   2.391   6.481   1.898
 8135SOL    HW225305   2.276   6.596   1.918
 8136SOL     OW25306   4.599   4.731   1.980
 8136SOL    HW125307   4.567   4.768   2.067
 8136SOL    HW225308   4.526   4.677   1.938
 8137SOL     OW25309   4.618   1.784   6.149
 8137SOL    HW125310   4.610   1.884   6.143
 8137SOL    HW225311   4.627   1.758   6.245
 8138SOL     OW25312   5.331   1.365   2.301
 8138SOL    HW125313   5.384   1.364   2.386
 8138SOL    HW225314   5.250   1.306   2.311
 8139SOL     OW25315   0.818   1.550   3.732
 8139SOL    HW125316   0.874   1.564   3.813
 8139SOL    HW225317   0.874   1.514   3.658
 8140SOL     OW25318   4.845   2.529   2.927
 8140SOL    HW125319   4.889   2.445   2.959
 8140SOL    HW225320   4.748   2.513   2.914
 8141SOL     OW25321   5.867   3.610   4.025
 8141SOL    HW125322   5.898   3.705   4.028
 8141SOL    HW225323   5.796   3.600   3.955
 8142SOL     OW25324   6.693   6.286   0.060
 8142SOL    HW125325   6.769   6.313   0.119
 8142SOL    HW225326   6.624   6.359   0.058
 8143SOL     OW25327   6.538   3.149   5.288
 8143SOL    HW125328   6.563   3.052   5.291
 8143SOL    HW225329   6.475   3.169   5.363
 8144SOL     OW25330   4.743   6.536   0.282
 8144SOL    HW125331   4.707   6.618   0.325
 8144SOL    HW225332   4.814   6.561   0.216
 8145SOL     OW25333   4.573   6.325   3.502
 8145SOL    HW125334   4.548   6.422   3.496
 8145SOL    HW225335   4.607   6.294   3.413
 8146SOL     OW25336   3.856   1.812   4.533
 8146SOL    HW125337   3.805   1.786   4.452
 8146SOL    HW225338   3.798   1.867   4.593
 8147SOL     OW25339   5.567   1.212   3.171
 8147SOL    HW125340   5.539   1.222   3.076
 8147SOL    HW225341   5.605   1.299   3.204
 8148SOL     OW25342   6.877   4.550   2.638
 8148SOL    HW125343   6.806   4.583   2.701
 8148SOL    HW225344   6.872   4.450   2.633
 8149SOL     OW25345   3.684   5.422   3.768
 8149SOL    HW125346   3.692   5.494   3.699
 8149SOL    HW225347   3.729   5.452   3.852
 8150SOL     OW25348   0.984   5.965   0.854
 8150SOL    HW125349   0.927   5.884   0.867
 8150SOL    HW225350   0.975   6.025   0.933
 8151SOL     OW25351   0.461   1.630   4.687
 8151SOL    HW125352   0.391   1.629   4.758
 8151SOL    HW225353   0.529   1.701   4.707
 8152SOL     OW25354   1.320   0.540   3.264
 8152SOL    HW125355   1.315   0.462   3.202
 8152SOL    HW225356   1.228   0.564   3.295
 8153SOL     OW25357   2.069   6.902   0.373
 8153SOL    HW125358   2.100   6.906   0.468
 8153SOL    HW225359   2.070   6.807   0.342
 8154SOL     OW25360   2.239   6.749   3.032
 8154SOL    HW125361   2.227   6.677   3.100
 8154SOL    HW225362   2.337   6.762   3.014
 8155SOL     OW25363   2.886   3.391   4.557
 8155SOL    HW125364   2.787   3.374   4.555
 8155SOL    HW225365   2.911   3.452   4.483
 8156SOL     OW25366   6.823   0.478   5.580
 8156SOL    HW125367   6.886   0.446   5.651
 8156SOL    HW225368   6.861   0.460   5.490
 8157SOL     OW25369   5.601   2.263   6.723
 8157SOL    HW125370   5.621   2.316   6.805
 8157SOL    HW225371   5.687   2.235   6.680
 8158SOL     OW25372   1.655   5.635   2.111
 8158SOL    HW125373   1.737   5.682   2.079
 8158SOL    HW225374   1.627   5.567   2.043
 8159SOL     OW25375   0.421   5.737   0.999
 8159SOL    HW125376   0.388   5.811   1.058
 8159SOL    HW225377   0.467   5.777   0.919
 8160SOL     OW25378   4.420   1.917   1.794
 8160SOL    HW125379   4.405   1.950   1.888
 8160SOL    HW225380   4.347   1.854   1.769
 8161SOL     OW25381   4.031   2.691   1.229
 8161SOL    HW125382   3.968   2.715   1.304
 8161SOL    HW225383   3.980   2.689   1.143
 8162SOL     OW25384   5.758   0.880   1.679
 8162SOL    HW125385   5.748   0.817   1.757
 8162SOL    HW225386   5.712   0.841   1.600
 8163SOL     OW25387   1.918   3.168   5.416
 8163SOL    HW125388   1.950   3.076   5.393
 8163SOL    HW225389   1.969   3.235   5.363
 8164SOL     OW25390   4.956   3.503   1.951
 8164SOL    HW125391   4.989   3.548   2.034
 8164SOL    HW225392   4.963   3.567   1.874
 8165SOL     OW25393   2.176   4.737   1.960
 8165SOL    HW125394   2.223   4.769   2.042
 8165SOL    HW225395   2.078   4.749   1.971
 8166SOL     OW25396   3.970   6.517   1.511
 8166SOL    HW125397   3.893   6.579   1.524
 8166SOL    HW225398   3.977   6.493   1.414
 8167SOL     OW25399   5.253   2.606   4.515
 8167SOL    HW125400   5.185   2.599   4.587
 8167SOL    HW225401   5.338   2.643   4.552
 8168SOL     OW25402   2.470   2.046   2.795
 8168SOL    HW125403   2.462   1.947   2.811
 8168SOL    HW225404   2.394   2.077   2.739
 8169SOL     OW25405   5.482   4.292   4.873
 8169SOL    HW125406   5.402   4.352   4.862
 8169SOL    HW225407   5.480   4.220   4.803
 8170SOL     OW25408   1.328   5.215   4.064
 8170SOL    HW125409   1.264   5.165   4.122
 8170SOL    HW225410   1.422   5.189   4.087
 8171SOL     OW25411   1.876   1.171   6.462
 8171SOL    HW125412   1.919   1.210   6.544
 8171SOL    HW225413   1.865   1.072   6.474
 8172SOL     OW25414   0.200   6.034   0.928
 8172SOL    HW125415   0.182   6.124   0.966
 8172SOL    HW225416   0.129   6.012   0.861
 8173SOL     OW25417   6.159   3.483   0.082
 8173SOL    HW125418   6.247   3.512   0.120
 8173SOL    HW225419   6.092   3.557   0.094
 8174SOL     OW25420   5.374   6.534   2.449
 8174SOL    HW125421   5.365   6.594   2.529
 8174SOL    HW225422   5.439   6.573   2.385
 8175SOL     OW25423   1.845   2.171   4.203
 8175SOL    HW125424   1.761   2.180   4.257
 8175SOL    HW225425   1.824   2.125   4.116
 8176SOL     OW25426   4.005   5.997   3.702
 8176SOL    HW125427   3.963   5.950   3.624
 8176SOL    HW225428   4.005   5.937   3.781
 8177SOL     OW25429   1.465   6.463   5.809
 8177SOL    HW125430   1.399   6.538   5.809
 8177SOL    HW225431   1.418   6.377   5.826
 8178SOL     OW25432   2.426   6.900   5.682
 8178SOL    HW125433   2.506   6.841   5.690
 8178SOL    HW225434   2.445   6.988   5.726
 8179SOL     OW25435   3.765   0.350   0.205
 8179SOL    HW125436   3.858   0.319   0.185
 8179SOL    HW225437   3.765   0.404   0.289
 8180SOL     OW25438   4.853   4.160   5.360
 8180SOL    HW125439   4.849   4.242   5.417
 8180SOL    HW225440   4.772   4.104   5.378
 8181SOL     OW25441   2.366   2.449   2.240
 8181SOL    HW125442   2.389   2.469   2.336
 8181SOL    HW225443   2.450   2.430   2.189
 8182SOL     OW25444   5.565   2.880   5.802
 8182SOL    HW125445   5.573   2.827   5.887
 8182SOL    HW225446   5.518   2.825   5.733
 8183SOL     OW25447   2.385   2.786   3.689
 8183SOL    HW125448   2.403   2.869   3.636
 8183SOL    HW225449   2.350   2.714   3.629
 8184SOL     OW25450   5.923   5.894   4.375
 8184SOL    HW125451   5.995   5.846   4.424
 8184SOL    HW225452   5.855   5.928   4.440
 8185SOL     OW25453   1.508   1.997   3.293
 8185SOL    HW125454   1.548   2.012   3.202
 8185SOL    HW225455   1.416   2.035   3.295
 8186SOL     OW25456   4.211   4.020   6.905
 8186SOL    HW125457   4.143   4.055   6.968
 8186SOL    HW225458   4.231   4.090   6.836
 8187SOL     OW25459   2.150   1.783   5.831
 8187SOL    HW125460   2.135   1.684   5.828
 8187SOL    HW225461   2.152   1.819   5.737
 8188SOL     OW25462   4.986   2.698   2.355
 8188SOL    HW125463   4.916   2.758   2.316
 8188SOL    HW225464   4.998   2.719   2.452
 8189SOL     OW25465   6.612   5.367   2.588
 8189SOL    HW125466   6.616   5.274   2.553
 8189SOL    HW225467   6.635   5.368   2.685
 8190SOL     OW25468   6.126   3.505   2.332
 8190SOL    HW125469   6.208   3.557   2.354
 8190SOL    HW225470   6.046   3.550   2.371
 8191SOL     OW25471   6.094   5.242   1.542
 8191SOL    HW125472   6.113   5.293   1.626
 8191SOL    HW225473   6.159   5.166   1.534
 8192SOL     OW25474   1.032   2.576   0.795
 8192SOL    HW125475   1.028   2.476   0.803
 8192SOL    HW225476   1.085   2.601   0.714
 8193SOL     OW25477   3.681   6.708   5.622
 8193SOL    HW125478   3.669   6.807   5.611
 8193SOL    HW225479   3.767   6.680   5.580
 8194SOL     OW25480   2.175   0.669   2.543
 8194SOL    HW125481   2.139   0.759   2.520
 8194SOL    HW225482   2.230   0.634   2.467
 8195SOL     OW25483   5.643   1.417   1.575
 8195SOL    HW125484   5.710   1.423   1.501
 8195SOL    HW225485   5.560   1.372   1.541
 8196SOL     OW25486   1.824   0.831   0.359
 8196SOL    HW125487   1.744   0.831   0.419
 8196SOL    HW225488   1.810   0.897   0.285
 8197SOL     OW25489   0.400   0.169   0.621
 8197SOL    HW125490   0.423   0.258   0.661
 8197SOL    HW225491   0.310   0.175   0.577
 8198SOL     OW25492   3.482   0.692   2.958
 8198SOL    HW125493   3.404   0.745   2.992
 8198SOL    HW225494   3.557   0.754   2.933
 8199SOL     OW25495   5.819   4.671   1.342
 8199SOL    HW125496   5.887   4.604   1.312
 8199SOL    HW225497   5.751   4.627   1.400
 8200SOL     OW25498   4.279   3.375   1.596
 8200SOL    HW125499   4.305   3.302   1.659
 8200SOL    HW225500   4.361   3.424   1.566
 8201SOL     OW25501   0.250   0.989   5.494
 8201SOL    HW125502   0.182   0.924   5.460
 8201SOL    HW225503   0.313   1.013   5.420
 8202SOL     OW25504   1.703   4.025   4.702
 8202SOL    HW125505   1.779   4.060   4.757
 8202SOL    HW225506   1.714   4.055   4.607
 8203SOL     OW25507   5.964   4.259   0.068
 8203SOL    HW125508   6.038   4.197   0.041
 8203SOL    HW225509   5.876   4.217   0.048
 8204SOL     OW25510   3.259   0.523   0.781
 8204SOL    HW125511   3.272   0.518   0.682
 8204SOL    HW225512   3.225   0.434   0.814
 8205SOL     OW25513   4.505   6.581   3.420
 8205SOL    HW125514   4.470   6.638   3.494
 8205SOL    HW225515   4.514   6.635   3.336
 8206SOL     OW25516   3.586   1.816   4.903
 8206SOL    HW125517   3.568   1.717   4.906
 8206SOL    HW225518   3.561   1.857   4.990
 8207SOL     OW25519   2.806   5.698   6.870
 8207SOL    HW125520   2.720   5.649   6.857
 8207SOL    HW225521   2.812   5.733   6.963
 8208SOL     OW25522   1.771   6.446   6.998
 8208SOL    HW125523   1.690   6.497   0.002
 8208SOL    HW225524   1.845   6.510   6.977
 8209SOL     OW25525   0.855   5.392   5.194
 8209SOL    HW125526   0.950   5.420   5.182
 8209SOL    HW225527   0.810   5.385   5.105
 8210SOL     OW25528   2.447   1.386   0.118
 8210SOL    HW125529   2.529   1.428   0.157
 8210SOL    HW225530   2.366   1.431   0.154
 8211SOL     OW25531   3.639   4.027   3.390
 8211SOL    HW125532   3.731   3.992   3.408
 8211SOL    HW225533   3.606   4.076   3.470
 8212SOL     OW25534   4.423   4.821   6.747
 8212SOL    HW125535   4.523   4.824   6.748
 8212SOL    HW225536   4.387   4.914   6.740
 8213SOL     OW25537   4.715   4.188   1.738
 8213SOL    HW125538   4.619   4.176   1.764
 8213SOL    HW225539   4.747   4.278   1.769
 8214SOL     OW25540   3.956   5.294   3.918
 8214SOL    HW125541   3.909   5.212   3.885
 8214SOL    HW225542   4.004   5.338   3.842
 8215SOL     OW25543   2.674   6.560   6.345
 8215SOL    HW125544   2.622   6.548   6.430
 8215SOL    HW225545   2.694   6.470   6.305
 8216SOL     OW25546   5.292   5.588   1.019
 8216SOL    HW125547   5.323   5.504   0.972
 8216SOL    HW225548   5.196   5.579   1.044
 8217SOL     OW25549   3.591   6.572   3.787
 8217SOL    HW125550   3.553   6.485   3.817
 8217SOL    HW225551   3.519   6.629   3.748
 8218SOL     OW25552   1.723   6.617   4.153
 8218SOL    HW125553   1.750   6.569   4.069
 8218SOL    HW225554   1.756   6.566   4.233
 8219SOL     OW25555   4.017   3.456   3.224
 8219SOL    HW125556   3.955   3.461   3.146
 8219SOL    HW225557   4.026   3.361   3.253
 8220SOL     OW25558   3.923   4.285   5.566
 8220SOL    HW125559   3.846   4.223   5.555
 8220SOL    HW225560   3.996   4.259   5.502
 8221SOL     OW25561   6.432   3.978   3.993
 8221SOL    HW125562   6.454   3.881   3.987
 8221SOL    HW225563   6.373   4.004   3.916
 8222SOL     OW25564   5.608   2.229   6.291
 8222SOL    HW125565   5.649   2.148   6.332
 8222SOL    HW225566   5.558   2.203   6.208
 8223SOL     OW25567   1.522   6.536   5.531
 8223SOL    HW125568   1.449   6.589   5.487
 8223SOL    HW225569   1.514   6.546   5.630
 8224SOL     OW25570   5.511   1.083   6.203
 8224SOL    HW125571   5.495   1.161   6.263
 8224SOL    HW225572   5.436   1.074   6.138
 8225SOL     OW25573   5.978   2.885   0.169
 8225SOL    HW125574   5.899   2.913   0.115
 8225SOL    HW225575   6.025   2.810   0.124
 8226SOL     OW25576   3.709   1.454   6.638
 8226SOL    HW125577   3.806   1.450   6.612
 8226SOL    HW225578   3.675   1.547   6.624
 8227SOL     OW25579   5.121   2.967   2.777
 8227SOL    HW125580   5.162   2.966   2.685
 8227SOL    HW225581   5.189   2.941   2.845
 8228SOL     OW25582   3.010   1.520   4.835
 8228SOL    HW125583   2.934   1.556   4.780
 8228SOL    HW225584   3.089   1.581   4.825
 8229SOL     OW25585   4.245   4.911   1.022
 8229SOL    HW125586   4.306   4.865   0.957
 8229SOL    HW225587   4.220   5.001   0.986
 8230SOL     OW25588   6.321   0.909   6.244
 8230SOL    HW125589   6.284   1.002   6.238
 8230SOL    HW225590   6.414   0.912   6.279
 8231SOL     OW25591   3.378   1.515   2.405
 8231SOL    HW125592   3.362   1.520   2.307
 8231SOL    HW225593   3.336   1.593   2.450
 8232SOL     OW25594   4.128   6.751   3.340
 8232SOL    HW125595   4.152   6.662   3.301
 8232SOL    HW225596   4.173   6.823   3.287
 8233SOL     OW25597   2.331   1.501   6.698
 8233SOL    HW125598   2.287   1.569   6.757
 8233SOL    HW225599   2.262   1.462   6.636
 8234SOL     OW25600   1.363   2.725   0.236
 8234SOL    HW125601   1.407   2.776   0.162
 8234SOL    HW225602   1.281   2.775   0.266
 8235SOL     OW25603   0.639   0.010   1.184
 8235SOL    HW125604   0.704   0.030   1.256
 8235SOL    HW225605   0.579   6.960   1.212
 8236SOL     OW25606   1.166   6.964   1.008
 8236SOL    HW125607   1.070   6.939   1.023
 8236SOL    HW225608   1.170   0.019   0.948
 8237SOL     OW25609   4.195   5.237   5.400
 8237SOL    HW125610   4.143   5.248   5.316
 8237SOL    HW225611   4.291   5.218   5.378
 8238SOL     OW25612   6.972   5.346   0.287
 8238SOL    HW125613   7.008   5.437   0.307
 8238SOL    HW225614   6.890   5.330   0.342
 8239SOL     OW25615   4.322   1.893   5.392
 8239SOL    HW125616   4.243   1.851   5.348
 8239SOL    HW225617   4.400   1.831   5.387
 8240SOL     OW25618   3.548   3.868   4.987
 8240SOL    HW125619   3.458   3.910   4.997
 8240SOL    HW225620   3.589   3.855   5.077
 8241SOL     OW25621   1.110   2.860   5.566
 8241SOL    HW125622   1.029   2.880   5.620
 8241SOL    HW225623   1.181   2.929   5.585
 8242SOL     OW25624   0.411   2.307   3.321
 8242SOL    HW125625   0.465   2.334   3.401
 8242SOL    HW225626   0.428   2.372   3.247
 8243SOL     OW25627   1.232   6.514   3.476
 8243SOL    HW125628   1.184   6.577   3.415
 8243SOL    HW225629   1.165   6.459   3.526
 8244SOL     OW25630   5.727   0.763   3.653
 8244SOL    HW125631   5.799   0.775   3.584
 8244SOL    HW225632   5.705   0.851   3.695
 8245SOL     OW25633   5.197   3.191   1.974
 8245SOL    HW125634   5.178   3.105   1.926
 8245SOL    HW225635   5.119   3.214   2.032
 8246SOL     OW25636   2.026   4.630   6.498
 8246SOL    HW125637   2.031   4.534   6.470
 8246SOL    HW225638   1.979   4.683   6.427
 8247SOL     OW25639   2.152   4.881   3.469
 8247SOL    HW125640   2.121   4.962   3.519
 8247SOL    HW225641   2.220   4.832   3.523
 8248SOL     OW25642   0.198   5.989   2.660
 8248SOL    HW125643   0.272   6.037   2.706
 8248SOL    HW225644   0.138   5.947   2.729
 8249SOL     OW25645   3.268   0.966   6.480
 8249SOL    HW125646   3.187   0.928   6.435
 8249SOL    HW225647   3.323   0.892   6.518
 8250SOL     OW25648   1.413   1.846   6.801
 8250SOL    HW125649   1.473   1.915   6.841
 8250SOL    HW225650   1.415   1.763   6.857
 8251SOL     OW25651   1.173   1.873   5.645
 8251SOL    HW125652   1.251   1.814   5.626
 8251SOL    HW225653   1.176   1.903   5.741
 8252SOL     OW25654   0.666   2.269   6.640
 8252SOL    HW125655   0.652   2.299   6.734
 8252SOL    HW225656   0.748   2.314   6.602
 8253SOL     OW25657   5.962   4.816   6.007
 8253SOL    HW125658   6.020   4.834   5.927
 8253SOL    HW225659   5.992   4.873   6.083
 8254SOL     OW25660   5.365   5.048   6.777
 8254SOL    HW125661   5.454   5.009   6.801
 8254SOL    HW225662   5.334   5.108   6.851
 8255SOL     OW25663   1.252   0.164   5.416
 8255SOL    HW125664   1.283   0.179   5.510
 8255SOL    HW225665   1.276   0.244   5.360
 8256SOL     OW25666   1.279   5.812   3.117
 8256SOL    HW125667   1.311   5.870   3.192
 8256SOL    HW225668   1.308   5.852   3.030
 8257SOL     OW25669   4.892   3.637   3.689
 8257SOL    HW125670   4.901   3.603   3.596
 8257SOL    HW225671   4.853   3.729   3.688
 8258SOL     OW25672   0.500   3.264   3.791
 8258SOL    HW125673   0.401   3.258   3.778
 8258SOL    HW225674   0.526   3.212   3.872
 8259SOL     OW25675   5.724   2.511   4.191
 8259SOL    HW125676   5.675   2.525   4.105
 8259SOL    HW225677   5.793   2.582   4.202
 8260SOL     OW25678   4.701   1.983   6.485
 8260SOL    HW125679   4.779   2.041   6.510
 8260SOL    HW225680   4.632   1.987   6.558
 8261SOL     OW25681   6.116   2.207   2.808
 8261SOL    HW125682   6.180   2.148   2.859
 8261SOL    HW225683   6.026   2.164   2.807
 8262SOL     OW25684   4.750   4.146   2.021
 8262SOL    HW125685   4.748   4.103   1.931
 8262SOL    HW225686   4.662   4.188   2.040
 8263SOL     OW25687   6.313   1.682   6.755
 8263SOL    HW125688   6.230   1.731   6.782
 8263SOL    HW225689   6.306   1.586   6.782
 8264SOL     OW25690   3.162   0.749   1.545
 8264SOL    HW125691   3.146   0.660   1.501
 8264SOL    HW225692   3.100   0.817   1.505
 8265SOL     OW25693   4.387   5.717   0.384
 8265SOL    HW125694   4.456   5.790   0.384
 8265SOL    HW225695   4.418   5.641   0.326
 8266SOL     OW25696   3.874   2.143   3.179
 8266SOL    HW125697   3.895   2.074   3.109
 8266SOL    HW225698   3.916   2.230   3.154
 8267SOL     OW25699   1.825   2.925   3.338
 8267SOL    HW125700   1.759   2.936   3.264
 8267SOL    HW225701   1.884   2.846   3.318
 8268SOL     OW25702   2.415   5.219   1.382
 8268SOL    HW125703   2.449   5.160   1.309
 8268SOL    HW225704   2.315   5.226   1.375
 8269SOL     OW25705   6.671   1.608   4.552
 8269SOL    HW125706   6.761   1.652   4.546
 8269SOL    HW225707   6.602   1.675   4.577
 8270SOL     OW25708   3.421   4.634   0.083
 8270SOL    HW125709   3.338   4.668   0.039
 8270SOL    HW225710   3.424   4.534   0.075
 8271SOL     OW25711   3.532   6.989   5.585
 8271SOL    HW125712   3.455   6.927   5.603
 8271SOL    HW225713   3.544   0.026   5.663
 8272SOL     OW25714   1.150   0.584   2.054
 8272SOL    HW125715   1.068   0.624   2.013
 8272SOL    HW225716   1.176   0.637   2.135
 8273SOL     OW25717   4.165   6.802   6.216
 8273SOL    HW125718   4.184   6.726   6.279
 8273SOL    HW225719   4.136   6.764   6.127
 8274SOL     OW25720   5.561   6.572   3.956
 8274SOL    HW125721   5.615   6.506   3.903
 8274SOL    HW225722   5.487   6.524   4.003
 8275SOL     OW25723   4.919   0.792   5.100
 8275SOL    HW125724   4.866   0.801   5.016
 8275SOL    HW225725   5.011   0.831   5.086
 8276SOL     OW25726   5.543   2.816   0.949
 8276SOL    HW125727   5.540   2.872   0.866
 8276SOL    HW225728   5.638   2.790   0.968
 8277SOL     OW25729   1.490   0.038   1.393
 8277SOL    HW125730   1.450   0.123   1.358
 8277SOL    HW225731   1.504   6.999   1.318
 8278SOL     OW25732   1.425   0.840   1.189
 8278SOL    HW125733   1.392   0.746   1.189
 8278SOL    HW225734   1.390   0.888   1.108
 8279SOL     OW25735   5.475   5.484   5.527
 8279SOL    HW125736   5.554   5.426   5.545
 8279SOL    HW225737   5.495   5.578   5.554
 8280SOL     OW25738   5.863   4.348   6.698
 8280SOL    HW125739   5.842   4.397   6.782
 8280SOL    HW225740   5.852   4.249   6.713
 8281SOL     OW25741   3.386   4.594   6.272
 8281SOL    HW125742   3.295   4.598   6.314
 8281SOL    HW225743   3.448   4.547   6.335
 8282SOL     OW25744   4.150   2.623   0.815
 8282SOL    HW125745   4.079   2.636   0.883
 8282SOL    HW225746   4.123   2.667   0.729
 8283SOL     OW25747   0.431   0.061   2.941
 8283SOL    HW125748   0.337   0.043   2.970
 8283SOL    HW225749   0.446   0.159   2.935
 8284SOL     OW25750   5.184   1.861   1.650
 8284SOL    HW125751   5.269   1.907   1.673
 8284SOL    HW225752   5.160   1.797   1.723
 8285SOL     OW25753   0.664   4.201   0.708
 8285SOL    HW125754   0.628   4.131   0.646
 8285SOL    HW225755   0.726   4.158   0.774
 8286SOL     OW25756   6.031   2.042   6.694
 8286SOL    HW125757   6.101   1.994   6.641
 8286SOL    HW225758   6.019   1.996   6.782
 8287SOL     OW25759   0.353   0.662   3.444
 8287SOL    HW125760   0.377   0.590   3.510
 8287SOL    HW225761   0.293   0.624   3.374
 8288SOL     OW25762   2.922   0.453   2.170
 8288SOL    HW125763   2.929   0.476   2.073
 8288SOL    HW225764   2.893   0.358   2.180
 8289SOL     OW25765   5.904   6.821   0.139
 8289SOL    HW125766   5.842   6.754   0.098
 8289SOL    HW225767   5.985   6.774   0.173
 8290SOL     OW25768   5.071   2.439   1.844
 8290SOL    HW125769   5.038   2.463   1.936
 8290SOL    HW225770   5.003   2.466   1.776
 8291SOL     OW25771   4.877   5.760   6.148
 8291SOL    HW125772   4.816   5.788   6.074
 8291SOL    HW225773   4.853   5.811   6.231
 8292SOL     OW25774   0.326   3.675   5.378
 8292SOL    HW125775   0.259   3.649   5.447
 8292SOL    HW225776   0.370   3.761   5.404
 8293SOL     OW25777   2.713   5.372   4.363
 8293SOL    HW125778   2.792   5.330   4.408
 8293SOL    HW225779   2.685   5.315   4.285
 8294SOL     OW25780   6.899   3.514   6.117
 8294SOL    HW125781   6.940   3.434   6.159
 8294SOL    HW225782   6.947   3.536   6.032
 8295SOL     OW25783   4.221   5.251   2.254
 8295SOL    HW125784   4.133   5.216   2.222
 8295SOL    HW225785   4.206   5.321   2.323
 8296SOL     OW25786   3.857   0.240   2.284
 8296SOL    HW125787   3.937   0.194   2.245
 8296SOL    HW225788   3.855   0.335   2.253
 8297SOL     OW25789   5.615   4.422   2.181
 8297SOL    HW125790   5.636   4.332   2.221
 8297SOL    HW225791   5.653   4.426   2.088
 8298SOL     OW25792   0.007   6.752   1.269
 8298SOL    HW125793   0.085   6.783   1.214
 8298SOL    HW225794   6.963   6.712   1.209
 8299SOL     OW25795   0.849   2.830   6.341
 8299SOL    HW125796   0.823   2.885   6.262
 8299SOL    HW225797   0.770   2.821   6.402
 8300SOL     OW25798   5.359   5.324   4.106
 8300SOL    HW125799   5.266   5.287   4.103
 8300SOL    HW225800   5.359   5.416   4.067
 8301SOL     OW25801   6.480   5.527   0.446
 8301SOL    HW125802   6.398   5.514   0.501
 8301SOL    HW225803   6.544   5.586   0.495
 8302SOL     OW25804   3.467   6.894   6.006
 8302SOL    HW125805   3.486   6.947   6.088
 8302SOL    HW225806   3.382   6.927   5.964
 8303SOL     OW25807   1.635   5.139   4.066
 8303SOL    HW125808   1.608   5.092   3.982
 8303SOL    HW225809   1.707   5.206   4.046
 8304SOL     OW25810   6.051   2.782   3.593
 8304SOL    HW125811   6.021   2.877   3.609
 8304SOL    HW225812   5.984   2.720   3.634
 8305SOL     OW25813   4.492   6.828   5.564
 8305SOL    HW125814   4.591   6.832   5.552
 8305SOL    HW225815   4.469   6.849   5.659
 8306SOL     OW25816   4.901   1.118   3.868
 8306SOL    HW125817   4.888   1.217   3.871
 8306SOL    HW225818   4.988   1.094   3.912
 8307SOL     OW25819   6.934   5.166   4.156
 8307SOL    HW125820   7.012   5.179   4.095
 8307SOL    HW225821   6.949   5.220   4.240
 8308SOL     OW25822   1.679   5.777   0.430
 8308SOL    HW125823   1.717   5.686   0.450
 8308SOL    HW225824   1.664   5.786   0.331
 8309SOL     OW25825   6.279   4.521   2.866
 8309SOL    HW125826   6.337   4.581   2.811
 8309SOL    HW225827   6.225   4.463   2.806
 8310SOL     OW25828   2.171   6.422   2.493
 8310SOL    HW125829   2.252   6.481   2.501
 8310SOL    HW225830   2.198   6.326   2.500
 8311SOL     OW25831   4.658   5.915   1.800
 8311SOL    HW125832   4.752   5.939   1.824
 8311SOL    HW225833   4.608   5.891   1.883
 8312SOL     OW25834   6.790   1.805   0.538
 8312SOL    HW125835   6.883   1.767   0.541
 8312SOL    HW225836   6.746   1.777   0.453
 8313SOL     OW25837   4.949   2.703   6.011
 8313SOL    HW125838   4.994   2.686   5.923
 8313SOL    HW225839   4.953   2.620   6.067
 8314SOL     OW25840   4.113   5.737   3.996
 8314SOL    HW125841   4.049   5.673   4.037
 8314SOL    HW225842   4.202   5.693   3.981
 8315SOL     OW25843   3.038   2.687   6.747
 8315SOL    HW125844   2.952   2.644   6.720
 8315SOL    HW225845   3.081   2.729   6.666
 8316SOL     OW25846   1.608   1.216   4.863
 8316SOL    HW125847   1.682   1.263   4.815
 8316SOL    HW225848   1.646   1.142   4.920
 8317SOL     OW25849   1.394   1.708   5.585
 8317SOL    HW125850   1.340   1.701   5.501
 8317SOL    HW225851   1.468   1.641   5.582
 8318SOL     OW25852   4.671   6.613   5.670
 8318SOL    HW125853   4.749   6.555   5.693
 8318SOL    HW225854   4.692   6.708   5.693
 8319SOL     OW25855   2.534   5.653   6.808
 8319SOL    HW125856   2.447   5.611   6.835
 8319SOL    HW225857   2.542   5.742   6.852
 8320SOL     OW25858   3.750   4.700   5.371
 8320SOL    HW125859   3.808   4.781   5.366
 8320SOL    HW225860   3.779   4.643   5.447
 8321SOL     OW25861   0.370   0.826   0.873
 8321SOL    HW125862   0.448   0.826   0.936
 8321SOL    HW225863   0.285   0.831   0.925
 8322SOL     OW25864   1.975   1.316   1.124
 8322SOL    HW125865   1.916   1.315   1.044
 8322SOL    HW225866   2.041   1.392   1.116
 8323SOL     OW25867   5.848   4.884   0.026
 8323SOL    HW125868   5.898   4.801   7.025
 8323SOL    HW225869   5.903   4.937   0.091
 8324SOL     OW25870   5.285   6.638   6.154
 8324SOL    HW125871   5.215   6.631   6.225
 8324SOL    HW225872   5.290   6.552   6.103
 8325SOL     OW25873   1.187   6.498   4.698
 8325SOL    HW125874   1.201   6.589   4.659
 8325SOL    HW225875   1.262   6.438   4.671
 8326SOL     OW25876   2.264   2.376   6.543
 8326SOL    HW125877   2.167   2.363   6.564
 8326SOL    HW225878   2.290   2.317   6.467
 8327SOL     OW25879   0.843   5.970   4.697
 8327SOL    HW125880   0.762   5.967   4.756
 8327SOL    HW225881   0.910   6.033   4.737
 8328SOL     OW25882   0.797   6.591   1.056
 8328SOL    HW125883   0.864   6.518   1.044
 8328SOL    HW225884   0.806   6.630   1.148
 8329SOL     OW25885   1.601   2.615   5.246
 8329SOL    HW125886   1.608   2.707   5.206
 8329SOL    HW225887   1.676   2.559   5.213
 8330SOL     OW25888   3.022   6.904   0.049
 8330SOL    HW125889   2.925   6.927   0.061
 8330SOL    HW225890   3.068   6.905   0.138
 8331SOL     OW25891   2.106   2.535   5.880
 8331SOL    HW125892   2.085   2.627   5.847
 8331SOL    HW225893   2.041   2.470   5.842
 8332SOL     OW25894   5.728   3.886   1.107
 8332SOL    HW125895   5.770   3.957   1.163
 8332SOL    HW225896   5.799   3.836   1.058
 8333SOL     OW25897   2.999   4.483   6.296
 8333SOL    HW125898   3.022   4.460   6.201
 8333SOL    HW225899   3.068   4.443   6.357
 8334SOL     OW25900   3.436   2.374   5.450
 8334SOL    HW125901   3.428   2.390   5.549
 8334SOL    HW225902   3.349   2.338   5.416
 8335SOL     OW25903   5.265   4.111   6.089
 8335SOL    HW125904   5.271   4.063   6.001
 8335SOL    HW225905   5.349   4.164   6.103
 8336SOL     OW25906   1.020   4.560   3.372
 8336SOL    HW125907   1.035   4.483   3.310
 8336SOL    HW225908   0.946   4.536   3.435
 8337SOL     OW25909   6.827   0.965   4.419
 8337SOL    HW125910   6.820   0.963   4.319
 8337SOL    HW225911   6.751   0.913   4.458
 8338SOL     OW25912   2.466   5.955   0.979
 8338SOL    HW125913   2.487   6.025   1.047
 8338SOL    HW225914   2.368   5.957   0.958
 8339SOL     OW25915   6.294   0.521   2.058
 8339SOL    HW125916   6.210   0.570   2.034
 8339SOL    HW225917   6.329   0.555   2.145
 8340SOL     OW25918   5.770   2.671   6.738
 8340SOL    HW125919   5.713   2.601   6.780
 8340SOL    HW225920   5.867   2.652   6.758
 8341SOL     OW25921   3.588   0.454   1.254
 8341SOL    HW125922   3.563   0.522   1.185
 8341SOL    HW225923   3.687   0.442   1.254
 8342SOL     OW25924   4.475   1.167   0.838
 8342SOL    HW125925   4.420   1.095   0.881
 8342SOL    HW225926   4.499   1.139   0.746
 8343SOL     OW25927   5.025   5.945   2.993
 8343SOL    HW125928   5.085   5.865   2.998
 8343SOL    HW225929   4.940   5.919   2.947
 8344SOL     OW25930   2.374   4.826   5.930
 8344SOL    HW125931   2.452   4.886   5.913
 8344SOL    HW225932   2.363   4.812   6.028
 8345SOL     OW25933   6.302   0.535   3.817
 8345SOL    HW125934   6.356   0.606   3.773
 8345SOL    HW225935   6.350   0.447   3.811
 8346SOL     OW25936   5.971   3.899   3.936
 8346SOL    HW125937   6.021   3.923   3.853
 8346SOL    HW225938   5.896   3.964   3.950
 8347SOL     OW25939   1.761   1.863   6.272
 8347SOL    HW125940   1.725   1.887   6.362
 8347SOL    HW225941   1.702   1.794   6.230
 8348SOL     OW25942   3.249   5.900   1.382
 8348SOL    HW125943   3.186   5.880   1.457
 8348SOL    HW225944   3.282   5.994   1.390
 8349SOL     OW25945   4.610   5.472   1.518
 8349SOL    HW125946   4.546   5.405   1.557
 8349SOL    HW225947   4.624   5.546   1.584
 8350SOL     OW25948   1.496   0.289   6.933
 8350SOL    HW125949   1.581   0.236   6.941
 8350SOL    HW225950   1.428   0.236   6.883
 8351SOL     OW25951   6.946   2.982   3.181
 8351SOL    HW125952   6.888   2.940   3.251
 8351SOL    HW225953   6.975   2.912   3.116
 8352SOL     OW25954   2.990   6.473   6.513
 8352SOL    HW125955   3.041   6.547   6.471
 8352SOL    HW225956   2.906   6.509   6.554
 8353SOL     OW25957   0.633   5.837   2.632
 8353SOL    HW125958   0.561   5.864   2.696
 8353SOL    HW225959   0.626   5.739   2.613
 8354SOL     OW25960   4.956   2.071   3.421
 8354SOL    HW125961   4.906   2.157   3.419
 8354SOL    HW225962   4.909   2.003   3.364
 8355SOL     OW25963   3.188   5.379   5.989
 8355SOL    HW125964   3.210   5.470   6.026
 8355SOL    HW225965   3.197   5.381   5.890
 8356SOL     OW25966   2.638   4.199   1.242
 8356SOL    HW125967   2.586   4.277   1.207
 8356SOL    HW225968   2.700   4.165   1.171
 8357SOL     OW25969   3.195   6.906   4.748
 8357SOL    HW125970   3.208   6.861   4.837
 8357SOL    HW225971   3.134   6.850   4.691
 8358SOL     OW25972   0.118   0.144   4.849
 8358SOL    HW125973   0.028   0.187   4.838
 8358SOL    HW225974   0.132   0.077   4.777
 8359SOL     OW25975   4.684   1.784   5.125
 8359SOL    HW125976   4.686   1.864   5.066
 8359SOL    HW225977   4.776   1.745   5.131
 8360SOL     OW25978   3.471   6.819   1.830
 8360SOL    HW125979   3.461   6.836   1.928
 8360SOL    HW225980   3.557   6.770   1.814
 8361SOL     OW25981   5.335   1.117   0.458
 8361SOL    HW125982   5.235   1.106   0.458
 8361SOL    HW225983   5.359   1.206   0.496
 8362SOL     OW25984   0.336   3.852   1.070
 8362SOL    HW125985   0.366   3.773   1.018
 8362SOL    HW225986   0.393   3.862   1.152
 8363SOL     OW25987   1.202   2.290   1.776
 8363SOL    HW125988   1.208   2.303   1.875
 8363SOL    HW225989   1.267   2.350   1.730
 8364SOL     OW25990   6.989   2.091   4.195
 8364SOL    HW125991   0.045   2.036   4.215
 8364SOL    HW225992   7.009   2.153   4.119
 8365SOL     OW25993   1.842   2.595   1.878
 8365SOL    HW125994   1.864   2.501   1.906
 8365SOL    HW225995   1.744   2.610   1.888
 8366SOL     OW25996   5.049   5.985   2.090
 8366SOL    HW125997   5.015   5.891   2.093
 8366SOL    HW225998   5.066   6.017   2.183
 8367SOL     OW25999   1.865   4.395   3.529
 8367SOL    HW126000   1.954   4.441   3.530
 8367SOL    HW226001   1.800   4.449   3.477
 8368SOL     OW26002   6.984   3.952   5.901
 8368SOL    HW126003   0.058   3.940   5.909
 8368SOL    HW226004   6.939   3.863   5.900
 8369SOL     OW26005   1.331   0.048   6.776
 8369SOL    HW126006   1.246   0.014   6.816
 8369SOL    HW226007   1.398   6.999   6.774
 8370SOL     OW26008   2.917   3.124   0.183
 8370SOL    HW126009   3.009   3.114   0.145
 8370SOL    HW226010   2.922   3.124   0.283
 8371SOL     OW26011   2.952   4.069   5.992
 8371SOL    HW126012   2.905   4.123   6.061
 8371SOL    HW226013   2.982   3.982   6.032
 8372SOL     OW26014   1.409   0.207   1.629
 8372SOL    HW126015   1.488   0.174   1.577
 8372SOL    HW226016   1.420   0.305   1.648
 8373SOL     OW26017   5.438   0.956   3.713
 8373SOL    HW126018   5.432   1.036   3.772
 8373SOL    HW226019   5.347   0.932   3.678
 8374SOL     OW26020   1.212   1.733   3.447
 8374SOL    HW126021   1.163   1.646   3.449
 8374SOL    HW226022   1.310   1.717   3.457
 8375SOL     OW26023   1.428   1.996   5.358
 8375SOL    HW126024   1.467   2.071   5.305
 8375SOL    HW226025   1.405   2.029   5.450
 8376SOL     OW26026   0.719   1.991   4.057
 8376SOL    HW126027   0.675   1.944   4.134
 8376SOL    HW226028   0.740   2.086   4.083
 8377SOL     OW26029   3.109   5.378   0.902
 8377SOL    HW126030   3.190   5.436   0.890
 8377SOL    HW226031   3.032   5.435   0.932
 8378SOL     OW26032   4.275   5.210   5.050
 8378SOL    HW126033   4.341   5.139   5.073
 8378SOL    HW226034   4.238   5.250   5.134
 8379SOL     OW26035   6.375   2.579   2.284
 8379SOL    HW126036   6.399   2.651   2.220
 8379SOL    HW226037   6.351   2.619   2.373
 8380SOL     OW26038   1.174   5.714   2.252
 8380SOL    HW126039   1.126   5.802   2.262
 8380SOL    HW226040   1.219   5.690   2.338
 8381SOL     OW26041   1.133   2.182   2.340
 8381SOL    HW126042   1.152   2.086   2.362
 8381SOL    HW226043   1.034   2.198   2.342
 8382SOL     OW26044   0.620   6.744   1.783
 8382SOL    HW126045   0.549   6.674   1.783
 8382SOL    HW226046   0.707   6.703   1.809
 8383SOL     OW26047   2.840   0.087   5.405
 8383SOL    HW126048   2.752   0.040   5.397
 8383SOL    HW226049   2.829   0.184   5.382
 8384SOL     OW26050   0.347   3.296   2.949
 8384SOL    HW126051   0.398   3.211   2.935
 8384SOL    HW226052   0.253   3.284   2.917
 8385SOL     OW26053   4.223   2.245   2.118
 8385SOL    HW126054   4.281   2.320   2.152
 8385SOL    HW226055   4.147   2.231   2.181
 8386SOL     OW26056   0.627   5.625   1.147
 8386SOL    HW126057   0.539   5.647   1.106
 8386SOL    HW226058   0.627   5.652   1.244
 8387SOL     OW26059   0.609   1.639   3.226
 8387SOL    HW126060   0.522   1.597   3.200
 8387SOL    HW226061   0.615   1.730   3.184
 8388SOL     OW26062   3.808   5.036   1.744
 8388SOL    HW126063   3.870   4.993   1.677
 8388SOL    HW226064   3.793   5.131   1.718
 8389SOL     OW26065   1.284   2.881   3.668
 8389SOL    HW126066   1.243   2.801   3.625
 8389SOL    HW226067   1.318   2.856   3.759
 8390SOL     OW26068   3.202   0.773   6.291
 8390SOL    HW126069   3.272   0.776   6.220
 8390SOL    HW226070   3.111   0.778   6.248
 8391SOL     OW26071   4.352   5.921   1.084
 8391SOL    HW126072   4.425   5.853   1.071
 8391SOL    HW226073   4.278   5.903   1.020
 8392SOL     OW26074   4.108   5.669   0.163
 8392SOL    HW126075   4.095   5.591   0.225
 8392SOL    HW226076   4.173   5.644   0.091
 8393SOL     OW26077   0.701   5.660   1.441
 8393SOL    HW126078   0.626   5.713   1.482
 8393SOL    HW226079   0.720   5.580   1.498
 8394SOL     OW26080   1.516   1.338   3.602
 8394SOL    HW126081   1.566   1.317   3.518
 8394SOL    HW226082   1.482   1.253   3.643
 8395SOL     OW26083   1.649   6.320   6.029
 8395SOL    HW126084   1.585   6.266   6.084
 8395SOL    HW226085   1.599   6.392   5.982
 8396SOL     OW26086   4.270   2.400   0.886
 8396SOL    HW126087   4.213   2.481   0.877
 8396SOL    HW226088   4.351   2.422   0.941
 8397SOL     OW26089   1.548   4.761   3.307
 8397SOL    HW126090   1.562   4.686   3.371
 8397SOL    HW226091   1.629   4.770   3.248
 8398SOL     OW26092   5.549   1.790   6.891
 8398SOL    HW126093   5.506   1.876   6.863
 8398SOL    HW226094   5.567   1.793   6.990
 8399SOL     OW26095   5.228   5.970   6.286
 8399SOL    HW126096   5.282   6.023   6.351
 8399SOL    HW226097   5.286   5.943   6.209
 8400SOL     OW26098   6.329   6.611   4.052
 8400SOL    HW126099   6.406   6.651   4.101
 8400SOL    HW226100   6.245   6.661   4.075
 8401SOL     OW26101   2.911   3.657   5.185
 8401SOL    HW126102   3.005   3.691   5.184
 8401SOL    HW226103   2.861   3.697   5.262
 8402SOL     OW26104   5.094   0.373   5.587
 8402SOL    HW126105   5.014   0.314   5.590
 8402SOL    HW226106   5.069   0.461   5.548
 8403SOL     OW26107   0.729   2.285   5.220
 8403SOL    HW126108   0.690   2.321   5.135
 8403SOL    HW226109   0.686   2.197   5.241
 8404SOL     OW26110   4.795   5.356   5.811
 8404SOL    HW126111   4.712   5.309   5.783
 8404SOL    HW226112   4.811   5.434   5.750
 8405SOL     OW26113   1.743   2.448   5.540
 8405SOL    HW126114   1.735   2.533   5.488
 8405SOL    HW226115   1.653   2.417   5.568
 8406SOL     OW26116   5.322   3.627   2.073
 8406SOL    HW126117   5.378   3.641   2.155
 8406SOL    HW226118   5.234   3.672   2.084
 8407SOL     OW26119   4.866   3.673   3.176
 8407SOL    HW126120   4.869   3.695   3.078
 8407SOL    HW226121   4.812   3.743   3.224
 8408SOL     OW26122   4.948   3.457   4.143
 8408SOL    HW126123   4.935   3.392   4.217
 8408SOL    HW226124   5.001   3.414   4.069
 8409SOL     OW26125   1.610   1.305   4.093
 8409SOL    HW126126   1.635   1.342   4.182
 8409SOL    HW226127   1.543   1.366   4.049
 8410SOL     OW26128   2.231   4.701   2.346
 8410SOL    HW126129   2.292   4.695   2.425
 8410SOL    HW226130   2.281   4.741   2.269
 8411SOL     OW26131   1.850   3.579   3.148
 8411SOL    HW126132   1.757   3.617   3.154
 8411SOL    HW226133   1.904   3.634   3.085
 8412SOL     OW26134   6.078   2.810   2.506
 8412SOL    HW126135   6.133   2.880   2.462
 8412SOL    HW226136   6.136   2.733   2.533
 8413SOL     OW26137   2.074   5.138   1.147
 8413SOL    HW126138   2.037   5.140   1.240
 8413SOL    HW226139   2.174   5.143   1.151
 8414SOL     OW26140   6.162   0.603   3.387
 8414SOL    HW126141   6.183   0.610   3.290
 8414SOL    HW226142   6.146   0.694   3.425
 8415SOL     OW26143   6.732   4.660   1.470
 8415SOL    HW126144   6.767   4.583   1.523
 8415SOL    HW226145   6.781   4.667   1.384
 8416SOL     OW26146   4.522   5.065   2.576
 8416SOL    HW126147   4.540   5.021   2.488
 8416SOL    HW226148   4.534   4.998   2.649
 8417SOL     OW26149   1.513   5.695   6.834
 8417SOL    HW126150   1.463   5.630   6.778
 8417SOL    HW226151   1.465   5.710   6.920
 8418SOL     OW26152   5.445   5.883   2.921
 8418SOL    HW126153   5.520   5.949   2.913
 8418SOL    HW226154   5.423   5.847   2.830
 8419SOL     OW26155   4.853   0.428   3.958
 8419SOL    HW126156   4.820   0.491   3.888
 8419SOL    HW226157   4.950   0.410   3.943
 8420SOL     OW26158   3.985   2.150   5.589
 8420SOL    HW126159   3.931   2.143   5.505
 8420SOL    HW226160   4.082   2.144   5.567
 8421SOL     OW26161   0.331   1.052   1.405
 8421SOL    HW126162   0.380   1.086   1.486
 8421SOL    HW226163   0.263   0.984   1.433
 8422SOL     OW26164   3.171   0.187   1.698
 8422SOL    HW126165   3.235   0.240   1.754
 8422SOL    HW226166   3.195   0.090   1.704
 8423SOL     OW26167   2.193   3.527   1.302
 8423SOL    HW126168   2.233   3.436   1.292
 8423SOL    HW226169   2.255   3.596   1.264
 8424SOL     OW26170   2.675   2.459   1.349
 8424SOL    HW126171   2.765   2.451   1.390
 8424SOL    HW226172   2.681   2.437   1.251
 8425SOL     OW26173   6.857   4.675   6.089
 8425SOL    HW126174   6.809   4.743   6.033
 8425SOL    HW226175   6.948   4.660   6.051
 8426SOL     OW26176   3.625   3.174   2.006
 8426SOL    HW126177   3.592   3.086   1.972
 8426SOL    HW226178   3.559   3.246   1.984
 8427SOL     OW26179   1.774   2.335   0.102
 8427SOL    HW126180   1.812   2.347   0.010
 8427SOL    HW226181   1.792   2.418   0.156
 8428SOL     OW26182   6.286   3.862   0.817
 8428SOL    HW126183   6.348   3.914   0.876
 8428SOL    HW226184   6.312   3.766   0.819
 8429SOL     OW26185   1.941   6.468   3.024
 8429SOL    HW126186   1.872   6.530   2.987
 8429SOL    HW226187   2.024   6.474   2.969
 8430SOL     OW26188   4.869   4.814   3.047
 8430SOL    HW126189   4.783   4.767   3.066
 8430SOL    HW226190   4.869   4.904   3.091
 8431SOL     OW26191   2.978   3.655   2.220
 8431SOL    HW126192   2.905   3.593   2.195
 8431SOL    HW226193   3.038   3.671   2.142
 8432SOL     OW26194   4.676   6.031   7.004
 8432SOL    HW126195   4.746   6.087   0.023
 8432SOL    HW226196   4.586   6.071   7.020
 8433SOL     OW26197   0.597   1.073   3.823
 8433SOL    HW126198   0.597   1.082   3.923
 8433SOL    HW226199   0.594   1.164   3.781
 8434SOL     OW26200   5.908   6.703   6.446
 8434SOL    HW126201   5.842   6.707   6.522
 8434SOL    HW226202   5.902   6.787   6.392
 8435SOL     OW26203   4.694   2.131   1.284
 8435SOL    HW126204   4.723   2.058   1.221
 8435SOL    HW226205   4.749   2.126   1.367
 8436SOL     OW26206   2.932   4.296   1.708
 8436SOL    HW126207   2.854   4.313   1.769
 8436SOL    HW226208   2.980   4.382   1.691
 8437SOL     OW26209   0.368   1.830   0.877
 8437SOL    HW126210   0.371   1.796   0.971
 8437SOL    HW226211   0.448   1.889   0.861
 8438SOL     OW26212   2.218   5.635   0.658
 8438SOL    HW126213   2.289   5.706   0.662
 8438SOL    HW226214   2.128   5.677   0.658
 8439SOL     OW26215   5.177   0.826   1.403
 8439SOL    HW126216   5.168   0.914   1.355
 8439SOL    HW226217   5.160   0.752   1.338
 8440SOL     OW26218   0.960   3.076   4.159
 8440SOL    HW126219   0.996   3.091   4.067
 8440SOL    HW226220   0.999   3.143   4.222
 8441SOL     OW26221   4.517   5.891   2.088
 8441SOL    HW126222   4.435   5.849   2.126
 8441SOL    HW226223   4.552   5.960   2.152
 8442SOL     OW26224   2.656   2.695   1.025
 8442SOL    HW126225   2.671   2.741   0.937
 8442SOL    HW226226   2.711   2.741   1.095
 8443SOL     OW26227   0.124   1.748   1.172
 8443SOL    HW126228   0.224   1.749   1.170
 8443SOL    HW226229   0.090   1.668   1.124
 8444SOL     OW26230   4.426   1.659   3.514
 8444SOL    HW126231   4.362   1.628   3.444
 8444SOL    HW226232   4.385   1.735   3.565
 8445SOL     OW26233   4.936   5.613   2.282
 8445SOL    HW126234   4.872   5.537   2.285
 8445SOL    HW226235   4.937   5.659   2.371
 8446SOL     OW26236   0.004   3.383   3.145
 8446SOL    HW126237   0.066   3.305   3.135
 8446SOL    HW226238   6.939   3.349   3.173
 8447SOL     OW26239   4.542   4.280   1.225
 8447SOL    HW126240   4.491   4.273   1.311
 8447SOL    HW226241   4.505   4.214   1.159
 8448SOL     OW26242   1.877   4.052   5.901
 8448SOL    HW126243   1.814   4.108   5.847
 8448SOL    HW226244   1.952   4.109   5.935
 8449SOL     OW26245   1.050   0.784   5.281
 8449SOL    HW126246   1.006   0.750   5.197
 8449SOL    HW226247   0.986   0.776   5.357
 8450SOL     OW26248   1.985   5.769   0.750
 8450SOL    HW126249   1.899   5.727   0.723
 8450SOL    HW226250   1.994   5.767   0.850
 8451SOL     OW26251   3.082   3.384   0.677
 8451SOL    HW126252   3.033   3.453   0.730
 8451SOL    HW226253   3.035   3.296   0.686
 8452SOL     OW26254   0.097   5.723   1.086
 8452SOL    HW126255   0.097   5.759   0.993
 8452SOL    HW226256   0.003   5.707   1.115
 8453SOL     OW26257   6.811   4.940   4.975
 8453SOL    HW126258   6.791   4.865   5.038
 8453SOL    HW226259   6.742   4.942   4.903
 8454SOL     OW26260   2.259   6.919   4.716
 8454SOL    HW126261   2.304   6.860   4.784
 8454SOL    HW226262   2.327   6.980   4.674
 8455SOL     OW26263   5.805   2.463   0.718
 8455SOL    HW126264   5.778   2.525   0.792
 8455SOL    HW226265   5.817   2.371   0.755
 8456SOL     OW26266   5.409   4.826   3.424
 8456SOL    HW126267   5.413   4.891   3.499
 8456SOL    HW226268   5.439   4.870   3.339
 8457SOL     OW26269   6.821   6.284   5.554
 8457SOL    HW126270   6.756   6.351   5.517
 8457SOL    HW226271   6.814   6.198   5.503
 8458SOL     OW26272   1.276   1.781   0.985
 8458SOL    HW126273   1.206   1.710   0.976
 8458SOL    HW226274   1.270   1.844   0.908
 8459SOL     OW26275   2.358   5.150   3.510
 8459SOL    HW126276   2.281   5.209   3.535
 8459SOL    HW226277   2.419   5.141   3.589
 8460SOL     OW26278   4.091   1.510   1.367
 8460SOL    HW126279   4.110   1.441   1.436
 8460SOL    HW226280   4.083   1.600   1.410
 8461SOL     OW26281   5.408   3.779   3.529
 8461SOL    HW126282   5.418   3.878   3.534
 8461SOL    HW226283   5.322   3.755   3.485
 8462SOL     OW26284   1.382   4.208   0.867
 8462SOL    HW126285   1.469   4.182   0.826
 8462SOL    HW226286   1.309   4.199   0.800
 8463SOL     OW26287   0.168   0.203   1.246
 8463SOL    HW126288   0.088   0.252   1.211
 8463SOL    HW226289   0.207   0.147   1.172
 8464SOL     OW26290   6.416   3.192   6.695
 8464SOL    HW126291   6.487   3.192   6.765
 8464SOL    HW226292   6.458   3.182   6.605
 8465SOL     OW26293   4.736   3.521   1.059
 8465SOL    HW126294   4.656   3.461   1.061
 8465SOL    HW226295   4.816   3.469   1.029
 8466SOL     OW26296   0.463   1.519   5.388
 8466SOL    HW126297   0.559   1.514   5.362
 8466SOL    HW226298   0.449   1.471   5.475
 8467SOL     OW26299   3.049   1.359   1.114
 8467SOL    HW126300   3.123   1.293   1.105
 8467SOL    HW226301   3.033   1.404   1.026
 8468SOL     OW26302   5.208   4.277   0.631
 8468SOL    HW126303   5.248   4.245   0.545
 8468SOL    HW226304   5.201   4.201   0.695
 8469SOL     OW26305   4.081   3.172   5.291
 8469SOL    HW126306   4.016   3.132   5.226
 8469SOL    HW226307   4.145   3.102   5.321
 8470SOL     OW26308   1.235   6.155   1.646
 8470SOL    HW126309   1.225   6.113   1.737
 8470SOL    HW226310   1.327   6.193   1.638
 8471SOL     OW26311   4.396   1.741   4.194
 8471SOL    HW126312   4.312   1.786   4.162
 8471SOL    HW226313   4.381   1.705   4.287
 8472SOL     OW26314   5.385   1.501   6.460
 8472SOL    HW126315   5.363   1.553   6.543
 8472SOL    HW226316   5.318   1.521   6.389
 8473SOL     OW26317   5.422   5.083   5.843
 8473SOL    HW126318   5.380   5.169   5.814
 8473SOL    HW226319   5.477   5.099   5.925
 8474SOL     OW26320   3.007   4.025   5.018
 8474SOL    HW126321   3.039   4.026   5.113
 8474SOL    HW226322   2.908   4.037   5.017
 8475SOL     OW26323   0.007   1.489   2.903
 8475SOL    HW126324   0.033   1.395   2.924
 8475SOL    HW226325   0.049   1.517   2.817
 8476SOL     OW26326   6.151   1.290   1.793
 8476SOL    HW126327   6.058   1.323   1.805
 8476SOL    HW226328   6.169   1.214   1.855
 8477SOL     OW26329   5.385   0.793   0.798
 8477SOL    HW126330   5.344   0.859   0.861
 8477SOL    HW226331   5.477   0.769   0.831
 8478SOL     OW26332   0.805   6.180   6.019
 8478SOL    HW126333   0.842   6.187   6.111
 8478SOL    HW226334   0.867   6.126   5.961
 8479SOL     OW26335   1.215   2.495   0.246
 8479SOL    HW126336   1.129   2.523   0.290
 8479SOL    HW226337   1.290   2.550   0.282
 8480SOL     OW26338   3.268   4.232   0.839
 8480SOL    HW126339   3.222   4.218   0.751
 8480SOL    HW226340   3.225   4.309   0.887
 8481SOL     OW26341   4.565   2.604   2.899
 8481SOL    HW126342   4.584   2.646   2.810
 8481SOL    HW226343   4.598   2.664   2.972
 8482SOL     OW26344   4.463   0.421   6.593
 8482SOL    HW126345   4.457   0.455   6.499
 8482SOL    HW226346   4.466   0.499   6.656
 8483SOL     OW26347   4.045   4.933   3.743
 8483SOL    HW126348   3.990   4.908   3.663
 8483SOL    HW226349   4.128   4.980   3.713
 8484SOL     OW26350   6.455   6.214   5.368
 8484SOL    HW126351   6.494   6.126   5.343
 8484SOL    HW226352   6.425   6.211   5.464
 8485SOL     OW26353   4.199   0.795   5.983
 8485SOL    HW126354   4.200   0.772   5.886
 8485SOL    HW226355   4.106   0.819   6.010
 8486SOL     OW26356   5.770   2.472   4.913
 8486SOL    HW126357   5.801   2.566   4.895
 8486SOL    HW226358   5.849   2.412   4.923
 8487SOL     OW26359   6.706   2.404   6.163
 8487SOL    HW126360   6.760   2.472   6.212
 8487SOL    HW226361   6.609   2.425   6.172
 8488SOL     OW26362   4.165   4.715   2.365
 8488SOL    HW126363   4.071   4.748   2.358
 8488SOL    HW226364   4.209   4.720   2.276
 8489SOL     OW26365   6.368   2.038   2.499
 8489SOL    HW126366   6.306   2.059   2.423
 8489SOL    HW226367   6.432   2.114   2.511
 8490SOL     OW26368   3.100   6.915   0.318
 8490SOL    HW126369   3.117   6.826   0.361
 8490SOL    HW226370   3.187   6.963   0.306
 8491SOL     OW26371   3.480   5.206   2.359
 8491SOL    HW126372   3.545   5.258   2.304
 8491SOL    HW226373   3.417   5.269   2.405
 8492SOL     OW26374   6.460   6.268   4.127
 8492SOL    HW126375   6.469   6.343   4.192
 8492SOL    HW226376   6.469   6.180   4.175
 8493SOL     OW26377   5.282   0.332   5.769
 8493SOL    HW126378   5.208   0.363   5.709
 8493SOL    HW226379   5.328   0.411   5.809
 8494SOL     OW26380   0.289   3.353   2.012
 8494SOL    HW126381   0.268   3.318   1.921
 8494SOL    HW226382   0.248   3.293   2.081
 8495SOL     OW26383   5.821   5.517   5.950
 8495SOL    HW126384   5.797   5.421   5.932
 8495SOL    HW226385   5.911   5.522   5.991
 8496SOL     OW26386   4.959   1.924   2.950
 8496SOL    HW126387   4.925   1.946   2.858
 8496SOL    HW226388   4.892   1.952   3.018
 8497SOL     OW26389   6.461   0.728   2.367
 8497SOL    HW126390   6.508   0.642   2.348
 8497SOL    HW226391   6.370   0.710   2.403
 8498SOL     OW26392   4.670   5.893   4.307
 8498SOL    HW126393   4.663   5.981   4.260
 8498SOL    HW226394   4.666   5.819   4.240
 8499SOL     OW26395   6.112   6.961   5.474
 8499SOL    HW126396   6.092   6.946   5.570
 8499SOL    HW226397   6.070   0.021   5.443
 8500SOL     OW26398   1.234   0.741   6.637
 8500SOL    HW126399   1.286   0.719   6.719
 8500SOL    HW226400   1.200   0.835   6.644
 8501SOL     OW26401   3.347   1.115   5.694
 8501SOL    HW126402   3.278   1.185   5.676
 8501SOL    HW226403   3.437   1.157   5.698
 8502SOL     OW26404   6.466   2.831   0.441
 8502SOL    HW126405   6.456   2.908   0.503
 8502SOL    HW226406   6.382   2.778   0.439
 8503SOL     OW26407   4.793   2.531   5.826
 8503SOL    HW126408   4.701   2.538   5.787
 8503SOL    HW226409   4.859   2.519   5.751
 8504SOL     OW26410   1.482   6.830   2.894
 8504SOL    HW126411   1.431   6.747   2.872
 8504SOL    HW226412   1.523   6.866   2.810
 8505SOL     OW26413   5.499   1.953   2.972
 8505SOL    HW126414   5.525   2.049   2.967
 8505SOL    HW226415   5.423   1.942   3.036
 8506SOL     OW26416   1.629   0.370   5.889
 8506SOL    HW126417   1.563   0.435   5.852
 8506SOL    HW226418   1.701   0.420   5.938
 8507SOL     OW26419   4.048   5.017   5.470
 8507SOL    HW126420   4.069   4.962   5.389
 8507SOL    HW226421   4.098   5.104   5.465
 8508SOL     OW26422   3.523   0.830   6.505
 8508SOL    HW126423   3.530   0.767   6.428
 8508SOL    HW226424   3.509   0.779   6.589
 8509SOL     OW26425   5.079   2.278   2.133
 8509SOL    HW126426   5.048   2.243   2.222
 8509SOL    HW226427   5.152   2.219   2.099
 8510SOL     OW26428   0.732   2.031   4.792
 8510SOL    HW126429   0.774   2.023   4.701
 8510SOL    HW226430   0.694   2.123   4.803
 8511SOL     OW26431   5.875   1.990   3.691
 8511SOL    HW126432   5.920   1.998   3.780
 8511SOL    HW226433   5.942   1.960   3.623
 8512SOL     OW26434   2.054   0.017   5.524
 8512SOL    HW126435   2.086   0.070   5.446
 8512SOL    HW226436   1.975   0.063   5.566
 8513SOL     OW26437   4.624   5.763   6.910
 8513SOL    HW126438   4.645   5.728   6.818
 8513SOL    HW226439   4.615   5.862   6.907
 8514SOL     OW26440   3.364   5.643   4.598
 8514SOL    HW126441   3.463   5.638   4.608
 8514SOL    HW226442   3.320   5.575   4.656
 8515SOL     OW26443   5.865   2.393   2.077
 8515SOL    HW126444   5.801   2.467   2.059
 8515SOL    HW226445   5.951   2.410   2.029
 8516SOL     OW26446   6.421   1.442   2.072
 8516SOL    HW126447   6.452   1.479   1.984
 8516SOL    HW226448   6.497   1.399   2.119
 8517SOL     OW26449   1.512   3.761   5.381
 8517SOL    HW126450   1.438   3.765   5.447
 8517SOL    HW226451   1.503   3.678   5.325
 8518SOL     OW26452   2.828   5.590   0.835
 8518SOL    HW126453   2.750   5.651   0.819
 8518SOL    HW226454   2.875   5.572   0.748
 8519SOL     OW26455   2.526   5.638   3.513
 8519SOL    HW126456   2.570   5.695   3.582
 8519SOL    HW226457   2.563   5.661   3.423
 8520SOL     OW26458   3.519   6.098   6.637
 8520SOL    HW126459   3.486   6.035   6.708
 8520SOL    HW226460   3.493   6.192   6.661
 8521SOL     OW26461   2.088   0.942   2.469
 8521SOL    HW126462   2.098   0.919   2.372
 8521SOL    HW226463   2.167   0.995   2.498
 8522SOL     OW26464   2.197   6.431   4.695
 8522SOL    HW126465   2.284   6.480   4.698
 8522SOL    HW226466   2.134   6.471   4.762
 8523SOL     OW26467   2.088   6.781   6.613
 8523SOL    HW126468   2.016   6.749   6.552
 8523SOL    HW226469   2.176   6.741   6.585
 8524SOL     OW26470   2.079   1.641   0.261
 8524SOL    HW126471   2.038   1.633   0.170
 8524SOL    HW226472   2.007   1.648   0.330
 8525SOL     OW26473   5.330   3.285   4.071
 8525SOL    HW126474   5.253   3.266   4.010
 8525SOL    HW226475   5.404   3.328   4.019
 8526SOL     OW26476   1.393   3.502   2.098
 8526SOL    HW126477   1.293   3.506   2.108
 8526SOL    HW226478   1.435   3.561   2.166
 8527SOL     OW26479   4.675   6.979   4.671
 8527SOL    HW126480   4.651   7.015   4.761
 8527SOL    HW226481   4.775   6.976   4.663
 8528SOL     OW26482   5.434   1.156   6.869
 8528SOL    HW126483   5.415   1.121   6.777
 8528SOL    HW226484   5.410   1.253   6.873
 8529SOL     OW26485   0.025   6.783   5.301
 8529SOL    HW126486   0.039   6.705   5.363
 8529SOL    HW226487   6.965   6.830   5.325
 8530SOL     OW26488   2.095   4.934   5.947
 8530SOL    HW126489   2.026   4.869   5.914
 8530SOL    HW226490   2.186   4.892   5.943
 8531SOL     OW26491   4.041   5.211   1.547
 8531SOL    HW126492   4.069   5.246   1.457
 8531SOL    HW226493   4.024   5.112   1.540
 8532SOL     OW26494   1.386   4.322   0.511
 8532SOL    HW126495   1.429   4.403   0.472
 8532SOL    HW226496   1.423   4.240   0.467
 8533SOL     OW26497   3.497   6.543   5.497
 8533SOL    HW126498   3.411   6.557   5.547
 8533SOL    HW226499   3.559   6.618   5.517
 8534SOL     OW26500   2.279   2.539   0.771
 8534SOL    HW126501   2.228   2.466   0.816
 8534SOL    HW226502   2.359   2.501   0.725
 8535SOL     OW26503   0.508   3.523   5.783
 8535SOL    HW126504   0.570   3.446   5.770
 8535SOL    HW226505   0.439   3.524   5.711
 8536SOL     OW26506   6.000   0.788   5.795
 8536SOL    HW126507   5.933   0.830   5.733
 8536SOL    HW226508   6.040   0.859   5.853
 8537SOL     OW26509   4.356   6.176   3.580
 8537SOL    HW126510   4.440   6.230   3.569
 8537SOL    HW226511   4.294   6.194   3.504
 8538SOL     OW26512   4.878   6.855   5.210
 8538SOL    HW126513   4.891   6.766   5.255
 8538SOL    HW226514   4.882   6.843   5.111
 8539SOL     OW26515   1.120   3.104   2.808
 8539SOL    HW126516   1.027   3.118   2.843
 8539SOL    HW226517   1.185   3.102   2.885
 8540SOL     OW26518   4.622   6.921   6.403
 8540SOL    HW126519   4.547   6.974   6.364
 8540SOL    HW226520   4.668   6.870   6.330
 8541SOL     OW26521   2.897   6.561   5.258
 8541SOL    HW126522   2.877   6.562   5.160
 8541SOL    HW226523   2.813   6.578   5.309
 8542SOL     OW26524   1.200   5.328   5.939
 8542SOL    HW126525   1.149   5.302   5.857
 8542SOL    HW226526   1.297   5.338   5.916
 8543SOL     OW26527   3.434   2.110   5.553
 8543SOL    HW126528   3.335   2.098   5.546
 8543SOL    HW226529   3.461   2.195   5.508
 8544SOL     OW26530   5.850   3.903   5.513
 8544SOL    HW126531   5.800   3.914   5.426
 8544SOL    HW226532   5.866   3.806   5.529
 8545SOL     OW26533   2.819   0.416   6.126
 8545SOL    HW126534   2.784   0.464   6.046
 8545SOL    HW226535   2.798   0.469   6.208
 8546SOL     OW26536   3.308   1.130   3.593
 8546SOL    HW126537   3.357   1.166   3.514
 8546SOL    HW226538   3.281   1.035   3.575
 8547SOL     OW26539   5.439   6.255   6.237
 8547SOL    HW126540   5.476   6.285   6.149
 8547SOL    HW226541   5.354   6.204   6.222
 8548SOL     OW26542   1.293   4.350   4.480
 8548SOL    HW126543   1.253   4.420   4.421
 8548SOL    HW226544   1.390   4.371   4.496
 8549SOL     OW26545   2.987   0.470   3.698
 8549SOL    HW126546   2.922   0.417   3.643
 8549SOL    HW226547   2.950   0.480   3.791
 8550SOL     OW26548   0.560   4.351   5.066
 8550SOL    HW126549   0.581   4.273   5.007
 8550SOL    HW226550   0.474   4.334   5.115
 8551SOL     OW26551   3.789   1.418   4.260
 8551SOL    HW126552   3.798   1.320   4.247
 8551SOL    HW226553   3.802   1.441   4.357
 8552SOL     OW26554   3.587   1.747   2.172
 8552SOL    HW126555   3.553   1.841   2.172
 8552SOL    HW226556   3.509   1.684   2.167
 8553SOL     OW26557   5.124   3.698   0.610
 8553SOL    HW126558   5.144   3.675   0.706
 8553SOL    HW226559   5.026   3.684   0.593
 8554SOL     OW26560   1.584   1.373   6.571
 8554SOL    HW126561   1.653   1.326   6.627
 8554SOL    HW226562   1.521   1.423   6.631
 8555SOL     OW26563   3.283   1.755   3.592
 8555SOL    HW126564   3.208   1.817   3.575
 8555SOL    HW226565   3.307   1.757   3.690
 8556SOL     OW26566   0.081   4.950   5.011
 8556SOL    HW126567   0.092   4.907   5.101
 8556SOL    HW226568   7.011   4.942   4.981
 8557SOL     OW26569   6.636   1.159   0.442
 8557SOL    HW126570   6.577   1.170   0.522
 8557SOL    HW226571   6.719   1.110   0.469
 8558SOL     OW26572   2.766   6.574   3.490
 8558SOL    HW126573   2.693   6.520   3.531
 8558SOL    HW226574   2.739   6.670   3.486
 8559SOL     OW26575   1.346   3.094   2.961
 8559SOL    HW126576   1.424   3.155   2.947
 8559SOL    HW226577   1.372   3.022   3.025
 8560SOL     OW26578   3.415   4.069   1.042
 8560SOL    HW126579   3.419   4.120   0.956
 8560SOL    HW226580   3.322   4.036   1.057
 8561SOL     OW26581   4.099   0.544   2.662
 8561SOL    HW126582   4.184   0.519   2.709
 8561SOL    HW226583   4.045   0.462   2.646
 8562SOL     OW26584   5.281   2.551   6.361
 8562SOL    HW126585   5.182   2.560   6.373
 8562SOL    HW226586   5.319   2.498   6.437
 8563SOL     OW26587   1.625   4.888   2.744
 8563SOL    HW126588   1.572   4.973   2.738
 8563SOL    HW226589   1.563   4.810   2.736
 8564SOL     OW26590   3.628   6.367   0.086
 8564SOL    HW126591   3.664   6.421   0.009
 8564SOL    HW226592   3.690   6.375   0.164
 8565SOL     OW26593   0.855   5.393   1.045
 8565SOL    HW126594   0.770   5.423   1.088
 8565SOL    HW226595   0.835   5.358   0.953
 8566SOL     OW26596   3.643   0.934   3.559
 8566SOL    HW126597   3.642   1.005   3.489
 8566SOL    HW226598   3.560   0.879   3.552
 8567SOL     OW26599   1.636   2.531   1.367
 8567SOL    HW126600   1.641   2.452   1.306
 8567SOL    HW226601   1.691   2.514   1.449
 8568SOL     OW26602   6.031   0.152   5.944
 8568SOL    HW126603   5.933   0.172   5.944
 8568SOL    HW226604   6.082   0.235   5.925
 8569SOL     OW26605   5.068   1.173   6.652
 8569SOL    HW126606   5.092   1.239   6.724
 8569SOL    HW226607   5.042   1.223   6.569
 8570SOL     OW26608   1.530   1.949   3.576
 8570SOL    HW126609   1.578   1.871   3.614
 8570SOL    HW226610   1.499   1.927   3.483
 8571SOL     OW26611   1.493   0.752   3.311
 8571SOL    HW126612   1.424   0.684   3.287
 8571SOL    HW226613   1.470   0.839   3.267
 8572SOL     OW26614   3.153   3.949   5.589
 8572SOL    HW126615   3.235   3.956   5.645
 8572SOL    HW226616   3.078   3.998   5.633
 8573SOL     OW26617   1.436   6.220   6.199
 8573SOL    HW126618   1.341   6.250   6.187
 8573SOL    HW226619   1.442   6.160   6.279
 8574SOL     OW26620   5.856   1.215   5.110
 8574SOL    HW126621   5.905   1.135   5.074
 8574SOL    HW226622   5.875   1.225   5.207
 8575SOL     OW26623   2.962   5.759   4.766
 8575SOL    HW126624   2.873   5.714   4.768
 8575SOL    HW226625   2.975   5.802   4.677
 8576SOL     OW26626   1.331   3.893   5.097
 8576SOL    HW126627   1.411   3.905   5.038
 8576SOL    HW226628   1.298   3.799   5.088
 8577SOL     OW26629   1.934   0.583   0.406
 8577SOL    HW126630   2.015   0.575   0.348
 8577SOL    HW226631   1.899   0.677   0.402
 8578SOL     OW26632   1.022   0.247   6.074
 8578SOL    HW126633   1.068   0.317   6.128
 8578SOL    HW226634   1.036   0.158   6.116
 8579SOL     OW26635   3.688   6.601   2.057
 8579SOL    HW126636   3.768   6.656   2.083
 8579SOL    HW226637   3.656   6.549   2.136
 8580SOL     OW26638   2.687   0.302   1.823
 8580SOL    HW126639   2.645   0.274   1.737
 8580SOL    HW226640   2.762   0.366   1.805
 8581SOL     OW26641   3.927   3.850   2.258
 8581SOL    HW126642   3.866   3.778   2.225
 8581SOL    HW226643   3.928   3.925   2.193
 8582SOL     OW26644   4.702   5.678   5.918
 8582SOL    HW126645   4.688   5.614   5.994
 8582SOL    HW226646   4.627   5.668   5.852
 8583SOL     OW26647   3.503   6.676   3.239
 8583SOL    HW126648   3.526   6.771   3.263
 8583SOL    HW226649   3.580   6.634   3.190
 8584SOL     OW26650   6.394   1.823   5.231
 8584SOL    HW126651   6.348   1.911   5.218
 8584SOL    HW226652   6.377   1.765   5.151
 8585SOL     OW26653   4.635   2.103   2.145
 8585SOL    HW126654   4.729   2.122   2.117
 8585SOL    HW226655   4.597   2.184   2.189
 8586SOL     OW26656   6.459   5.840   5.560
 8586SOL    HW126657   6.500   5.874   5.645
 8586SOL    HW226658   6.512   5.763   5.525
 8587SOL     OW26659   6.904   1.364   0.530
 8587SOL    HW126660   6.936   1.274   0.503
 8587SOL    HW226661   6.982   1.421   0.556
 8588SOL     OW26662   1.583   0.912   5.380
 8588SOL    HW126663   1.674   0.880   5.406
 8588SOL    HW226664   1.543   0.849   5.313
 8589SOL     OW26665   5.663   2.931   6.807
 8589SOL    HW126666   5.669   2.838   6.769
 8589SOL    HW226667   5.609   2.988   6.745
 8590SOL     OW26668   1.454   1.298   3.236
 8590SOL    HW126669   1.451   1.246   3.321
 8590SOL    HW226670   1.483   1.392   3.254
 8591SOL     OW26671   0.926   3.925   4.859
 8591SOL    HW126672   0.930   3.881   4.949
 8591SOL    HW226673   0.838   3.905   4.816
 8592SOL     OW26674   0.244   2.046   4.769
 8592SOL    HW126675   0.144   2.044   4.779
 8592SOL    HW226676   0.286   2.044   4.859
 8593SOL     OW26677   6.365   1.702   0.529
 8593SOL    HW126678   6.396   1.653   0.448
 8593SOL    HW226679   6.266   1.711   0.526
 8594SOL     OW26680   5.961   4.117   6.490
 8594SOL    HW126681   5.926   4.210   6.474
 8594SOL    HW226682   5.951   4.063   6.407
 8595SOL     OW26683   5.360   6.230   2.494
 8595SOL    HW126684   5.393   6.232   2.589
 8595SOL    HW226685   5.329   6.321   2.467
 8596SOL     OW26686   0.815   2.191   5.790
 8596SOL    HW126687   0.875   2.149   5.721
 8596SOL    HW226688   0.761   2.120   5.835
 8597SOL     OW26689   5.852   2.128   5.877
 8597SOL    HW126690   5.824   2.044   5.923
 8597SOL    HW226691   5.933   2.166   5.922
 8598SOL     OW26692   6.706   1.106   6.076
 8598SOL    HW126693   6.795   1.128   6.115
 8598SOL    HW226694   6.646   1.185   6.084
 8599SOL     OW26695   5.756   3.969   5.253
 8599SOL    HW126696   5.682   3.999   5.194
 8599SOL    HW226697   5.831   4.035   5.250
 8600SOL     OW26698   4.313   2.707   1.218
 8600SOL    HW126699   4.358   2.669   1.299
 8600SOL    HW226700   4.214   2.703   1.231
 8601SOL     OW26701   4.890   5.615   2.756
 8601SOL    HW126702   4.887   5.695   2.816
 8601SOL    HW226703   4.887   5.644   2.661
 8602SOL     OW26704   1.570   0.146   5.493
 8602SOL    HW126705   1.518   0.078   5.441
 8602SOL    HW226706   1.508   0.193   5.556
 8603SOL     OW26707   0.672   0.978   6.740
 8603SOL    HW126708   0.748   0.933   6.694
 8603SOL    HW226709   0.690   0.984   6.838
 8604SOL     OW26710   1.847   5.375   6.312
 8604SOL    HW126711   1.884   5.287   6.284
 8604SOL    HW226712   1.909   5.419   6.377
 8605SOL     OW26713   6.475   4.148   3.759
 8605SOL    HW126714   6.572   4.125   3.772
 8605SOL    HW226715   6.439   4.095   3.682
 8606SOL     OW26716   1.061   0.594   6.451
 8606SOL    HW126717   1.095   0.656   6.522
 8606SOL    HW226718   1.100   0.503   6.465
 8607SOL     OW26719   2.922   3.049   1.121
 8607SOL    HW126720   2.886   3.138   1.148
 8607SOL    HW226721   2.979   3.060   1.039
 8608SOL     OW26722   1.806   6.405   1.935
 8608SOL    HW126723   1.865   6.327   1.913
 8608SOL    HW226724   1.715   6.391   1.895
 8609SOL     OW26725   5.559   2.612   5.037
 8609SOL    HW126726   5.516   2.547   5.101
 8609SOL    HW226727   5.625   2.563   4.980
 8610SOL     OW26728   6.761   5.168   2.312
 8610SOL    HW126729   6.813   5.084   2.298
 8610SOL    HW226730   6.717   5.194   2.226
 8611SOL     OW26731   2.117   1.444   5.019
 8611SOL    HW126732   2.109   1.528   5.072
 8611SOL    HW226733   2.025   1.407   5.000
 8612SOL     OW26734   3.379   3.228   5.037
 8612SOL    HW126735   3.395   3.142   4.988
 8612SOL    HW226736   3.321   3.287   4.982
 8613SOL     OW26737   3.678   3.061   3.581
 8613SOL    HW126738   3.663   3.136   3.516
 8613SOL    HW226739   3.595   3.045   3.634
 8614SOL     OW26740   0.772   2.629   3.670
 8614SOL    HW126741   0.766   2.681   3.755
 8614SOL    HW226742   0.820   2.543   3.688
 8615SOL     OW26743   3.795   1.308   5.593
 8615SOL    HW126744   3.717   1.371   5.598
 8615SOL    HW226745   3.834   1.295   5.684
 8616SOL     OW26746   5.765   4.424   5.428
 8616SOL    HW126747   5.732   4.439   5.522
 8616SOL    HW226748   5.771   4.512   5.381
 8617SOL     OW26749   1.371   6.909   3.114
 8617SOL    HW126750   1.424   6.874   3.036
 8617SOL    HW226751   1.286   6.950   3.080
 8618SOL     OW26752   5.778   4.072   0.807
 8618SOL    HW126753   5.779   3.973   0.823
 8618SOL    HW226754   5.830   4.093   0.724
 8619SOL     OW26755   5.025   5.603   0.424
 8619SOL    HW126756   5.012   5.578   0.328
 8619SOL    HW226757   4.949   5.567   0.478
 8620SOL     OW26758   1.496   6.405   3.807
 8620SOL    HW126759   1.572   6.340   3.806
 8620SOL    HW226760   1.435   6.384   3.884
 8621SOL     OW26761   6.236   3.633   1.724
 8621SOL    HW126762   6.142   3.602   1.742
 8621SOL    HW226763   6.297   3.595   1.794
 8622SOL     OW26764   0.871   5.727   1.243
 8622SOL    HW126765   0.830   5.736   1.334
 8622SOL    HW226766   0.814   5.667   1.187
 8623SOL     OW26767   2.000   1.919   3.297
 8623SOL    HW126768   1.950   1.884   3.218
 8623SOL    HW226769   2.070   1.984   3.266
 8624SOL     OW26770   3.067   3.896   5.303
 8624SOL    HW126771   3.061   3.886   5.402
 8624SOL    HW226772   3.083   3.993   5.281
 8625SOL     OW26773   4.414   3.681   6.015
 8625SOL    HW126774   4.416   3.623   5.933
 8625SOL    HW226775   4.493   3.660   6.072
 8626SOL     OW26776   4.680   1.858   1.708
 8626SOL    HW126777   4.652   1.853   1.612
 8626SOL    HW226778   4.600   1.877   1.765
 8627SOL     OW26779   1.399   0.244   2.879
 8627SOL    HW126780   1.388   0.324   2.819
 8627SOL    HW226781   1.357   0.164   2.836
 8628SOL     OW26782   1.521   6.932   1.146
 8628SOL    HW126783   1.609   6.893   1.120
 8628SOL    HW226784   1.447   6.876   1.108
 8629SOL     OW26785   0.067   6.940   4.671
 8629SOL    HW126786   0.102   6.867   4.730
 8629SOL    HW226787   7.006   6.910   4.629
 8630SOL     OW26788   4.847   2.384   1.679
 8630SOL    HW126789   4.758   2.426   1.698
 8630SOL    HW226790   4.873   2.325   1.756
 8631SOL     OW26791   1.902   6.349   6.125
 8631SOL    HW126792   1.807   6.357   6.094
 8631SOL    HW226793   1.905   6.351   6.225
 8632SOL     OW26794   6.150   5.663   4.023
 8632SOL    HW126795   6.103   5.750   4.009
 8632SOL    HW226796   6.179   5.656   4.118
 8633SOL     OW26797   6.497   3.410   5.861
 8633SOL    HW126798   6.538   3.492   5.902
 8633SOL    HW226799   6.405   3.432   5.828
 8634SOL     OW26800   5.428   5.058   6.351
 8634SOL    HW126801   5.394   4.970   6.317
 8634SOL    HW226802   5.518   5.045   6.393
 8635SOL     OW26803   4.887   2.412   6.716
 8635SOL    HW126804   4.858   2.498   6.758
 8635SOL    HW226805   4.981   2.392   6.744
 8636SOL     OW26806   3.728   5.986   1.829
 8636SOL    HW126807   3.732   6.078   1.790
 8636SOL    HW226808   3.697   5.922   1.759
 8637SOL     OW26809   2.523   2.600   0.082
 8637SOL    HW126810   2.554   2.636   0.170
 8637SOL    HW226811   2.445   2.539   0.097
 8638SOL     OW26812   5.021   2.572   4.703
 8638SOL    HW126813   4.975   2.661   4.696
 8638SOL    HW226814   5.055   2.560   4.796
 8639SOL     OW26815   2.874   4.742   0.195
 8639SOL    HW126816   2.908   4.772   0.106
 8639SOL    HW226817   2.848   4.822   0.249
 8640SOL     OW26818   3.775   2.505   0.458
 8640SOL    HW126819   3.779   2.461   0.368
 8640SOL    HW226820   3.863   2.495   0.504
 8641SOL     OW26821   2.970   4.782   3.456
 8641SOL    HW126822   2.907   4.858   3.472
 8641SOL    HW226823   3.035   4.777   3.532
 8642SOL     OW26824   2.432   5.970   3.256
 8642SOL    HW126825   2.375   5.890   3.239
 8642SOL    HW226826   2.471   5.965   3.348
 8643SOL     OW26827   3.709   6.394   1.315
 8643SOL    HW126828   3.798   6.389   1.269
 8643SOL    HW226829   3.701   6.318   1.380
 8644SOL     OW26830   5.837   2.872   6.174
 8644SOL    HW126831   5.890   2.819   6.108
 8644SOL    HW226832   5.893   2.892   6.254
 8645SOL     OW26833   4.843   4.883   2.570
 8645SOL    HW126834   4.882   4.797   2.538
 8645SOL    HW226835   4.747   4.870   2.594
 8646SOL     OW26836   0.164   2.179   5.061
 8646SOL    HW126837   0.086   2.242   5.068
 8646SOL    HW226838   0.136   2.088   5.093
 8647SOL     OW26839   2.257   5.319   1.704
 8647SOL    HW126840   2.243   5.261   1.784
 8647SOL    HW226841   2.251   5.415   1.730
 8648SOL     OW26842   5.225   5.387   0.398
 8648SOL    HW126843   5.183   5.444   0.328
 8648SOL    HW226844   5.160   5.319   0.430
 8649SOL     OW26845   5.539   1.667   1.448
 8649SOL    HW126846   5.473   1.621   1.507
 8649SOL    HW226847   5.528   1.635   1.354
 8650SOL     OW26848   2.339   0.745   5.464
 8650SOL    HW126849   2.329   0.803   5.545
 8650SOL    HW226850   2.322   0.650   5.489
 8651SOL     OW26851   3.869   1.900   2.106
 8651SOL    HW126852   3.844   1.973   2.043
 8651SOL    HW226853   3.791   1.877   2.164
 8652SOL     OW26854   0.015   2.189   4.459
 8652SOL    HW126855   0.079   2.266   4.449
 8652SOL    HW226856   6.988   2.179   4.374
 8653SOL     OW26857   5.919   1.402   0.048
 8653SOL    HW126858   5.983   1.326   0.056
 8653SOL    HW226859   5.860   1.405   0.129
 8654SOL     OW26860   0.597   5.048   2.865
 8654SOL    HW126861   0.682   4.999   2.885
 8654SOL    HW226862   0.553   5.074   2.951
 8655SOL     OW26863   1.100   6.966   4.750
 8655SOL    HW126864   1.148   6.973   4.837
 8655SOL    HW226865   1.017   7.022   4.753
 8656SOL     OW26866   4.112   5.881   0.965
 8656SOL    HW126867   4.135   5.853   0.872
 8656SOL    HW226868   4.083   5.977   0.965
 8657SOL     OW26869   3.103   1.472   2.848
 8657SOL    HW126870   3.061   1.560   2.868
 8657SOL    HW226871   3.179   1.455   2.911
 8658SOL     OW26872   6.316   3.664   1.215
 8658SOL    HW126873   6.360   3.748   1.183
 8658SOL    HW226874   6.315   3.663   1.315
 8659SOL     OW26875   4.069   0.769   3.241
 8659SOL    HW126876   4.130   0.705   3.289
 8659SOL    HW226877   3.990   0.720   3.206
 8660SOL     OW26878   0.193   3.811   1.526
 8660SOL    HW126879   0.177   3.894   1.473
 8660SOL    HW226880   0.191   3.833   1.624
 8661SOL     OW26881   6.029   3.722   2.524
 8661SOL    HW126882   6.115   3.758   2.560
 8661SOL    HW226883   5.979   3.795   2.478
 8662SOL     OW26884   1.559   2.262   2.534
 8662SOL    HW126885   1.484   2.272   2.468
 8662SOL    HW226886   1.607   2.349   2.544
 8663SOL     OW26887   3.504   4.871   2.979
 8663SOL    HW126888   3.569   4.801   2.950
 8663SOL    HW226889   3.463   4.914   2.898
 8664SOL     OW26890   3.236   6.170   4.126
 8664SOL    HW126891   3.198   6.255   4.092
 8664SOL    HW226892   3.223   6.165   4.225
 8665SOL     OW26893   6.303   4.193   6.530
 8665SOL    HW126894   6.255   4.251   6.596
 8665SOL    HW226895   6.256   4.105   6.523
 8666SOL     OW26896   4.834   0.687   2.923
 8666SOL    HW126897   4.811   0.696   3.020
 8666SOL    HW226898   4.776   0.618   2.881
 8667SOL     OW26899   5.284   2.131   2.046
 8667SOL    HW126900   5.282   2.047   2.100
 8667SOL    HW226901   5.254   2.111   1.953
 8668SOL     OW26902   4.602   1.912   4.285
 8668SOL    HW126903   4.520   1.855   4.277
 8668SOL    HW226904   4.683   1.854   4.288
 8669SOL     OW26905   0.202   6.019   6.021
 8669SOL    HW126906   0.136   6.092   6.009
 8669SOL    HW226907   0.155   5.931   6.030
 8670SOL     OW26908   0.085   5.388   5.565
 8670SOL    HW126909   0.147   5.429   5.633
 8670SOL    HW226910   0.129   5.310   5.522
 8671SOL     OW26911   6.996   2.963   3.572
 8671SOL    HW126912   0.027   3.046   3.564
 8671SOL    HW226913   0.016   2.898   3.632
 8672SOL     OW26914   6.591   1.174   2.514
 8672SOL    HW126915   6.611   1.194   2.610
 8672SOL    HW226916   6.526   1.098   2.508
 8673SOL     OW26917   0.942   1.243   1.421
 8673SOL    HW126918   0.887   1.163   1.449
 8673SOL    HW226919   0.977   1.289   1.503
 8674SOL     OW26920   0.288   3.400   3.374
 8674SOL    HW126921   0.307   3.454   3.456
 8674SOL    HW226922   0.312   3.453   3.293
 8675SOL     OW26923   4.581   2.827   5.307
 8675SOL    HW126924   4.658   2.882   5.274
 8675SOL    HW226925   4.607   2.778   5.390
 8676SOL     OW26926   4.359   2.238   0.638
 8676SOL    HW126927   4.354   2.315   0.701
 8676SOL    HW226928   4.300   2.164   0.671
 8677SOL     OW26929   2.840   0.548   0.142
 8677SOL    HW126930   2.792   0.529   0.227
 8677SOL    HW226931   2.775   0.585   0.075
 8678SOL     OW26932   2.944   2.129   0.310
 8678SOL    HW126933   3.012   2.106   0.380
 8678SOL    HW226934   2.875   2.056   0.307
 8679SOL     OW26935   1.718   1.754   6.546
 8679SOL    HW126936   1.730   1.852   6.561
 8679SOL    HW226937   1.736   1.705   6.631
 8680SOL     OW26938   0.003   0.507   0.997
 8680SOL    HW126939   6.981   0.560   0.927
 8680SOL    HW226940   0.070   0.565   1.043
 8681SOL     OW26941   5.572   4.678   1.023
 8681SOL    HW126942   5.601   4.746   1.090
 8681SOL    HW226943   5.480   4.700   0.990
 8682SOL     OW26944   2.441   1.073   2.958
 8682SOL    HW126945   2.391   1.040   3.038
 8682SOL    HW226946   2.435   1.005   2.885
 8683SOL     OW26947   2.562   4.520   3.853
 8683SOL    HW126948   2.623   4.549   3.927
 8683SOL    HW226949   2.483   4.473   3.892
 8684SOL     OW26950   2.193   4.091   3.360
 8684SOL    HW126951   2.234   4.126   3.444
 8684SOL    HW226952   2.095   4.078   3.374
 8685SOL     OW26953   5.087   3.716   5.010
 8685SOL    HW126954   4.992   3.693   4.987
 8685SOL    HW226955   5.142   3.718   4.926
 8686SOL     OW26956   1.033   5.127   2.929
 8686SOL    HW126957   1.131   5.105   2.934
 8686SOL    HW226958   1.002   5.158   3.019
 8687SOL     OW26959   5.476   4.637   5.351
 8687SOL    HW126960   5.390   4.684   5.331
 8687SOL    HW226961   5.458   4.541   5.372
 8688SOL     OW26962   0.674   4.039   4.487
 8688SOL    HW126963   0.761   4.082   4.463
 8688SOL    HW226964   0.692   3.951   4.532
 8689SOL     OW26965   4.686   3.244   1.195
 8689SOL    HW126966   4.689   3.293   1.283
 8689SOL    HW226967   4.777   3.211   1.173
 8690SOL     OW26968   0.984   2.080   1.901
 8690SOL    HW126969   1.076   2.080   1.940
 8690SOL    HW226970   0.950   1.986   1.898
 8691SOL     OW26971   3.598   1.897   6.822
 8691SOL    HW126972   3.545   1.867   6.902
 8691SOL    HW226973   3.539   1.949   6.760
 8692SOL     OW26974   5.220   2.364   4.763
 8692SOL    HW126975   5.142   2.303   4.747
 8692SOL    HW226976   5.197   2.430   4.835
 8693SOL     OW26977   0.138   0.592   5.559
 8693SOL    HW126978   0.101   0.500   5.563
 8693SOL    HW226979   0.112   0.643   5.641
 8694SOL     OW26980   4.110   3.682   5.676
 8694SOL    HW126981   4.129   3.658   5.771
 8694SOL    HW226982   4.069   3.603   5.629
 8695SOL     OW26983   3.625   4.952   1.137
 8695SOL    HW126984   3.528   4.971   1.149
 8695SOL    HW226985   3.638   4.885   1.064
 8696SOL     OW26986   2.769   6.148   6.637
 8696SOL    HW126987   2.800   6.098   6.718
 8696SOL    HW226988   2.845   6.156   6.572
 8697SOL     OW26989   1.296   3.503   4.884
 8697SOL    HW126990   1.303   3.482   4.786
 8697SOL    HW226991   1.315   3.421   4.937
 8698SOL     OW26992   5.137   3.940   0.381
 8698SOL    HW126993   5.123   3.863   0.318
 8698SOL    HW226994   5.233   3.942   0.409
 8699SOL     OW26995   2.499   2.210   0.916
 8699SOL    HW126996   2.486   2.246   0.824
 8699SOL    HW226997   2.549   2.276   0.971
 8700SOL     OW26998   0.182   1.712   4.607
 8700SOL    HW126999   0.180   1.711   4.707
 8700SOL    HW227000   0.218   1.800   4.575
 8701SOL     OW27001   1.907   3.642   6.480
 8701SOL    HW127002   1.863   3.674   6.563
 8701SOL    HW227003   1.889   3.544   6.468
 8702SOL     OW27004   5.781   4.098   1.489
 8702SOL    HW127005   5.689   4.098   1.450
 8702SOL    HW227006   5.800   4.188   1.529
 8703SOL     OW27007   1.905   5.755   2.053
 8703SOL    HW127008   1.984   5.738   2.112
 8703SOL    HW227009   1.867   5.845   2.074
 8704SOL     OW27010   6.744   1.280   4.241
 8704SOL    HW127011   6.790   1.269   4.329
 8704SOL    HW227012   6.771   1.206   4.179
 8705SOL     OW27013   3.441   2.186   0.585
 8705SOL    HW127014   3.442   2.234   0.673
 8705SOL    HW227015   3.535   2.168   0.555
 8706SOL     OW27016   4.718   2.828   5.924
 8706SOL    HW127017   4.790   2.759   5.931
 8706SOL    HW227018   4.740   2.905   5.985
 8707SOL     OW27019   1.012   0.879   3.859
 8707SOL    HW127020   0.999   0.908   3.764
 8707SOL    HW227021   0.926   0.889   3.909
 8708SOL     OW27022   5.671   2.535   0.444
 8708SOL    HW127023   5.748   2.558   0.384
 8708SOL    HW227024   5.705   2.481   0.522
 8709SOL     OW27025   6.816   5.961   3.594
 8709SOL    HW127026   6.762   6.005   3.523
 8709SOL    HW227027   6.764   5.962   3.680
 8710SOL     OW27028   2.453   2.561   3.816
 8710SOL    HW127029   2.528   2.524   3.762
 8710SOL    HW227030   2.424   2.649   3.778
 8711SOL     OW27031   2.002   1.182   2.223
 8711SOL    HW127032   2.069   1.209   2.292
 8711SOL    HW227033   1.911   1.182   2.263
 8712SOL     OW27034   1.917   3.865   4.523
 8712SOL    HW127035   1.991   3.920   4.562
 8712SOL    HW227036   1.850   3.926   4.481
 8713SOL     OW27037   0.250   3.956   2.578
 8713SOL    HW127038   0.274   3.928   2.670
 8713SOL    HW227039   0.253   3.877   2.516
 8714SOL     OW27040   6.760   4.020   6.443
 8714SOL    HW127041   6.706   4.038   6.525
 8714SOL    HW227042   6.850   3.984   6.469
 8715SOL     OW27043   2.387   5.226   0.831
 8715SOL    HW127044   2.339   5.210   0.917
 8715SOL    HW227045   2.474   5.272   0.849
 8716SOL     OW27046   5.915   0.369   2.394
 8716SOL    HW127047   5.821   0.402   2.400
 8716SOL    HW227048   5.962   0.388   2.480
 8717SOL     OW27049   3.268   2.015   0.739
 8717SOL    HW127050   3.313   2.072   0.670
 8717SOL    HW227051   3.338   1.962   0.788
 8718SOL     OW27052   2.742   5.584   6.222
 8718SOL    HW127053   2.701   5.646   6.156
 8718SOL    HW227054   2.693   5.497   6.222
 8719SOL     OW27055   2.882   1.798   5.038
 8719SOL    HW127056   2.918   1.839   4.955
 8719SOL    HW227057   2.957   1.783   5.103
 8720SOL     OW27058   0.609   6.148   4.901
 8720SOL    HW127059   0.545   6.155   4.978
 8720SOL    HW227060   0.702   6.139   4.937
 8721SOL     OW27061   1.332   0.567   1.147
 8721SOL    HW127062   1.379   0.486   1.110
 8721SOL    HW227063   1.314   0.631   1.072
 8722SOL     OW27064   3.985   1.207   0.277
 8722SOL    HW127065   3.997   1.113   0.310
 8722SOL    HW227066   4.045   1.268   0.329
 8723SOL     OW27067   3.957   6.360   3.294
 8723SOL    HW127068   3.945   6.277   3.239
 8723SOL    HW227069   3.871   6.381   3.341
 8724SOL     OW27070   3.200   1.254   5.224
 8724SOL    HW127071   3.266   1.185   5.250
 8724SOL    HW227072   3.204   1.268   5.125
 8725SOL     OW27073   0.307   0.875   2.388
 8725SOL    HW127074   0.305   0.823   2.303
 8725SOL    HW227075   0.278   0.817   2.464
 8726SOL     OW27076   6.632   1.418   0.662
 8726SOL    HW127077   6.595   1.325   0.669
 8726SOL    HW227078   6.720   1.415   0.614
 8727SOL     OW27079   4.928   5.483   6.801
 8727SOL    HW127080   4.995   5.453   6.733
 8727SOL    HW227081   4.890   5.571   6.774
 8728SOL     OW27082   6.043   6.071   4.202
 8728SOL    HW127083   5.980   5.999   4.232
 8728SOL    HW227084   6.129   6.029   4.173
 8729SOL     OW27085   5.624   5.862   5.946
 8729SOL    HW127086   5.586   5.773   5.973
 8729SOL    HW227087   5.625   5.923   6.025
 8730SOL     OW27088   3.934   4.733   1.777
 8730SOL    HW127089   4.011   4.723   1.714
 8730SOL    HW227090   3.968   4.764   1.866
 8731SOL     OW27091   0.191   2.492   4.065
 8731SOL    HW127092   0.227   2.568   4.011
 8731SOL    HW227093   0.139   2.527   4.143
 8732SOL     OW27094   5.184   6.256   5.356
 8732SOL    HW127095   5.254   6.326   5.341
 8732SOL    HW227096   5.224   6.165   5.343
 8733SOL     OW27097   6.617   4.427   2.036
 8733SOL    HW127098   6.629   4.419   1.937
 8733SOL    HW227099   6.694   4.384   2.083
 8734SOL     OW27100   0.985   5.089   0.815
 8734SOL    HW127101   1.044   5.133   0.882
 8734SOL    HW227102   0.958   5.155   0.744
 8735SOL     OW27103   1.041   3.084   6.095
 8735SOL    HW127104   1.103   3.015   6.057
 8735SOL    HW227105   1.033   3.161   6.030
 8736SOL     OW27106   1.907   6.262   3.219
 8736SOL    HW127107   1.923   6.328   3.145
 8736SOL    HW227108   1.811   6.233   3.217
 8737SOL     OW27109   0.070   5.533   6.604
 8737SOL    HW127110   0.140   5.484   6.655
 8737SOL    HW227111   7.010   5.537   6.657
 8738SOL     OW27112   2.098   3.045   2.222
 8738SOL    HW127113   2.175   2.982   2.232
 8738SOL    HW227114   2.018   2.996   2.188
 8739SOL     OW27115   4.753   4.468   2.554
 8739SOL    HW127116   4.804   4.390   2.591
 8739SOL    HW227117   4.665   4.436   2.518
 8740SOL     OW27118   2.746   1.412   3.329
 8740SOL    HW127119   2.816   1.429   3.259
 8740SOL    HW227120   2.656   1.405   3.285
 8741SOL     OW27121   1.488   1.991   2.113
 8741SOL    HW127122   1.508   1.897   2.087
 8741SOL    HW227123   1.559   2.052   2.079
 8742SOL     OW27124   1.889   3.129   1.893
 8742SOL    HW127125   1.974   3.162   1.935
 8742SOL    HW227126   1.898   3.032   1.873
 8743SOL     OW27127   0.989   3.671   6.735
 8743SOL    HW127128   0.961   3.576   6.721
 8743SOL    HW227129   1.024   3.708   6.649
 8744SOL     OW27130   3.182   3.964   6.288
 8744SOL    HW127131   3.113   4.035   6.277
 8744SOL    HW227132   3.270   4.007   6.313
 8745SOL     OW27133   5.852   1.687   6.428
 8745SOL    HW127134   5.824   1.693   6.524
 8745SOL    HW227135   5.796   1.749   6.373
 8746SOL     OW27136   4.153   4.882   4.796
 8746SOL    HW127137   4.180   4.978   4.795
 8746SOL    HW227138   4.156   4.847   4.890
 8747SOL     OW27139   0.831   0.229   2.208
 8747SOL    HW127140   0.823   0.318   2.252
 8747SOL    HW227141   0.926   0.198   2.213
 8748SOL     OW27142   5.919   1.586   4.096
 8748SOL    HW127143   5.825   1.611   4.073
 8748SOL    HW227144   5.928   1.580   4.195
 8749SOL     OW27145   2.858   1.982   4.212
 8749SOL    HW127146   2.946   2.016   4.247
 8749SOL    HW227147   2.837   2.026   4.125
 8750SOL     OW27148   4.418   3.783   1.097
 8750SOL    HW127149   4.357   3.706   1.075
 8750SOL    HW227150   4.376   3.839   1.169
 8751SOL     OW27151   2.151   0.243   0.532
 8751SOL    HW127152   2.076   0.252   0.466
 8751SOL    HW227153   2.223   0.309   0.511
 8752SOL     OW27154   0.259   3.175   6.209
 8752SOL    HW127155   0.168   3.217   6.207
 8752SOL    HW227156   0.308   3.198   6.125
 8753SOL     OW27157   2.202   1.966   1.168
 8753SOL    HW127158   2.286   2.020   1.172
 8753SOL    HW227159   2.171   1.960   1.073
 8754SOL     OW27160   1.219   5.977   6.257
 8754SOL    HW127161   1.296   5.966   6.193
 8754SOL    HW227162   1.183   5.887   6.281
 8755SOL     OW27163   0.517   2.215   1.809
 8755SOL    HW127164   0.462   2.177   1.883
 8755SOL    HW227165   0.610   2.233   1.842
 8756SOL     OW27166   1.804   1.844   2.085
 8756SOL    HW127167   1.771   1.794   2.004
 8756SOL    HW227168   1.867   1.916   2.057
 8757SOL     OW27169   5.540   5.894   4.571
 8757SOL    HW127170   5.520   5.989   4.598
 8757SOL    HW227171   5.539   5.887   4.471
 8758SOL     OW27172   3.604   5.416   6.249
 8758SOL    HW127173   3.541   5.488   6.220
 8758SOL    HW227174   3.647   5.374   6.169
 8759SOL     OW27175   6.481   1.379   1.719
 8759SOL    HW127176   6.438   1.290   1.710
 8759SOL    HW227177   6.412   1.451   1.718
 8760SOL     OW27178   2.021   2.294   4.629
 8760SOL    HW127179   2.060   2.242   4.553
 8760SOL    HW227180   2.095   2.330   4.685
 8761SOL     OW27181   4.703   2.654   3.328
 8761SOL    HW127182   4.667   2.686   3.416
 8761SOL    HW227183   4.649   2.577   3.295
 8762SOL     OW27184   4.385   6.168   3.176
 8762SOL    HW127185   4.400   6.132   3.084
 8762SOL    HW227186   4.390   6.267   3.175
 8763SOL     OW27187   6.844   1.488   5.459
 8763SOL    HW127188   6.903   1.463   5.383
 8763SOL    HW227189   6.754   1.447   5.446
 8764SOL     OW27190   3.396   5.004   5.924
 8764SOL    HW127191   3.410   4.947   6.006
 8764SOL    HW227192   3.344   4.952   5.856
 8765SOL     OW27193   4.730   6.654   4.089
 8765SOL    HW127194   4.633   6.662   4.112
 8765SOL    HW227195   4.740   6.634   3.992
 8766SOL     OW27196   5.882   0.241   4.718
 8766SOL    HW127197   5.805   0.180   4.735
 8766SOL    HW227198   5.858   0.334   4.747
 8767SOL     OW27199   1.890   0.860   4.821
 8767SOL    HW127200   1.883   0.847   4.722
 8767SOL    HW227201   1.970   0.812   4.856
 8768SOL     OW27202   6.616   1.719   0.986
 8768SOL    HW127203   6.623   1.738   1.084
 8768SOL    HW227204   6.657   1.794   0.935
 8769SOL     OW27205   6.409   6.650   6.056
 8769SOL    HW127206   6.408   6.573   5.992
 8769SOL    HW227207   6.481   6.714   6.030
 8770SOL     OW27208   4.705   1.405   0.164
 8770SOL    HW127209   4.682   1.468   0.238
 8770SOL    HW227210   4.754   1.326   0.201
 8771SOL     OW27211   0.738   2.336   6.232
 8771SOL    HW127212   0.798   2.404   6.189
 8771SOL    HW227213   0.706   2.271   6.163
 8772SOL     OW27214   0.843   6.697   3.675
 8772SOL    HW127215   0.812   6.734   3.587
 8772SOL    HW227216   0.943   6.697   3.678
 8773SOL     OW27217   0.068   1.320   3.707
 8773SOL    HW127218   0.155   1.284   3.741
 8773SOL    HW227219   0.024   1.375   3.779
 8774SOL     OW27220   1.668   2.105   6.846
 8774SOL    HW127221   1.745   2.078   6.788
 8774SOL    HW227222   1.674   2.059   6.934
 8775SOL     OW27223   5.232   2.122   2.794
 8775SOL    HW127224   5.198   2.077   2.712
 8775SOL    HW227225   5.281   2.056   2.851
 8776SOL     OW27226   4.986   2.322   1.459
 8776SOL    HW127227   5.006   2.398   1.397
 8776SOL    HW227228   4.930   2.354   1.535
 8777SOL     OW27229   6.484   2.278   3.996
 8777SOL    HW127230   6.479   2.277   4.095
 8777SOL    HW227231   6.569   2.234   3.965
 8778SOL     OW27232   2.288   3.749   6.909
 8778SOL    HW127233   2.362   3.689   6.878
 8778SOL    HW227234   2.205   3.695   6.922
 8779SOL     OW27235   3.950   5.924   3.441
 8779SOL    HW127236   3.912   5.982   3.369
 8779SOL    HW227237   3.924   5.829   3.424
 8780SOL     OW27238   1.056   3.953   3.959
 8780SOL    HW127239   1.124   3.881   3.972
 8780SOL    HW227240   0.978   3.917   3.907
 8781SOL     OW27241   3.445   1.625   1.861
 8781SOL    HW127242   3.375   1.558   1.885
 8781SOL    HW227243   3.402   1.703   1.816
 8782SOL     OW27244   6.847   2.611   0.359
 8782SOL    HW127245   6.926   2.549   0.368
 8782SOL    HW227246   6.801   2.618   0.448
 8783SOL     OW27247   3.748   3.873   5.238
 8783SOL    HW127248   3.839   3.907   5.263
 8783SOL    HW227249   3.690   3.872   5.319
 8784SOL     OW27250   4.312   0.876   6.415
 8784SOL    HW127251   4.255   0.811   6.364
 8784SOL    HW227252   4.304   0.858   6.513
 8785SOL     OW27253   6.983   5.995   6.190
 8785SOL    HW127254   7.021   6.046   6.268
 8785SOL    HW227255   6.948   5.907   6.222
 8786SOL     OW27256   5.503   2.340   3.438
 8786SOL    HW127257   5.457   2.295   3.361
 8786SOL    HW227258   5.556   2.272   3.489
 8787SOL     OW27259   3.512   4.921   2.416
 8787SOL    HW127260   3.480   5.014   2.398
 8787SOL    HW227261   3.531   4.875   2.330
 8788SOL     OW27262   0.089   5.991   3.878
 8788SOL    HW127263   0.001   5.947   3.857
 8788SOL    HW227264   0.159   5.921   3.891
 8789SOL     OW27265   1.362   3.438   6.987
 8789SOL    HW127266   1.413   3.388   6.917
 8789SOL    HW227267   1.303   3.506   6.942
 8790SOL     OW27268   5.020   2.999   5.232
 8790SOL    HW127269   5.086   3.065   5.196
 8790SOL    HW227270   4.957   2.971   5.159
 8791SOL     OW27271   4.406   6.489   5.255
 8791SOL    HW127272   4.492   6.536   5.231
 8791SOL    HW227273   4.408   6.464   5.351
 8792SOL     OW27274   5.626   4.837   0.708
 8792SOL    HW127275   5.683   4.830   0.626
 8792SOL    HW227276   5.531   4.854   0.681
 8793SOL     OW27277   6.272   6.745   5.673
 8793SOL    HW127278   6.209   6.822   5.686
 8793SOL    HW227279   6.243   6.691   5.594
 8794SOL     OW27280   0.301   2.070   3.414
 8794SOL    HW127281   0.346   2.158   3.429
 8794SOL    HW227282   0.212   2.070   3.460
 8795SOL     OW27283   1.584   6.914   6.573
 8795SOL    HW127284   1.492   6.911   6.612
 8795SOL    HW227285   1.650   6.937   6.645
 8796SOL     OW27286   5.733   4.584   4.503
 8796SOL    HW127287   5.735   4.486   4.482
 8796SOL    HW227288   5.826   4.616   4.522
 8797SOL     OW27289   4.786   6.055   4.969
 8797SOL    HW127290   4.861   6.051   4.902
 8797SOL    HW227291   4.710   6.108   4.931
 8798SOL     OW27292   1.445   5.809   5.836
 8798SOL    HW127293   1.500   5.727   5.832
 8798SOL    HW227294   1.428   5.834   5.932
 8799SOL     OW27295   1.525   6.476   1.715
 8799SOL    HW127296   1.612   6.490   1.668
 8799SOL    HW227297   1.521   6.383   1.751
 8800SOL     OW27298   6.465   5.643   3.635
 8800SOL    HW127299   6.414   5.729   3.631
 8800SOL    HW227300   6.434   5.590   3.713
 8801SOL     OW27301   4.710   3.581   5.553
 8801SOL    HW127302   4.741   3.665   5.598
 8801SOL    HW227303   4.618   3.594   5.516
 8802SOL     OW27304   1.279   6.551   6.987
 8802SOL    HW127305   1.234   6.640   6.979
 8802SOL    HW227306   1.363   6.561   0.015
 8803SOL     OW27307   5.216   5.331   4.995
 8803SOL    HW127308   5.129   5.379   5.001
 8803SOL    HW227309   5.199   5.233   4.985
 8804SOL     OW27310   1.832   6.774   2.128
 8804SOL    HW127311   1.743   6.819   2.130
 8804SOL    HW227312   1.823   6.680   2.161
 8805SOL     OW27313   5.181   4.783   2.225
 8805SOL    HW127314   5.226   4.731   2.298
 8805SOL    HW227315   5.222   4.874   2.220
 8806SOL     OW27316   1.203   0.991   2.239
 8806SOL    HW127317   1.262   1.060   2.282
 8806SOL    HW227318   1.141   0.955   2.308
 8807SOL     OW27319   6.115   2.401   1.955
 8807SOL    HW127320   6.102   2.317   1.901
 8807SOL    HW227321   6.206   2.400   1.995
 8808SOL     OW27322   1.748   1.641   0.213
 8808SOL    HW127323   1.755   1.564   0.277
 8808SOL    HW227324   1.728   1.725   0.263
 8809SOL     OW27325   0.649   3.604   3.209
 8809SOL    HW127326   0.665   3.551   3.292
 8809SOL    HW227327   0.717   3.677   3.202
 8810SOL     OW27328   6.531   2.307   4.455
 8810SOL    HW127329   6.591   2.231   4.429
 8810SOL    HW227330   6.474   2.334   4.378
 8811SOL     OW27331   3.955   5.195   2.232
 8811SOL    HW127332   3.939   5.118   2.294
 8811SOL    HW227333   3.905   5.180   2.147
 8812SOL     OW27334   5.656   0.318   0.367
 8812SOL    HW127335   5.624   0.309   0.273
 8812SOL    HW227336   5.755   0.326   0.368
 8813SOL     OW27337   1.574   2.765   1.961
 8813SOL    HW127338   1.613   2.759   2.053
 8813SOL    HW227339   1.612   2.844   1.913
 8814SOL     OW27340   5.417   6.884   4.711
 8814SOL    HW127341   5.349   6.906   4.781
 8814SOL    HW227342   5.422   6.958   4.644
 8815SOL     OW27343   5.178   1.002   1.165
 8815SOL    HW127344   5.210   1.023   1.073
 8815SOL    HW227345   5.082   1.030   1.175
 8816SOL     OW27346   6.763   0.398   3.549
 8816SOL    HW127347   6.713   0.317   3.519
 8816SOL    HW227348   6.848   0.406   3.497
 8817SOL     OW27349   1.367   2.328   3.630
 8817SOL    HW127350   1.466   2.319   3.644
 8817SOL    HW227351   1.349   2.375   3.544
 8818SOL     OW27352   1.189   6.332   6.564
 8818SOL    HW127353   1.223   6.357   6.655
 8818SOL    HW227354   1.262   6.289   6.511
 8819SOL     OW27355   4.900   6.087   6.162
 8819SOL    HW127356   4.842   6.026   6.108
 8819SOL    HW227357   4.931   6.039   6.244
 8820SOL     OW27358   3.630   6.702   5.880
 8820SOL    HW127359   3.563   6.773   5.902
 8820SOL    HW227360   3.643   6.698   5.781
 8821SOL     OW27361   0.522   5.185   5.401
 8821SOL    HW127362   0.511   5.284   5.395
 8821SOL    HW227363   0.565   5.151   5.317
 8822SOL     OW27364   6.138   0.107   4.761
 8822SOL    HW127365   6.178   0.064   4.842
 8822SOL    HW227366   6.039   0.117   4.775
 8823SOL     OW27367   4.750   1.958   3.183
 8823SOL    HW127368   4.806   2.040   3.166
 8823SOL    HW227369   4.654   1.985   3.191
 8824SOL     OW27370   1.889   0.145   4.235
 8824SOL    HW127371   1.857   0.107   4.148
 8824SOL    HW227372   1.826   0.216   4.265
 8825SOL     OW27373   1.026   0.078   0.374
 8825SOL    HW127374   1.101   0.143   0.387
 8825SOL    HW227375   1.049   7.016   0.419
 8826SOL     OW27376   0.303   3.829   0.460
 8826SOL    HW127377   0.253   3.744   0.443
 8826SOL    HW227378   0.379   3.810   0.522
 8827SOL     OW27379   4.911   6.337   3.707
 8827SOL    HW127380   4.953   6.256   3.665
 8827SOL    HW227381   4.939   6.343   3.803
 8828SOL     OW27382   5.402   2.565   5.826
 8828SOL    HW127383   5.349   2.491   5.784
 8828SOL    HW227384   5.419   2.637   5.759
 8829SOL     OW27385   6.310   0.952   2.941
 8829SOL    HW127386   6.328   1.039   2.894
 8829SOL    HW227387   6.317   0.966   3.040
 8830SOL     OW27388   3.222   0.874   3.111
 8830SOL    HW127389   3.134   0.911   3.143
 8830SOL    HW227390   3.227   0.777   3.131
 8831SOL     OW27391   0.819   2.786   2.664
 8831SOL    HW127392   0.912   2.780   2.701
 8831SOL    HW227393   0.810   2.725   2.586
 8832SOL     OW27394   5.756   0.389   5.323
 8832SOL    HW127395   5.687   0.380   5.394
 8832SOL    HW227396   5.847   0.380   5.363
 8833SOL     OW27397   4.916   2.740   0.933
 8833SOL    HW127398   4.856   2.665   0.906
 8833SOL    HW227399   4.873   2.827   0.907
 8834SOL     OW27400   5.589   4.501   6.232
 8834SOL    HW127401   5.593   4.565   6.156
 8834SOL    HW227402   5.567   4.410   6.198
 8835SOL     OW27403   6.482   0.925   5.193
 8835SOL    HW127404   6.389   0.934   5.157
 8835SOL    HW227405   6.537   1.003   5.163
 8836SOL     OW27406   4.266   1.017   1.209
 8836SOL    HW127407   4.180   1.023   1.159
 8836SOL    HW227408   4.282   1.102   1.259
 8837SOL     OW27409   4.390   5.224   0.224
 8837SOL    HW127410   4.360   5.168   0.147
 8837SOL    HW227411   4.461   5.176   0.276
 8838SOL     OW27412   1.817   4.124   2.459
 8838SOL    HW127413   1.806   4.217   2.423
 8838SOL    HW227414   1.836   4.061   2.383
 8839SOL     OW27415   4.287   4.836   1.288
 8839SOL    HW127416   4.366   4.776   1.295
 8839SOL    HW227417   4.268   4.856   1.192
 8840SOL     OW27418   0.642   0.614   1.545
 8840SOL    HW127419   0.697   0.697   1.545
 8840SOL    HW227420   0.561   0.628   1.602
 8841SOL     OW27421   3.723   1.256   1.290
 8841SOL    HW127422   3.776   1.337   1.264
 8841SOL    HW227423   3.698   1.205   1.208
 8842SOL     OW27424   3.322   3.473   3.778
 8842SOL    HW127425   3.364   3.383   3.767
 8842SOL    HW227426   3.385   3.534   3.825
 8843SOL     OW27427   2.174   6.298   5.372
 8843SOL    HW127428   2.193   6.238   5.295
 8843SOL    HW227429   2.247   6.290   5.440
 8844SOL     OW27430   3.178   2.960   6.081
 8844SOL    HW127431   3.211   2.868   6.061
 8844SOL    HW227432   3.255   3.020   6.102
 8845SOL     OW27433   0.560   3.483   2.347
 8845SOL    HW127434   0.460   3.476   2.350
 8845SOL    HW227435   0.597   3.400   2.304
 8846SOL     OW27436   5.360   5.258   4.379
 8846SOL    HW127437   5.368   5.275   4.280
 8846SOL    HW227438   5.370   5.344   4.428
 8847SOL     OW27439   0.458   2.259   3.696
 8847SOL    HW127440   0.558   2.253   3.698
 8847SOL    HW227441   0.419   2.167   3.689
 8848SOL     OW27442   6.397   2.265   0.813
 8848SOL    HW127443   6.391   2.266   0.913
 8848SOL    HW227444   6.366   2.176   0.779
 8849SOL     OW27445   2.940   5.514   4.533
 8849SOL    HW127446   2.899   5.526   4.624
 8849SOL    HW227447   2.933   5.418   4.506
 8850SOL     OW27448   3.070   2.479   0.985
 8850SOL    HW127449   3.072   2.501   1.083
 8850SOL    HW227450   3.147   2.419   0.963
 8851SOL     OW27451   0.085   5.211   2.595
 8851SOL    HW127452   0.095   5.252   2.686
 8851SOL    HW227453   0.122   5.119   2.596
 8852SOL     OW27454   5.102   3.525   4.439
 8852SOL    HW127455   5.189   3.529   4.391
 8852SOL    HW227456   5.057   3.438   4.419
 8853SOL     OW27457   4.983   1.725   5.138
 8853SOL    HW127458   5.063   1.749   5.082
 8853SOL    HW227459   4.994   1.762   5.230
 8854SOL     OW27460   2.768   1.202   5.772
 8854SOL    HW127461   2.866   1.220   5.758
 8854SOL    HW227462   2.720   1.211   5.685
 8855SOL     OW27463   6.278   4.970   6.238
 8855SOL    HW127464   6.289   4.879   6.198
 8855SOL    HW227465   6.182   4.999   6.230
 8856SOL     OW27466   5.674   1.307   5.504
 8856SOL    HW127467   5.665   1.405   5.486
 8856SOL    HW227468   5.759   1.273   5.464
 8857SOL     OW27469   2.061   3.471   4.594
 8857SOL    HW127470   2.092   3.563   4.619
 8857SOL    HW227471   2.051   3.415   4.677
 8858SOL     OW27472   0.070   3.379   5.419
 8858SOL    HW127473   0.095   3.297   5.469
 8858SOL    HW227474   0.032   3.447   5.482
 8859SOL     OW27475   2.624   6.597   5.381
 8859SOL    HW127476   2.635   6.503   5.413
 8859SOL    HW227477   2.593   6.655   5.457
 8860SOL     OW27478   2.130   1.707   1.286
 8860SOL    HW127479   2.130   1.632   1.220
 8860SOL    HW227480   2.163   1.790   1.243
 8861SOL     OW27481   2.453   2.711   0.598
 8861SOL    HW127482   2.482   2.806   0.591
 8861SOL    HW227483   2.396   2.700   0.680
 8862SOL     OW27484   6.650   1.877   4.668
 8862SOL    HW127485   6.735   1.928   4.655
 8862SOL    HW227486   6.574   1.941   4.677
 8863SOL     OW27487   1.713   5.888   4.988
 8863SOL    HW127488   1.737   5.967   4.933
 8863SOL    HW227489   1.795   5.853   5.034
 8864SOL     OW27490   2.110   4.132   6.060
 8864SOL    HW127491   2.144   4.103   6.149
 8864SOL    HW227492   2.187   4.155   6.001
 8865SOL     OW27493   2.984   2.172   5.897
 8865SOL    HW127494   2.892   2.192   5.932
 8865SOL    HW227495   3.023   2.255   5.857
 8866SOL     OW27496   5.070   0.031   5.242
 8866SOL    HW127497   4.995   6.990   5.241
 8866SOL    HW227498   5.050   0.103   5.175
 8867SOL     OW27499   6.315   0.910   4.023
 8867SOL    HW127500   6.390   0.866   4.072
 8867SOL    HW227501   6.352   0.980   3.962
 8868SOL     OW27502   5.374   3.671   0.508
 8868SOL    HW127503   5.371   3.620   0.422
 8868SOL    HW227504   5.281   3.695   0.535
 8869SOL     OW27505   3.181   2.084   3.285
 8869SOL    HW127506   3.281   2.083   3.284
 8869SOL    HW227507   3.147   1.991   3.284
 8870SOL     OW27508   4.742   1.017   2.250
 8870SOL    HW127509   4.757   1.076   2.330
 8870SOL    HW227510   4.700   1.071   2.177
 8871SOL     OW27511   1.658   2.167   3.675
 8871SOL    HW127512   1.750   2.183   3.639
 8871SOL    HW227513   1.627   2.076   3.649
 8872SOL     OW27514   0.902   2.268   2.121
 8872SOL    HW127515   0.863   2.302   2.035
 8872SOL    HW227516   0.863   2.178   2.142
 8873SOL     OW27517   0.005   5.717   4.553
 8873SOL    HW127518   6.973   5.792   4.587
 8873SOL    HW227519   0.054   5.675   4.629
 8874SOL     OW27520   0.987   1.423   6.204
 8874SOL    HW127521   1.047   1.498   6.178
 8874SOL    HW227522   0.901   1.430   6.154
 8875SOL     OW27523   1.252   0.993   4.748
 8875SOL    HW127524   1.167   0.942   4.755
 8875SOL    HW227525   1.293   0.978   4.657
 8876SOL     OW27526   3.130   1.095   4.489
 8876SOL    HW127527   3.172   1.005   4.498
 8876SOL    HW227528   3.068   1.111   4.566
 8877SOL     OW27529   3.063   6.708   4.182
 8877SOL    HW127530   3.034   6.632   4.240
 8877SOL    HW227531   3.136   6.759   4.228
 8878SOL     OW27532   5.663   4.859   5.098
 8878SOL    HW127533   5.708   4.948   5.097
 8878SOL    HW227534   5.697   4.804   5.022
 8879SOL     OW27535   4.445   5.567   4.627
 8879SOL    HW127536   4.532   5.580   4.675
 8879SOL    HW227537   4.450   5.611   4.537
 8880SOL     OW27538   0.472   6.636   4.821
 8880SOL    HW127539   0.396   6.629   4.886
 8880SOL    HW227540   0.482   6.549   4.772
 8881SOL     OW27541   7.023   1.448   2.213
 8881SOL    HW127542   0.035   1.381   2.148
 8881SOL    HW227543   6.924   1.442   2.214
 8882SOL     OW27544   4.926   2.564   0.330
 8882SOL    HW127545   5.017   2.526   0.348
 8882SOL    HW227546   4.864   2.536   0.403
 8883SOL     OW27547   6.238   1.029   5.586
 8883SOL    HW127548   6.224   1.026   5.487
 8883SOL    HW227549   6.242   0.936   5.622
 8884SOL     OW27550   0.232   1.632   6.497
 8884SOL    HW127551   0.331   1.628   6.487
 8884SOL    HW227552   0.200   1.552   6.547
 8885SOL     OW27553   5.597   3.585   1.631
 8885SOL    HW127554   5.510   3.613   1.673
 8885SOL    HW227555   5.641   3.664   1.589
 8886SOL     OW27556   2.823   5.822   5.946
 8886SOL    HW127557   2.890   5.766   5.995
 8886SOL    HW227558   2.801   5.779   5.858
 8887SOL     OW27559   1.775   1.757   1.042
 8887SOL    HW127560   1.685   1.715   1.036
 8887SOL    HW227561   1.814   1.740   1.133
 8888SOL     OW27562   2.728   1.926   2.942
 8888SOL    HW127563   2.798   1.995   2.926
 8888SOL    HW227564   2.649   1.968   2.988
 8889SOL     OW27565   3.394   0.634   4.381
 8889SOL    HW127566   3.482   0.682   4.384
 8889SOL    HW227567   3.397   0.556   4.443
 8890SOL     OW27568   0.214   4.144   3.208
 8890SOL    HW127569   0.252   4.067   3.156
 8890SOL    HW227570   0.288   4.188   3.259
 8891SOL     OW27571   2.776   1.719   6.154
 8891SOL    HW127572   2.826   1.779   6.092
 8891SOL    HW227573   2.680   1.744   6.155
 8892SOL     OW27574   1.348   6.925   2.490
 8892SOL    HW127575   1.412   6.913   2.414
 8892SOL    HW227576   1.284   6.999   2.468
 8893SOL     OW27577   0.482   1.020   0.584
 8893SOL    HW127578   0.421   0.944   0.607
 8893SOL    HW227579   0.429   1.104   0.574
 8894SOL     OW27580   4.775   2.777   6.342
 8894SOL    HW127581   4.691   2.724   6.340
 8894SOL    HW227582   4.854   2.715   6.340
 8895SOL     OW27583   2.075   1.296   3.101
 8895SOL    HW127584   2.046   1.299   3.005
 8895SOL    HW227585   2.174   1.288   3.106
 8896SOL     OW27586   2.199   4.280   5.122
 8896SOL    HW127587   2.258   4.353   5.088
 8896SOL    HW227588   2.233   4.191   5.090
 8897SOL     OW27589   0.985   2.687   1.433
 8897SOL    HW127590   1.062   2.687   1.496
 8897SOL    HW227591   1.016   2.716   1.342
 8898SOL     OW27592   0.370   2.901   5.258
 8898SOL    HW127593   0.386   2.965   5.183
 8898SOL    HW227594   0.272   2.898   5.279
 8899SOL     OW27595   3.273   5.233   1.767
 8899SOL    HW127596   3.176   5.212   1.757
 8899SOL    HW227597   3.304   5.286   1.688
 8900SOL     OW27598   6.780   1.882   3.738
 8900SOL    HW127599   6.744   1.794   3.706
 8900SOL    HW227600   6.824   1.869   3.827
 8901SOL     OW27601   2.065   0.157   1.517
 8901SOL    HW127602   2.089   0.247   1.554
 8901SOL    HW227603   2.030   0.169   1.424
 8902SOL     OW27604   3.190   6.193   5.797
 8902SOL    HW127605   3.245   6.129   5.743
 8902SOL    HW227606   3.234   6.209   5.885
 8903SOL     OW27607   6.856   0.241   2.289
 8903SOL    HW127608   6.815   0.182   2.219
 8903SOL    HW227609   6.825   0.211   2.380
 8904SOL     OW27610   1.326   4.786   3.140
 8904SOL    HW127611   1.257   4.817   3.206
 8904SOL    HW227612   1.417   4.797   3.179
 8905SOL     OW27613   2.286   4.199   4.774
 8905SOL    HW127614   2.329   4.157   4.854
 8905SOL    HW227615   2.198   4.239   4.800
 8906SOL     OW27616   1.916   5.030   4.347
 8906SOL    HW127617   1.848   4.987   4.288
 8906SOL    HW227618   1.904   4.998   4.441
 8907SOL     OW27619   3.908   2.233   6.462
 8907SOL    HW127620   3.914   2.232   6.562
 8907SOL    HW227621   3.831   2.290   6.434
 8908SOL     OW27622   0.864   2.623   2.990
 8908SOL    HW127623   0.850   2.673   3.075
 8908SOL    HW227624   0.962   2.605   2.978
 8909SOL     OW27625   3.560   0.399   5.545
 8909SOL    HW127626   3.487   0.331   5.558
 8909SOL    HW227627   3.530   0.468   5.479
 8910SOL     OW27628   4.023   3.260   0.121
 8910SOL    HW127629   4.043   3.303   0.209
 8910SOL    HW227630   3.937   3.209   0.127
 8911SOL     OW27631   5.206   2.148   3.573
 8911SOL    HW127632   5.299   2.133   3.608
 8911SOL    HW227633   5.192   2.246   3.558
 8912SOL     OW27634   5.234   0.834   6.403
 8912SOL    HW127635   5.191   0.847   6.313
 8912SOL    HW227636   5.334   0.831   6.392
 8913SOL     OW27637   4.396   3.961   1.382
 8913SOL    HW127638   4.368   4.048   1.343
 8913SOL    HW227639   4.382   3.962   1.481
 8914SOL     OW27640   4.722   2.093   3.656
 8914SOL    HW127641   4.668   2.054   3.582
 8914SOL    HW227642   4.820   2.088   3.633
 8915SOL     OW27643   1.048   5.453   1.980
 8915SOL    HW127644   1.001   5.375   1.937
 8915SOL    HW227645   0.980   5.518   2.014
 8916SOL     OW27646   5.813   3.302   2.725
 8916SOL    HW127647   5.725   3.346   2.712
 8916SOL    HW227648   5.800   3.212   2.768
 8917SOL     OW27649   5.373   4.814   5.058
 8917SOL    HW127650   5.332   4.787   5.145
 8917SOL    HW227651   5.469   4.840   5.073
 8918SOL     OW27652   4.619   3.655   6.173
 8918SOL    HW127653   4.690   3.585   6.160
 8918SOL    HW227654   4.660   3.737   6.213
 8919SOL     OW27655   2.319   3.428   1.594
 8919SOL    HW127656   2.249   3.356   1.585
 8919SOL    HW227657   2.388   3.399   1.661
 8920SOL     OW27658   6.834   5.224   5.513
 8920SOL    HW127659   6.903   5.274   5.566
 8920SOL    HW227660   6.880   5.157   5.455
 8921SOL     OW27661   1.104   5.476   3.829
 8921SOL    HW127662   1.108   5.559   3.774
 8921SOL    HW227663   1.020   5.426   3.808
 8922SOL     OW27664   6.995   3.893   6.482
 8922SOL    HW127665   0.037   3.953   6.438
 8922SOL    HW227666   6.948   3.840   6.412
 8923SOL     OW27667   2.401   4.332   4.203
 8923SOL    HW127668   2.499   4.320   4.221
 8923SOL    HW227669   2.365   4.403   4.264
 8924SOL     OW27670   2.245   6.092   4.920
 8924SOL    HW127671   2.289   6.182   4.918
 8924SOL    HW227672   2.151   6.101   4.954
 8925SOL     OW27673   4.634   5.399   1.250
 8925SOL    HW127674   4.640   5.430   1.344
 8925SOL    HW227675   4.641   5.299   1.248
 8926SOL     OW27676   5.926   0.225   6.969
 8926SOL    HW127677   5.963   0.316   6.951
 8926SOL    HW227678   5.944   0.199   0.039
 8927SOL     OW27679   2.566   1.714   4.517
 8927SOL    HW127680   2.549   1.792   4.577
 8927SOL    HW227681   2.617   1.744   4.437
 8928SOL     OW27682   0.859   0.091   4.813
 8928SOL    HW127683   0.891   0.117   4.903
 8928SOL    HW227684   0.830   7.020   4.815
 8929SOL     OW27685   5.121   4.259   3.633
 8929SOL    HW127686   5.055   4.334   3.628
 8929SOL    HW227687   5.078   4.180   3.676
 8930SOL     OW27688   0.711   5.583   5.386
 8930SOL    HW127689   0.731   5.517   5.313
 8930SOL    HW227690   0.728   5.675   5.352
 8931SOL     OW27691   4.780   1.315   1.828
 8931SOL    HW127692   4.732   1.401   1.808
 8931SOL    HW227693   4.878   1.329   1.817
 8932SOL     OW27694   5.565   1.128   0.269
 8932SOL    HW127695   5.508   1.206   0.244
 8932SOL    HW227696   5.517   1.072   0.337
 8933SOL     OW27697   1.320   0.462   5.433
 8933SOL    HW127698   1.268   0.500   5.356
 8933SOL    HW227699   1.417   0.483   5.422
 8934SOL     OW27700   4.051   6.992   4.110
 8934SOL    HW127701   4.127   6.990   4.175
 8934SOL    HW227702   4.039   6.900   4.071
 8935SOL     OW27703   5.873   2.073   2.763
 8935SOL    HW127704   5.780   2.100   2.737
 8935SOL    HW227705   5.917   2.028   2.686
 8936SOL     OW27706   1.615   3.829   2.445
 8936SOL    HW127707   1.610   3.744   2.391
 8936SOL    HW227708   1.591   3.809   2.540
 8937SOL     OW27709   3.562   0.226   4.887
 8937SOL    HW127710   3.514   0.295   4.942
 8937SOL    HW227711   3.608   0.161   4.948
 8938SOL     OW27712   5.555   6.452   1.321
 8938SOL    HW127713   5.490   6.396   1.270
 8938SOL    HW227714   5.557   6.544   1.283
 8939SOL     OW27715   6.988   3.216   4.757
 8939SOL    HW127716   6.923   3.195   4.830
 8939SOL    HW227717   6.978   3.312   4.730
 8940SOL     OW27718   6.459   3.235   2.549
 8940SOL    HW127719   6.503   3.178   2.618
 8940SOL    HW227720   6.373   3.192   2.521
 8941SOL     OW27721   5.838   2.157   3.282
 8941SOL    HW127722   5.835   2.114   3.191
 8941SOL    HW227723   5.747   2.154   3.323
 8942SOL     OW27724   4.566   4.740   3.797
 8942SOL    HW127725   4.564   4.835   3.829
 8942SOL    HW227726   4.584   4.680   3.874
 8943SOL     OW27727   4.280   3.218   0.426
 8943SOL    HW127728   4.369   3.240   0.465
 8943SOL    HW227729   4.289   3.140   0.364
 8944SOL     OW27730   4.704   6.553   4.930
 8944SOL    HW127731   4.679   6.490   5.004
 8944SOL    HW227732   4.636   6.547   4.857
 8945SOL     OW27733   6.453   4.933   1.657
 8945SOL    HW127734   6.459   4.833   1.652
 8945SOL    HW227735   6.359   4.959   1.678
 8946SOL     OW27736   3.600   1.422   4.676
 8946SOL    HW127737   3.523   1.463   4.628
 8946SOL    HW227738   3.685   1.467   4.647
 8947SOL     OW27739   2.182   4.797   0.883
 8947SOL    HW127740   2.146   4.800   0.790
 8947SOL    HW227741   2.115   4.756   0.945
 8948SOL     OW27742   5.514   0.443   2.839
 8948SOL    HW127743   5.611   0.423   2.857
 8948SOL    HW227744   5.491   0.533   2.876
 8949SOL     OW27745   3.451   6.306   1.101
 8949SOL    HW127746   3.418   6.323   1.008
 8949SOL    HW227747   3.438   6.388   1.157
 8950SOL     OW27748   3.608   4.074   2.845
 8950SOL    HW127749   3.590   4.104   2.939
 8950SOL    HW227750   3.563   3.986   2.829
 8951SOL     OW27751   0.442   0.854   3.778
 8951SOL    HW127752   0.495   0.773   3.756
 8951SOL    HW227753   0.504   0.929   3.803
 8952SOL     OW27754   1.156   4.064   4.890
 8952SOL    HW127755   1.067   4.029   4.860
 8952SOL    HW227756   1.211   3.988   4.925
 8953SOL     OW27757   0.302   5.446   0.663
 8953SOL    HW127758   0.305   5.470   0.760
 8953SOL    HW227759   0.255   5.359   0.651
 8954SOL     OW27760   2.222   4.280   5.457
 8954SOL    HW127761   2.187   4.218   5.387
 8954SOL    HW227762   2.172   4.266   5.542
 8955SOL     OW27763   6.157   3.330   5.902
 8955SOL    HW127764   6.188   3.407   5.846
 8955SOL    HW227765   6.190   3.342   5.996
 8956SOL     OW27766   0.683   6.066   0.481
 8956SOL    HW127767   0.680   5.967   0.483
 8956SOL    HW227768   0.704   6.101   0.573
 8957SOL     OW27769   1.491   0.175   3.409
 8957SOL    HW127770   1.490   0.182   3.310
 8957SOL    HW227771   1.526   0.260   3.448
 8958SOL     OW27772   6.614   3.682   4.823
 8958SOL    HW127773   6.667   3.670   4.907
 8958SOL    HW227774   6.661   3.635   4.747
 8959SOL     OW27775   5.364   1.860   4.128
 8959SOL    HW127776   5.349   1.869   4.226
 8959SOL    HW227777   5.295   1.799   4.089
 8960SOL     OW27778   5.119   4.960   2.465
 8960SOL    HW127779   5.187   4.928   2.531
 8960SOL    HW227780   5.028   4.954   2.505
 8961SOL     OW27781   2.324   1.597   5.302
 8961SOL    HW127782   2.342   1.675   5.363
 8961SOL    HW227783   2.236   1.610   5.257
 8962SOL     OW27784   6.871   6.081   2.159
 8962SOL    HW127785   6.911   6.042   2.242
 8962SOL    HW227786   6.775   6.052   2.151
 8963SOL     OW27787   2.569   6.055   6.225
 8963SOL    HW127788   2.582   5.985   6.156
 8963SOL    HW227789   2.523   6.016   6.305
 8964SOL     OW27790   1.444   2.745   3.425
 8964SOL    HW127791   1.466   2.818   3.489
 8964SOL    HW227792   1.391   2.674   3.473
 8965SOL     OW27793   3.542   6.072   0.268
 8965SOL    HW127794   3.508   6.160   0.234
 8965SOL    HW227795   3.476   6.033   0.332
 8966SOL     OW27796   5.174   6.859   5.504
 8966SOL    HW127797   5.115   6.792   5.547
 8966SOL    HW227798   5.121   6.939   5.478
 8967SOL     OW27799   2.834   0.203   2.995
 8967SOL    HW127800   2.908   0.244   3.049
 8967SOL    HW227801   2.872   0.151   2.919
 8968SOL     OW27802   2.885   5.245   2.929
 8968SOL    HW127803   2.852   5.194   2.850
 8968SOL    HW227804   2.863   5.342   2.918
 8969SOL     OW27805   6.801   1.423   2.526
 8969SOL    HW127806   6.722   1.458   2.576
 8969SOL    HW227807   6.817   1.327   2.551
 8970SOL     OW27808   2.513   1.354   3.641
 8970SOL    HW127809   2.506   1.375   3.738
 8970SOL    HW227810   2.454   1.416   3.589
 8971SOL     OW27811   3.116   4.557   1.229
 8971SOL    HW127812   3.104   4.462   1.259
 8971SOL    HW227813   3.055   4.617   1.281
 8972SOL     OW27814   6.053   3.936   6.654
 8972SOL    HW127815   6.007   3.946   6.742
 8972SOL    HW227816   6.032   4.014   6.595
 8973SOL     OW27817   2.650   1.888   3.778
 8973SOL    HW127818   2.668   1.790   3.784
 8973SOL    HW227819   2.711   1.937   3.839
 8974SOL     OW27820   1.962   4.404   5.191
 8974SOL    HW127821   1.910   4.358   5.120
 8974SOL    HW227822   2.059   4.383   5.181
 8975SOL     OW27823   0.336   3.376   6.384
 8975SOL    HW127824   0.275   3.315   6.333
 8975SOL    HW227825   0.314   3.371   6.481
 8976SOL     OW27826   5.906   0.461   1.439
 8976SOL    HW127827   5.815   0.444   1.476
 8976SOL    HW227828   5.974   0.412   1.493
 8977SOL     OW27829   6.846   4.896   6.273
 8977SOL    HW127830   6.871   4.851   6.187
 8977SOL    HW227831   6.924   4.895   6.335
 8978SOL     OW27832   6.613   5.618   5.472
 8978SOL    HW127833   6.688   5.614   5.406
 8978SOL    HW227834   6.607   5.530   5.520
 8979SOL     OW27835   1.793   4.870   3.700
 8979SOL    HW127836   1.867   4.913   3.751
 8979SOL    HW227837   1.774   4.922   3.617
 8980SOL     OW27838   4.531   0.813   0.624
 8980SOL    HW127839   4.510   0.783   0.531
 8980SOL    HW227840   4.457   0.786   0.685
 8981SOL     OW27841   3.975   1.817   0.152
 8981SOL    HW127842   4.002   1.913   0.152
 8981SOL    HW227843   3.888   1.807   0.104
 8982SOL     OW27844   0.416   1.182   2.061
 8982SOL    HW127845   0.509   1.160   2.031
 8982SOL    HW227846   0.390   1.121   2.135
 8983SOL     OW27847   0.805   0.131   2.898
 8983SOL    HW127848   0.726   0.188   2.873
 8983SOL    HW227849   0.792   0.039   2.862
 8984SOL     OW27850   6.187   1.302   4.352
 8984SOL    HW127851   6.258   1.370   4.368
 8984SOL    HW227852   6.212   1.244   4.274
 8985SOL     OW27853   5.124   0.438   1.982
 8985SOL    HW127854   5.201   0.501   1.973
 8985SOL    HW227855   5.159   0.346   1.999
 8986SOL     OW27856   0.404   6.303   0.027
 8986SOL    HW127857   0.314   6.264   0.047
 8986SOL    HW227858   0.393   6.399   0.001
 8987SOL     OW27859   2.731   6.186   2.733
 8987SOL    HW127860   2.709   6.106   2.677
 8987SOL    HW227861   2.649   6.216   2.783
 8988SOL     OW27862   2.526   0.279   0.757
 8988SOL    HW127863   2.562   0.213   0.823
 8988SOL    HW227864   2.509   0.232   0.670
 8989SOL     OW27865   5.844   1.017   2.015
 8989SOL    HW127866   5.915   0.952   2.043
 8989SOL    HW227867   5.804   0.987   1.928
 8990SOL     OW27868   3.947   1.111   2.971
 8990SOL    HW127869   3.904   1.101   2.882
 8990SOL    HW227870   4.025   1.048   2.978
 8991SOL     OW27871   1.218   2.017   0.805
 8991SOL    HW127872   1.298   2.065   0.771
 8991SOL    HW227873   1.179   1.961   0.732
 8992SOL     OW27874   0.103   4.695   6.023
 8992SOL    HW127875   0.160   4.625   5.980
 8992SOL    HW227876   0.162   4.761   6.070
 8993SOL     OW27877   5.043   4.036   3.790
 8993SOL    HW127878   4.977   4.015   3.862
 8993SOL    HW227879   5.131   3.994   3.812
 8994SOL     OW27880   1.043   5.937   2.278
 8994SOL    HW127881   1.006   5.922   2.370
 8994SOL    HW227882   1.078   6.030   2.271
 8995SOL     OW27883   2.139   3.630   3.556
 8995SOL    HW127884   2.048   3.663   3.533
 8995SOL    HW227885   2.171   3.565   3.486
 8996SOL     OW27886   2.169   3.927   1.453
 8996SOL    HW127887   2.173   4.007   1.513
 8996SOL    HW227888   2.085   3.875   1.472
 8997SOL     OW27889   4.463   1.297   5.379
 8997SOL    HW127890   4.518   1.260   5.305
 8997SOL    HW227891   4.473   1.240   5.460
 8998SOL     OW27892   0.932   1.608   6.713
 8998SOL    HW127893   0.963   1.701   6.732
 8998SOL    HW227894   1.008   1.554   6.678
 8999SOL     OW27895   5.404   2.749   5.634
 8999SOL    HW127896   5.317   2.799   5.630
 8999SOL    HW227897   5.407   2.682   5.559
 9000SOL     OW27898   4.485   4.650   1.299
 9000SOL    HW127899   4.531   4.579   1.244
 9000SOL    HW227900   4.500   4.631   1.396
 9001SOL     OW27901   1.020   3.964   3.439
 9001SOL    HW127902   1.084   4.009   3.502
 9001SOL    HW227903   1.065   3.888   3.394
 9002SOL     OW27904   5.416   3.511   5.492
 9002SOL    HW127905   5.426   3.604   5.527
 9002SOL    HW227906   5.329   3.473   5.522
 9003SOL     OW27907   6.357   2.814   6.575
 9003SOL    HW127908   6.315   2.896   6.615
 9003SOL    HW227909   6.456   2.824   6.575
 9004SOL     OW27910   4.733   5.511   0.886
 9004SOL    HW127911   4.797   5.442   0.919
 9004SOL    HW227912   4.648   5.504   0.937
 9005SOL     OW27913   4.799   3.001   3.224
 9005SOL    HW127914   4.857   3.065   3.172
 9005SOL    HW227915   4.731   2.960   3.163
 9006SOL     OW27916   2.315   6.792   1.576
 9006SOL    HW127917   2.319   6.891   1.591
 9006SOL    HW227918   2.407   6.757   1.560
 9007SOL     OW27919   1.847   6.319   5.118
 9007SOL    HW127920   1.900   6.234   5.119
 9007SOL    HW227921   1.749   6.297   5.123
 9008SOL     OW27922   0.311   4.172   1.698
 9008SOL    HW127923   0.271   4.182   1.607
 9008SOL    HW227924   0.261   4.229   1.763
 9009SOL     OW27925   4.083   6.299   6.976
 9009SOL    HW127926   4.001   6.347   7.005
 9009SOL    HW227927   4.067   6.253   6.889
 9010SOL     OW27928   6.522   6.043   4.296
 9010SOL    HW127929   6.613   6.009   4.317
 9010SOL    HW227930   6.469   5.972   4.249
 9011SOL     OW27931   4.617   2.588   2.189
 9011SOL    HW127932   4.626   2.595   2.090
 9011SOL    HW227933   4.617   2.680   2.229
 9012SOL     OW27934   4.831   5.134   2.398
 9012SOL    HW127935   4.843   5.046   2.443
 9012SOL    HW227936   4.901   5.146   2.328
 9013SOL     OW27937   4.564   6.102   2.318
 9013SOL    HW127938   4.487   6.046   2.348
 9013SOL    HW227939   4.535   6.198   2.315
 9014SOL     OW27940   2.877   0.521   1.850
 9014SOL    HW127941   2.952   0.478   1.801
 9014SOL    HW227942   2.908   0.607   1.890
 9015SOL     OW27943   5.981   2.215   4.442
 9015SOL    HW127944   5.898   2.253   4.399
 9015SOL    HW227945   6.022   2.284   4.501
 9016SOL     OW27946   0.164   6.210   0.099
 9016SOL    HW127947   0.117   6.297   0.111
 9016SOL    HW227948   0.099   6.135   0.109
 9017SOL     OW27949   6.696   3.466   2.828
 9017SOL    HW127950   6.699   3.367   2.842
 9017SOL    HW227951   6.710   3.512   2.916
 9018SOL     OW27952   4.619   1.677   6.416
 9018SOL    HW127953   4.541   1.696   6.474
 9018SOL    HW227954   4.615   1.582   6.385
 9019SOL     OW27955   1.908   5.809   0.060
 9019SOL    HW127956   1.861   5.740   0.115
 9019SOL    HW227957   1.851   5.834   7.007
 9020SOL     OW27958   0.645   5.084   4.023
 9020SOL    HW127959   0.573   5.015   4.015
 9020SOL    HW227960   0.604   5.175   4.029
 9021SOL     OW27961   5.678   5.309   5.562
 9021SOL    HW127962   5.745   5.296   5.488
 9021SOL    HW227963   5.672   5.225   5.615
 9022SOL     OW27964   2.750   0.174   6.580
 9022SOL    HW127965   2.745   0.155   6.679
 9022SOL    HW227966   2.830   0.230   6.561
 9023SOL     OW27967   3.037   3.933   3.814
 9023SOL    HW127968   3.055   4.027   3.840
 9023SOL    HW227969   3.005   3.882   3.894
 9024SOL     OW27970   1.068   0.009   6.168
 9024SOL    HW127971   1.165   7.018   6.184
 9024SOL    HW227972   1.015   6.996   6.244
 9025SOL     OW27973   0.159   3.232   0.003
 9025SOL    HW127974   0.195   3.236   6.935
 9025SOL    HW227975   0.088   3.302   0.014
 9026SOL     OW27976   3.209   3.248   5.512
 9026SOL    HW127977   3.160   3.299   5.442
 9026SOL    HW227978   3.256   3.170   5.470
 9027SOL     OW27979   1.701   2.848   2.432
 9027SOL    HW127980   1.652   2.829   2.518
 9027SOL    HW227981   1.799   2.851   2.450
 9028SOL     OW27982   2.360   4.629   4.520
 9028SOL    HW127983   2.295   4.649   4.593
 9028SOL    HW227984   2.449   4.668   4.544
 9029SOL     OW27985   5.529   5.441   2.678
 9029SOL    HW127986   5.561   5.430   2.772
 9029SOL    HW227987   5.440   5.488   2.678
 9030SOL     OW27988   4.281   2.255   2.737
 9030SOL    HW127989   4.336   2.321   2.788
 9030SOL    HW227990   4.303   2.262   2.639
 9031SOL     OW27991   2.848   1.189   1.684
 9031SOL    HW127992   2.761   1.141   1.674
 9031SOL    HW227993   2.854   1.227   1.776
 9032SOL     OW27994   0.572   2.841   2.332
 9032SOL    HW127995   0.636   2.766   2.349
 9032SOL    HW227996   0.552   2.845   2.234
 9033SOL     OW27997   0.931   3.957   2.793
 9033SOL    HW127998   0.873   4.039   2.791
 9033SOL    HW227999   0.877   3.879   2.824
 9034SOL     OW28000   1.761   6.761   6.895
 9034SOL    HW128001   1.753   6.748   6.796
 9034SOL    HW228002   1.852   6.733   6.925
 9035SOL     OW28003   6.389   1.011   4.538
 9035SOL    HW128004   6.436   1.074   4.476
 9035SOL    HW228005   6.333   1.064   4.602
 9036SOL     OW28006   0.574   1.073   4.886
 9036SOL    HW128007   0.645   1.003   4.872
 9036SOL    HW228008   0.548   1.112   4.798
 9037SOL     OW28009   2.692   4.525   5.772
 9037SOL    HW128010   2.662   4.538   5.867
 9037SOL    HW228011   2.625   4.567   5.710
 9038SOL     OW28012   4.934   5.086   5.727
 9038SOL    HW128013   4.867   5.159   5.715
 9038SOL    HW228014   4.927   5.050   5.820
 9039SOL     OW28015   2.397   4.888   6.728
 9039SOL    HW128016   2.370   4.830   6.805
 9039SOL    HW228017   2.383   4.838   6.642
 9040SOL     OW28018   2.752   1.551   2.622
 9040SOL    HW128019   2.728   1.630   2.679
 9040SOL    HW228020   2.678   1.533   2.557
 9041SOL     OW28021   1.428   3.171   5.834
 9041SOL    HW128022   1.407   3.228   5.913
 9041SOL    HW228023   1.456   3.080   5.865
 9042SOL     OW28024   1.437   5.654   2.581
 9042SOL    HW128025   1.450   5.582   2.649
 9042SOL    HW228026   1.344   5.690   2.589
 9043SOL     OW28027   0.277   2.050   6.660
 9043SOL    HW128028   0.367   2.009   6.649
 9043SOL    HW228029   0.285   2.135   6.713
 9044SOL     OW28030   0.167   3.889   0.788
 9044SOL    HW128031   0.092   3.955   0.796
 9044SOL    HW228032   0.131   3.804   0.749
 9045SOL     OW28033   2.307   4.695   4.262
 9045SOL    HW128034   2.324   4.662   4.354
 9045SOL    HW228035   2.226   4.650   4.224
 9046SOL     OW28036   3.639   4.210   6.295
 9046SOL    HW128037   3.715   4.150   6.320
 9046SOL    HW228038   3.655   4.248   6.204
 9047SOL     OW28039   0.462   4.399   4.109
 9047SOL    HW128040   0.374   4.355   4.124
 9047SOL    HW228041   0.474   4.473   4.176
 9048SOL     OW28042   1.537   2.204   5.240
 9048SOL    HW128043   1.604   2.246   5.179
 9048SOL    HW228044   1.488   2.275   5.290
 9049SOL     OW28045   4.920   6.355   6.221
 9049SOL    HW128046   4.915   6.256   6.211
 9049SOL    HW228047   4.951   6.396   6.136
 9050SOL     OW28048   0.076   5.188   5.798
 9050SOL    HW128049   0.163   5.177   5.750
 9050SOL    HW228050   0.041   5.280   5.781
 9051SOL     OW28051   6.035   6.742   6.112
 9051SOL    HW128052   5.992   6.752   6.022
 9051SOL    HW228053   5.998   6.662   6.158
 9052SOL     OW28054   2.970   5.077   5.143
 9052SOL    HW128055   2.923   5.151   5.094
 9052SOL    HW228056   2.902   5.011   5.175
 9053SOL     OW28057   2.676   1.164   3.029
 9053SOL    HW128058   2.718   1.203   2.947
 9053SOL    HW228059   2.584   1.133   3.008
 9054SOL     OW28060   1.959   0.213   1.231
 9054SOL    HW128061   2.000   0.122   1.225
 9054SOL    HW228062   2.020   0.280   1.190
 9055SOL     OW28063   1.014   2.252   4.708
 9055SOL    HW128064   1.022   2.272   4.805
 9055SOL    HW228065   1.106   2.245   4.668
 9056SOL     OW28066   4.423   2.240   1.704
 9056SOL    HW128067   4.492   2.181   1.748
 9056SOL    HW228068   4.340   2.240   1.759
 9057SOL     OW28069   3.725   6.561   6.887
 9057SOL    HW128070   3.710   6.657   6.866
 9057SOL    HW228071   3.695   6.505   6.810
 9058SOL     OW28072   2.251   2.019   4.488
 9058SOL    HW128073   2.316   1.958   4.444
 9058SOL    HW228074   2.178   2.043   4.424
 9059SOL     OW28075   6.921   0.880   2.026
 9059SOL    HW128076   6.889   0.814   1.958
 9059SOL    HW228077   6.935   0.969   1.982
 9060SOL     OW28078   6.818   4.903   0.874
 9060SOL    HW128079   6.747   4.959   0.916
 9060SOL    HW228080   6.782   4.811   0.855
 9061SOL     OW28081   4.651   4.466   2.129
 9061SOL    HW128082   4.732   4.413   2.153
 9061SOL    HW228083   4.588   4.410   2.076
 9062SOL     OW28084   0.800   5.532   3.060
 9062SOL    HW128085   0.720   5.482   3.093
 9062SOL    HW228086   0.857   5.560   3.137
 9063SOL     OW28087   4.649   0.466   0.767
 9063SOL    HW128088   4.556   0.441   0.795
 9063SOL    HW228089   4.708   0.385   0.770
 9064SOL     OW28090   0.967   5.550   2.786
 9064SOL    HW128091   0.913   5.634   2.791
 9064SOL    HW228092   1.039   5.552   2.855
 9065SOL     OW28093   3.693   3.855   0.160
 9065SOL    HW128094   3.703   3.847   0.061
 9065SOL    HW228095   3.617   3.916   0.182
 9066SOL     OW28096   4.962   4.735   3.720
 9066SOL    HW128097   4.945   4.816   3.664
 9066SOL    HW228098   4.927   4.750   3.812
 9067SOL     OW28099   2.239   6.648   4.161
 9067SOL    HW128100   2.191   6.594   4.091
 9067SOL    HW228101   2.242   6.596   4.246
 9068SOL     OW28102   4.917   6.966   6.132
 9068SOL    HW128103   4.923   0.032   6.174
 9068SOL    HW228104   4.955   6.898   6.196
 9069SOL     OW28105   4.894   2.122   1.988
 9069SOL    HW128106   4.979   2.119   1.936
 9069SOL    HW228107   4.905   2.182   2.067
 9070SOL     OW28108   1.706   0.648   6.203
 9070SOL    HW128109   1.626   0.673   6.147
 9070SOL    HW228110   1.763   0.584   6.152
 9071SOL     OW28111   4.643   2.308   6.667
 9071SOL    HW128112   4.733   2.349   6.683
 9071SOL    HW228113   4.625   2.240   6.738
 9072SOL     OW28114   6.215   0.164   1.906
 9072SOL    HW128115   6.143   0.222   1.943
 9072SOL    HW228116   6.184   0.124   1.819
 9073SOL     OW28117   4.659   3.099   5.565
 9073SOL    HW128118   4.729   3.140   5.622
 9073SOL    HW228119   4.608   3.031   5.618
 9074SOL     OW28120   2.332   1.246   3.924
 9074SOL    HW128121   2.280   1.304   3.862
 9074SOL    HW228122   2.429   1.269   3.918
 9075SOL     OW28123   4.929   5.339   0.716
 9075SOL    HW128124   4.976   5.293   0.792
 9075SOL    HW228125   4.960   5.299   0.630
 9076SOL     OW28126   1.566   6.248   2.580
 9076SOL    HW128127   1.502   6.278   2.651
 9076SOL    HW228128   1.546   6.154   2.554
 9077SOL     OW28129   6.293   1.612   6.156
 9077SOL    HW128130   6.367   1.595   6.091
 9077SOL    HW228131   6.254   1.525   6.187
 9078SOL     OW28132   5.016   6.769   0.380
 9078SOL    HW128133   5.104   6.754   0.425
 9078SOL    HW228134   4.944   6.723   0.432
 9079SOL     OW28135   1.253   1.079   6.274
 9079SOL    HW128136   1.270   1.126   6.187
 9079SOL    HW228137   1.318   1.111   6.343
 9080SOL     OW28138   6.902   4.338   2.115
 9080SOL    HW128139   6.983   4.386   2.082
 9080SOL    HW228140   6.857   4.394   2.185
 9081SOL     OW28141   4.932   1.488   0.490
 9081SOL    HW128142   4.928   1.431   0.572
 9081SOL    HW228143   4.840   1.497   0.451
 9082SOL     OW28144   3.525   4.419   6.677
 9082SOL    HW128145   3.549   4.365   6.758
 9082SOL    HW228146   3.433   4.456   6.688
 9083SOL     OW28147   3.520   0.377   0.560
 9083SOL    HW128148   3.554   0.283   0.566
 9083SOL    HW228149   3.514   0.404   0.465
 9084SOL     OW28150   6.644   4.130   4.542
 9084SOL    HW128151   6.547   4.107   4.551
 9084SOL    HW228152   6.699   4.048   4.558
 9085SOL     OW28153   2.536   4.820   0.683
 9085SOL    HW128154   2.447   4.806   0.727
 9085SOL    HW228155   2.591   4.737   0.693
 9086SOL     OW28156   6.679   2.620   0.569
 9086SOL    HW128157   6.618   2.550   0.532
 9086SOL    HW228158   6.681   2.614   0.669
 9087SOL     OW28159   4.904   1.639   1.688
 9087SOL    HW128160   4.824   1.605   1.737
 9087SOL    HW228161   4.895   1.737   1.670
 9088SOL     OW28162   5.653   5.708   6.943
 9088SOL    HW128163   5.746   5.677   6.921
 9088SOL    HW228164   5.643   5.715   0.018
 9089SOL     OW28165   5.591   4.897   3.185
 9089SOL    HW128166   5.610   4.799   3.186
 9089SOL    HW228167   5.622   4.936   3.098
 9090SOL     OW28168   5.952   5.675   5.537
 9090SOL    HW128169   5.880   5.695   5.604
 9090SOL    HW228170   6.002   5.593   5.565
 9091SOL     OW28171   2.778   2.128   1.886
 9091SOL    HW128172   2.808   2.205   1.942
 9091SOL    HW228173   2.771   2.158   1.790
 9092SOL     OW28174   2.289   1.973   5.053
 9092SOL    HW128175   2.273   1.884   5.012
 9092SOL    HW228176   2.337   2.032   4.988
 9093SOL     OW28177   1.913   3.696   0.417
 9093SOL    HW128178   1.975   3.639   0.472
 9093SOL    HW228179   1.827   3.647   0.403
 9094SOL     OW28180   6.595   2.882   0.793
 9094SOL    HW128181   6.638   2.860   0.880
 9094SOL    HW228182   6.664   2.881   0.720
 9095SOL     OW28183   2.197   2.871   0.027
 9095SOL    HW128184   2.156   2.803   6.991
 9095SOL    HW228185   2.244   2.940   6.998
 9096SOL     OW28186   6.539   3.919   3.233
 9096SOL    HW128187   6.630   3.957   3.215
 9096SOL    HW228188   6.475   3.952   3.164
 9097SOL     OW28189   6.350   6.164   5.598
 9097SOL    HW128190   6.252   6.179   5.587
 9097SOL    HW228191   6.366   6.097   5.671
 9098SOL     OW28192   3.746   3.759   4.718
 9098SOL    HW128193   3.846   3.762   4.723
 9098SOL    HW228194   3.710   3.852   4.708
 9099SOL     OW28195   1.511   2.342   6.838
 9099SOL    HW128196   1.560   2.256   6.856
 9099SOL    HW228197   1.437   2.352   6.904
 9100SOL     OW28198   1.575   2.962   0.137
 9100SOL    HW128199   1.659   2.986   0.088
 9100SOL    HW228200   1.590   2.975   0.235
 9101SOL     OW28201   1.989   2.401   6.554
 9101SOL    HW128202   2.012   2.474   6.489
 9101SOL    HW228203   1.990   2.313   6.506
 9102SOL     OW28204   5.121   6.423   2.441
 9102SOL    HW128205   5.045   6.483   2.466
 9102SOL    HW228206   5.205   6.477   2.435
 9103SOL     OW28207   0.787   4.520   6.284
 9103SOL    HW128208   0.790   4.470   6.197
 9103SOL    HW228209   0.879   4.550   6.308
 9104SOL     OW28210   5.413   0.203   2.858
 9104SOL    HW128211   5.416   0.208   2.958
 9104SOL    HW228212   5.399   0.295   2.821
 9105SOL     OW28213   2.478   1.765   5.860
 9105SOL    HW128214   2.546   1.834   5.838
 9105SOL    HW228215   2.431   1.737   5.776
 9106SOL     OW28216   6.502   5.085   2.074
 9106SOL    HW128217   6.584   5.108   2.023
 9106SOL    HW228218   6.517   5.000   2.124
 9107SOL     OW28219   5.080   6.955   0.058
 9107SOL    HW128220   5.009   6.927   0.123
 9107SOL    HW228221   5.169   6.951   0.103
 9108SOL     OW28222   3.496   5.790   6.927
 9108SOL    HW128223   3.443   5.719   6.973
 9108SOL    HW228224   3.562   5.829   6.990
 9109SOL     OW28225   2.848   1.410   4.468
 9109SOL    HW128226   2.816   1.316   4.472
 9109SOL    HW228227   2.821   1.459   4.551
 9110SOL     OW28228   1.431   3.411   3.095
 9110SOL    HW128229   1.417   3.459   3.008
 9110SOL    HW228230   1.351   3.356   3.116
 9111SOL     OW28231   4.324   3.979   1.677
 9111SOL    HW128232   4.227   4.005   1.682
 9111SOL    HW228233   4.380   4.049   1.723
 9112SOL     OW28234   0.964   5.709   1.858
 9112SOL    HW128235   0.871   5.678   1.837
 9112SOL    HW228236   1.028   5.668   1.793
 9113SOL     OW28237   3.065   5.678   6.777
 9113SOL    HW128238   2.968   5.667   6.800
 9113SOL    HW228239   3.098   5.594   6.732
 9114SOL     OW28240   2.684   3.710   1.651
 9114SOL    HW128241   2.642   3.800   1.648
 9114SOL    HW228242   2.613   3.641   1.670
 9115SOL     OW28243   1.827   4.336   4.446
 9115SOL    HW128244   1.904   4.303   4.501
 9115SOL    HW228245   1.860   4.367   4.357
 9116SOL     OW28246   2.227   1.784   6.120
 9116SOL    HW128247   2.221   1.782   6.020
 9116SOL    HW228248   2.257   1.874   6.150
 9117SOL     OW28249   7.008   3.440   6.997
 9117SOL    HW128250   6.942   3.418   0.043
 9117SOL    HW228251   7.022   3.539   6.993
 9118SOL     OW28252   0.290   5.902   1.171
 9118SOL    HW128253   0.272   5.978   1.110
 9118SOL    HW228254   0.226   5.828   1.151
 9119SOL     OW28255   6.590   0.350   0.713
 9119SOL    HW128256   6.527   0.273   0.700
 9119SOL    HW228257   6.659   0.325   0.781
 9120SOL     OW28258   6.069   1.015   6.538
 9120SOL    HW128259   6.163   1.047   6.532
 9120SOL    HW228260   6.044   1.004   6.634
 9121SOL     OW28261   1.745   1.607   6.764
 9121SOL    HW128262   1.797   1.635   6.845
 9121SOL    HW228263   1.654   1.577   6.793
 9122SOL     OW28264   1.219   2.341   0.974
 9122SOL    HW128265   1.168   2.354   0.889
 9122SOL    HW228266   1.314   2.319   0.953
 9123SOL     OW28267   3.124   6.497   6.853
 9123SOL    HW128268   3.132   6.398   6.846
 9123SOL    HW228269   3.034   6.521   6.888
 9124SOL     OW28270   6.473   4.591   5.716
 9124SOL    HW128271   6.460   4.679   5.763
 9124SOL    HW228272   6.563   4.555   5.739
 9125SOL     OW28273   4.770   5.609   1.202
 9125SOL    HW128274   4.857   5.566   1.225
 9125SOL    HW228275   4.703   5.540   1.177
 9126SOL     OW28276   5.786   6.776   2.440
 9126SOL    HW128277   5.877   6.813   2.425
 9126SOL    HW228278   5.793   6.684   2.478
 9127SOL     OW28279   5.011   6.232   6.485
 9127SOL    HW128280   4.990   6.302   6.416
 9127SOL    HW228281   4.934   6.168   6.492
 9128SOL     OW28282   5.209   2.846   5.344
 9128SOL    HW128283   5.137   2.907   5.314
 9128SOL    HW228284   5.285   2.848   5.279
 9129SOL     OW28285   1.931   2.125   6.960
 9129SOL    HW128286   1.969   2.203   6.910
 9129SOL    HW228287   1.918   2.150   0.031
 9130SOL     OW28288   6.336   5.937   1.243
 9130SOL    HW128289   6.342   5.859   1.306
 9130SOL    HW228290   6.303   6.017   1.292
 9131SOL     OW28291   0.757   4.421   3.815
 9131SOL    HW128292   0.844   4.398   3.772
 9131SOL    HW228293   0.703   4.338   3.830
 9132SOL     OW28294   1.598   3.451   4.465
 9132SOL    HW128295   1.541   3.431   4.385
 9132SOL    HW228296   1.695   3.452   4.438
 9133SOL     OW28297   1.571   5.296   1.433
 9133SOL    HW128298   1.574   5.271   1.336
 9133SOL    HW228299   1.518   5.380   1.445
 9134SOL     OW28300   2.848   4.908   5.962
 9134SOL    HW128301   2.940   4.943   5.944
 9134SOL    HW228302   2.786   4.984   5.981
 9135SOL     OW28303   0.774   6.136   4.043
 9135SOL    HW128304   0.721   6.191   3.978
 9135SOL    HW228305   0.737   6.148   4.135
 9136SOL     OW28306   3.605   5.439   5.304
 9136SOL    HW128307   3.598   5.420   5.206
 9136SOL    HW228308   3.588   5.537   5.320
 9137SOL     OW28309   4.512   0.440   1.783
 9137SOL    HW128310   4.535   0.400   1.872
 9137SOL    HW228311   4.413   0.451   1.776
 9138SOL     OW28312   3.444   4.430   1.061
 9138SOL    HW128313   3.372   4.471   1.117
 9138SOL    HW228314   3.445   4.331   1.076
 9139SOL     OW28315   3.436   1.345   5.426
 9139SOL    HW128316   3.370   1.299   5.485
 9139SOL    HW228317   3.487   1.276   5.373
 9140SOL     OW28318   6.708   2.158   3.809
 9140SOL    HW128319   6.646   2.194   3.740
 9140SOL    HW228320   6.722   2.060   3.794
 9141SOL     OW28321   5.509   0.558   5.897
 9141SOL    HW128322   5.599   0.585   5.929
 9141SOL    HW228323   5.468   0.495   5.963
 9142SOL     OW28324   1.601   4.310   6.433
 9142SOL    HW128325   1.538   4.340   6.504
 9142SOL    HW228326   1.651   4.389   6.398
 9143SOL     OW28327   5.531   4.064   1.458
 9143SOL    HW128328   5.478   4.018   1.387
 9143SOL    HW228329   5.468   4.101   1.527
 9144SOL     OW28330   1.341   5.005   4.817
 9144SOL    HW128331   1.268   4.937   4.822
 9144SOL    HW228332   1.350   5.052   4.905
 9145SOL     OW28333   0.276   3.728   6.537
 9145SOL    HW128334   0.249   3.802   6.599
 9145SOL    HW228335   0.212   3.651   6.548
 9146SOL     OW28336   0.471   1.803   1.465
 9146SOL    HW128337   0.561   1.759   1.464
 9146SOL    HW228338   0.464   1.862   1.546
 9147SOL     OW28339   4.748   6.475   6.426
 9147SOL    HW128340   4.787   6.470   6.518
 9147SOL    HW228341   4.802   6.417   6.365
 9148SOL     OW28342   3.269   5.299   3.092
 9148SOL    HW128343   3.353   5.256   3.057
 9148SOL    HW228344   3.234   5.363   3.023
 9149SOL     OW28345   6.152   3.399   4.564
 9149SOL    HW128346   6.169   3.391   4.465
 9149SOL    HW228347   6.205   3.475   4.601
 9150SOL     OW28348   4.430   1.441   3.134
 9150SOL    HW128349   4.491   1.520   3.129
 9150SOL    HW228350   4.382   1.441   3.222
 9151SOL     OW28351   1.128   3.287   2.360
 9151SOL    HW128352   1.152   3.369   2.308
 9151SOL    HW228353   1.172   3.207   2.318
 9152SOL     OW28354   2.100   5.232   3.343
 9152SOL    HW128355   2.097   5.218   3.244
 9152SOL    HW228356   2.172   5.298   3.365
 9153SOL     OW28357   1.486   3.106   6.634
 9153SOL    HW128358   1.436   3.123   6.549
 9153SOL    HW228359   1.447   3.027   6.681
 9154SOL     OW28360   1.689   5.875   6.919
 9154SOL    HW128361   1.636   5.799   6.881
 9154SOL    HW228362   1.632   5.956   6.924
 9155SOL     OW28363   1.451   4.091   0.381
 9155SOL    HW128364   1.531   4.043   0.418
 9155SOL    HW228365   1.407   4.034   0.312
 9156SOL     OW28366   5.112   2.178   1.825
 9156SOL    HW128367   5.147   2.146   1.737
 9156SOL    HW228368   5.119   2.278   1.829
 9157SOL     OW28369   5.031   4.264   5.952
 9157SOL    HW128370   5.018   4.294   5.857
 9157SOL    HW228371   5.114   4.307   5.989
 9158SOL     OW28372   0.377   3.511   3.118
 9158SOL    HW128373   0.475   3.526   3.133
 9158SOL    HW228374   0.364   3.439   3.049
 9159SOL     OW28375   6.874   4.883   2.624
 9159SOL    HW128376   6.971   4.903   2.637
 9159SOL    HW228377   6.864   4.815   2.551
 9160SOL     OW28378   6.978   7.004   0.412
 9160SOL    HW128379   6.967   6.950   0.329
 9160SOL    HW228380   6.976   0.076   0.390
 9161SOL     OW28381   5.456   3.934   3.199
 9161SOL    HW128382   5.440   3.969   3.107
 9161SOL    HW228383   5.446   3.834   3.200
 9162SOL     OW28384   5.003   1.641   2.437
 9162SOL    HW128385   4.934   1.578   2.401
 9162SOL    HW228386   5.017   1.715   2.371
 9163SOL     OW28387   3.157   1.368   4.448
 9163SOL    HW128388   3.166   1.269   4.441
 9163SOL    HW228389   3.061   1.394   4.440
 9164SOL     OW28390   2.559   0.332   0.069
 9164SOL    HW128391   2.484   0.270   0.091
 9164SOL    HW228392   2.539   0.423   0.103
 9165SOL     OW28393   4.835   5.882   0.526
 9165SOL    HW128394   4.922   5.857   0.569
 9165SOL    HW228395   4.773   5.920   0.595
 9166SOL     OW28396   2.842   5.722   1.331
 9166SOL    HW128397   2.851   5.663   1.251
 9166SOL    HW228398   2.748   5.719   1.364
 9167SOL     OW28399   0.223   4.033   5.061
 9167SOL    HW128400   0.240   4.035   4.962
 9167SOL    HW228401   0.125   4.030   5.078
 9168SOL     OW28402   2.589   0.507   6.783
 9168SOL    HW128403   2.520   0.435   6.773
 9168SOL    HW228404   2.605   0.525   6.881
 9169SOL     OW28405   0.160   6.886   3.252
 9169SOL    HW128406   0.159   6.965   3.192
 9169SOL    HW228407   0.125   6.806   3.203
 9170SOL     OW28408   6.360   6.116   6.875
 9170SOL    HW128409   6.286   6.050   6.888
 9170SOL    HW228410   6.328   6.193   6.821
 9171SOL     OW28411   2.779   5.726   5.692
 9171SOL    HW128412   2.681   5.706   5.692
 9171SOL    HW228413   2.830   5.644   5.716
 9172SOL     OW28414   2.600   2.517   4.073
 9172SOL    HW128415   2.552   2.564   3.998
 9172SOL    HW228416   2.637   2.586   4.136
 9173SOL     OW28417   0.320   4.983   5.343
 9173SOL    HW128418   0.397   5.045   5.357
 9173SOL    HW228419   0.341   4.920   5.268
 9174SOL     OW28420   0.032   5.775   0.181
 9174SOL    HW128421   0.082   5.767   0.094
 9174SOL    HW228422   0.074   5.714   0.249
 9175SOL     OW28423   1.506   6.964   5.289
 9175SOL    HW128424   1.494   6.939   5.385
 9175SOL    HW228425   1.515   6.882   5.233
 9176SOL     OW28426   1.638   1.263   5.473
 9176SOL    HW128427   1.701   1.238   5.400
 9176SOL    HW228428   1.680   1.244   5.562
 9177SOL     OW28429   1.208   4.529   3.638
 9177SOL    HW128430   1.148   4.451   3.621
 9177SOL    HW228431   1.266   4.544   3.558
 9178SOL     OW28432   1.985   4.503   0.681
 9178SOL    HW128433   2.023   4.418   0.646
 9178SOL    HW228434   2.048   4.578   0.660
 9179SOL     OW28435   2.529   4.692   5.050
 9179SOL    HW128436   2.481   4.779   5.067
 9179SOL    HW228437   2.625   4.701   5.076
 9180SOL     OW28438   5.572   1.721   2.850
 9180SOL    HW128439   5.585   1.812   2.892
 9180SOL    HW228440   5.474   1.703   2.840
 9181SOL     OW28441   3.919   1.517   2.269
 9181SOL    HW128442   3.830   1.474   2.281
 9181SOL    HW228443   3.982   1.452   2.225
 9182SOL     OW28444   1.950   0.207   2.139
 9182SOL    HW128445   2.033   0.244   2.099
 9182SOL    HW228446   1.971   0.123   2.189
 9183SOL     OW28447   4.954   5.948   6.384
 9183SOL    HW128448   5.049   5.964   6.359
 9183SOL    HW228449   4.942   5.853   6.411
 9184SOL     OW28450   4.806   0.058   0.181
 9184SOL    HW128451   4.778   6.991   0.155
 9184SOL    HW228452   4.839   0.107   0.100
 9185SOL     OW28453   4.613   1.129   5.148
 9185SOL    HW128454   4.588   1.095   5.057
 9185SOL    HW228455   4.623   1.053   5.211
 9186SOL     OW28456   5.559   0.076   6.612
 9186SOL    HW128457   5.619   0.026   6.549
 9186SOL    HW228458   5.469   0.088   6.571
 9187SOL     OW28459   2.993   6.511   2.492
 9187SOL    HW128460   2.923   6.441   2.482
 9187SOL    HW228461   3.067   6.494   2.427
 9188SOL     OW28462   2.397   6.424   1.096
 9188SOL    HW128463   2.436   6.360   1.029
 9188SOL    HW228464   2.310   6.460   1.061
 9189SOL     OW28465   5.467   4.832   2.327
 9189SOL    HW128466   5.545   4.774   2.302
 9189SOL    HW228467   5.426   4.870   2.245
 9190SOL     OW28468   1.426   5.488   1.032
 9190SOL    HW128469   1.461   5.504   1.124
 9190SOL    HW228470   1.360   5.412   1.035
 9191SOL     OW28471   7.017   0.437   6.426
 9191SOL    HW128472   6.973   0.507   6.369
 9191SOL    HW228473   6.947   0.381   6.469
 9192SOL     OW28474   0.544   4.057   4.247
 9192SOL    HW128475   0.606   4.024   4.176
 9192SOL    HW228476   0.586   4.044   4.336
 9193SOL     OW28477   2.391   3.482   6.793
 9193SOL    HW128478   2.379   3.405   6.731
 9193SOL    HW228479   2.315   3.484   6.858
 9194SOL     OW28480   3.219   0.304   4.444
 9194SOL    HW128481   3.196   0.369   4.371
 9194SOL    HW228482   3.314   0.316   4.471
 9195SOL     OW28483   1.850   0.850   3.852
 9195SOL    HW128484   1.816   0.910   3.780
 9195SOL    HW228485   1.894   0.904   3.923
 9196SOL     OW28486   5.010   2.000   5.581
 9196SOL    HW128487   5.094   1.958   5.547
 9196SOL    HW228488   5.031   2.086   5.628
 9197SOL     OW28489   2.345   3.722   1.140
 9197SOL    HW128490   2.272   3.787   1.118
 9197SOL    HW228491   2.371   3.672   1.058
 9198SOL     OW28492   0.374   4.854   3.907
 9198SOL    HW128493   0.436   4.857   3.985
 9198SOL    HW228494   0.355   4.759   3.883
 9199SOL     OW28495   5.905   4.323   5.166
 9199SOL    HW128496   5.929   4.391   5.235
 9199SOL    HW228497   5.815   4.343   5.128
 9200SOL     OW28498   3.024   0.649   0.329
 9200SOL    HW128499   2.953   0.594   0.285
 9200SOL    HW228500   3.088   0.682   0.259
 9201SOL     OW28501   1.715   4.388   0.694
 9201SOL    HW128502   1.808   4.422   0.691
 9201SOL    HW228503   1.671   4.419   0.779
 9202SOL     OW28504   2.609   1.074   3.770
 9202SOL    HW128505   2.512   1.072   3.745
 9202SOL    HW228506   2.618   1.100   3.866
 9203SOL     OW28507   6.706   6.738   0.733
 9203SOL    HW128508   6.738   6.643   0.734
 9203SOL    HW228509   6.756   6.789   0.662
 9204SOL     OW28510   5.324   0.354   5.388
 9204SOL    HW128511   5.248   0.372   5.449
 9204SOL    HW228512   5.317   0.260   5.353
 9205SOL     OW28513   0.101   5.055   1.562
 9205SOL    HW128514   0.125   5.141   1.607
 9205SOL    HW228515   0.144   5.052   1.471
 9206SOL     OW28516   3.112   6.521   0.790
 9206SOL    HW128517   3.054   6.498   0.868
 9206SOL    HW228518   3.136   6.618   0.794
 9207SOL     OW28519   5.328   5.487   6.641
 9207SOL    HW128520   5.351   5.542   6.721
 9207SOL    HW228521   5.326   5.546   6.560
 9208SOL     OW28522   1.025   3.664   3.110
 9208SOL    HW128523   1.052   3.674   3.014
 9208SOL    HW228524   0.983   3.575   3.124
 9209SOL     OW28525   3.130   0.399   6.291
 9209SOL    HW128526   3.224   0.427   6.276
 9209SOL    HW228527   3.076   0.419   6.209
 9210SOL     OW28528   6.526   0.371   3.806
 9210SOL    HW128529   6.567   0.379   3.715
 9210SOL    HW228530   6.579   0.425   3.872
 9211SOL     OW28531   0.386   1.733   2.761
 9211SOL    HW128532   0.476   1.730   2.719
 9211SOL    HW228533   0.326   1.666   2.717
 9212SOL     OW28534   3.311   4.954   4.818
 9212SOL    HW128535   3.322   5.024   4.889
 9212SOL    HW228536   3.292   4.866   4.862
 9213SOL     OW28537   6.177   4.500   6.508
 9213SOL    HW128538   6.231   4.583   6.519
 9213SOL    HW228539   6.179   4.447   6.592
 9214SOL     OW28540   0.453   4.931   0.566
 9214SOL    HW128541   0.416   4.881   0.645
 9214SOL    HW228542   0.549   4.952   0.583
 9215SOL     OW28543   1.366   1.297   1.029
 9215SOL    HW128544   1.436   1.249   1.082
 9215SOL    HW228545   1.295   1.331   1.090
 9216SOL     OW28546   2.047   7.004   3.225
 9216SOL    HW128547   2.041   0.064   3.279
 9216SOL    HW228548   1.956   6.965   3.215
 9217SOL     OW28549   0.601   2.785   0.289
 9217SOL    HW128550   0.562   2.702   0.328
 9217SOL    HW228551   0.552   2.865   0.323
 9218SOL     OW28552   2.447   1.212   0.419
 9218SOL    HW128553   2.475   1.306   0.440
 9218SOL    HW228554   2.402   1.210   0.329
 9219SOL     OW28555   0.313   1.230   0.568
 9219SOL    HW128556   0.294   1.284   0.486
 9219SOL    HW228557   0.263   1.270   0.646
 9220SOL     OW28558   3.123   6.328   1.561
 9220SOL    HW128559   3.040   6.274   1.553
 9220SOL    HW228560   3.099   6.424   1.575
 9221SOL     OW28561   2.746   4.826   4.794
 9221SOL    HW128562   2.835   4.842   4.751
 9221SOL    HW228563   2.755   4.763   4.871
 9222SOL     OW28564   2.760   2.279   6.020
 9222SOL    HW128565   2.724   2.279   5.926
 9222SOL    HW228566   2.728   2.197   6.067
 9223SOL     OW28567   2.845   3.085   5.222
 9223SOL    HW128568   2.746   3.070   5.219
 9223SOL    HW228569   2.867   3.171   5.176
 9224SOL     OW28570   2.165   4.966   5.236
 9224SOL    HW128571   2.087   4.936   5.181
 9224SOL    HW228572   2.134   4.988   5.328
 9225SOL     OW28573   2.116   7.009   7.014
 9225SOL    HW128574   2.127   0.007   0.085
 9225SOL    HW228575   2.194   6.955   6.984
 9226SOL     OW28576   3.652   6.490   0.942
 9226SOL    HW128577   3.554   6.485   0.925
 9226SOL    HW228578   3.688   6.400   0.965
 9227SOL     OW28579   1.972   6.646   1.353
 9227SOL    HW128580   1.902   6.716   1.368
 9227SOL    HW228581   2.026   6.670   1.272
 9228SOL     OW28582   0.598   0.569   6.917
 9228SOL    HW128583   0.594   0.545   6.820
 9228SOL    HW228584   0.685   0.615   6.936
 9229SOL     OW28585   0.523   5.963   5.901
 9229SOL    HW128586   0.435   5.959   5.854
 9229SOL    HW228587   0.579   6.036   5.862
 9230SOL     OW28588   5.199   0.629   4.037
 9230SOL    HW128589   5.265   0.559   4.010
 9230SOL    HW228590   5.128   0.637   3.968
 9231SOL     OW28591   1.992   3.491   3.359
 9231SOL    HW128592   1.987   3.396   3.329
 9231SOL    HW228593   1.939   3.548   3.297
 9232SOL     OW28594   4.576   4.898   1.537
 9232SOL    HW128595   4.594   4.995   1.519
 9232SOL    HW228596   4.490   4.871   1.492
 9233SOL     OW28597   4.748   4.470   1.219
 9233SOL    HW128598   4.821   4.426   1.271
 9233SOL    HW228599   4.671   4.407   1.210
 9234SOL     OW28600   2.129   5.748   3.713
 9234SOL    HW128601   2.057   5.815   3.699
 9234SOL    HW228602   2.131   5.684   3.636
 9235SOL     OW28603   0.623   2.697   3.457
 9235SOL    HW128604   0.680   2.704   3.375
 9235SOL    HW228605   0.677   2.657   3.531
 9236SOL     OW28606   4.041   3.041   5.966
 9236SOL    HW128607   4.131   3.045   6.008
 9236SOL    HW228608   4.017   2.946   5.946
 9237SOL     OW28609   1.847   3.653   3.924
 9237SOL    HW128610   1.857   3.702   4.010
 9237SOL    HW228611   1.808   3.562   3.941
 9238SOL     OW28612   4.332   3.503   6.414
 9238SOL    HW128613   4.256   3.568   6.404
 9238SOL    HW228614   4.329   3.437   6.340
 9239SOL     OW28615   1.782   3.737   6.717
 9239SOL    HW128616   1.709   3.726   6.784
 9239SOL    HW228617   1.763   3.817   6.660
 9240SOL     OW28618   5.257   1.152   1.990
 9240SOL    HW128619   5.350   1.116   1.984
 9240SOL    HW228620   5.250   1.235   1.934
 9241SOL     OW28621   0.585   5.805   6.979
 9241SOL    HW128622   0.637   5.890   6.986
 9241SOL    HW228623   0.606   5.760   6.892
 9242SOL     OW28624   6.462   5.747   1.655
 9242SOL    HW128625   6.400   5.802   1.710
 9242SOL    HW228626   6.426   5.739   1.562
 9243SOL     OW28627   5.754   6.250   4.678
 9243SOL    HW128628   5.806   6.164   4.674
 9243SOL    HW228629   5.672   6.242   4.622
 9244SOL     OW28630   3.378   5.600   0.065
 9244SOL    HW128631   3.395   5.506   0.036
 9244SOL    HW228632   3.429   5.619   0.149
 9245SOL     OW28633   0.484   6.305   1.031
 9245SOL    HW128634   0.490   6.209   1.003
 9245SOL    HW228635   0.436   6.312   1.118
 9246SOL     OW28636   6.804   4.830   4.123
 9246SOL    HW128637   6.783   4.925   4.147
 9246SOL    HW228638   6.796   4.819   4.024
 9247SOL     OW28639   1.787   6.744   2.998
 9247SOL    HW128640   1.738   6.786   2.922
 9247SOL    HW228641   1.757   6.785   3.084
 9248SOL     OW28642   3.719   1.870   6.221
 9248SOL    HW128643   3.778   1.946   6.195
 9248SOL    HW228644   3.775   1.793   6.250
 9249SOL     OW28645   4.147   6.517   3.174
 9249SOL    HW128646   4.115   6.541   3.083
 9249SOL    HW228647   4.077   6.463   3.221
 9250SOL     OW28648   5.683   3.470   3.603
 9250SOL    HW128649   5.676   3.457   3.504
 9250SOL    HW228650   5.602   3.517   3.637
 9251SOL     OW28651   4.129   1.763   3.215
 9251SOL    HW128652   4.194   1.838   3.226
 9251SOL    HW228653   4.043   1.787   3.260
 9252SOL     OW28654   1.502   6.631   4.495
 9252SOL    HW128655   1.502   6.608   4.592
 9252SOL    HW228656   1.546   6.720   4.482
 9253SOL     OW28657   1.384   6.884   5.562
 9253SOL    HW128658   1.312   6.933   5.611
 9253SOL    HW228659   1.356   6.790   5.546
 9254SOL     OW28660   5.405   3.144   1.585
 9254SOL    HW128661   5.347   3.207   1.636
 9254SOL    HW228662   5.397   3.052   1.625
 9255SOL     OW28663   0.171   4.742   0.391
 9255SOL    HW128664   0.248   4.679   0.375
 9255SOL    HW228665   0.094   4.716   0.332
 9256SOL     OW28666   4.191   5.097   1.932
 9256SOL    HW128667   4.248   5.042   1.871
 9256SOL    HW228668   4.164   5.181   1.885
 9257SOL     OW28669   0.695   3.534   0.862
 9257SOL    HW128670   0.789   3.567   0.868
 9257SOL    HW228671   0.690   3.462   0.792
 9258SOL     OW28672   4.027   3.347   3.998
 9258SOL    HW128673   4.020   3.279   4.071
 9258SOL    HW228674   4.039   3.438   4.039
 9259SOL     OW28675   1.370   2.377   0.569
 9259SOL    HW128676   1.309   2.299   0.581
 9259SOL    HW228677   1.444   2.352   0.507
 9260SOL     OW28678   6.436   3.865   0.330
 9260SOL    HW128679   6.400   3.940   0.386
 9260SOL    HW228680   6.379   3.784   0.343
 9261SOL     OW28681   4.156   6.969   6.876
 9261SOL    HW128682   4.163   0.020   6.812
 9261SOL    HW228683   4.148   7.006   6.969
 9262SOL     OW28684   5.009   0.547   5.254
 9262SOL    HW128685   5.106   0.551   5.229
 9262SOL    HW228686   4.955   0.596   5.186
 9263SOL     OW28687   5.702   3.686   1.944
 9263SOL    HW128688   5.736   3.617   1.881
 9263SOL    HW228689   5.779   3.729   1.991
 9264SOL     OW28690   6.285   2.378   6.971
 9264SOL    HW128691   6.300   2.381   0.044
 9264SOL    HW228692   6.293   2.470   6.933
 9265SOL     OW28693   1.661   1.539   5.264
 9265SOL    HW128694   1.569   1.504   5.282
 9265SOL    HW228695   1.686   1.519   5.169
 9266SOL     OW28696   2.138   5.915   2.297
 9266SOL    HW128697   2.095   6.004   2.310
 9266SOL    HW228698   2.167   5.879   2.386
 9267SOL     OW28699   2.884   5.142   5.488
 9267SOL    HW128700   2.923   5.210   5.426
 9267SOL    HW228701   2.958   5.098   5.539
 9268SOL     OW28702   0.814   1.159   2.514
 9268SOL    HW128703   0.735   1.128   2.567
 9268SOL    HW228704   0.783   1.202   2.430
 9269SOL     OW28705   4.391   1.782   5.698
 9269SOL    HW128706   4.292   1.792   5.682
 9269SOL    HW228707   4.428   1.868   5.731
 9270SOL     OW28708   1.166   6.969   5.731
 9270SOL    HW128709   1.239   6.995   5.795
 9270SOL    HW228710   1.079   7.006   5.764
 9271SOL     OW28711   1.115   4.878   6.847
 9271SOL    HW128712   1.207   4.868   6.810
 9271SOL    HW228713   1.049   4.839   6.783
 9272SOL     OW28714   3.056   5.256   6.445
 9272SOL    HW128715   2.995   5.217   6.514
 9272SOL    HW228716   3.123   5.188   6.417
 9273SOL     OW28717   4.083   6.623   5.701
 9273SOL    HW128718   4.135   6.663   5.625
 9273SOL    HW228719   4.131   6.543   5.737
 9274SOL     OW28720   6.119   2.450   1.351
 9274SOL    HW128721   6.063   2.380   1.395
 9274SOL    HW228722   6.206   2.410   1.322
 9275SOL     OW28723   0.405   0.720   6.399
 9275SOL    HW128724   0.459   0.692   6.478
 9275SOL    HW228725   0.453   0.793   6.349
 9276SOL     OW28726   4.975   6.106   4.504
 9276SOL    HW128727   5.047   6.057   4.553
 9276SOL    HW228728   4.904   6.134   4.568
 9277SOL     OW28729   3.183   2.532   0.617
 9277SOL    HW128730   3.220   2.450   0.661
 9277SOL    HW228731   3.146   2.508   0.527
 9278SOL     OW28732   1.386   2.422   1.612
 9278SOL    HW128733   1.367   2.493   1.543
 9278SOL    HW228734   1.475   2.439   1.653
 9279SOL     OW28735   3.204   0.139   1.149
 9279SOL    HW128736   3.205   0.188   1.236
 9279SOL    HW228737   3.175   0.202   1.077
 9280SOL     OW28738   2.222   0.741   2.820
 9280SOL    HW128739   2.214   0.649   2.859
 9280SOL    HW228740   2.216   0.736   2.721
 9281SOL     OW28741   1.891   2.746   0.682
 9281SOL    HW128742   1.805   2.697   0.673
 9281SOL    HW228743   1.885   2.833   0.634
 9282SOL     OW28744   4.475   2.055   6.140
 9282SOL    HW128745   4.404   2.042   6.209
 9282SOL    HW228746   4.552   2.106   6.180
 9283SOL     OW28747   5.689   2.198   2.959
 9283SOL    HW128748   5.761   2.151   3.011
 9283SOL    HW228749   5.729   2.242   2.878
 9284SOL     OW28750   3.494   3.280   2.297
 9284SOL    HW128751   3.419   3.237   2.245
 9284SOL    HW228752   3.497   3.378   2.276
 9285SOL     OW28753   5.782   2.405   6.395
 9285SOL    HW128754   5.761   2.498   6.364
 9285SOL    HW228755   5.717   2.341   6.353
 9286SOL     OW28756   5.768   5.688   4.947
 9286SOL    HW128757   5.715   5.734   5.018
 9286SOL    HW228758   5.766   5.589   4.962
 9287SOL     OW28759   3.068   6.518   2.039
 9287SOL    HW128760   3.067   6.427   1.997
 9287SOL    HW228761   3.072   6.509   2.139
 9288SOL     OW28762   4.525   2.287   5.819
 9288SOL    HW128763   4.607   2.230   5.821
 9288SOL    HW228764   4.547   2.375   5.779
 9289SOL     OW28765   5.488   3.276   2.437
 9289SOL    HW128766   5.397   3.255   2.402
 9289SOL    HW228767   5.509   3.216   2.514
 9290SOL     OW28768   4.540   2.206   4.395
 9290SOL    HW128769   4.542   2.106   4.397
 9290SOL    HW228770   4.459   2.236   4.345
 9291SOL     OW28771   0.771   1.724   4.806
 9291SOL    HW128772   0.819   1.708   4.720
 9291SOL    HW228773   0.770   1.821   4.827
 9292SOL     OW28774   6.559   3.605   6.922
 9292SOL    HW128775   6.491   3.552   6.972
 9292SOL    HW228776   6.631   3.634   6.984
 9293SOL     OW28777   6.283   3.795   6.713
 9293SOL    HW128778   6.194   3.807   6.668
 9293SOL    HW228779   6.330   3.717   6.672
 9294SOL     OW28780   5.294   5.820   6.596
 9294SOL    HW128781   5.378   5.861   6.561
 9294SOL    HW228782   5.307   5.794   6.692
 9295SOL     OW28783   4.717   1.934   3.910
 9295SOL    HW128784   4.753   1.889   3.829
 9295SOL    HW228785   4.617   1.922   3.914
 9296SOL     OW28786   6.696   6.622   5.583
 9296SOL    HW128787   6.791   6.651   5.569
 9296SOL    HW228788   6.673   6.551   5.516
 9297SOL     OW28789   0.251   0.579   1.135
 9297SOL    HW128790   0.224   0.536   1.221
 9297SOL    HW228791   0.303   0.662   1.154
 9298SOL     OW28792   0.525   6.374   4.745
 9298SOL    HW128793   0.590   6.320   4.799
 9298SOL    HW228794   0.517   6.335   4.653
 9299SOL     OW28795   1.802   2.646   3.951
 9299SOL    HW128796   1.810   2.744   3.969
 9299SOL    HW228797   1.809   2.596   4.038
 9300SOL     OW28798   5.633   4.207   3.767
 9300SOL    HW128799   5.668   4.298   3.789
 9300SOL    HW228800   5.547   4.216   3.716
 9301SOL     OW28801   5.879   3.955   2.484
 9301SOL    HW128802   5.898   3.976   2.580
 9301SOL    HW228803   5.790   3.910   2.477
 9302SOL     OW28804   2.194   2.278   2.574
 9302SOL    HW128805   2.282   2.311   2.609
 9302SOL    HW228806   2.141   2.356   2.542
 9303SOL     OW28807   3.718   4.448   0.996
 9303SOL    HW128808   3.717   4.363   0.944
 9303SOL    HW228809   3.628   4.463   1.037
 9304SOL     OW28810   4.067   3.661   0.390
 9304SOL    HW128811   4.167   3.657   0.393
 9304SOL    HW228812   4.038   3.714   0.311
 9305SOL     OW28813   5.024   3.170   2.460
 9305SOL    HW128814   5.067   3.207   2.377
 9305SOL    HW228815   5.014   3.243   2.527
 9306SOL     OW28816   6.511   4.711   3.683
 9306SOL    HW128817   6.485   4.671   3.595
 9306SOL    HW228818   6.446   4.682   3.753
 9307SOL     OW28819   2.286   0.912   6.183
 9307SOL    HW128820   2.295   0.990   6.121
 9307SOL    HW228821   2.377   0.882   6.212
 9308SOL     OW28822   6.656   2.141   0.568
 9308SOL    HW128823   6.754   2.128   0.561
 9308SOL    HW228824   6.608   2.068   0.519
 9309SOL     OW28825   4.756   3.295   6.513
 9309SOL    HW128826   4.696   3.262   6.585
 9309SOL    HW228827   4.759   3.227   6.439
 9310SOL     OW28828   3.660   6.164   1.102
 9310SOL    HW128829   3.584   6.229   1.105
 9310SOL    HW228830   3.730   6.197   1.039
 9311SOL     OW28831   6.551   3.011   1.750
 9311SOL    HW128832   6.462   3.053   1.767
 9311SOL    HW228833   6.615   3.080   1.716
 9312SOL     OW28834   1.267   4.774   5.188
 9312SOL    HW128835   1.331   4.837   5.232
 9312SOL    HW228836   1.208   4.733   5.257
 9313SOL     OW28837   6.088   6.501   2.355
 9313SOL    HW128838   6.081   6.524   2.258
 9313SOL    HW228839   6.166   6.549   2.395
 9314SOL     OW28840   5.478   4.955   0.347
 9314SOL    HW128841   5.548   5.021   0.319
 9314SOL    HW228842   5.424   4.928   0.268
 9315SOL     OW28843   0.159   6.442   6.626
 9315SOL    HW128844   0.181   6.358   6.674
 9315SOL    HW228845   0.087   6.425   6.559
 9316SOL     OW28846   3.899   6.132   4.460
 9316SOL    HW128847   3.858   6.205   4.514
 9316SOL    HW228848   3.978   6.094   4.509
 9317SOL     OW28849   5.245   4.494   5.052
 9317SOL    HW128850   5.294   4.517   4.968
 9317SOL    HW228851   5.233   4.577   5.107
 9318SOL     OW28852   6.282   6.741   6.281
 9318SOL    HW128853   6.191   6.750   6.242
 9318SOL    HW228854   6.346   6.711   6.210
 9319SOL     OW28855   6.891   2.984   4.974
 9319SOL    HW128856   6.889   2.922   4.896
 9319SOL    HW228857   6.798   3.004   5.004
 9320SOL     OW28858   4.069   2.789   6.381
 9320SOL    HW128859   4.070   2.704   6.330
 9320SOL    HW228860   4.150   2.843   6.359
 9321SOL     OW28861   6.195   6.142   3.219
 9321SOL    HW128862   6.281   6.174   3.178
 9321SOL    HW228863   6.168   6.056   3.178
 9322SOL     OW28864   0.826   6.391   0.089
 9322SOL    HW128865   0.800   6.396   0.185
 9322SOL    HW228866   0.926   6.398   0.081
 9323SOL     OW28867   0.166   1.611   6.215
 9323SOL    HW128868   0.186   1.630   6.312
 9323SOL    HW228869   0.072   1.577   6.207
 9324SOL     OW28870   1.735   5.206   6.790
 9324SOL    HW128871   1.721   5.265   6.711
 9324SOL    HW228872   1.650   5.199   6.842
 9325SOL     OW28873   0.435   2.988   0.381
 9325SOL    HW128874   0.351   3.036   0.356
 9325SOL    HW228875   0.417   2.924   0.455
 9326SOL     OW28876   1.939   5.744   1.039
 9326SOL    HW128877   1.868   5.805   1.074
 9326SOL    HW228878   1.926   5.652   1.075
 9327SOL     OW28879   4.121   0.906   3.477
 9327SOL    HW128880   4.093   0.884   3.384
 9327SOL    HW228881   4.077   0.844   3.541
 9328SOL     OW28882   3.945   0.876   2.303
 9328SOL    HW128883   3.992   0.788   2.314
 9328SOL    HW228884   3.951   0.905   2.207
 9329SOL     OW28885   1.374   4.194   2.098
 9329SOL    HW128886   1.405   4.165   2.008
 9329SOL    HW228887   1.286   4.149   2.119
 9330SOL     OW28888   5.334   6.770   6.836
 9330SOL    HW128889   5.434   6.770   6.837
 9330SOL    HW228890   5.301   6.815   6.753
 9331SOL     OW28891   0.499   1.659   0.169
 9331SOL    HW128892   0.571   1.703   0.223
 9331SOL    HW228893   0.455   1.727   0.110
 9332SOL     OW28894   3.465   4.189   4.495
 9332SOL    HW128895   3.392   4.150   4.552
 9332SOL    HW228896   3.498   4.273   4.537
 9333SOL     OW28897   5.738   5.621   1.078
 9333SOL    HW128898   5.712   5.566   0.999
 9333SOL    HW228899   5.660   5.633   1.139
 9334SOL     OW28900   2.830   6.947   4.608
 9334SOL    HW128901   2.790   7.020   4.665
 9334SOL    HW228902   2.802   6.960   4.513
 9335SOL     OW28903   0.620   1.106   1.672
 9335SOL    HW128904   0.689   1.049   1.626
 9335SOL    HW228905   0.614   1.080   1.768
 9336SOL     OW28906   3.538   0.062   5.344
 9336SOL    HW128907   3.470   0.135   5.339
 9336SOL    HW228908   3.547   0.031   5.438
 9337SOL     OW28909   4.655   6.965   3.065
 9337SOL    HW128910   4.630   0.023   3.114
 9337SOL    HW228911   4.590   6.950   2.990
 9338SOL     OW28912   3.812   0.011   1.635
 9338SOL    HW128913   3.783   0.026   1.730
 9338SOL    HW228914   3.809   0.097   1.585
 9339SOL     OW28915   3.790   5.736   0.951
 9339SOL    HW128916   3.873   5.690   0.982
 9339SOL    HW228917   3.728   5.670   0.909
 9340SOL     OW28918   5.784   3.332   0.734
 9340SOL    HW128919   5.836   3.415   0.715
 9340SOL    HW228920   5.722   3.348   0.811
 9341SOL     OW28921   6.802   4.913   5.651
 9341SOL    HW128922   6.760   4.980   5.711
 9341SOL    HW228923   6.753   4.911   5.563
 9342SOL     OW28924   1.129   6.485   6.185
 9342SOL    HW128925   1.108   6.578   6.153
 9342SOL    HW228926   1.162   6.430   6.107
 9343SOL     OW28927   6.247   5.929   4.114
 9343SOL    HW128928   6.278   5.867   4.186
 9343SOL    HW228929   6.311   5.926   4.038
 9344SOL     OW28930   4.110   6.148   0.974
 9344SOL    HW128931   4.179   6.155   1.047
 9344SOL    HW228932   4.156   6.140   0.886
 9345SOL     OW28933   0.133   2.646   0.595
 9345SOL    HW128934   0.133   2.571   0.661
 9345SOL    HW228935   0.072   2.718   0.627
 9346SOL     OW28936   5.936   6.793   0.713
 9346SOL    HW128937   5.893   6.721   0.768
 9346SOL    HW228938   5.921   6.882   0.757
 9347SOL     OW28939   1.208   6.574   2.014
 9347SOL    HW128940   1.307   6.563   2.017
 9347SOL    HW228941   1.167   6.492   1.973
 9348SOL     OW28942   2.399   4.598   0.425
 9348SOL    HW128943   2.467   4.587   0.353
 9348SOL    HW228944   2.437   4.569   0.513
 9349SOL     OW28945   1.801   5.837   2.506
 9349SOL    HW128946   1.821   5.745   2.541
 9349SOL    HW228947   1.872   5.901   2.537
 9350SOL     OW28948   0.194   2.748   5.681
 9350SOL    HW128949   0.163   2.780   5.591
 9350SOL    HW228950   0.119   2.754   5.747
 9351SOL     OW28951   2.847   1.313   6.477
 9351SOL    HW128952   2.915   1.329   6.548
 9351SOL    HW228953   2.871   1.232   6.424
 9352SOL     OW28954   2.295   5.051   5.563
 9352SOL    HW128955   2.203   5.067   5.528
 9352SOL    HW228956   2.307   4.954   5.583
 9353SOL     OW28957   5.762   1.220   0.698
 9353SOL    HW128958   5.814   1.170   0.628
 9353SOL    HW228959   5.805   1.207   0.787
 9354SOL     OW28960   1.160   1.679   6.190
 9354SOL    HW128961   1.249   1.670   6.234
 9354SOL    HW228962   1.138   1.775   6.176
 9355SOL     OW28963   0.712   1.439   4.871
 9355SOL    HW128964   0.630   1.408   4.919
 9355SOL    HW228965   0.726   1.537   4.889
 9356SOL     OW28966   5.295   6.883   3.720
 9356SOL    HW128967   5.359   6.851   3.789
 9356SOL    HW228968   5.233   6.809   3.695
 9357SOL     OW28969   1.154   1.568   0.258
 9357SOL    HW128970   1.222   1.640   0.275
 9357SOL    HW228971   1.101   1.591   0.176
 9358SOL     OW28972   1.186   2.747   1.612
 9358SOL    HW128973   1.253   2.742   1.538
 9358SOL    HW228974   1.227   2.712   1.697
 9359SOL     OW28975   0.886   6.736   5.405
 9359SOL    HW128976   0.873   6.831   5.374
 9359SOL    HW228977   0.942   6.737   5.489
 9360SOL     OW28978   0.591   0.434   6.208
 9360SOL    HW128979   0.548   0.392   6.288
 9360SOL    HW228980   0.643   0.365   6.158
 9361SOL     OW28981   2.070   5.675   4.258
 9361SOL    HW128982   2.047   5.730   4.177
 9361SOL    HW228983   2.162   5.699   4.289
 9362SOL     OW28984   2.464   0.861   2.241
 9362SOL    HW128985   2.533   0.844   2.170
 9362SOL    HW228986   2.387   0.911   2.202
 9363SOL     OW28987   1.825   4.602   2.559
 9363SOL    HW128988   1.827   4.513   2.605
 9363SOL    HW228989   1.888   4.601   2.482
 9364SOL     OW28990   0.469   2.508   0.411
 9364SOL    HW128991   0.464   2.444   0.488
 9364SOL    HW228992   0.382   2.556   0.403
 9365SOL     OW28993   2.980   1.076   4.720
 9365SOL    HW128994   2.910   1.012   4.752
 9365SOL    HW228995   2.958   1.168   4.752
 9366SOL     OW28996   4.272   6.189   2.657
 9366SOL    HW128997   4.265   6.103   2.708
 9366SOL    HW228998   4.209   6.256   2.696
 9367SOL     OW28999   6.315   1.180   1.352
 9367SOL    HW129000   6.350   1.108   1.293
 9367SOL    HW229001   6.360   1.267   1.330
 9368SOL     OW29002   2.886   0.482   2.904
 9368SOL    HW129003   2.879   0.382   2.905
 9368SOL    HW229004   2.859   0.518   2.993
 9369SOL     OW29005   3.789   5.290   0.337
 9369SOL    HW129006   3.885   5.262   0.331
 9369SOL    HW229007   3.767   5.311   0.433
 9370SOL     OW29008   4.273   1.811   4.854
 9370SOL    HW129009   4.292   1.794   4.951
 9370SOL    HW229010   4.357   1.802   4.801
 9371SOL     OW29011   4.014   4.760   0.671
 9371SOL    HW129012   3.942   4.825   0.647
 9371SOL    HW229013   3.974   4.687   0.728
 9372SOL     OW29014   4.247   5.602   1.474
 9372SOL    HW129015   4.165   5.602   1.418
 9372SOL    HW229016   4.308   5.676   1.445
 9373SOL     OW29017   6.622   2.741   1.045
 9373SOL    HW129018   6.652   2.834   1.069
 9373SOL    HW229019   6.527   2.728   1.075
 9374SOL     OW29020   0.103   5.108   6.283
 9374SOL    HW129021   0.086   5.173   6.209
 9374SOL    HW229022   0.087   5.015   6.249
 9375SOL     OW29023   1.309   1.080   0.089
 9375SOL    HW129024   1.267   1.074   7.024
 9375SOL    HW229025   1.395   1.030   0.090
 9376SOL     OW29026   2.429   4.003   0.772
 9376SOL    HW129027   2.380   4.089   0.759
 9376SOL    HW229028   2.442   3.986   0.870
 9377SOL     OW29029   2.145   0.553   3.288
 9377SOL    HW129030   2.069   0.497   3.321
 9377SOL    HW229031   2.134   0.647   3.323
 9378SOL     OW29032   3.677   1.205   4.877
 9378SOL    HW129033   3.647   1.296   4.850
 9378SOL    HW229034   3.722   1.160   4.800
 9379SOL     OW29035   4.089   0.031   4.809
 9379SOL    HW129036   3.992   0.005   4.818
 9379SOL    HW229037   4.113   0.036   4.713
 9380SOL     OW29038   4.807   5.541   0.597
 9380SOL    HW129039   4.802   5.626   0.648
 9380SOL    HW229040   4.823   5.465   0.660
 9381SOL     OW29041   5.596   1.037   5.460
 9381SOL    HW129042   5.636   1.129   5.464
 9381SOL    HW229043   5.600   0.996   5.551
 9382SOL     OW29044   3.212   5.608   6.182
 9382SOL    HW129045   3.304   5.648   6.190
 9382SOL    HW229046   3.183   5.576   6.272
 9383SOL     OW29047   5.451   3.670   2.311
 9383SOL    HW129048   5.527   3.610   2.288
 9383SOL    HW229049   5.399   3.631   2.387
 9384SOL     OW29050   3.632   6.968   1.308
 9384SOL    HW129051   3.590   6.954   1.398
 9384SOL    HW229052   3.585   0.018   1.261
 9385SOL     OW29053   4.220   2.043   4.585
 9385SOL    HW129054   4.196   2.036   4.682
 9385SOL    HW229055   4.288   2.116   4.573
 9386SOL     OW29056   5.179   6.476   1.587
 9386SOL    HW129057   5.173   6.549   1.519
 9386SOL    HW229058   5.186   6.387   1.541
 9387SOL     OW29059   2.157   1.959   6.567
 9387SOL    HW129060   2.224   1.966   6.642
 9387SOL    HW229061   2.107   1.872   6.575
 9388SOL     OW29062   2.714   0.121   4.749
 9388SOL    HW129063   2.685   0.209   4.711
 9388SOL    HW229064   2.769   0.136   4.831
 9389SOL     OW29065   1.886   4.022   1.633
 9389SOL    HW129066   1.886   3.996   1.729
 9389SOL    HW229067   1.891   3.940   1.576
 9390SOL     OW29068   5.359   4.549   4.218
 9390SOL    HW129069   5.311   4.620   4.167
 9390SOL    HW229070   5.422   4.592   4.283
 9391SOL     OW29071   1.297   3.962   4.596
 9391SOL    HW129072   1.343   3.985   4.682
 9391SOL    HW229073   1.335   3.877   4.560
 9392SOL     OW29074   4.969   4.650   2.445
 9392SOL    HW129075   4.898   4.580   2.440
 9392SOL    HW229076   5.057   4.612   2.416
 9393SOL     OW29077   1.549   5.699   6.315
 9393SOL    HW129078   1.613   5.750   6.258
 9393SOL    HW229079   1.582   5.697   6.409
 9394SOL     OW29080   4.298   0.454   0.441
 9394SOL    HW129081   4.327   0.404   0.523
 9394SOL    HW229082   4.355   0.535   0.429
 9395SOL     OW29083   1.645   1.438   1.004
 9395SOL    HW129084   1.581   1.515   1.012
 9395SOL    HW229085   1.635   1.379   1.084
 9396SOL     OW29086   0.745   1.145   6.230
 9396SOL    HW129087   0.780   1.225   6.279
 9396SOL    HW229088   0.817   1.075   6.224
 9397SOL     OW29089   3.785   1.137   4.646
 9397SOL    HW129090   3.798   1.154   4.548
 9397SOL    HW229091   3.856   1.074   4.679
 9398SOL     OW29092   0.311   2.047   0.586
 9398SOL    HW129093   0.268   2.018   0.671
 9398SOL    HW229094   0.367   1.973   0.549
 9399SOL     OW29095   0.956   2.331   4.414
 9399SOL    HW129096   0.897   2.294   4.486
 9399SOL    HW229097   0.988   2.422   4.441
 9400SOL     OW29098   5.557   1.872   1.166
 9400SOL    HW129099   5.544   1.904   1.072
 9400SOL    HW229100   5.595   1.779   1.164
 9401SOL     OW29101   0.108   2.393   3.491
 9401SOL    HW129102   0.105   2.294   3.483
 9401SOL    HW229103   0.184   2.419   3.551
 9402SOL     OW29104   2.670   6.362   4.710
 9402SOL    HW129105   2.721   6.398   4.632
 9402SOL    HW229106   2.603   6.295   4.677
 9403SOL     OW29107   5.408   2.228   1.057
 9403SOL    HW129108   5.455   2.163   0.997
 9403SOL    HW229109   5.474   2.296   1.090
 9404SOL     OW29110   2.237   2.934   1.062
 9404SOL    HW129111   2.169   2.878   1.014
 9404SOL    HW229112   2.236   3.027   1.026
 9405SOL     OW29113   6.643   6.005   5.262
 9405SOL    HW129114   6.596   5.928   5.219
 9405SOL    HW229115   6.671   6.070   5.192
 9406SOL     OW29116   1.802   2.260   0.441
 9406SOL    HW129117   1.813   2.305   0.530
 9406SOL    HW229118   1.890   2.225   0.411
 9407SOL     OW29119   1.454   4.628   4.675
 9407SOL    HW129120   1.361   4.643   4.641
 9407SOL    HW229121   1.480   4.532   4.663
 9408SOL     OW29122   5.714   4.424   3.901
 9408SOL    HW129123   5.616   4.430   3.918
 9408SOL    HW229124   5.761   4.497   3.951
 9409SOL     OW29125   6.095   5.427   1.752
 9409SOL    HW129126   6.174   5.483   1.774
 9409SOL    HW229127   6.011   5.474   1.781
 9410SOL     OW29128   4.384   0.416   0.852
 9410SOL    HW129129   4.334   0.501   0.867
 9410SOL    HW229130   4.319   0.344   0.828
 9411SOL     OW29131   3.373   4.079   3.120
 9411SOL    HW129132   3.350   4.073   3.217
 9411SOL    HW229133   3.467   4.111   3.111
 9412SOL     OW29134   4.641   6.607   1.511
 9412SOL    HW129135   4.624   6.704   1.497
 9412SOL    HW229136   4.572   6.570   1.574
 9413SOL     OW29137   4.505   4.503   2.935
 9413SOL    HW129138   4.575   4.549   2.881
 9413SOL    HW229139   4.442   4.570   2.973
 9414SOL     OW29140   2.521   2.140   2.296
 9414SOL    HW129141   2.455   2.170   2.365
 9414SOL    HW229142   2.555   2.220   2.246
 9415SOL     OW29143   5.611   0.437   1.274
 9415SOL    HW129144   5.707   0.432   1.244
 9415SOL    HW229145   5.568   0.348   1.259
 9416SOL     OW29146   5.956   5.223   5.449
 9416SOL    HW129147   6.032   5.159   5.455
 9416SOL    HW229148   5.969   5.298   5.514
 9417SOL     OW29149   3.657   5.541   2.539
 9417SOL    HW129150   3.569   5.587   2.529
 9417SOL    HW229151   3.689   5.551   2.633
 9418SOL     OW29152   2.979   2.088   5.094
 9418SOL    HW129153   3.031   2.007   5.068
 9418SOL    HW229154   3.042   2.165   5.107
 9419SOL     OW29155   2.064   2.695   6.899
 9419SOL    HW129156   2.121   2.617   6.873
 9419SOL    HW229157   1.969   2.667   6.903
 9420SOL     OW29158   5.543   3.772   5.562
 9420SOL    HW129159   5.637   3.750   5.536
 9420SOL    HW229160   5.516   3.716   5.640
 9421SOL     OW29161   4.143   6.283   6.636
 9421SOL    HW129162   4.050   6.268   6.672
 9421SOL    HW229163   4.176   6.373   6.666
 9422SOL     OW29164   2.096   6.766   5.545
 9422SOL    HW129165   2.121   6.738   5.638
 9422SOL    HW229166   2.089   6.865   5.541
 9423SOL     OW29167   4.170   5.328   1.780
 9423SOL    HW129168   4.133   5.278   1.702
 9423SOL    HW229169   4.224   5.406   1.747
 9424SOL     OW29170   7.025   0.239   4.255
 9424SOL    HW129171   6.959   0.164   4.267
 9424SOL    HW229172   0.043   0.260   4.343
 9425SOL     OW29173   6.510   4.266   0.783
 9425SOL    HW129174   6.429   4.288   0.729
 9425SOL    HW229175   6.581   4.228   0.724
 9426SOL     OW29176   4.440   2.800   6.572
 9426SOL    HW129177   4.503   2.834   6.642
 9426SOL    HW229178   4.347   2.799   6.609
 9427SOL     OW29179   4.044   4.853   2.043
 9427SOL    HW129180   4.124   4.805   2.078
 9427SOL    HW229181   4.070   4.944   2.013
 9428SOL     OW29182   1.089   6.085   5.691
 9428SOL    HW129183   1.060   6.037   5.609
 9428SOL    HW229184   1.081   6.024   5.770
 9429SOL     OW29185   3.127   2.017   4.322
 9429SOL    HW129186   3.138   2.081   4.398
 9429SOL    HW229187   3.150   2.064   4.236
 9430SOL     OW29188   1.822   0.592   4.363
 9430SOL    HW129189   1.835   0.649   4.444
 9430SOL    HW229190   1.902   0.602   4.303
 9431SOL     OW29191   0.950   4.366   4.979
 9431SOL    HW129192   1.031   4.398   4.929
 9431SOL    HW229193   0.979   4.304   5.052
 9432SOL     OW29194   6.933   1.465   3.880
 9432SOL    HW129195   6.842   1.490   3.847
 9432SOL    HW229196   6.938   1.482   3.978
 9433SOL     OW29197   4.631   5.654   2.002
 9433SOL    HW129198   4.655   5.588   2.073
 9433SOL    HW229199   4.572   5.725   2.040
 9434SOL     OW29200   4.264   5.748   4.278
 9434SOL    HW129201   4.315   5.664   4.294
 9434SOL    HW229202   4.168   5.735   4.302
 9435SOL     OW29203   5.955   4.032   0.553
 9435SOL    HW129204   5.919   4.092   0.482
 9435SOL    HW229205   6.051   4.057   0.571
 9436SOL     OW29206   3.190   1.121   3.272
 9436SOL    HW129207   3.111   1.078   3.228
 9436SOL    HW229208   3.158   1.186   3.341
 9437SOL     OW29209   5.380   0.848   4.412
 9437SOL    HW129210   5.468   0.885   4.444
 9437SOL    HW229211   5.310   0.865   4.481
 9438SOL     OW29212   4.941   0.353   2.891
 9438SOL    HW129213   4.864   0.405   2.854
 9438SOL    HW229214   4.965   0.389   2.981
 9439SOL     OW29215   2.224   4.153   1.292
 9439SOL    HW129216   2.210   4.083   1.362
 9439SOL    HW229217   2.136   4.183   1.256
 9440SOL     OW29218   1.370   5.788   4.475
 9440SOL    HW129219   1.357   5.689   4.483
 9440SOL    HW229220   1.348   5.832   4.562
 9441SOL     OW29221   0.438   6.303   4.472
 9441SOL    HW129222   0.537   6.293   4.458
 9441SOL    HW229223   0.412   6.398   4.458
 9442SOL     OW29224   5.655   3.086   1.300
 9442SOL    HW129225   5.613   3.083   1.391
 9442SOL    HW229226   5.594   3.137   1.238
 9443SOL     OW29227   2.504   4.451   1.518
 9443SOL    HW129228   2.507   4.378   1.586
 9443SOL    HW229229   2.415   4.449   1.471
 9444SOL     OW29230   2.022   5.483   6.484
 9444SOL    HW129231   2.058   5.560   6.431
 9444SOL    HW229232   2.097   5.424   6.513
 9445SOL     OW29233   0.456   1.074   4.107
 9445SOL    HW129234   0.380   1.015   4.081
 9445SOL    HW229235   0.467   1.072   4.207
 9446SOL     OW29236   6.415   4.458   4.241
 9446SOL    HW129237   6.482   4.429   4.172
 9446SOL    HW229238   6.355   4.381   4.263
 9447SOL     OW29239   5.090   5.080   2.210
 9447SOL    HW129240   5.142   5.165   2.224
 9447SOL    HW229241   5.093   5.025   2.293
 9448SOL     OW29242   5.260   2.132   6.572
 9448SOL    HW129243   5.280   2.225   6.540
 9448SOL    HW229244   5.233   2.076   6.494
 9449SOL     OW29245   4.553   6.934   2.135
 9449SOL    HW129246   4.596   6.850   2.168
 9449SOL    HW229247   4.610   6.973   2.062
 9450SOL     OW29248   1.183   0.355   3.122
 9450SOL    HW129249   1.090   0.319   3.107
 9450SOL    HW229250   1.248   0.301   3.069
 9451SOL     OW29251   3.761   4.610   0.575
 9451SOL    HW129252   3.802   4.590   0.486
 9451SOL    HW229253   3.818   4.570   0.647
 9452SOL     OW29254   5.990   4.200   6.154
 9452SOL    HW129255   6.074   4.250   6.174
 9452SOL    HW229256   5.928   4.259   6.102
 9453SOL     OW29257   6.187   4.705   2.317
 9453SOL    HW129258   6.175   4.804   2.317
 9453SOL    HW229259   6.261   4.680   2.255
 9454SOL     OW29260   5.706   5.016   0.959
 9454SOL    HW129261   5.764   5.093   0.933
 9454SOL    HW229262   5.682   4.963   0.877
 9455SOL     OW29263   4.582   0.375   1.520
 9455SOL    HW129264   4.568   0.409   1.612
 9455SOL    HW229265   4.494   0.376   1.471
 9456SOL     OW29266   6.807   2.158   3.016
 9456SOL    HW129267   6.871   2.096   2.972
 9456SOL    HW229268   6.849   2.249   3.025
 9457SOL     OW29269   6.397   5.897   3.897
 9457SOL    HW129270   6.340   5.816   3.887
 9457SOL    HW229271   6.369   5.966   3.831
 9458SOL     OW29272   6.200   4.098   0.307
 9458SOL    HW129273   6.213   4.118   0.210
 9458SOL    HW229274   6.137   4.021   0.318
 9459SOL     OW29275   4.788   4.629   4.675
 9459SOL    HW129276   4.795   4.720   4.635
 9459SOL    HW229277   4.714   4.579   4.630
 9460SOL     OW29278   1.593   2.574   2.216
 9460SOL    HW129279   1.595   2.650   2.282
 9460SOL    HW229280   1.511   2.519   2.231
 9461SOL     OW29281   2.507   1.382   2.025
 9461SOL    HW129282   2.553   1.459   2.069
 9461SOL    HW229283   2.543   1.296   2.062
 9462SOL     OW29284   6.997   1.593   5.906
 9462SOL    HW129285   6.921   1.593   5.841
 9462SOL    HW229286   7.022   1.687   5.928
 9463SOL     OW29287   6.402   4.556   0.622
 9463SOL    HW129288   6.322   4.609   0.596
 9463SOL    HW229289   6.377   4.491   0.694
 9464SOL     OW29290   0.919   0.483   1.724
 9464SOL    HW129291   0.895   0.458   1.630
 9464SOL    HW229292   0.991   0.421   1.757
 9465SOL     OW29293   6.487   5.853   0.282
 9465SOL    HW129294   6.513   5.777   0.222
 9465SOL    HW229295   6.496   5.939   0.233
 9466SOL     OW29296   4.423   3.779   5.313
 9466SOL    HW129297   4.361   3.718   5.264
 9466SOL    HW229298   4.376   3.863   5.337
 9467SOL     OW29299   1.160   3.983   0.551
 9467SOL    HW129300   1.180   4.071   0.508
 9467SOL    HW229301   1.195   3.983   0.645
 9468SOL     OW29302   6.036   1.197   1.396
 9468SOL    HW129303   6.134   1.185   1.376
 9468SOL    HW229304   6.010   1.137   1.471
 9469SOL     OW29305   0.004   6.885   1.504
 9469SOL    HW129306   0.043   6.977   1.496
 9469SOL    HW229307   0.012   6.839   1.415
 9470SOL     OW29308   3.380   2.720   0.543
 9470SOL    HW129309   3.478   2.720   0.563
 9470SOL    HW229310   3.335   2.649   0.598
 9471SOL     OW29311   6.501   3.131   5.006
 9471SOL    HW129312   6.510   3.176   5.095
 9471SOL    HW229313   6.432   3.059   5.012
 9472SOL     OW29314   1.643   3.411   5.753
 9472SOL    HW129315   1.546   3.430   5.742
 9472SOL    HW229316   1.666   3.413   5.851
 9473SOL     OW29317   3.226   3.700   1.206
 9473SOL    HW129318   3.130   3.726   1.195
 9473SOL    HW229319   3.243   3.675   1.302
 9474SOL     OW29320   5.506   4.442   1.175
 9474SOL    HW129321   5.528   4.489   1.090
 9474SOL    HW229322   5.520   4.343   1.162
 9475SOL     OW29323   5.302   3.505   6.541
 9475SOL    HW129324   5.233   3.488   6.472
 9475SOL    HW229325   5.262   3.496   6.632
 9476SOL     OW29326   4.246   4.212   1.399
 9476SOL    HW129327   4.201   4.227   1.311
 9476SOL    HW229328   4.180   4.173   1.464
 9477SOL     OW29329   1.304   4.802   0.842
 9477SOL    HW129330   1.333   4.708   0.858
 9477SOL    HW229331   1.267   4.840   0.927
 9478SOL     OW29332   6.424   4.048   6.162
 9478SOL    HW129333   6.342   4.047   6.105
 9478SOL    HW229334   6.397   4.051   6.259
 9479SOL     OW29335   4.449   0.885   2.120
 9479SOL    HW129336   4.367   0.834   2.091
 9479SOL    HW229337   4.527   0.823   2.124
 9480SOL     OW29338   5.701   0.357   0.730
 9480SOL    HW129339   5.655   0.433   0.684
 9480SOL    HW229340   5.777   0.392   0.784
 9481SOL     OW29341   4.984   0.249   3.306
 9481SOL    HW129342   5.026   0.173   3.257
 9481SOL    HW229343   4.916   0.213   3.371
 9482SOL     OW29344   6.286   4.779   5.185
 9482SOL    HW129345   6.268   4.695   5.135
 9482SOL    HW229346   6.207   4.803   5.241
 9483SOL     OW29347   6.220   5.315   6.436
 9483SOL    HW129348   6.200   5.377   6.359
 9483SOL    HW229349   6.142   5.315   6.498
 9484SOL     OW29350   2.082   6.185   4.662
 9484SOL    HW129351   2.147   6.262   4.662
 9484SOL    HW229352   2.088   6.136   4.575
 9485SOL     OW29353   0.688   1.271   5.267
 9485SOL    HW129354   0.764   1.230   5.216
 9485SOL    HW229355   0.616   1.299   5.202
 9486SOL     OW29356   6.681   5.684   6.250
 9486SOL    HW129357   6.751   5.716   6.313
 9486SOL    HW229358   6.666   5.586   6.262
 9487SOL     OW29359   3.136   3.831   2.899
 9487SOL    HW129360   3.175   3.774   2.827
 9487SOL    HW229361   3.153   3.928   2.879
 9488SOL     OW29362   2.113   0.857   1.668
 9488SOL    HW129363   2.202   0.860   1.715
 9488SOL    HW229364   2.052   0.926   1.708
 9489SOL     OW29365   6.468   4.293   0.195
 9489SOL    HW129366   6.444   4.389   0.209
 9489SOL    HW229367   6.447   4.266   0.102
 9490SOL     OW29368   5.547   3.394   4.526
 9490SOL    HW129369   5.614   3.465   4.506
 9490SOL    HW229370   5.492   3.377   4.445
 9491SOL     OW29371   5.686   0.172   2.820
 9491SOL    HW129372   5.713   0.142   2.728
 9491SOL    HW229373   5.586   0.172   2.828
 9492SOL     OW29374   4.646   2.298   4.142
 9492SOL    HW129375   4.626   2.256   4.231
 9492SOL    HW229376   4.713   2.242   4.093
 9493SOL     OW29377   3.249   6.251   2.555
 9493SOL    HW129378   3.182   6.190   2.596
 9493SOL    HW229379   3.216   6.283   2.466
 9494SOL     OW29380   5.006   2.544   2.110
 9494SOL    HW129381   5.064   2.464   2.121
 9494SOL    HW229382   4.992   2.587   2.200
 9495SOL     OW29383   5.249   2.726   1.412
 9495SOL    HW129384   5.316   2.755   1.344
 9495SOL    HW229385   5.198   2.806   1.445
 9496SOL     OW29386   6.073   2.941   1.078
 9496SOL    HW129387   6.116   2.941   1.168
 9496SOL    HW229388   6.037   3.032   1.059
 9497SOL     OW29389   5.105   5.199   5.316
 9497SOL    HW129390   5.144   5.219   5.406
 9497SOL    HW229391   5.169   5.227   5.245
 9498SOL     OW29392   1.166   5.622   5.459
 9498SOL    HW129393   1.112   5.688   5.511
 9498SOL    HW229394   1.153   5.531   5.498
 9499SOL     OW29395   5.632   6.143   4.389
 9499SOL    HW129396   5.634   6.059   4.333
 9499SOL    HW229397   5.724   6.179   4.397
 9500SOL     OW29398   3.142   1.623   0.929
 9500SOL    HW129399   3.094   1.680   0.996
 9500SOL    HW229400   3.081   1.551   0.897
 9501SOL     OW29401   1.856   4.061   5.136
 9501SOL    HW129402   1.932   4.015   5.091
 9501SOL    HW229403   1.773   4.008   5.123
 9502SOL     OW29404   5.635   4.355   3.256
 9502SOL    HW129405   5.685   4.398   3.331
 9502SOL    HW229406   5.550   4.405   3.239
 9503SOL     OW29407   5.740   1.394   0.273
 9503SOL    HW129408   5.690   1.308   0.285
 9503SOL    HW229409   5.819   1.395   0.335
 9504SOL     OW29410   6.593   5.993   2.086
 9504SOL    HW129411   6.599   5.919   2.153
 9504SOL    HW229412   6.547   6.072   2.127
 9505SOL     OW29413   4.586   3.668   6.738
 9505SOL    HW129414   4.628   3.716   6.661
 9505SOL    HW229415   4.562   3.575   6.709
 9506SOL     OW29416   3.390   1.061   1.807
 9506SOL    HW129417   3.452   1.138   1.825
 9506SOL    HW229418   3.299   1.096   1.786
 9507SOL     OW29419   6.313   6.424   1.666
 9507SOL    HW129420   6.220   6.388   1.661
 9507SOL    HW229421   6.378   6.348   1.670
 9508SOL     OW29422   5.125   0.941   2.091
 9508SOL    HW129423   5.183   0.861   2.080
 9508SOL    HW229424   5.158   1.015   2.032
 9509SOL     OW29425   5.732   1.241   3.586
 9509SOL    HW129426   5.800   1.303   3.625
 9509SOL    HW229427   5.664   1.293   3.535
 9510SOL     OW29428   1.503   2.758   2.608
 9510SOL    HW129429   1.503   2.815   2.691
 9510SOL    HW229430   1.465   2.668   2.630
 9511SOL     OW29431   0.711   1.513   1.197
 9511SOL    HW129432   0.713   1.589   1.262
 9511SOL    HW229433   0.683   1.547   1.107
 9512SOL     OW29434   6.616   2.433   2.285
 9512SOL    HW129435   6.541   2.499   2.285
 9512SOL    HW229436   6.665   2.438   2.371
 9513SOL     OW29437   4.911   4.005   5.126
 9513SOL    HW129438   4.902   4.079   5.193
 9513SOL    HW229439   4.957   4.040   5.044
 9514SOL     OW29440   3.523   2.850   1.101
 9514SOL    HW129441   3.433   2.837   1.143
 9514SOL    HW229442   3.516   2.915   1.025
 9515SOL     OW29443   0.286   5.569   3.140
 9515SOL    HW129444   0.315   5.647   3.194
 9515SOL    HW229445   0.224   5.599   3.067
 9516SOL     OW29446   0.931   4.234   6.434
 9516SOL    HW129447   0.899   4.149   6.477
 9516SOL    HW229448   0.925   4.225   6.335
 9517SOL     OW29449   0.123   6.668   1.825
 9517SOL    HW129450   0.219   6.669   1.853
 9517SOL    HW229451   0.065   6.679   1.905
 9518SOL     OW29452   0.893   1.271   1.134
 9518SOL    HW129453   0.838   1.349   1.163
 9518SOL    HW229454   0.927   1.222   1.215
 9519SOL     OW29455   1.385   2.423   5.360
 9519SOL    HW129456   1.390   2.519   5.330
 9519SOL    HW229457   1.420   2.416   5.453
 9520SOL     OW29458   4.337   6.329   1.702
 9520SOL    HW129459   4.239   6.309   1.701
 9520SOL    HW229460   4.389   6.248   1.676
 9521SOL     OW29461   5.445   4.596   3.627
 9521SOL    HW129462   5.543   4.576   3.632
 9521SOL    HW229463   5.429   4.669   3.561
 9522SOL     OW29464   3.161   4.853   6.226
 9522SOL    HW129465   3.258   4.878   6.216
 9522SOL    HW229466   3.104   4.924   6.185
 9523SOL     OW29467   2.310   0.012   5.047
 9523SOL    HW129468   2.340   0.108   5.043
 9523SOL    HW229469   2.211   0.008   5.039
 9524SOL     OW29470   5.496   3.529   0.297
 9524SOL    HW129471   5.533   3.456   0.240
 9524SOL    HW229472   5.483   3.611   0.241
 9525SOL     OW29473   3.787   0.222   4.677
 9525SOL    HW129474   3.724   0.268   4.739
 9525SOL    HW229475   3.819   0.137   4.719
 9526SOL     OW29476   4.622   5.804   1.024
 9526SOL    HW129477   4.581   5.766   0.941
 9526SOL    HW229478   4.698   5.745   1.054
 9527SOL     OW29479   0.405   2.313   0.611
 9527SOL    HW129480   0.317   2.346   0.644
 9527SOL    HW229481   0.398   2.216   0.587
 9528SOL     OW29482   6.746   1.189   1.358
 9528SOL    HW129483   6.740   1.121   1.431
 9528SOL    HW229484   6.704   1.275   1.389
 9529SOL     OW29485   1.729   3.124   5.118
 9529SOL    HW129486   1.790   3.175   5.179
 9529SOL    HW229487   1.774   3.110   5.030
 9530SOL     OW29488   2.566   1.417   3.932
 9530SOL    HW129489   2.616   1.503   3.921
 9530SOL    HW229490   2.630   1.342   3.945
 9531SOL     OW29491   2.934   6.691   3.898
 9531SOL    HW129492   2.983   6.700   3.984
 9531SOL    HW229493   2.859   6.626   3.909
 9532SOL     OW29494   3.356   1.602   2.156
 9532SOL    HW129495   3.296   1.679   2.179
 9532SOL    HW229496   3.301   1.529   2.115
 9533SOL     OW29497   0.832   1.731   4.523
 9533SOL    HW129498   0.740   1.697   4.502
 9533SOL    HW229499   0.833   1.831   4.517
 9534SOL     OW29500   5.919   2.025   4.883
 9534SOL    HW129501   5.845   1.995   4.943
 9534SOL    HW229502   5.897   2.115   4.846
 9535SOL     OW29503   3.332   1.790   4.600
 9535SOL    HW129504   3.287   1.731   4.533
 9535SOL    HW229505   3.321   1.751   4.691
 9536SOL     OW29506   2.320   0.115   6.401
 9536SOL    HW129507   2.370   0.187   6.449
 9536SOL    HW229508   2.340   0.026   6.442
 9537SOL     OW29509   2.190   0.564   0.278
 9537SOL    HW129510   2.286   0.538   0.292
 9537SOL    HW229511   2.153   0.516   0.199
 9538SOL     OW29512   6.022   3.788   2.893
 9538SOL    HW129513   6.103   3.796   2.835
 9538SOL    HW229514   5.978   3.700   2.878
 9539SOL     OW29515   6.847   3.858   6.732
 9539SOL    HW129516   6.853   3.949   6.773
 9539SOL    HW229517   6.933   3.837   6.685
 9540SOL     OW29518   5.625   3.924   5.980
 9540SOL    HW129519   5.592   3.890   6.068
 9540SOL    HW229520   5.718   3.890   5.964
 9541SOL     OW29521   6.499   2.097   3.569
 9541SOL    HW129522   6.515   2.172   3.505
 9541SOL    HW229523   6.484   2.013   3.518
 9542SOL     OW29524   4.697   4.262   4.407
 9542SOL    HW129525   4.755   4.288   4.485
 9542SOL    HW229526   4.721   4.169   4.379
 9543SOL     OW29527   3.893   2.950   0.673
 9543SOL    HW129528   3.878   3.048   0.670
 9543SOL    HW229529   3.907   2.921   0.768
 9544SOL     OW29530   4.299   0.177   0.685
 9544SOL    HW129531   4.348   0.094   0.659
 9544SOL    HW229532   4.207   0.153   0.716
 9545SOL     OW29533   1.201   6.746   4.606
 9545SOL    HW129534   1.212   6.738   4.507
 9545SOL    HW229535   1.163   6.835   4.629
 9546SOL     OW29536   2.445   4.650   1.827
 9546SOL    HW129537   2.412   4.735   1.784
 9546SOL    HW229538   2.542   4.638   1.807
 9547SOL     OW29539   5.288   5.932   3.582
 9547SOL    HW129540   5.336   5.997   3.524
 9547SOL    HW229541   5.343   5.848   3.590
 9548SOL     OW29542   5.623   7.000   2.420
 9548SOL    HW129543   5.691   6.933   2.449
 9548SOL    HW229544   5.541   6.991   2.476
 9549SOL     OW29545   2.182   6.469   0.028
 9549SOL    HW129546   2.120   6.547   0.035
 9549SOL    HW229547   2.139   6.388   0.069
 9550SOL     OW29548   1.540   0.925   0.112
 9550SOL    HW129549   1.519   0.851   0.176
 9550SOL    HW229550   1.621   0.975   0.144
 9551SOL     OW29551   1.486   5.848   5.166
 9551SOL    HW129552   1.473   5.919   5.235
 9551SOL    HW229553   1.581   5.848   5.135
 9552SOL     OW29554   0.337   5.398   2.757
 9552SOL    HW129555   0.268   5.442   2.815
 9552SOL    HW229556   0.427   5.405   2.800
 9553SOL     OW29557   5.865   4.751   6.324
 9553SOL    HW129558   5.904   4.662   6.299
 9553SOL    HW229559   5.851   4.755   6.423
 9554SOL     OW29560   2.579   1.684   2.375
 9554SOL    HW129561   2.567   1.764   2.434
 9554SOL    HW229562   2.673   1.681   2.342
 9555SOL     OW29563   6.824   2.416   6.480
 9555SOL    HW129564   6.852   2.323   6.502
 9555SOL    HW229565   6.731   2.432   6.512
 9556SOL     OW29566   6.671   0.768   0.954
 9556SOL    HW129567   6.728   0.738   0.877
 9556SOL    HW229568   6.668   0.868   0.956
 9557SOL     OW29569   4.979   1.520   1.998
 9557SOL    HW129570   5.068   1.489   2.033
 9557SOL    HW229571   4.907   1.493   2.061
 9558SOL     OW29572   6.780   3.302   1.322
 9558SOL    HW129573   6.734   3.388   1.345
 9558SOL    HW229574   6.872   3.321   1.288
 9559SOL     OW29575   0.603   4.633   2.659
 9559SOL    HW129576   0.655   4.602   2.738
 9559SOL    HW229577   0.505   4.619   2.676
 9560SOL     OW29578   3.715   2.431   5.650
 9560SOL    HW129579   3.793   2.404   5.706
 9560SOL    HW229580   3.740   2.510   5.594
 9561SOL     OW29581   3.484   5.576   6.646
 9561SOL    HW129582   3.579   5.586   6.677
 9561SOL    HW229583   3.452   5.663   6.609
 9562SOL     OW29584   6.051   5.238   4.158
 9562SOL    HW129585   6.005   5.306   4.101
 9562SOL    HW229586   6.149   5.238   4.137
 9563SOL     OW29587   0.303   6.673   6.646
 9563SOL    HW129588   0.364   6.678   6.725
 9563SOL    HW229589   0.251   6.588   6.648
 9564SOL     OW29590   1.186   0.954   5.857
 9564SOL    HW129591   1.235   0.902   5.927
 9564SOL    HW229592   1.147   1.037   5.898
 9565SOL     OW29593   2.817   5.843   5.395
 9565SOL    HW129594   2.832   5.785   5.475
 9565SOL    HW229595   2.886   5.915   5.393
 9566SOL     OW29596   2.929   4.852   5.464
 9566SOL    HW129597   2.971   4.764   5.442
 9566SOL    HW229598   2.996   4.925   5.452
 9567SOL     OW29599   6.344   4.700   4.344
 9567SOL    HW129600   6.260   4.671   4.388
 9567SOL    HW229601   6.404   4.621   4.330
 9568SOL     OW29602   5.871   3.798   6.031
 9568SOL    HW129603   5.933   3.801   5.953
 9568SOL    HW229604   5.882   3.711   6.078
 9569SOL     OW29605   6.116   0.037   1.382
 9569SOL    HW129606   6.177   0.035   1.303
 9569SOL    HW229607   6.030   7.015   1.359
 9570SOL     OW29608   1.104   2.276   6.794
 9570SOL    HW129609   1.155   2.362   6.793
 9570SOL    HW229610   1.080   2.253   6.888
 9571SOL     OW29611   3.380   1.715   0.859
 9571SOL    HW129612   3.286   1.685   0.873
 9571SOL    HW229613   3.424   1.730   0.947
 9572SOL     OW29614   0.428   3.890   0.769
 9572SOL    HW129615   0.465   3.982   0.762
 9572SOL    HW229616   0.328   3.895   0.779
 9573SOL     OW29617   4.579   1.550   2.557
 9573SOL    HW129618   4.608   1.509   2.643
 9573SOL    HW229619   4.646   1.529   2.486
 9574SOL     OW29620   2.970   2.221   3.727
 9574SOL    HW129621   2.934   2.268   3.808
 9574SOL    HW229622   2.914   2.245   3.648
 9575SOL     OW29623   3.633   1.547   3.009
 9575SOL    HW129624   3.641   1.595   3.097
 9575SOL    HW229625   3.703   1.475   3.004
 9576SOL     OW29626   3.636   3.189   5.157
 9576SOL    HW129627   3.566   3.212   5.090
 9576SOL    HW229628   3.618   3.237   5.243
 9577SOL     OW29629   0.396   5.306   3.872
 9577SOL    HW129630   0.393   5.234   3.802
 9577SOL    HW229631   0.432   5.390   3.832
 9578SOL     OW29632   0.055   3.821   1.116
 9578SOL    HW129633   0.146   3.813   1.077
 9578SOL    HW229634   7.014   3.772   1.059
 9579SOL     OW29635   1.285   5.031   2.953
 9579SOL    HW129636   1.296   4.933   2.965
 9579SOL    HW229637   1.309   5.056   2.859
 9580SOL     OW29638   4.044   3.429   5.556
 9580SOL    HW129639   4.077   3.387   5.640
 9580SOL    HW229640   4.108   3.410   5.482
 9581SOL     OW29641   1.070   5.578   5.876
 9581SOL    HW129642   0.978   5.615   5.891
 9581SOL    HW229643   1.104   5.538   5.961
 9582SOL     OW29644   4.010   5.777   2.848
 9582SOL    HW129645   4.012   5.851   2.781
 9582SOL    HW229646   4.087   5.716   2.832
 9583SOL     OW29647   1.561   5.101   1.872
 9583SOL    HW129648   1.509   5.164   1.814
 9583SOL    HW229649   1.657   5.128   1.872
 9584SOL     OW29650   5.465   4.249   0.117
 9584SOL    HW129651   5.380   4.285   0.156
 9584SOL    HW229652   5.463   4.261   0.018
 9585SOL     OW29653   6.323   1.267   3.113
 9585SOL    HW129654   6.412   1.229   3.086
 9585SOL    HW229655   6.262   1.193   3.142
 9586SOL     OW29656   4.928   4.003   2.386
 9586SOL    HW129657   4.914   3.937   2.313
 9586SOL    HW229658   4.893   4.093   2.357
 9587SOL     OW29659   4.502   6.126   1.643
 9587SOL    HW129660   4.514   6.046   1.702
 9587SOL    HW229661   4.559   6.117   1.561
 9588SOL     OW29662   6.303   1.438   3.425
 9588SOL    HW129663   6.381   1.381   3.400
 9588SOL    HW229664   6.263   1.404   3.510
 9589SOL     OW29665   3.951   1.629   5.452
 9589SOL    HW129666   3.971   1.568   5.376
 9589SOL    HW229667   3.852   1.639   5.462
 9590SOL     OW29668   0.379   5.072   4.428
 9590SOL    HW129669   0.420   5.048   4.517
 9590SOL    HW229670   0.377   5.171   4.419
 9591SOL     OW29671   0.309   4.716   2.181
 9591SOL    HW129672   0.379   4.738   2.249
 9591SOL    HW229673   0.281   4.621   2.191
 9592SOL     OW29674   3.929   5.888   0.442
 9592SOL    HW129675   3.865   5.818   0.470
 9592SOL    HW229676   3.883   5.977   0.437
 9593SOL     OW29677   1.993   1.793   3.550
 9593SOL    HW129678   2.015   1.852   3.628
 9593SOL    HW229679   2.012   1.842   3.465
 9594SOL     OW29680   5.902   0.272   1.176
 9594SOL    HW129681   5.959   0.214   1.118
 9594SOL    HW229682   5.931   0.262   1.271
 9595SOL     OW29683   1.635   5.740   5.488
 9595SOL    HW129684   1.589   5.827   5.503
 9595SOL    HW229685   1.712   5.730   5.551
 9596SOL     OW29686   5.341   5.508   2.348
 9596SOL    HW129687   5.307   5.544   2.435
 9596SOL    HW229688   5.418   5.564   2.317
 9597SOL     OW29689   2.153   5.260   1.450
 9597SOL    HW129690   2.090   5.335   1.429
 9597SOL    HW229691   2.190   5.272   1.543
 9598SOL     OW29692   0.375   5.883   6.385
 9598SOL    HW129693   0.329   5.972   6.375
 9598SOL    HW229694   0.378   5.859   6.482
 9599SOL     OW29695   3.815   1.959   5.540
 9599SOL    HW129696   3.881   2.020   5.586
 9599SOL    HW229697   3.786   2.002   5.455
 9600SOL     OW29698   1.560   6.594   6.720
 9600SOL    HW129699   1.529   6.503   6.745
 9600SOL    HW229700   1.655   6.591   6.690
 9601SOL     OW29701   0.750   6.611   4.584
 9601SOL    HW129702   0.831   6.564   4.548
 9601SOL    HW229703   0.778   6.680   4.649
 9602SOL     OW29704   1.092   5.522   6.178
 9602SOL    HW129705   1.168   5.468   6.215
 9602SOL    HW229706   1.016   5.461   6.156
 9603SOL     OW29707   1.055   5.525   1.395
 9603SOL    HW129708   1.069   5.624   1.402
 9603SOL    HW229709   0.980   5.498   1.456
 9604SOL     OW29710   0.240   0.510   6.495
 9604SOL    HW129711   0.145   0.492   6.468
 9604SOL    HW229712   0.268   0.599   6.460
 9605SOL     OW29713   3.339   4.431   1.369
 9605SOL    HW129714   3.359   4.431   1.467
 9605SOL    HW229715   3.252   4.478   1.352
 9606SOL     OW29716   6.924   0.874   5.560
 9606SOL    HW129717   6.835   0.829   5.548
 9606SOL    HW229718   6.968   0.841   5.643
 9607SOL     OW29719   0.303   2.477   3.717
 9607SOL    HW129720   0.363   2.397   3.717
 9607SOL    HW229721   0.313   2.526   3.803
 9608SOL     OW29722   5.992   0.953   1.536
 9608SOL    HW129723   5.912   0.932   1.593
 9608SOL    HW229724   6.072   0.907   1.573
 9609SOL     OW29725   1.307   2.186   3.975
 9609SOL    HW129726   1.318   2.120   3.901
 9609SOL    HW229727   1.210   2.198   3.995
 9610SOL     OW29728   4.745   0.921   5.296
 9610SOL    HW129729   4.686   0.852   5.337
 9610SOL    HW229730   4.820   0.877   5.247
 9611SOL     OW29731   4.500   5.366   0.950
 9611SOL    HW129732   4.490   5.269   0.930
 9611SOL    HW229733   4.487   5.381   1.048
 9612SOL     OW29734   5.691   3.191   3.857
 9612SOL    HW129735   5.641   3.262   3.907
 9612SOL    HW229736   5.758   3.234   3.796
 9613SOL     OW29737   5.775   0.307   5.059
 9613SOL    HW129738   5.761   0.346   5.150
 9613SOL    HW229739   5.688   0.278   5.021
 9614SOL     OW29740   2.622   2.963   0.534
 9614SOL    HW129741   2.529   2.974   0.499
 9614SOL    HW229742   2.687   2.975   0.459
 9615SOL     OW29743   6.778   5.420   3.950
 9615SOL    HW129744   6.712   5.437   3.876
 9615SOL    HW229745   6.731   5.420   4.038
 9616SOL     OW29746   1.011   2.104   1.011
 9616SOL    HW129747   1.085   2.167   0.989
 9616SOL    HW229748   1.038   2.010   0.989
 9617SOL     OW29749   0.527   2.827   3.773
 9617SOL    HW129750   0.610   2.799   3.822
 9617SOL    HW229751   0.552   2.885   3.696
 9618SOL     OW29752   4.899   3.892   2.107
 9618SOL    HW129753   4.938   3.885   2.015
 9618SOL    HW229754   4.807   3.930   2.101
 9619SOL     OW29755   0.890   0.109   0.698
 9619SOL    HW129756   0.812   0.098   0.760
 9619SOL    HW229757   0.857   0.107   0.603
 9620SOL     OW29758   4.207   0.925   6.662
 9620SOL    HW129759   4.133   0.988   6.684
 9620SOL    HW229760   4.259   0.903   6.744
 9621SOL     OW29761   0.156   0.854   1.525
 9621SOL    HW129762   0.091   0.893   1.591
 9621SOL    HW229763   0.171   0.758   1.547
 9622SOL     OW29764   6.369   6.494   5.129
 9622SOL    HW129765   6.411   6.415   5.084
 9622SOL    HW229766   6.374   6.573   5.068
 9623SOL     OW29767   2.742   6.481   6.047
 9623SOL    HW129768   2.759   6.392   6.089
 9623SOL    HW229769   2.652   6.481   6.003
 9624SOL     OW29770   4.880   5.495   6.364
 9624SOL    HW129771   4.961   5.522   6.312
 9624SOL    HW229772   4.907   5.448   6.447
 9625SOL     OW29773   5.086   4.604   5.890
 9625SOL    HW129774   5.121   4.679   5.833
 9625SOL    HW229775   5.162   4.552   5.927
 9626SOL     OW29776   2.282   3.018   6.247
 9626SOL    HW129777   2.213   3.032   6.317
 9626SOL    HW229778   2.356   2.962   6.285
 9627SOL     OW29779   6.875   5.902   0.536
 9627SOL    HW129780   6.878   5.999   0.511
 9627SOL    HW229781   6.854   5.847   0.456
 9628SOL     OW29782   5.863   1.008   5.665
 9628SOL    HW129783   5.793   1.014   5.736
 9628SOL    HW229784   5.935   1.074   5.684
 9629SOL     OW29785   0.546   5.538   3.865
 9629SOL    HW129786   0.549   5.561   3.767
 9629SOL    HW229787   0.608   5.599   3.915
 9630SOL     OW29788   5.725   6.946   6.443
 9630SOL    HW129789   5.682   6.961   6.354
 9630SOL    HW229790   5.799   7.012   6.456
 9631SOL     OW29791   4.426   6.107   0.530
 9631SOL    HW129792   4.480   6.125   0.448
 9631SOL    HW229793   4.478   6.050   0.593
 9632SOL     OW29794   2.418   4.940   3.063
 9632SOL    HW129795   2.451   4.959   3.155
 9632SOL    HW229796   2.441   5.017   3.003
 9633SOL     OW29797   3.219   2.865   5.107
 9633SOL    HW129798   3.217   2.956   5.147
 9633SOL    HW229799   3.218   2.796   5.180
 9634SOL     OW29800   5.787   4.409   2.739
 9634SOL    HW129801   5.795   4.395   2.641
 9634SOL    HW229802   5.773   4.506   2.758
 9635SOL     OW29803   0.392   5.430   4.622
 9635SOL    HW129804   0.400   5.526   4.649
 9635SOL    HW229805   0.338   5.424   4.538
 9636SOL     OW29806   5.125   3.272   3.875
 9636SOL    HW129807   5.047   3.331   3.855
 9636SOL    HW229808   5.178   3.256   3.792
 9637SOL     OW29809   1.766   3.081   6.832
 9637SOL    HW129810   1.794   3.172   6.800
 9637SOL    HW229811   1.785   3.072   6.929
 9638SOL     OW29812   0.135   4.061   5.546
 9638SOL    HW129813   0.219   4.026   5.505
 9638SOL    HW229814   0.068   3.988   5.552
 9639SOL     OW29815   4.642   2.768   1.357
 9639SOL    HW129816   4.688   2.711   1.289
 9639SOL    HW229817   4.558   2.723   1.388
 9640SOL     OW29818   3.688   0.303   3.080
 9640SOL    HW129819   3.724   0.387   3.120
 9640SOL    HW229820   3.656   0.242   3.153
 9641SOL     OW29821   0.476   3.640   4.418
 9641SOL    HW129822   0.383   3.612   4.441
 9641SOL    HW229823   0.473   3.717   4.354
 9642SOL     OW29824   0.848   3.011   4.922
 9642SOL    HW129825   0.903   2.935   4.888
 9642SOL    HW229826   0.896   3.097   4.909
 9643SOL     OW29827   5.723   5.030   4.070
 9643SOL    HW129828   5.628   5.036   4.039
 9643SOL    HW229829   5.744   5.109   4.127
 9644SOL     OW29830   1.059   4.704   3.819
 9644SOL    HW129831   1.106   4.646   3.752
 9644SOL    HW229832   0.999   4.769   3.771
 9645SOL     OW29833   1.647   4.859   6.709
 9645SOL    HW129834   1.717   4.905   6.654
 9645SOL    HW229835   1.684   4.774   6.746
 9646SOL     OW29836   2.723   5.200   1.115
 9646SOL    HW129837   2.734   5.291   1.154
 9646SOL    HW229838   2.707   5.207   1.016
 9647SOL     OW29839   6.113   6.967   2.941
 9647SOL    HW129840   6.031   7.018   2.914
 9647SOL    HW229841   6.127   6.978   3.039
 9648SOL     OW29842   3.465   1.895   1.339
 9648SOL    HW129843   3.435   1.988   1.320
 9648SOL    HW229844   3.540   1.898   1.405
 9649SOL     OW29845   6.922   6.467   1.383
 9649SOL    HW129846   6.903   6.539   1.315
 9649SOL    HW229847   6.838   6.448   1.435
 9650SOL     OW29848   0.621   5.324   4.727
 9650SOL    HW129849   0.701   5.321   4.668
 9650SOL    HW229850   0.539   5.340   4.672
 9651SOL     OW29851   4.017   1.686   6.807
 9651SOL    HW129852   3.982   1.675   6.714
 9651SOL    HW229853   4.103   1.636   6.816
 9652SOL     OW29854   6.984   3.517   0.388
 9652SOL    HW129855   0.047   3.528   0.433
 9652SOL    HW229856   6.936   3.440   0.429
 9653SOL     OW29857   5.354   4.399   5.341
 9653SOL    HW129858   5.277   4.378   5.281
 9653SOL    HW229859   5.432   4.342   5.314
 9654SOL     OW29860   3.909   3.893   3.971
 9654SOL    HW129861   3.872   3.901   3.879
 9654SOL    HW229862   3.849   3.940   4.035
 9655SOL     OW29863   5.034   0.648   0.879
 9655SOL    HW129864   5.132   0.639   0.899
 9655SOL    HW229865   5.014   0.602   0.792
 9656SOL     OW29866   4.882   4.614   6.391
 9656SOL    HW129867   4.857   4.529   6.345
 9656SOL    HW229868   4.805   4.678   6.387
 9657SOL     OW29869   5.144   4.866   2.939
 9657SOL    HW129870   5.181   4.897   3.026
 9657SOL    HW229871   5.066   4.806   2.955
 9658SOL     OW29872   5.602   1.062   2.222
 9658SOL    HW129873   5.560   1.051   2.312
 9658SOL    HW229874   5.665   1.140   2.224
 9659SOL     OW29875   3.162   3.075   0.064
 9659SOL    HW129876   3.142   2.990   0.016
 9659SOL    HW229877   3.243   3.063   0.121
 9660SOL     OW29878   2.016   6.956   1.307
 9660SOL    HW129879   1.961   6.935   1.388
 9660SOL    HW229880   2.110   6.925   1.321
 9661SOL     OW29881   4.110   3.577   1.939
 9661SOL    HW129882   4.169   3.497   1.949
 9661SOL    HW229883   4.153   3.641   1.875
 9662SOL     OW29884   4.465   6.919   5.831
 9662SOL    HW129885   4.481   6.859   5.909
 9662SOL    HW229886   4.442   7.011   5.863
 9663SOL     OW29887   1.178   5.777   2.642
 9663SOL    HW129888   1.120   5.708   2.600
 9663SOL    HW229889   1.135   5.867   2.633
 9664SOL     OW29890   2.301   4.726   2.916
 9664SOL    HW129891   2.344   4.680   2.993
 9664SOL    HW229892   2.345   4.815   2.901
 9665SOL     OW29893   6.652   4.736   6.367
 9665SOL    HW129894   6.703   4.651   6.366
 9665SOL    HW229895   6.701   4.806   6.314
 9666SOL     OW29896   5.125   3.710   1.120
 9666SOL    HW129897   5.125   3.685   1.024
 9666SOL    HW229898   5.196   3.657   1.168
 9667SOL     OW29899   5.575   5.963   6.703
 9667SOL    HW129900   5.622   5.971   6.614
 9667SOL    HW229901   5.618   5.891   6.757
 9668SOL     OW29902   2.232   0.806   0.164
 9668SOL    HW129903   2.209   0.730   0.225
 9668SOL    HW229904   2.294   0.774   0.093
 9669SOL     OW29905   3.636   0.582   0.095
 9669SOL    HW129906   3.679   0.591   0.005
 9669SOL    HW229907   3.677   0.505   0.144
 9670SOL     OW29908   0.580   1.423   1.434
 9670SOL    HW129909   0.643   1.387   1.503
 9670SOL    HW229910   0.630   1.440   1.349
 9671SOL     OW29911   0.935   5.850   6.548
 9671SOL    HW129912   0.996   5.815   6.478
 9671SOL    HW229913   0.973   5.933   6.587
 9672SOL     OW29914   0.554   3.304   4.440
 9672SOL    HW129915   0.575   3.398   4.467
 9672SOL    HW229916   0.509   3.257   4.516
 9673SOL     OW29917   2.464   3.401   6.296
 9673SOL    HW129918   2.492   3.322   6.242
 9673SOL    HW229919   2.430   3.472   6.235
 9674SOL     OW29920   2.272   0.055   4.358
 9674SOL    HW129921   2.241   0.105   4.277
 9674SOL    HW229922   2.202   7.015   4.387
 9675SOL     OW29923   6.219   4.078   5.962
 9675SOL    HW129924   6.247   4.169   5.931
 9675SOL    HW229925   6.138   4.085   6.020
 9676SOL     OW29926   0.924   3.377   5.588
 9676SOL    HW129927   0.866   3.380   5.506
 9676SOL    HW229928   1.020   3.372   5.560
 9677SOL     OW29929   0.315   5.104   2.309
 9677SOL    HW129930   0.355   5.056   2.231
 9677SOL    HW229931   0.222   5.133   2.286
 9678SOL     OW29932   4.298   3.069   5.616
 9678SOL    HW129933   4.314   3.064   5.518
 9678SOL    HW229934   4.364   3.011   5.663
 9679SOL     OW29935   1.449   0.770   3.754
 9679SOL    HW129936   1.435   0.859   3.797
 9679SOL    HW229937   1.365   0.743   3.705
 9680SOL     OW29938   4.977   0.454   2.376
 9680SOL    HW129939   5.064   0.489   2.342
 9680SOL    HW229940   4.925   0.528   2.417
 9681SOL     OW29941   1.096   3.704   1.267
 9681SOL    HW129942   1.101   3.645   1.186
 9681SOL    HW229943   1.105   3.648   1.350
 9682SOL     OW29944   4.244   6.718   5.455
 9682SOL    HW129945   4.263   6.621   5.472
 9682SOL    HW229946   4.314   6.774   5.499
 9683SOL     OW29947   3.230   6.189   4.426
 9683SOL    HW129948   3.324   6.223   4.422
 9683SOL    HW229949   3.226   6.110   4.488
 9684SOL     OW29950   0.175   2.883   6.204
 9684SOL    HW129951   0.265   2.847   6.181
 9684SOL    HW229952   0.184   2.975   6.241
 9685SOL     OW29953   3.740   4.404   1.700
 9685SOL    HW129954   3.687   4.477   1.745
 9685SOL    HW229955   3.686   4.320   1.698
 9686SOL     OW29956   0.260   1.733   5.537
 9686SOL    HW129957   0.314   1.731   5.621
 9686SOL    HW229958   0.207   1.648   5.529
 9687SOL     OW29959   5.428   1.772   3.826
 9687SOL    HW129960   5.417   1.687   3.775
 9687SOL    HW229961   5.340   1.818   3.833
 9688SOL     OW29962   6.981   5.401   1.402
 9688SOL    HW129963   0.019   5.367   1.471
 9688SOL    HW229964   6.946   5.324   1.348
 9689SOL     OW29965   1.891   5.487   1.466
 9689SOL    HW129966   1.812   5.547   1.452
 9689SOL    HW229967   1.869   5.420   1.537
 9690SOL     OW29968   6.470   4.607   4.882
 9690SOL    HW129969   6.420   4.533   4.927
 9690SOL    HW229970   6.430   4.625   4.792
 9691SOL     OW29971   3.787   3.277   2.210
 9691SOL    HW129972   3.716   3.248   2.145
 9691SOL    HW229973   3.798   3.207   2.280
 9692SOL     OW29974   5.014   4.475   0.667
 9692SOL    HW129975   5.079   4.404   0.640
 9692SOL    HW229976   4.922   4.448   0.638
 9693SOL     OW29977   4.559   2.966   6.751
 9693SOL    HW129978   4.642   2.924   6.787
 9693SOL    HW229979   4.568   3.066   6.753
 9694SOL     OW29980   2.628   6.566   1.154
 9694SOL    HW129981   2.547   6.512   1.176
 9694SOL    HW229982   2.707   6.506   1.145
 9695SOL     OW29983   1.949   2.402   3.844
 9695SOL    HW129984   1.885   2.478   3.831
 9695SOL    HW229985   2.042   2.435   3.832
 9696SOL     OW29986   5.086   2.527   3.403
 9696SOL    HW129987   5.169   2.511   3.457
 9696SOL    HW229988   5.076   2.625   3.386
 9697SOL     OW29989   0.595   0.068   1.597
 9697SOL    HW129990   0.523   0.006   1.564
 9697SOL    HW229991   0.631   0.034   1.684
 9698SOL     OW29992   6.781   3.166   2.057
 9698SOL    HW129993   6.798   3.223   2.137
 9698SOL    HW229994   6.682   3.158   2.042
 9699SOL     OW29995   1.100   6.851   1.762
 9699SOL    HW129996   1.137   6.922   1.702
 9699SOL    HW229997   1.130   6.866   1.856
 9700SOL     OW29998   6.282   0.547   6.632
 9700SOL    HW129999   6.280   0.448   6.615
 9700SOL    HW230000   6.242   0.595   6.554
 9701SOL     OW30001   5.378   3.942   6.859
 9701SOL    HW130002   5.343   3.991   6.939
 9701SOL    HW230003   5.307   3.882   6.823
 9702SOL     OW30004   3.519   3.850   1.839
 9702SOL    HW130005   3.551   3.795   1.916
 9702SOL    HW230006   3.481   3.936   1.873
 9703SOL     OW30007   6.576   5.099   2.845
 9703SOL    HW130008   6.477   5.096   2.827
 9703SOL    HW230009   6.624   5.051   2.773
 9704SOL     OW30010   0.813   4.615   1.956
 9704SOL    HW130011   0.813   4.712   1.981
 9704SOL    HW230012   0.736   4.596   1.895
 9705SOL     OW30013   0.229   3.791   6.265
 9705SOL    HW130014   0.281   3.763   6.346
 9705SOL    HW230015   0.286   3.850   6.208
 9706SOL     OW30016   1.077   0.079   2.210
 9706SOL    HW130017   1.111   7.019   2.169
 9706SOL    HW230018   1.118   0.157   2.164
 9707SOL     OW30019   1.328   5.001   1.976
 9707SOL    HW130020   1.319   5.043   2.066
 9707SOL    HW230021   1.402   5.045   1.926
 9708SOL     OW30022   3.073   1.238   2.100
 9708SOL    HW130023   3.025   1.271   2.181
 9708SOL    HW230024   3.069   1.138   2.098
 9709SOL     OW30025   4.517   1.567   2.023
 9709SOL    HW130026   4.443   1.624   2.058
 9709SOL    HW230027   4.480   1.481   1.989
 9710SOL     OW30028   4.744   5.104   4.340
 9710SOL    HW130029   4.694   5.144   4.417
 9710SOL    HW230030   4.680   5.053   4.282
 9711SOL     OW30031   2.964   0.962   6.558
 9711SOL    HW130032   2.950   0.986   6.462
 9711SOL    HW230033   3.039   1.017   6.595
 9712SOL     OW30034   5.141   6.734   5.128
 9712SOL    HW130035   5.237   6.709   5.135
 9712SOL    HW230036   5.132   6.833   5.122
 9713SOL     OW30037   1.940   0.649   2.823
 9713SOL    HW130038   1.934   0.715   2.748
 9713SOL    HW230039   1.989   0.568   2.792
 9714SOL     OW30040   2.180   2.838   4.123
 9714SOL    HW130041   2.188   2.847   4.024
 9714SOL    HW230042   2.209   2.746   4.150
 9715SOL     OW30043   6.946   2.074   6.206
 9715SOL    HW130044   0.014   2.102   6.186
 9715SOL    HW230045   6.886   2.154   6.204
 9716SOL     OW30046   2.237   6.924   0.978
 9716SOL    HW130047   2.273   7.017   0.980
 9716SOL    HW230048   2.156   6.921   0.920
 9717SOL     OW30049   3.451   2.782   5.890
 9717SOL    HW130050   3.488   2.741   5.972
 9717SOL    HW230051   3.525   2.816   5.832
 9718SOL     OW30052   3.145   2.664   0.136
 9718SOL    HW130053   3.106   2.585   0.183
 9718SOL    HW230054   3.215   2.706   0.194
 9719SOL     OW30055   4.436   0.224   5.862
 9719SOL    HW130056   4.445   0.206   5.960
 9719SOL    HW230057   4.440   0.322   5.844
 9720SOL     OW30058   1.979   2.588   2.684
 9720SOL    HW130059   2.007   2.548   2.597
 9720SOL    HW230060   1.940   2.679   2.668
 9721SOL     OW30061   1.228   2.000   1.427
 9721SOL    HW130062   1.183   2.040   1.507
 9721SOL    HW230063   1.291   2.066   1.387
 9722SOL     OW30064   4.074   2.680   5.364
 9722SOL    HW130065   4.100   2.610   5.298
 9722SOL    HW230066   4.014   2.746   5.320
 9723SOL     OW30067   6.094   0.491   4.572
 9723SOL    HW130068   6.192   0.481   4.588
 9723SOL    HW230069   6.079   0.551   4.493
 9724SOL     OW30070   1.810   5.252   1.587
 9724SOL    HW130071   1.730   5.257   1.528
 9724SOL    HW230072   1.874   5.185   1.550
 9725SOL     OW30073   5.435   5.513   3.760
 9725SOL    HW130074   5.517   5.464   3.791
 9725SOL    HW230075   5.353   5.464   3.791
 9726SOL     OW30076   6.620   0.152   3.486
 9726SOL    HW130077   6.610   0.085   3.560
 9726SOL    HW230078   6.567   0.121   3.406
 9727SOL     OW30079   6.142   2.692   1.490
 9727SOL    HW130080   6.156   2.594   1.472
 9727SOL    HW230081   6.114   2.703   1.586
 9728SOL     OW30082   5.391   1.728   4.862
 9728SOL    HW130083   5.394   1.675   4.777
 9728SOL    HW230084   5.402   1.825   4.842
 9729SOL     OW30085   0.569   3.926   2.715
 9729SOL    HW130086   0.616   3.910   2.628
 9729SOL    HW230087   0.602   4.010   2.757
 9730SOL     OW30088   0.993   5.473   3.501
 9730SOL    HW130089   1.063   5.404   3.517
 9730SOL    HW230090   1.001   5.546   3.569
 9731SOL     OW30091   6.899   2.616   1.754
 9731SOL    HW130092   6.883   2.696   1.696
 9731SOL    HW230093   6.881   2.533   1.701
 9732SOL     OW30094   1.399   2.719   2.930
 9732SOL    HW130095   1.471   2.785   2.911
 9732SOL    HW230096   1.437   2.642   2.982
 9733SOL     OW30097   5.894   5.220   1.348
 9733SOL    HW130098   5.963   5.235   1.419
 9733SOL    HW230099   5.816   5.171   1.388
 9734SOL     OW30100   4.138   4.466   6.708
 9734SOL    HW130101   4.228   4.503   6.686
 9734SOL    HW230102   4.090   4.527   6.770
 9735SOL     OW30103   0.993   1.653   0.058
 9735SOL    HW130104   0.938   1.584   0.011
 9735SOL    HW230105   0.987   1.740   0.010
 9736SOL     OW30106   4.991   1.930   5.325
 9736SOL    HW130107   4.943   1.972   5.402
 9736SOL    HW230108   5.087   1.959   5.325
 9737SOL     OW30109   5.223   3.148   5.141
 9737SOL    HW130110   5.199   3.242   5.117
 9737SOL    HW230111   5.323   3.139   5.147
 9738SOL     OW30112   2.519   6.401   1.800
 9738SOL    HW130113   2.523   6.480   1.740
 9738SOL    HW230114   2.469   6.327   1.755
 9739SOL     OW30115   5.570   6.738   0.229
 9739SOL    HW130116   5.639   6.757   0.299
 9739SOL    HW230117   5.516   6.658   0.256
 9740SOL     OW30118   6.250   0.700   1.346
 9740SOL    HW130119   6.153   0.680   1.355
 9740SOL    HW230120   6.277   0.692   1.250
 9741SOL     OW30121   2.431   2.563   3.492
 9741SOL    HW130122   2.515   2.513   3.512
 9741SOL    HW230123   2.393   2.531   3.405
 9742SOL     OW30124   4.288   1.675   6.747
 9742SOL    HW130125   4.320   1.708   6.658
 9742SOL    HW230126   4.358   1.692   6.816
 9743SOL     OW30127   6.598   3.185   4.571
 9743SOL    HW130128   6.602   3.197   4.670
 9743SOL    HW230129   6.544   3.259   4.531
 9744SOL     OW30130   1.920   2.050   2.539
 9744SOL    HW130131   1.864   2.049   2.456
 9744SOL    HW230132   1.880   2.114   2.605
 9745SOL     OW30133   1.061   6.545   6.443
 9745SOL    HW130134   1.095   6.477   6.508
 9745SOL    HW230135   1.084   6.517   6.350
 9746SOL     OW30136   3.338   6.230   6.014
 9746SOL    HW130137   3.363   6.150   6.069
 9746SOL    HW230138   3.401   6.306   6.034
 9747SOL     OW30139   3.751   1.560   3.678
 9747SOL    HW130140   3.726   1.513   3.593
 9747SOL    HW230141   3.707   1.649   3.682
 9748SOL     OW30142   0.601   2.087   2.968
 9748SOL    HW130143   0.680   2.149   2.965
 9748SOL    HW230144   0.517   2.141   2.978
 9749SOL     OW30145   6.470   0.079   1.193
 9749SOL    HW130146   6.421   0.063   1.279
 9749SOL    HW230147   6.568   0.065   1.209
 9750SOL     OW30148   5.239   2.319   5.278
 9750SOL    HW130149   5.218   2.413   5.252
 9750SOL    HW230150   5.229   2.308   5.377
 9751SOL     OW30151   3.004   6.169   0.968
 9751SOL    HW130152   3.082   6.169   1.031
 9751SOL    HW230153   3.024   6.230   0.891
 9752SOL     OW30154   3.534   3.320   0.723
 9752SOL    HW130155   3.470   3.353   0.653
 9752SOL    HW230156   3.565   3.397   0.779
 9753SOL     OW30157   6.631   6.005   3.390
 9753SOL    HW130158   6.607   5.967   3.301
 9753SOL    HW230159   6.552   6.055   3.428
 9754SOL     OW30160   3.464   0.985   2.373
 9754SOL    HW130161   3.421   1.073   2.393
 9754SOL    HW230162   3.464   0.928   2.454
 9755SOL     OW30163   3.475   3.745   0.587
 9755SOL    HW130164   3.380   3.777   0.584
 9755SOL    HW230165   3.536   3.824   0.591
 9756SOL     OW30166   5.239   6.903   6.632
 9756SOL    HW130167   5.251   6.853   6.546
 9756SOL    HW230168   5.238   7.001   6.613
 9757SOL     OW30169   5.572   3.798   4.447
 9757SOL    HW130170   5.594   3.850   4.365
 9757SOL    HW230171   5.655   3.755   4.483
 9758SOL     OW30172   2.980   0.856   2.463
 9758SOL    HW130173   2.981   0.808   2.375
 9758SOL    HW230174   3.055   0.922   2.467
 9759SOL     OW30175   0.074   2.126   1.170
 9759SOL    HW130176   0.040   2.042   1.213
 9759SOL    HW230177   0.014   2.153   1.096
 9760SOL     OW30178   5.085   0.331   6.264
 9760SOL    HW130179   4.998   0.290   6.240
 9760SOL    HW230180   5.074   0.430   6.276
 9761SOL     OW30181   0.964   1.680   1.573
 9761SOL    HW130182   0.985   1.722   1.661
 9761SOL    HW230183   1.023   1.719   1.502
 9762SOL     OW30184   3.880   1.125   6.539
 9762SOL    HW130185   3.792   1.127   6.492
 9762SOL    HW230186   3.952   1.104   6.472
 9763SOL     OW30187   6.695   2.239   1.105
 9763SOL    HW130188   6.689   2.273   1.011
 9763SOL    HW230189   6.673   2.141   1.106
 9764SOL     OW30190   0.565   2.807   2.749
 9764SOL    HW130191   0.658   2.803   2.713
 9764SOL    HW230192   0.500   2.806   2.673
 9765SOL     OW30193   0.118   2.300   1.553
 9765SOL    HW130194   0.129   2.384   1.499
 9765SOL    HW230195   0.058   2.318   1.630
 9766SOL     OW30196   0.282   2.936   2.878
 9766SOL    HW130197   0.225   2.869   2.830
 9766SOL    HW230198   0.378   2.918   2.857
 9767SOL     OW30199   3.299   1.565   5.328
 9767SOL    HW130200   3.358   1.569   5.247
 9767SOL    HW230201   3.308   1.475   5.372
 9768SOL     OW30202   4.747   1.865   6.876
 9768SOL    HW130203   4.772   1.939   6.938
 9768SOL    HW230204   4.818   1.856   6.805
 9769SOL     OW30205   3.567   1.107   5.328
 9769SOL    HW130206   3.561   1.120   5.229
 9769SOL    HW230207   3.664   1.103   5.354
 9770SOL     OW30208   1.860   3.447   5.336
 9770SOL    HW130209   1.916   3.519   5.294
 9770SOL    HW230210   1.857   3.460   5.435
 9771SOL     OW30211   3.412   0.763   2.195
 9771SOL    HW130212   3.429   0.850   2.243
 9771SOL    HW230213   3.420   0.687   2.259
 9772SOL     OW30214   0.630   0.898   1.882
 9772SOL    HW130215   0.707   0.841   1.854
 9772SOL    HW230216   0.582   0.854   1.958
 9773SOL     OW30217   5.670   6.374   2.219
 9773SOL    HW130218   5.731   6.418   2.285
 9773SOL    HW230219   5.618   6.302   2.265
 9774SOL     OW30220   1.818   5.292   4.452
 9774SOL    HW130221   1.838   5.197   4.429
 9774SOL    HW230222   1.845   5.311   4.546
 9775SOL     OW30223   1.520   1.182   2.582
 9775SOL    HW130224   1.450   1.159   2.651
 9775SOL    HW230225   1.552   1.275   2.598
 9776SOL     OW30226   2.159   5.538   1.494
 9776SOL    HW130227   2.059   5.546   1.485
 9776SOL    HW230228   2.190   5.587   1.575
 9777SOL     OW30229   4.003   2.185   5.105
 9777SOL    HW130230   4.062   2.264   5.116
 9777SOL    HW230231   3.920   2.211   5.055
 9778SOL     OW30232   1.418   3.465   2.814
 9778SOL    HW130233   1.468   3.552   2.816
 9778SOL    HW230234   1.425   3.425   2.722
 9779SOL     OW30235   3.096   0.399   3.373
 9779SOL    HW130236   3.106   0.328   3.442
 9779SOL    HW230237   3.027   0.466   3.403
 9780SOL     OW30238   0.944   1.058   0.712
 9780SOL    HW130239   0.964   0.973   0.664
 9780SOL    HW230240   0.845   1.068   0.723
 9781SOL     OW30241   1.697   1.448   2.046
 9781SOL    HW130242   1.787   1.487   2.062
 9781SOL    HW230243   1.693   1.410   1.953
 9782SOL     OW30244   0.252   2.671   0.356
 9782SOL    HW130245   0.200   2.682   0.441
 9782SOL    HW230246   0.243   2.753   0.300
 9783SOL     OW30247   4.914   1.399   2.559
 9783SOL    HW130248   4.873   1.418   2.470
 9783SOL    HW230249   5.012   1.378   2.547
 9784SOL     OW30250   1.617   1.358   0.089
 9784SOL    HW130251   1.670   1.404   0.161
 9784SOL    HW230252   1.520   1.380   0.100
 9785SOL     OW30253   1.153   3.667   5.049
 9785SOL    HW130254   1.083   3.722   5.005
 9785SOL    HW230255   1.202   3.613   4.980
 9786SOL     OW30256   2.713   4.742   6.633
 9786SOL    HW130257   2.623   4.727   6.591
 9786SOL    HW230258   2.705   4.739   6.732
 9787SOL     OW30259   2.934   3.481   1.399
 9787SOL    HW130260   3.016   3.427   1.383
 9787SOL    HW230261   2.949   3.544   1.475
 9788SOL     OW30262   3.038   6.935   2.852
 9788SOL    HW130263   3.049   6.906   2.947
 9788SOL    HW230264   3.075   6.865   2.791
 9789SOL     OW30265   4.135   1.354   0.566
 9789SOL    HW130266   4.171   1.330   0.656
 9789SOL    HW230267   4.054   1.411   0.576
 9790SOL     OW30268   4.480   5.440   5.253
 9790SOL    HW130269   4.495   5.392   5.340
 9790SOL    HW230270   4.538   5.521   5.249
 9791SOL     OW30271   0.316   0.424   1.337
 9791SOL    HW130272   0.261   0.346   1.308
 9791SOL    HW230273   0.409   0.394   1.358
 9792SOL     OW30274   3.489   4.725   0.663
 9792SOL    HW130275   3.575   4.685   0.632
 9792SOL    HW230276   3.430   4.745   0.584
 9793SOL     OW30277   5.952   0.739   2.319
 9793SOL    HW130278   5.939   0.832   2.354
 9793SOL    HW230279   6.043   0.706   2.345
 9794SOL     OW30280   3.693   5.482   4.755
 9794SOL    HW130281   3.657   5.418   4.687
 9794SOL    HW230282   3.689   5.575   4.718
 9795SOL     OW30283   1.568   3.337   3.315
 9795SOL    HW130284   1.540   3.352   3.220
 9795SOL    HW230285   1.609   3.421   3.350
 9796SOL     OW30286   2.954   3.734   4.007
 9796SOL    HW130287   2.919   3.647   3.974
 9796SOL    HW230288   2.883   3.779   4.061
 9797SOL     OW30289   3.157   5.742   0.007
 9797SOL    HW130290   3.124   5.686   6.955
 9797SOL    HW230291   3.242   5.702   0.042
 9798SOL     OW30292   6.599   4.251   6.633
 9798SOL    HW130293   6.551   4.339   6.633
 9798SOL    HW230294   6.696   4.266   6.612
 9799SOL     OW30295   4.268   6.515   6.788
 9799SOL    HW130296   4.303   6.499   6.881
 9799SOL    HW230297   4.209   6.596   6.788
 9800SOL     OW30298   6.303   4.847   4.719
 9800SOL    HW130299   6.332   4.903   4.641
 9800SOL    HW230300   6.301   4.751   4.692
 9801SOL     OW30301   4.271   6.605   0.984
 9801SOL    HW130302   4.179   6.642   0.971
 9801SOL    HW230303   4.266   6.525   1.043
 9802SOL     OW30304   3.496   3.553   0.128
 9802SOL    HW130305   3.541   3.579   0.042
 9802SOL    HW230306   3.559   3.496   0.181
 9803SOL     OW30307   1.771   4.007   6.641
 9803SOL    HW130308   1.715   4.079   6.682
 9803SOL    HW230309   1.855   4.048   6.605
 9804SOL     OW30310   1.054   4.676   2.950
 9804SOL    HW130311   0.963   4.636   2.962
 9804SOL    HW230312   1.060   4.761   3.002
 9805SOL     OW30313   0.197   5.610   4.334
 9805SOL    HW130314   0.244   5.579   4.252
 9805SOL    HW230315   0.104   5.571   4.335
 9806SOL     OW30316   3.737   1.666   0.085
 9806SOL    HW130317   3.638   1.656   0.080
 9806SOL    HW230318   3.781   1.587   0.042
 9807SOL     OW30319   4.088   3.189   3.443
 9807SOL    HW130320   4.187   3.192   3.436
 9807SOL    HW230321   4.060   3.213   3.536
 9808SOL     OW30322   3.150   5.394   2.303
 9808SOL    HW130323   3.196   5.350   2.380
 9808SOL    HW230324   3.135   5.328   2.230
 9809SOL     OW30325   5.752   2.622   1.009
 9809SOL    HW130326   5.817   2.678   0.957
 9809SOL    HW230327   5.792   2.600   1.098
 9810SOL     OW30328   2.424   3.021   1.489
 9810SOL    HW130329   2.343   2.984   1.445
 9810SOL    HW230330   2.481   3.068   1.421
 9811SOL     OW30331   5.343   3.374   4.328
 9811SOL    HW130332   5.329   3.342   4.234
 9811SOL    HW230333   5.348   3.474   4.329
 9812SOL     OW30334   3.467   5.670   6.249
 9812SOL    HW130335   3.444   5.692   6.344
 9812SOL    HW230336   3.496   5.754   6.202
 9813SOL     OW30337   4.113   0.513   2.204
 9813SOL    HW130338   4.122   0.586   2.272
 9813SOL    HW230339   4.019   0.478   2.204
 9814SOL     OW30340   6.918   1.535   6.163
 9814SOL    HW130341   6.827   1.566   6.192
 9814SOL    HW230342   6.937   1.569   6.071
 9815SOL     OW30343   4.465   2.493   4.733
 9815SOL    HW130344   4.386   2.522   4.787
 9815SOL    HW230345   4.511   2.573   4.695
 9816SOL     OW30346   2.855   1.288   6.928
 9816SOL    HW130347   2.846   1.388   6.924
 9816SOL    HW230348   2.799   1.247   6.856
 9817SOL     OW30349   6.575   0.738   1.414
 9817SOL    HW130350   6.512   0.816   1.412
 9817SOL    HW230351   6.541   0.669   1.477
 9818SOL     OW30352   3.905   2.901   5.372
 9818SOL    HW130353   3.900   2.979   5.309
 9818SOL    HW230354   3.818   2.891   5.419
 9819SOL     OW30355   3.189   0.541   1.996
 9819SOL    HW130356   3.169   0.632   2.032
 9819SOL    HW230357   3.184   0.542   1.896
 9820SOL     OW30358   3.493   2.548   0.129
 9820SOL    HW130359   3.572   2.504   0.173
 9820SOL    HW230360   3.416   2.485   0.127
 9821SOL     OW30361   6.943   5.308   0.014
 9821SOL    HW130362   6.957   5.309   0.113
 9821SOL    HW230363   6.925   5.214   7.009
 9822SOL     OW30364   0.226   0.178   2.605
 9822SOL    HW130365   0.189   0.247   2.667
 9822SOL    HW230366   0.204   0.202   2.511
 9823SOL     OW30367   3.319   6.318   2.086
 9823SOL    HW130368   3.401   6.274   2.123
 9823SOL    HW230369   3.311   6.296   1.988
 9824SOL     OW30370   1.744   4.492   6.293
 9824SOL    HW130371   1.789   4.425   6.234
 9824SOL    HW230372   1.717   4.572   6.238
 9825SOL     OW30373   4.435   5.045   5.327
 9825SOL    HW130374   4.415   5.024   5.232
 9825SOL    HW230375   4.408   4.968   5.385
 9826SOL     OW30376   5.421   6.383   5.305
 9826SOL    HW130377   5.470   6.453   5.253
 9826SOL    HW230378   5.486   6.331   5.360
 9827SOL     OW30379   0.864   4.678   4.263
 9827SOL    HW130380   0.912   4.630   4.190
 9827SOL    HW230381   0.782   4.627   4.289
 9828SOL     OW30382   2.262   2.780   6.686
 9828SOL    HW130383   2.201   2.772   6.607
 9828SOL    HW230384   2.257   2.696   6.741
 9829SOL     OW30385   2.521   4.438   1.156
 9829SOL    HW130386   2.612   4.475   1.176
 9829SOL    HW230387   2.452   4.507   1.175
 9830SOL     OW30388   0.038   1.682   0.541
 9830SOL    HW130389   0.102   1.679   0.618
 9830SOL    HW230390   0.084   1.721   0.461
 9831SOL     OW30391   5.914   6.629   1.336
 9831SOL    HW130392   5.857   6.692   1.389
 9831SOL    HW230393   5.932   6.667   1.246
 9832SOL     OW30394   4.021   4.774   1.299
 9832SOL    HW130395   4.117   4.801   1.291
 9832SOL    HW230396   3.971   4.805   1.218
 9833SOL     OW30397   4.484   4.407   6.068
 9833SOL    HW130398   4.527   4.496   6.054
 9833SOL    HW230399   4.549   4.335   6.045
 9834SOL     OW30400   2.254   2.436   3.984
 9834SOL    HW130401   2.314   2.491   3.925
 9834SOL    HW230402   2.213   2.495   4.054
 9835SOL     OW30403   5.472   1.333   5.000
 9835SOL    HW130404   5.520   1.420   5.013
 9835SOL    HW230405   5.499   1.294   4.912
 9836SOL     OW30406   5.194   5.124   1.807
 9836SOL    HW130407   5.135   5.135   1.727
 9836SOL    HW230408   5.137   5.120   1.890
 9837SOL     OW30409   1.835   6.268   5.710
 9837SOL    HW130410   1.740   6.240   5.718
 9837SOL    HW230411   1.864   6.260   5.614
 9838SOL     OW30412   6.564   5.627   4.655
 9838SOL    HW130413   6.644   5.629   4.714
 9838SOL    HW230414   6.548   5.534   4.624
 9839SOL     OW30415   6.395   2.818   3.001
 9839SOL    HW130416   6.437   2.758   3.070
 9839SOL    HW230417   6.306   2.781   2.975
 9840SOL     OW30418   6.230   0.269   0.512
 9840SOL    HW130419   6.216   0.308   0.603
 9840SOL    HW230420   6.143   0.236   0.476
 9841SOL     OW30421   2.171   3.288   4.086
 9841SOL    HW130422   2.190   3.374   4.039
 9841SOL    HW230423   2.169   3.303   4.184
 9842SOL     OW30424   2.978   3.457   3.278
 9842SOL    HW130425   2.978   3.453   3.179
 9842SOL    HW230426   2.971   3.552   3.308
 9843SOL     OW30427   6.219   4.099   3.266
 9843SOL    HW130428   6.251   4.075   3.358
 9843SOL    HW230429   6.181   4.192   3.268
 9844SOL     OW30430   5.417   0.378   2.545
 9844SOL    HW130431   5.467   0.383   2.631
 9844SOL    HW230432   5.345   0.446   2.544
 9845SOL     OW30433   1.483   1.616   3.482
 9845SOL    HW130434   1.566   1.664   3.510
 9845SOL    HW230435   1.472   1.533   3.538
 9846SOL     OW30436   2.974   3.402   3.010
 9846SOL    HW130437   2.916   3.379   2.932
 9846SOL    HW230438   3.046   3.333   3.019
 9847SOL     OW30439   1.957   4.589   4.979
 9847SOL    HW130440   1.881   4.653   4.992
 9847SOL    HW230441   1.957   4.522   5.054
 9848SOL     OW30442   5.749   3.625   0.485
 9848SOL    HW130443   5.797   3.538   0.474
 9848SOL    HW230444   5.652   3.612   0.469
 9849SOL     OW30445   6.987   6.659   5.613
 9849SOL    HW130446   6.983   6.572   5.663
 9849SOL    HW230447   0.028   6.720   5.658
 9850SOL     OW30448   4.612   0.176   2.863
 9850SOL    HW130449   4.669   0.142   2.788
 9850SOL    HW230450   4.669   0.199   2.941
 9851SOL     OW30451   5.346   3.207   5.383
 9851SOL    HW130452   5.287   3.262   5.441
 9851SOL    HW230453   5.299   3.186   5.297
 9852SOL     OW30454   5.587   2.017   4.111
 9852SOL    HW130455   5.509   1.953   4.115
 9852SOL    HW230456   5.647   2.000   4.189
 9853SOL     OW30457   0.273   4.115   1.019
 9853SOL    HW130458   0.273   4.016   1.030
 9853SOL    HW230459   0.327   4.139   0.939
 9854SOL     OW30460   4.355   5.926   4.094
 9854SOL    HW130461   4.356   5.849   4.158
 9854SOL    HW230462   4.335   5.893   4.002
 9855SOL     OW30463   1.706   3.652   0.864
 9855SOL    HW130464   1.679   3.592   0.789
 9855SOL    HW230465   1.741   3.598   0.940
 9856SOL     OW30466   3.659   2.745   0.566
 9856SOL    HW130467   3.695   2.675   0.504
 9856SOL    HW230468   3.735   2.787   0.615
 9857SOL     OW30469   6.215   4.078   2.803
 9857SOL    HW130470   6.156   4.020   2.747
 9857SOL    HW230471   6.159   4.133   2.864
 9858SOL     OW30472   4.184   1.371   1.586
 9858SOL    HW130473   4.155   1.293   1.642
 9858SOL    HW230474   4.248   1.428   1.638
 9859SOL     OW30475   6.606   0.392   1.300
 9859SOL    HW130476   6.599   0.449   1.218
 9859SOL    HW230477   6.516   0.386   1.344
 9860SOL     OW30478   0.679   1.123   1.999
 9860SOL    HW130479   0.739   1.184   1.948
 9860SOL    HW230480   0.675   1.034   1.952
 9861SOL     OW30481   3.119   6.634   4.809
 9861SOL    HW130482   3.131   6.586   4.896
 9861SOL    HW230483   3.199   6.619   4.752
 9862SOL     OW30484   0.637   2.164   1.226
 9862SOL    HW130485   0.653   2.235   1.294
 9862SOL    HW230486   0.545   2.126   1.239
 9863SOL     OW30487   2.951   0.121   0.736
 9863SOL    HW130488   3.042   0.109   0.696
 9863SOL    HW230489   2.922   0.034   0.777
 9864SOL     OW30490   4.470   6.110   2.924
 9864SOL    HW130491   4.516   6.199   2.933
 9864SOL    HW230492   4.470   6.082   2.828
 9865SOL     OW30493   1.604   2.247   4.346
 9865SOL    HW130494   1.591   2.339   4.381
 9865SOL    HW230495   1.515   2.204   4.333
 9866SOL     OW30496   3.641   4.923   3.272
 9866SOL    HW130497   3.565   4.869   3.237
 9866SOL    HW230498   3.606   5.002   3.323
 9867SOL     OW30499   4.241   0.270   6.483
 9867SOL    HW130500   4.201   0.208   6.550
 9867SOL    HW230501   4.309   0.328   6.527
 9868SOL     OW30502   0.345   4.856   6.236
 9868SOL    HW130503   0.445   4.863   6.244
 9868SOL    HW230504   0.317   4.889   6.146
 9869SOL     OW30505   1.582   3.743   3.178
 9869SOL    HW130506   1.606   3.834   3.212
 9869SOL    HW230507   1.483   3.740   3.158
 9870SOL     OW30508   4.840   4.838   2.246
 9870SOL    HW130509   4.926   4.817   2.293
 9870SOL    HW230510   4.766   4.786   2.287
 9871SOL     OW30511   1.369   1.516   5.289
 9871SOL    HW130512   1.319   1.487   5.371
 9871SOL    HW230513   1.309   1.505   5.209
 9872SOL     OW30514   1.225   4.762   3.431
 9872SOL    HW130515   1.139   4.712   3.420
 9872SOL    HW230516   1.302   4.698   3.433
 9873SOL     OW30517   1.536   2.332   0.344
 9873SOL    HW130518   1.631   2.304   0.349
 9873SOL    HW230519   1.484   2.266   0.290
 9874SOL     OW30520   0.979   3.461   4.021
 9874SOL    HW130521   1.009   3.546   4.065
 9874SOL    HW230522   0.891   3.432   4.060
 9875SOL     OW30523   1.070   0.858   2.940
 9875SOL    HW130524   1.151   0.899   2.899
 9875SOL    HW230525   0.989   0.880   2.886
 9876SOL     OW30526   6.868   5.438   2.161
 9876SOL    HW130527   6.963   5.437   2.129
 9876SOL    HW230528   6.866   5.428   2.261
 9877SOL     OW30529   3.834   6.759   1.610
 9877SOL    HW130530   3.822   6.713   1.698
 9877SOL    HW230531   3.817   6.857   1.620
 9878SOL     OW30532   0.771   0.405   5.520
 9878SOL    HW130533   0.714   0.407   5.438
 9878SOL    HW230534   0.854   0.351   5.501
 9879SOL     OW30535   5.396   5.950   5.730
 9879SOL    HW130536   5.452   6.023   5.770
 9879SOL    HW230537   5.344   5.987   5.653
 9880SOL     OW30538   1.861   1.828   4.345
 9880SOL    HW130539   1.856   1.879   4.430
 9880SOL    HW230540   1.859   1.730   4.364
 9881SOL     OW30541   7.015   1.757   6.520
 9881SOL    HW130542   6.972   1.757   6.610
 9881SOL    HW230543   0.077   1.708   6.525
 9882SOL     OW30544   1.648   1.836   2.808
 9882SOL    HW130545   1.595   1.880   2.735
 9882SOL    HW230546   1.743   1.869   2.804
 9883SOL     OW30547   2.849   1.298   1.957
 9883SOL    HW130548   2.780   1.289   2.028
 9883SOL    HW230549   2.939   1.275   1.994
 9884SOL     OW30550   3.743   0.771   4.107
 9884SOL    HW130551   3.701   0.721   4.031
 9884SOL    HW230552   3.777   0.859   4.073
 9885SOL     OW30553   6.402   4.424   3.684
 9885SOL    HW130554   6.427   4.335   3.721
 9885SOL    HW230555   6.321   4.414   3.627
 9886SOL     OW30556   1.112   3.540   1.879
 9886SOL    HW130557   1.090   3.447   1.849
 9886SOL    HW230558   1.085   3.551   1.975
 9887SOL     OW30559   4.167   0.003   6.036
 9887SOL    HW130560   4.198   6.936   6.060
 9887SOL    HW230561   4.080   7.022   5.986
 9888SOL     OW30562   6.512   4.887   0.602
 9888SOL    HW130563   6.415   4.873   0.583
 9888SOL    HW230564   6.535   4.983   0.588
 9889SOL     OW30565   0.546   5.155   0.354
 9889SOL    HW130566   0.552   5.057   0.336
 9889SOL    HW230567   0.459   5.190   0.317
 9890SOL     OW30568   0.927   3.248   0.335
 9890SOL    HW130569   0.938   3.347   0.341
 9890SOL    HW230570   0.839   3.226   0.293
 9891SOL     OW30571   4.756   1.653   2.129
 9891SOL    HW130572   4.663   1.631   2.098
 9891SOL    HW230573   4.811   1.681   2.050
 9892SOL     OW30574   0.619   6.077   0.058
 9892SOL    HW130575   0.574   6.165   0.075
 9892SOL    HW230576   0.704   6.072   0.110
 9893SOL     OW30577   2.775   1.790   1.275
 9893SOL    HW130578   2.781   1.836   1.364
 9893SOL    HW230579   2.681   1.762   1.258
 9894SOL     OW30580   2.137   1.163   1.556
 9894SOL    HW130581   2.073   1.113   1.615
 9894SOL    HW230582   2.109   1.259   1.551
 9895SOL     OW30583   4.580   3.479   5.779
 9895SOL    HW130584   4.492   3.490   5.732
 9895SOL    HW230585   4.654   3.499   5.715
 9896SOL     OW30586   6.531   6.526   6.295
 9896SOL    HW130587   6.512   6.589   6.220
 9896SOL    HW230588   6.487   6.438   6.278
 9897SOL     OW30589   5.950   4.872   4.348
 9897SOL    HW130590   5.896   4.957   4.352
 9897SOL    HW230591   5.965   4.847   4.252
 9898SOL     OW30592   2.627   6.709   5.660
 9898SOL    HW130593   2.649   6.744   5.751
 9898SOL    HW230594   2.683   6.629   5.640
 9899SOL     OW30595   0.159   5.338   6.796
 9899SOL    HW130596   0.102   5.258   6.773
 9899SOL    HW230597   0.160   5.352   6.895
 9900SOL     OW30598   1.996   3.893   3.455
 9900SOL    HW130599   1.913   3.848   3.489
 9900SOL    HW230600   2.048   3.929   3.533
 9901SOL     OW30601   2.372   2.713   5.499
 9901SOL    HW130602   2.450   2.760   5.458
 9901SOL    HW230603   2.325   2.775   5.562
 9902SOL     OW30604   2.842   4.312   6.823
 9902SOL    HW130605   2.831   4.360   6.910
 9902SOL    HW230606   2.848   4.379   6.749
 9903SOL     OW30607   5.711   0.652   4.138
 9903SOL    HW130608   5.782   0.715   4.107
 9903SOL    HW230609   5.660   0.618   4.058
 9904SOL     OW30610   6.252   2.224   0.499
 9904SOL    HW130611   6.301   2.164   0.562
 9904SOL    HW230612   6.169   2.179   0.467
 9905SOL     OW30613   5.218   0.756   0.073
 9905SOL    HW130614   5.153   0.825   0.041
 9905SOL    HW230615   5.267   0.791   0.152
 9906SOL     OW30616   3.647   2.827   4.776
 9906SOL    HW130617   3.618   2.848   4.683
 9906SOL    HW230618   3.672   2.730   4.783
 9907SOL     OW30619   1.043   0.258   1.803
 9907SOL    HW130620   1.097   0.204   1.739
 9907SOL    HW230621   1.077   0.246   1.896
 9908SOL     OW30622   5.104   3.255   2.798
 9908SOL    HW130623   5.164   3.298   2.866
 9908SOL    HW230624   5.113   3.156   2.804
 9909SOL     OW30625   2.344   0.428   4.721
 9909SOL    HW130626   2.274   0.364   4.691
 9909SOL    HW230627   2.326   0.456   4.815
 9910SOL     OW30628   7.004   4.702   3.453
 9910SOL    HW130629   0.005   4.640   3.379
 9910SOL    HW230630   6.905   4.708   3.458
 9911SOL     OW30631   2.611   5.665   2.685
 9911SOL    HW130632   2.671   5.684   2.607
 9911SOL    HW230633   2.551   5.744   2.701
 9912SOL     OW30634   5.324   0.590   6.221
 9912SOL    HW130635   5.316   0.597   6.320
 9912SOL    HW230636   5.421   0.590   6.195
 9913SOL     OW30637   4.335   3.150   6.669
 9913SOL    HW130638   4.251   3.164   6.721
 9913SOL    HW230639   4.382   3.068   6.702
 9914SOL     OW30640   6.980   3.933   4.383
 9914SOL    HW130641   6.924   3.941   4.300
 9914SOL    HW230642   0.010   4.015   4.394
 9915SOL     OW30643   5.539   0.970   3.449
 9915SOL    HW130644   5.495   0.944   3.534
 9915SOL    HW230645   5.629   1.010   3.468
 9916SOL     OW30646   1.943   2.869   1.819
 9916SOL    HW130647   1.933   2.770   1.822
 9916SOL    HW230648   1.999   2.895   1.741
 9917SOL     OW30649   6.124   4.545   4.440
 9917SOL    HW130650   6.073   4.479   4.385
 9917SOL    HW230651   6.060   4.609   4.483
 9918SOL     OW30652   4.697   2.694   2.670
 9918SOL    HW130653   4.792   2.696   2.702
 9918SOL    HW230654   4.675   2.782   2.627
 9919SOL     OW30655   6.184   6.358   0.632
 9919SOL    HW130656   6.126   6.399   0.703
 9919SOL    HW230657   6.243   6.429   0.593
 9920SOL     OW30658   4.793   1.686   2.963
 9920SOL    HW130659   4.829   1.609   2.911
 9920SOL    HW230660   4.806   1.770   2.911
 9921SOL     OW30661   3.425   4.849   6.191
 9921SOL    HW130662   3.522   4.863   6.173
 9921SOL    HW230663   3.411   4.759   6.232
 9922SOL     OW30664   0.131   5.228   0.651
 9922SOL    HW130665   0.145   5.151   0.589
 9922SOL    HW230666   0.105   5.194   0.741
 9923SOL     OW30667   5.589   4.827   1.273
 9923SOL    HW130668   5.670   4.769   1.283
 9923SOL    HW230669   5.511   4.783   1.317
 9924SOL     OW30670   1.023   3.885   4.597
 9924SOL    HW130671   0.991   3.894   4.691
 9924SOL    HW230672   1.119   3.911   4.592
 9925SOL     OW30673   5.204   2.323   3.215
 9925SOL    HW130674   5.197   2.228   3.247
 9925SOL    HW230675   5.151   2.383   3.275
 9926SOL     OW30676   2.992   5.301   6.990
 9926SOL    HW130677   3.075   5.270   6.942
 9926SOL    HW230678   2.912   5.261   6.945
 9927SOL     OW30679   5.629   0.358   3.509
 9927SOL    HW130680   5.658   0.318   3.596
 9927SOL    HW230681   5.646   0.293   3.435
 9928SOL     OW30682   4.760   4.952   1.823
 9928SOL    HW130683   4.831   4.959   1.893
 9928SOL    HW230684   4.714   4.864   1.831
 9929SOL     OW30685   1.053   5.021   2.473
 9929SOL    HW130686   1.110   5.006   2.392
 9929SOL    HW230687   1.056   4.939   2.531
 9930SOL     OW30688   6.719   0.681   3.449
 9930SOL    HW130689   6.701   0.705   3.545
 9930SOL    HW230690   6.788   0.609   3.445
 9931SOL     OW30691   0.596   4.684   5.914
 9931SOL    HW130692   0.688   4.656   5.939
 9931SOL    HW230693   0.529   4.632   5.967
 9932SOL     OW30694   0.500   6.292   5.148
 9932SOL    HW130695   0.540   6.354   5.081
 9932SOL    HW230696   0.526   6.321   5.240
 9933SOL     OW30697   0.881   6.306   2.174
 9933SOL    HW130698   0.804   6.368   2.189
 9933SOL    HW230699   0.865   6.253   2.090
 9934SOL     OW30700   6.659   1.967   6.030
 9934SOL    HW130701   6.741   1.954   6.087
 9934SOL    HW230702   6.687   1.999   5.939
 9935SOL     OW30703   3.369   0.451   6.618
 9935SOL    HW130704   3.319   0.408   6.694
 9935SOL    HW230705   3.311   0.520   6.576
 9936SOL     OW30706   0.668   3.979   3.937
 9936SOL    HW130707   0.666   3.924   4.021
 9936SOL    HW230708   0.698   3.921   3.861
 9937SOL     OW30709   6.312   2.248   5.933
 9937SOL    HW130710   6.343   2.175   5.994
 9937SOL    HW230711   6.305   2.212   5.840
 9938SOL     OW30712   0.009   6.210   2.638
 9938SOL    HW130713   0.055   6.125   2.610
 9938SOL    HW230714   0.059   6.251   2.714
 9939SOL     OW30715   3.557   3.206   2.820
 9939SOL    HW130716   3.516   3.255   2.743
 9939SOL    HW230717   3.523   3.112   2.822
 9940SOL     OW30718   6.894   1.075   0.525
 9940SOL    HW130719   6.970   1.057   0.462
 9940SOL    HW230720   6.912   1.031   0.613
 9941SOL     OW30721   3.176   5.724   5.473
 9941SOL    HW130722   3.128   5.637   5.476
 9941SOL    HW230723   3.187   5.759   5.567
 9942SOL     OW30724   2.862   5.677   3.864
 9942SOL    HW130725   2.803   5.596   3.863
 9942SOL    HW230726   2.939   5.661   3.925
 9943SOL     OW30727   1.321   6.719   4.903
 9943SOL    HW130728   1.224   6.704   4.921
 9943SOL    HW230729   1.335   6.813   4.871
 9944SOL     OW30730   1.493   4.186   0.021
 9944SOL    HW130731   1.550   4.170   0.102
 9944SOL    HW230732   1.399   4.154   0.039
 9945SOL     OW30733   6.498   5.978   6.622
 9945SOL    HW130734   6.468   5.893   6.578
 9945SOL    HW230735   6.493   5.968   6.721
 9946SOL     OW30736   5.486   1.245   4.750
 9946SOL    HW130737   5.515   1.162   4.702
 9946SOL    HW230738   5.390   1.263   4.730
 9947SOL     OW30739   6.279   4.672   3.435
 9947SOL    HW130740   6.378   4.659   3.435
 9947SOL    HW230741   6.234   4.588   3.465
 9948SOL     OW30742   5.314   3.885   4.125
 9948SOL    HW130743   5.274   3.899   4.035
 9948SOL    HW230744   5.252   3.830   4.181
 9949SOL     OW30745   5.731   4.988   2.210
 9949SOL    HW130746   5.770   4.904   2.173
 9949SOL    HW230747   5.763   5.066   2.156
 9950SOL     OW30748   3.088   5.890   6.224
 9950SOL    HW130749   3.096   5.794   6.200
 9950SOL    HW230750   2.992   5.912   6.239
 9951SOL     OW30751   6.226   2.702   3.232
 9951SOL    HW130752   6.324   2.682   3.230
 9951SOL    HW230753   6.181   2.656   3.156
 9952SOL     OW30754   0.099   5.073   6.834
 9952SOL    HW130755   0.071   5.073   6.738
 9952SOL    HW230756   0.195   5.046   6.840
 9953SOL     OW30757   6.340   2.730   3.969
 9953SOL    HW130758   6.412   2.679   3.922
 9953SOL    HW230759   6.254   2.679   3.963
 9954SOL     OW30760   3.832   0.445   5.539
 9954SOL    HW130761   3.736   0.417   5.543
 9954SOL    HW230762   3.891   0.365   5.542
 9955SOL     OW30763   0.356   4.545   4.549
 9955SOL    HW130764   0.312   4.470   4.499
 9955SOL    HW230765   0.401   4.509   4.631
 9956SOL     OW30766   1.281   6.115   0.264
 9956SOL    HW130767   1.235   6.032   0.294
 9956SOL    HW230768   1.269   6.187   0.333
 9957SOL     OW30769   5.729   5.509   2.499
 9957SOL    HW130770   5.805   5.450   2.528
 9957SOL    HW230771   5.651   5.495   2.559
 9958SOL     OW30772   2.298   4.483   0.812
 9958SOL    HW130773   2.257   4.478   0.903
 9958SOL    HW230774   2.274   4.571   0.770
 9959SOL     OW30775   3.422   3.596   0.993
 9959SOL    HW130776   3.407   3.507   1.037
 9959SOL    HW230777   3.368   3.666   1.040
 9960SOL     OW30778   0.603   1.663   2.049
 9960SOL    HW130779   0.541   1.585   2.053
 9960SOL    HW230780   0.689   1.635   2.007
 9961SOL     OW30781   2.218   4.010   4.592
 9961SOL    HW130782   2.236   4.077   4.664
 9961SOL    HW230783   2.226   4.054   4.503
 9962SOL     OW30784   5.040   6.562   4.439
 9962SOL    HW130785   4.966   6.528   4.382
 9962SOL    HW230786   5.053   6.501   4.518
 9963SOL     OW30787   3.294   1.007   0.877
 9963SOL    HW130788   3.276   0.911   0.900
 9963SOL    HW230789   3.296   1.017   0.778
 9964SOL     OW30790   4.992   6.053   4.787
 9964SOL    HW130791   5.044   5.988   4.731
 9964SOL    HW230792   5.051   6.129   4.813
 9965SOL     OW30793   4.056   6.756   0.293
 9965SOL    HW130794   4.042   6.841   0.343
 9965SOL    HW230795   4.026   6.769   0.198
 9966SOL     OW30796   6.928   0.508   3.321
 9966SOL    HW130797   6.960   0.585   3.266
 9966SOL    HW230798   6.977   0.425   3.294
 9967SOL     OW30799   1.520   5.415   0.711
 9967SOL    HW130800   1.524   5.417   0.611
 9967SOL    HW230801   1.458   5.486   0.744
 9968SOL     OW30802   2.854   3.452   2.744
 9968SOL    HW130803   2.885   3.479   2.653
 9968SOL    HW230804   2.839   3.534   2.800
 9969SOL     OW30805   1.442   3.429   1.393
 9969SOL    HW130806   1.539   3.423   1.416
 9969SOL    HW230807   1.431   3.452   1.296
 9970SOL     OW30808   6.131   4.482   1.650
 9970SOL    HW130809   6.206   4.433   1.694
 9970SOL    HW230810   6.163   4.524   1.565
 9971SOL     OW30811   2.580   6.414   6.957
 9971SOL    HW130812   2.520   6.413   0.012
 9971SOL    HW230813   2.536   6.364   6.882
 9972SOL     OW30814   6.666   4.931   1.330
 9972SOL    HW130815   6.602   4.891   1.264
 9972SOL    HW230816   6.695   4.862   1.395
 9973SOL     OW30817   6.075   6.935   3.235
 9973SOL    HW130818   6.154   6.875   3.245
 9973SOL    HW230819   6.078   7.006   3.306
 9974SOL     OW30820   2.373   0.498   4.253
 9974SOL    HW130821   2.353   0.432   4.181
 9974SOL    HW230822   2.445   0.561   4.222
 9975SOL     OW30823   6.456   4.124   0.460
 9975SOL    HW130824   6.467   4.159   0.367
 9975SOL    HW230825   6.539   4.141   0.513
 9976SOL     OW30826   2.338   6.790   4.933
 9976SOL    HW130827   2.293   6.801   5.021
 9976SOL    HW230828   2.436   6.773   4.947
 9977SOL     OW30829   6.601   4.414   4.055
 9977SOL    HW130830   6.570   4.461   3.972
 9977SOL    HW230831   6.694   4.444   4.078
 9978SOL     OW30832   0.359   2.632   5.052
 9978SOL    HW130833   0.446   2.654   5.097
 9978SOL    HW230834   0.367   2.545   5.004
 9979SOL     OW30835   0.578   3.926   4.745
 9979SOL    HW130836   0.487   3.895   4.772
 9979SOL    HW230837   0.622   3.854   4.691
 9980SOL     OW30838   2.995   6.366   4.920
 9980SOL    HW130839   2.924   6.432   4.944
 9980SOL    HW230840   2.952   6.284   4.880
 9981SOL     OW30841   4.247   2.253   3.973
 9981SOL    HW130842   4.253   2.201   4.059
 9981SOL    HW230843   4.313   2.328   3.976
 9982SOL     OW30844   6.773   6.094   2.625
 9982SOL    HW130845   6.748   6.037   2.703
 9982SOL    HW230846   6.855   6.147   2.648
 9983SOL     OW30847   6.512   1.019   0.920
 9983SOL    HW130848   6.464   1.024   1.007
 9983SOL    HW230849   6.481   0.938   0.869
 9984SOL     OW30850   2.708   1.175   6.743
 9984SOL    HW130851   2.744   1.160   6.651
 9984SOL    HW230852   2.610   1.191   6.739
 9985SOL     OW30853   2.213   1.448   1.886
 9985SOL    HW130854   2.232   1.395   1.969
 9985SOL    HW230855   2.275   1.526   1.883
 9986SOL     OW30856   4.813   4.030   4.752
 9986SOL    HW130857   4.872   4.078   4.817
 9986SOL    HW230858   4.717   4.042   4.778
 9987SOL     OW30859   0.607   4.333   6.030
 9987SOL    HW130860   0.628   4.301   5.938
 9987SOL    HW230861   0.511   4.360   6.035
 9988SOL     OW30862   6.783   0.101   4.352
 9988SOL    HW130863   6.721   0.179   4.357
 9988SOL    HW230864   6.785   0.055   4.440
 9989SOL     OW30865   1.502   3.194   4.286
 9989SOL    HW130866   1.482   3.229   4.377
 9989SOL    HW230867   1.425   3.213   4.225
 9990SOL     OW30868   1.377   5.474   1.796
 9990SOL    HW130869   1.369   5.552   1.859
 9990SOL    HW230870   1.472   5.443   1.794
 9991SOL     OW30871   4.226   2.019   3.198
 9991SOL    HW130872   4.229   2.088   3.270
 9991SOL    HW230873   4.169   2.051   3.123
 9992SOL     OW30874   6.809   5.304   6.078
 9992SOL    HW130875   6.786   5.350   6.164
 9992SOL    HW230876   6.908   5.293   6.070
 9993SOL     OW30877   1.442   0.823   2.166
 9993SOL    HW130878   1.407   0.916   2.153
 9993SOL    HW230879   1.537   0.827   2.196
 9994SOL     OW30880   6.542   4.746   3.166
 9994SOL    HW130881   6.560   4.837   3.128
 9994SOL    HW230882   6.447   4.720   3.147
 9995SOL     OW30883   5.049   1.094   4.542
 9995SOL    HW130884   4.954   1.099   4.573
 9995SOL    HW230885   5.089   1.007   4.570
 9996SOL     OW30886   2.389   3.306   6.571
 9996SOL    HW130887   2.409   3.356   6.487
 9996SOL    HW230888   2.460   3.237   6.586
 9997SOL     OW30889   2.144   0.577   4.398
 9997SOL    HW130890   2.228   0.548   4.352
 9997SOL    HW230891   2.097   0.497   4.435
 9998SOL     OW30892   5.627   6.523   5.171
 9998SOL    HW130893   5.714   6.515   5.220
 9998SOL    HW230894   5.643   6.505   5.074
 9999SOL     OW30895   7.022   1.485   4.610
 9999SOL    HW130896   6.962   1.530   4.675
 9999SOL    HW230897   0.086   1.531   4.609
10000SOL     OW30898   6.666   4.897   0.031
10000SOL    HW130899   6.757   4.935   0.011
10000SOL    HW230900   6.637   4.927   0.122
10001SOL     OW30901   4.039   6.880   3.840
10001SOL    HW130902   4.017   6.800   3.895
10001SOL    HW230903   4.070   6.850   3.749
10002SOL     OW30904   1.738   1.705   1.852
10002SOL    HW130905   1.791   1.677   1.772
10002SOL    HW230906   1.646   1.665   1.848
10003SOL     OW30907   4.963   3.194   3.131
10003SOL    HW130908   4.964   3.274   3.072
10003SOL    HW230909   5.050   3.144   3.122
10004SOL     OW30910   0.354   2.771   3.250
10004SOL    HW130911   0.363   2.725   3.339
10004SOL    HW230912   0.261   2.759   3.216
10005SOL     OW30913   5.326   0.230   4.373
10005SOL    HW130914   5.421   0.234   4.342
10005SOL    HW230915   5.265   0.235   4.294
10006SOL     OW30916   4.725   1.559   4.787
10006SOL    HW130917   4.647   1.510   4.827
10006SOL    HW230918   4.808   1.539   4.839
10007SOL     OW30919   6.092   3.909   4.180
10007SOL    HW130920   6.062   3.986   4.236
10007SOL    HW230921   6.052   3.917   4.088
10008SOL     OW30922   3.535   0.176   3.752
10008SOL    HW130923   3.493   0.085   3.744
10008SOL    HW230924   3.602   0.174   3.827
10009SOL     OW30925   2.309   4.609   1.246
10009SOL    HW130926   2.300   4.531   1.308
10009SOL    HW230927   2.365   4.680   1.289
10010SOL     OW30928   5.668   0.867   6.217
10010SOL    HW130929   5.611   0.946   6.197
10010SOL    HW230930   5.745   0.894   6.275
10011SOL     OW30931   0.081   6.410   3.957
10011SOL    HW130932   0.123   6.478   4.018
10011SOL    HW230933   0.113   6.319   3.983
10012SOL     OW30934   5.864   0.597   4.360
10012SOL    HW130935   5.804   0.608   4.280
10012SOL    HW230936   5.824   0.529   4.422
10013SOL     OW30937   1.701   1.036   1.830
10013SOL    HW130938   1.687   0.939   1.851
10013SOL    HW230939   1.630   1.090   1.875
10014SOL     OW30940   1.353   4.788   5.708
10014SOL    HW130941   1.289   4.817   5.778
10014SOL    HW230942   1.374   4.865   5.648
10015SOL     OW30943   2.232   5.677   6.613
10015SOL    HW130944   2.204   5.672   6.517
10015SOL    HW230945   2.291   5.599   6.634
10016SOL     OW30946   2.464   0.996   5.083
10016SOL    HW130947   2.384   1.042   5.044
10016SOL    HW230948   2.513   1.060   5.143
10017SOL     OW30949   0.215   2.374   4.422
10017SOL    HW130950   0.255   2.312   4.355
10017SOL    HW230951   0.186   2.458   4.376
10018SOL     OW30952   5.113   6.601   5.666
10018SOL    HW130953   5.174   6.526   5.639
10018SOL    HW230954   5.022   6.564   5.684
10019SOL     OW30955   1.676   0.991   2.684
10019SOL    HW130956   1.618   0.912   2.661
10019SOL    HW230957   1.649   1.069   2.628
10020SOL     OW30958   6.813   2.909   7.001
10020SOL    HW130959   6.733   2.963   6.974
10020SOL    HW230960   6.893   2.939   6.949
10021SOL     OW30961   5.148   2.967   1.557
10021SOL    HW130962   5.166   3.050   1.610
10021SOL    HW230963   5.060   2.929   1.585
10022SOL     OW30964   2.109   0.791   6.447
10022SOL    HW130965   2.096   0.695   6.424
10022SOL    HW230966   2.205   0.816   6.431
10023SOL     OW30967   0.432   2.944   0.821
10023SOL    HW130968   0.488   3.019   0.786
10023SOL    HW230969   0.371   2.978   0.892
10024SOL     OW30970   1.297   4.132   3.139
10024SOL    HW130971   1.309   4.190   3.058
10024SOL    HW230972   1.267   4.041   3.111
10025SOL     OW30973   0.615   0.899   1.013
10025SOL    HW130974   0.578   0.955   1.087
10025SOL    HW230975   0.630   0.956   0.932
10026SOL     OW30976   6.623   0.568   4.409
10026SOL    HW130977   6.674   0.613   4.336
10026SOL    HW230978   6.608   0.472   4.385
10027SOL     OW30979   5.943   2.667   5.966
10027SOL    HW130980   5.914   2.572   5.960
10027SOL    HW230981   5.975   2.699   5.876
10028SOL     OW30982   2.297   0.557   1.803
10028SOL    HW130983   2.356   0.546   1.883
10028SOL    HW230984   2.345   0.611   1.734
10029SOL     OW30985   4.293   1.108   4.216
10029SOL    HW130986   4.387   1.141   4.225
10029SOL    HW230987   4.274   1.091   4.119
10030SOL     OW30988   1.297   0.987   2.883
10030SOL    HW130989   1.296   1.067   2.822
10030SOL    HW230990   1.352   1.008   2.964
10031SOL     OW30991   6.340   4.963   3.627
10031SOL    HW130992   6.398   4.898   3.677
10031SOL    HW230993   6.254   4.918   3.603
10032SOL     OW30994   3.685   1.666   5.431
10032SOL    HW130995   3.618   1.610   5.383
10032SOL    HW230996   3.653   1.760   5.435
10033SOL     OW30997   5.089   3.026   3.988
10033SOL    HW130998   5.098   3.110   3.934
10033SOL    HW230999   5.072   2.949   3.927
10034SOL     OW31000   3.877   6.958   6.011
10034SOL    HW131001   3.906   6.924   5.922
10034SOL    HW231002   3.828   6.886   6.060
10035SOL     OW31003   0.436   6.878   3.341
10035SOL    HW131004   0.338   6.897   3.331
10035SOL    HW231005   0.462   6.806   3.276
10036SOL     OW31006   6.332   0.685   0.146
10036SOL    HW131007   6.304   0.603   0.096
10036SOL    HW231008   6.429   0.704   0.126
10037SOL     OW31009   6.652   6.866   1.213
10037SOL    HW131010   6.557   6.871   1.182
10037SOL    HW231011   6.654   6.861   1.313
10038SOL     OW31012   6.206   0.422   1.063
10038SOL    HW131013   6.276   0.366   1.106
10038SOL    HW231014   6.233   0.519   1.066
10039SOL     OW31015   4.214   0.281   3.400
10039SOL    HW131016   4.191   0.300   3.305
10039SOL    HW231017   4.313   0.290   3.413
10040SOL     OW31018   0.472   2.489   0.941
10040SOL    HW131019   0.423   2.467   1.026
10040SOL    HW231020   0.462   2.414   0.876
10041SOL     OW31021   1.368   6.746   0.598
10041SOL    HW131022   1.416   6.659   0.585
10041SOL    HW231023   1.280   6.730   0.642
10042SOL     OW31024   6.106   2.116   3.355
10042SOL    HW131025   6.010   2.143   3.341
10042SOL    HW231026   6.141   2.160   3.438
10043SOL     OW31027   1.590   2.913   5.206
10043SOL    HW131028   1.491   2.902   5.206
10043SOL    HW231029   1.615   3.000   5.164
10044SOL     OW31030   4.632   1.304   6.652
10044SOL    HW131031   4.539   1.270   6.668
10044SOL    HW231032   4.691   1.275   6.727
10045SOL     OW31033   2.785   1.163   0.976
10045SOL    HW131034   2.884   1.149   0.967
10045SOL    HW231035   2.766   1.216   1.058
10046SOL     OW31036   0.390   5.256   0.911
10046SOL    HW131037   0.470   5.206   0.877
10046SOL    HW231038   0.383   5.344   0.864
10047SOL     OW31039   1.590   3.264   0.674
10047SOL    HW131040   1.530   3.186   0.691
10047SOL    HW231041   1.662   3.267   0.743
10048SOL     OW31042   5.930   4.517   1.814
10048SOL    HW131043   5.928   4.617   1.805
10048SOL    HW231044   5.986   4.478   1.740
10049SOL     OW31045   6.412   1.630   4.995
10049SOL    HW131046   6.421   1.588   4.905
10049SOL    HW231047   6.415   1.558   5.065
10050SOL     OW31048   6.754   3.079   5.999
10050SOL    HW131049   6.707   2.992   6.013
10050SOL    HW231050   6.851   3.063   5.983
10051SOL     OW31051   2.371   1.702   4.205
10051SOL    HW131052   2.316   1.710   4.288
10051SOL    HW231053   2.315   1.662   4.132
10052SOL     OW31054   1.117   0.608   3.847
10052SOL    HW131055   1.178   0.572   3.918
10052SOL    HW231056   1.078   0.695   3.877
10053SOL     OW31057   6.002   5.030   3.364
10053SOL    HW131058   5.911   5.051   3.331
10053SOL    HW231059   6.065   5.103   3.337
10054SOL     OW31060   6.342   3.980   4.271
10054SOL    HW131061   6.261   3.921   4.272
10054SOL    HW231062   6.373   3.993   4.177
10055SOL     OW31063   1.857   1.847   6.867
10055SOL    HW131064   1.763   1.847   6.834
10055SOL    HW231065   1.880   1.937   6.905
10056SOL     OW31066   5.529   2.248   4.240
10056SOL    HW131067   5.544   2.157   4.201
10056SOL    HW231068   5.602   2.269   4.305
10057SOL     OW31069   6.045   4.508   5.309
10057SOL    HW131070   6.121   4.533   5.248
10057SOL    HW231071   6.077   4.442   5.377
10058SOL     OW31072   6.669   4.131   4.050
10058SOL    HW131073   6.594   4.076   4.013
10058SOL    HW231074   6.647   4.228   4.042
10059SOL     OW31075   4.875   6.276   0.029
10059SOL    HW131076   4.920   6.235   6.974
10059SOL    HW231077   4.817   6.351   7.025
10060SOL     OW31078   2.897   1.889   2.227
10060SOL    HW131079   2.935   1.982   2.229
10060SOL    HW231080   2.884   1.857   2.321
10061SOL     OW31081   3.841   6.589   2.706
10061SOL    HW131082   3.803   6.509   2.661
10061SOL    HW231083   3.875   6.653   2.636
10062SOL     OW31084   6.705   6.997   4.834
10062SOL    HW131085   6.729   0.058   4.880
10062SOL    HW231086   6.699   6.924   4.902
10063SOL     OW31087   3.350   2.075   4.896
10063SOL    HW131088   3.312   2.153   4.944
10063SOL    HW231089   3.303   1.992   4.924
10064SOL     OW31090   3.411   0.142   2.244
10064SOL    HW131091   3.364   0.168   2.160
10064SOL    HW231092   3.344   0.127   2.317
10065SOL     OW31093   0.139   1.797   2.015
10065SOL    HW131094   0.124   1.715   1.960
10065SOL    HW231095   0.080   1.870   1.984
10066SOL     OW31096   6.429   3.805   3.720
10066SOL    HW131097   6.411   3.707   3.726
10066SOL    HW231098   6.527   3.820   3.715
10067SOL     OW31099   6.371   3.712   5.544
10067SOL    HW131100   6.285   3.733   5.499
10067SOL    HW231101   6.431   3.793   5.541
10068SOL     OW31102   1.912   3.214   2.332
10068SOL    HW131103   1.961   3.300   2.346
10068SOL    HW231104   1.970   3.149   2.284
10069SOL     OW31105   3.051   4.983   1.740
10069SOL    HW131106   3.085   4.935   1.820
10069SOL    HW231107   2.951   4.979   1.738
10070SOL     OW31108   4.873   6.961   0.626
10070SOL    HW131109   4.972   6.976   0.629
10070SOL    HW231110   4.830   7.003   0.707
10071SOL     OW31111   5.623   0.608   5.645
10071SOL    HW131112   5.582   0.551   5.574
10071SOL    HW231113   5.584   0.583   5.734
10072SOL     OW31114   5.629   2.639   2.363
10072SOL    HW131115   5.602   2.543   2.357
10072SOL    HW231116   5.711   2.654   2.307
10073SOL     OW31117   5.607   6.474   5.508
10073SOL    HW131118   5.543   6.546   5.485
10073SOL    HW231119   5.701   6.506   5.491
10074SOL     OW31120   1.751   4.742   0.759
10074SOL    HW131121   1.682   4.812   0.776
10074SOL    HW231122   1.726   4.689   0.678
10075SOL     OW31123   1.332   2.967   1.838
10075SOL    HW131124   1.430   2.951   1.843
10075SOL    HW231125   1.314   3.066   1.842
10076SOL     OW31126   5.721   3.746   3.821
10076SOL    HW131127   5.646   3.809   3.841
10076SOL    HW231128   5.808   3.791   3.840
10077SOL     OW31129   4.164   3.746   6.404
10077SOL    HW131130   4.233   3.795   6.351
10077SOL    HW231131   4.176   3.766   6.502
10078SOL     OW31132   5.846   5.347   4.504
10078SOL    HW131133   5.828   5.434   4.459
10078SOL    HW231134   5.945   5.332   4.511
10079SOL     OW31135   5.262   4.894   2.696
10079SOL    HW131136   5.208   4.850   2.767
10079SOL    HW231137   5.351   4.848   2.688
10080SOL     OW31138   5.431   2.329   5.538
10080SOL    HW131139   5.344   2.353   5.581
10080SOL    HW231140   5.434   2.231   5.519
10081SOL     OW31141   2.014   4.968   6.677
10081SOL    HW131142   2.075   4.889   6.686
10081SOL    HW231143   1.952   4.953   6.599
10082SOL     OW31144   1.196   4.895   1.099
10082SOL    HW131145   1.189   4.985   1.141
10082SOL    HW231146   1.124   4.836   1.136
10083SOL     OW31147   2.883   6.097   2.950
10083SOL    HW131148   2.959   6.158   2.972
10083SOL    HW231149   2.850   6.117   2.858
10084SOL     OW31150   1.474   3.131   4.734
10084SOL    HW131151   1.496   3.203   4.800
10084SOL    HW231152   1.545   3.061   4.737
10085SOL     OW31153   4.469   6.572   1.715
10085SOL    HW131154   4.447   6.636   1.789
10085SOL    HW231155   4.413   6.490   1.723
10086SOL     OW31156   3.582   0.121   2.872
10086SOL    HW131157   3.497   0.091   2.917
10086SOL    HW231158   3.625   0.192   2.928
10087SOL     OW31159   1.741   5.506   5.412
10087SOL    HW131160   1.704   5.597   5.429
10087SOL    HW231161   1.835   5.501   5.445
10088SOL     OW31162   6.877   2.255   1.356
10088SOL    HW131163   6.954   2.247   1.292
10088SOL    HW231164   6.819   2.332   1.328
10089SOL     OW31165   4.400   6.675   1.971
10089SOL    HW131166   4.449   6.725   2.042
10089SOL    HW231167   4.402   6.577   1.991
10090SOL     OW31168   1.871   5.520   2.615
10090SOL    HW131169   1.825   5.439   2.579
10090SOL    HW231170   1.959   5.493   2.656
10091SOL     OW31171   5.232   4.730   3.788
10091SOL    HW131172   5.297   4.671   3.740
10091SOL    HW231173   5.142   4.722   3.746
10092SOL     OW31174   0.318   1.287   2.598
10092SOL    HW131175   0.272   1.201   2.620
10092SOL    HW231176   0.379   1.312   2.674
10093SOL     OW31177   4.561   3.696   6.458
10093SOL    HW131178   4.631   3.657   6.399
10093SOL    HW231179   4.471   3.663   6.430
10094SOL     OW31180   3.282   2.261   0.347
10094SOL    HW131181   3.335   2.227   0.425
10094SOL    HW231182   3.329   2.236   0.262
10095SOL     OW31183   4.721   2.720   5.534
10095SOL    HW131184   4.764   2.806   5.505
10095SOL    HW231185   4.792   2.652   5.552
10096SOL     OW31186   6.712   4.186   2.233
10096SOL    HW131187   6.774   4.229   2.167
10096SOL    HW231188   6.766   4.134   2.300
10097SOL     OW31189   0.975   1.753   0.975
10097SOL    HW131190   0.983   1.653   0.967
10097SOL    HW231191   0.886   1.782   0.939
10098SOL     OW31192   3.774   5.337   6.485
10098SOL    HW131193   3.784   5.414   6.548
10098SOL    HW231194   3.700   5.356   6.421
10099SOL     OW31195   0.397   5.983   3.461
10099SOL    HW131196   0.387   5.938   3.372
10099SOL    HW231197   0.391   5.914   3.534
10100SOL     OW31198   5.290   4.789   4.043
10100SOL    HW131199   5.268   4.764   3.948
10100SOL    HW231200   5.220   4.852   4.077
10101SOL     OW31201   0.242   2.497   6.919
10101SOL    HW131202   0.149   2.500   6.885
10101SOL    HW231203   0.271   2.589   6.946
10102SOL     OW31204   0.121   4.905   2.584
10102SOL    HW131205   0.196   4.889   2.647
10102SOL    HW231206   0.148   4.879   2.491
10103SOL     OW31207   6.845   6.944   6.650
10103SOL    HW131208   6.749   6.971   6.650
10103SOL    HW231209   6.897   7.006   6.708
10104SOL     OW31210   2.853   1.289   4.875
10104SOL    HW131211   2.770   1.328   4.915
10104SOL    HW231212   2.921   1.361   4.860
10105SOL     OW31213   3.209   1.553   4.174
10105SOL    HW131214   3.148   1.497   4.229
10105SOL    HW231215   3.302   1.518   4.182
10106SOL     OW31216   5.929   4.077   1.260
10106SOL    HW131217   5.896   4.079   1.354
10106SOL    HW231218   6.010   4.019   1.254
10107SOL     OW31219   5.407   6.101   6.447
10107SOL    HW131220   5.498   6.063   6.463
10107SOL    HW231221   5.414   6.184   6.391
10108SOL     OW31222   2.545   2.354   5.055
10108SOL    HW131223   2.518   2.406   5.136
10108SOL    HW231224   2.557   2.416   4.978
10109SOL     OW31225   1.096   3.261   1.072
10109SOL    HW131226   0.996   3.264   1.064
10109SOL    HW231227   1.126   3.168   1.092
10110SOL     OW31228   6.499   6.222   2.190
10110SOL    HW131229   6.436   6.217   2.112
10110SOL    HW231230   6.448   6.248   2.272
10111SOL     OW31231   6.696   2.735   1.956
10111SOL    HW131232   6.727   2.640   1.955
10111SOL    HW231233   6.632   2.749   1.880
10112SOL     OW31234   6.905   2.846   4.332
10112SOL    HW131235   6.968   2.915   4.368
10112SOL    HW231236   6.913   2.843   4.233
10113SOL     OW31237   6.963   5.876   5.754
10113SOL    HW131238   7.009   5.898   5.668
10113SOL    HW231239   7.019   5.812   5.806
10114SOL     OW31240   5.102   3.939   1.567
10114SOL    HW131241   5.143   4.021   1.529
10114SOL    HW231242   5.017   3.964   1.614
10115SOL     OW31243   3.679   2.381   6.424
10115SOL    HW131244   3.660   2.351   6.517
10115SOL    HW231245   3.617   2.456   6.399
10116SOL     OW31246   0.267   6.950   6.668
10116SOL    HW131247   0.310   6.864   6.643
10116SOL    HW231248   0.190   6.968   6.606
10117SOL     OW31249   0.132   4.603   1.175
10117SOL    HW131250   0.159   4.521   1.125
10117SOL    HW231251   0.079   4.663   1.115
10118SOL     OW31252   4.365   4.609   3.675
10118SOL    HW131253   4.288   4.605   3.738
10118SOL    HW231254   4.426   4.683   3.702
10119SOL     OW31255   5.956   5.925   6.878
10119SOL    HW131256   5.932   5.963   6.968
10119SOL    HW231257   5.930   5.828   6.875
10120SOL     OW31258   2.832   2.340   3.245
10120SOL    HW131259   2.774   2.410   3.203
10120SOL    HW231260   2.882   2.291   3.173
10121SOL     OW31261   6.228   5.636   1.897
10121SOL    HW131262   6.255   5.724   1.859
10121SOL    HW231263   6.149   5.648   1.958
10122SOL     OW31264   1.904   0.392   3.329
10122SOL    HW131265   1.944   0.312   3.374
10122SOL    HW231266   1.808   0.375   3.310
10123SOL     OW31267   6.371   6.219   6.524
10123SOL    HW131268   6.405   6.136   6.569
10123SOL    HW231269   6.448   6.275   6.494
10124SOL     OW31270   2.473   4.781   2.515
10124SOL    HW131271   2.485   4.685   2.488
10124SOL    HW231272   2.490   4.791   2.613
10125SOL     OW31273   1.577   1.522   4.569
10125SOL    HW131274   1.545   1.436   4.608
10125SOL    HW231275   1.539   1.534   4.477
10126SOL     OW31276   6.417   6.342   4.450
10126SOL    HW131277   6.333   6.363   4.500
10126SOL    HW231278   6.443   6.421   4.395
10127SOL     OW31279   2.294   0.534   4.960
10127SOL    HW131280   2.355   0.609   4.986
10127SOL    HW231281   2.207   0.572   4.927
10128SOL     OW31282   2.571   1.790   0.187
10128SOL    HW131283   2.604   1.884   0.184
10128SOL    HW231284   2.485   1.787   0.238
10129SOL     OW31285   6.761   1.915   5.103
10129SOL    HW131286   6.858   1.920   5.079
10129SOL    HW231287   6.712   1.861   5.035
10130SOL     OW31288   1.787   2.077   3.374
10130SOL    HW131289   1.696   2.038   3.369
10130SOL    HW231290   1.856   2.005   3.369
10131SOL     OW31291   2.180   0.500   5.285
10131SOL    HW131292   2.210   0.428   5.223
10131SOL    HW231293   2.120   0.564   5.236
10132SOL     OW31294   6.376   0.445   2.403
10132SOL    HW131295   6.422   0.415   2.486
10132SOL    HW231296   6.440   0.443   2.327
10133SOL     OW31297   4.360   5.347   1.179
10133SOL    HW131298   4.437   5.380   1.234
10133SOL    HW231299   4.323   5.264   1.220
10134SOL     OW31300   6.941   6.513   3.601
10134SOL    HW131301   6.943   6.426   3.650
10134SOL    HW231302   6.849   6.530   3.568
10135SOL     OW31303   6.301   6.815   3.734
10135SOL    HW131304   6.246   6.753   3.789
10135SOL    HW231305   6.390   6.830   3.779
10136SOL     OW31306   5.029   0.871   3.217
10136SOL    HW131307   5.053   0.968   3.223
10136SOL    HW231308   5.112   0.817   3.199
10137SOL     OW31309   6.831   5.675   3.246
10137SOL    HW131310   6.758   5.686   3.314
10137SOL    HW231311   6.917   5.656   3.292
10138SOL     OW31312   0.276   1.790   2.276
10138SOL    HW131313   0.265   1.887   2.299
10138SOL    HW231314   0.241   1.774   2.183
10139SOL     OW31315   3.361   2.732   0.268
10139SOL    HW131316   3.367   2.724   0.367
10139SOL    HW231317   3.435   2.679   0.226
10140SOL     OW31318   6.174   6.387   4.574
10140SOL    HW131319   6.125   6.430   4.650
10140SOL    HW231320   6.151   6.434   4.489
10141SOL     OW31321   1.222   1.870   4.571
10141SOL    HW131322   1.305   1.927   4.575
10141SOL    HW231323   1.222   1.807   4.649
10142SOL     OW31324   4.168   6.042   2.017
10142SOL    HW131325   4.168   5.954   1.970
10142SOL    HW231326   4.240   6.100   1.979
10143SOL     OW31327   5.883   3.459   6.798
10143SOL    HW131328   5.864   3.453   6.699
10143SOL    HW231329   5.908   3.369   6.832
10144SOL     OW31330   3.856   0.582   0.791
10144SOL    HW131331   3.845   0.569   0.890
10144SOL    HW231332   3.794   0.654   0.759
10145SOL     OW31333   6.669   0.351   5.211
10145SOL    HW131334   6.744   0.376   5.273
10145SOL    HW231335   6.610   0.430   5.197
10146SOL     OW31336   1.475   2.337   5.607
10146SOL    HW131337   1.438   2.378   5.690
10146SOL    HW231338   1.467   2.237   5.611
10147SOL     OW31339   3.752   5.493   0.140
10147SOL    HW131340   3.769   5.423   0.208
10147SOL    HW231341   3.696   5.566   0.179
10148SOL     OW31342   0.637   5.244   6.402
10148SOL    HW131343   0.665   5.255   6.497
10148SOL    HW231344   0.547   5.199   6.399
10149SOL     OW31345   3.366   3.240   3.386
10149SOL    HW131346   3.324   3.204   3.469
10149SOL    HW231347   3.322   3.326   3.360
10150SOL     OW31348   5.262   4.155   1.448
10150SOL    HW131349   5.232   4.124   1.358
10150SOL    HW231350   5.235   4.250   1.462
10151SOL     OW31351   0.113   1.015   0.028
10151SOL    HW131352   0.059   0.952   6.998
10151SOL    HW231353   0.203   0.974   0.046
10152SOL     OW31354   3.626   6.065   3.552
10152SOL    HW131355   3.668   6.056   3.462
10152SOL    HW231356   3.599   6.160   3.566
10153SOL     OW31357   5.026   3.638   1.723
10153SOL    HW131358   4.998   3.543   1.710
10153SOL    HW231359   5.082   3.667   1.645
10154SOL     OW31360   4.539   5.293   5.467
10154SOL    HW131361   4.532   5.302   5.566
10154SOL    HW231362   4.510   5.202   5.440
10155SOL     OW31363   4.315   2.398   4.269
10155SOL    HW131364   4.260   2.383   4.351
10155SOL    HW231365   4.407   2.427   4.296
10156SOL     OW31366   3.538   1.971   6.424
10156SOL    HW131367   3.567   1.917   6.345
10156SOL    HW231368   3.484   2.049   6.393
10157SOL     OW31369   0.868   4.658   0.838
10157SOL    HW131370   0.815   4.575   0.851
10157SOL    HW231371   0.838   4.706   0.756
10158SOL     OW31372   5.645   4.678   0.036
10158SOL    HW131373   5.689   4.767   0.033
10158SOL    HW231374   5.667   4.632   0.122
10159SOL     OW31375   3.723   2.878   1.562
10159SOL    HW131376   3.625   2.868   1.547
10159SOL    HW231377   3.742   2.964   1.610
10160SOL     OW31378   0.155   3.928   2.267
10160SOL    HW131379   0.224   3.993   2.298
10160SOL    HW231380   0.194   3.868   2.198
10161SOL     OW31381   6.116   2.664   0.041
10161SOL    HW131382   6.146   2.626   0.128
10161SOL    HW231383   6.194   2.677   7.006
10162SOL     OW31384   2.094   2.503   2.460
10162SOL    HW131385   2.032   2.545   2.394
10162SOL    HW231386   2.182   2.550   2.457
10163SOL     OW31387   3.657   5.283   5.531
10163SOL    HW131388   3.585   5.267   5.598
10163SOL    HW231389   3.619   5.334   5.453
10164SOL     OW31390   0.000   0.793   4.254
10164SOL    HW131391   0.043   0.816   4.341
10164SOL    HW231392   0.031   0.703   4.225
10165SOL     OW31393   1.862   3.431   3.634
10165SOL    HW131394   1.841   3.528   3.648
10165SOL    HW231395   1.912   3.419   3.549
10166SOL     OW31396   3.115   6.496   3.358
10166SOL    HW131397   3.135   6.410   3.406
10166SOL    HW231398   3.037   6.483   3.297
10167SOL     OW31399   3.604   1.690   6.589
10167SOL    HW131400   3.661   1.762   6.627
10167SOL    HW231401   3.545   1.728   6.517
10168SOL     OW31402   0.849   1.331   6.436
10168SOL    HW131403   0.861   1.414   6.382
10168SOL    HW231404   0.937   1.285   6.445
10169SOL     OW31405   4.435   5.311   2.650
10169SOL    HW131406   4.475   5.226   2.616
10169SOL    HW231407   4.508   5.368   2.689
10170SOL     OW31408   4.742   6.318   0.463
10170SOL    HW131409   4.756   6.411   0.430
10170SOL    HW231410   4.792   6.305   0.549
10171SOL     OW31411   1.422   4.548   3.446
10171SOL    HW131412   1.480   4.485   3.395
10171SOL    HW231413   1.478   4.602   3.508
10172SOL     OW31414   1.087   1.391   3.046
10172SOL    HW131415   1.058   1.455   2.975
10172SOL    HW231416   1.185   1.375   3.040
10173SOL     OW31417   4.571   3.201   5.330
10173SOL    HW131418   4.658   3.204   5.281
10173SOL    HW231419   4.584   3.153   5.416
10174SOL     OW31420   5.068   4.740   1.664
10174SOL    HW131421   5.121   4.668   1.619
10174SOL    HW231422   5.106   4.758   1.755
10175SOL     OW31423   6.630   6.997   3.706
10175SOL    HW131424   6.697   6.936   3.665
10175SOL    HW231425   6.581   6.949   3.779
10176SOL     OW31426   0.309   0.916   4.876
10176SOL    HW131427   0.381   0.986   4.884
10176SOL    HW231428   0.322   0.846   4.946
10177SOL     OW31429   3.286   0.990   4.221
10177SOL    HW131430   3.223   1.032   4.286
10177SOL    HW231431   3.348   1.061   4.185
10178SOL     OW31432   6.618   1.265   2.238
10178SOL    HW131433   6.684   1.339   2.226
10178SOL    HW231434   6.627   1.227   2.330
10179SOL     OW31435   0.147   6.191   0.560
10179SOL    HW131436   0.197   6.210   0.476
10179SOL    HW231437   0.158   6.095   0.585
10180SOL     OW31438   2.758   0.139   6.140
10180SOL    HW131439   2.788   0.234   6.135
10180SOL    HW231440   2.838   0.079   6.136
10181SOL     OW31441   6.831   4.062   2.456
10181SOL    HW131442   6.799   4.030   2.545
10181SOL    HW231443   6.930   4.080   2.460
10182SOL     OW31444   4.042   6.705   6.803
10182SOL    HW131445   4.019   6.673   6.894
10182SOL    HW231446   4.070   6.801   6.807
10183SOL     OW31447   3.778   6.125   6.300
10183SOL    HW131448   3.797   6.041   6.250
10183SOL    HW231449   3.864   6.176   6.313
10184SOL     OW31450   5.108   2.486   4.979
10184SOL    HW131451   5.090   2.418   5.051
10184SOL    HW231452   5.108   2.578   5.019
10185SOL     OW31453   3.127   4.788   1.988
10185SOL    HW131454   3.047   4.731   2.000
10185SOL    HW231455   3.186   4.749   1.918
10186SOL     OW31456   3.239   2.809   1.086
10186SOL    HW131457   3.190   2.876   1.142
10186SOL    HW231458   3.228   2.718   1.126
10187SOL     OW31459   2.027   3.816   5.829
10187SOL    HW131460   1.979   3.903   5.832
10187SOL    HW231461   2.018   3.775   5.738
10188SOL     OW31462   2.001   0.631   6.697
10188SOL    HW131463   1.927   0.655   6.635
10188SOL    HW231464   2.040   0.714   6.736
10189SOL     OW31465   1.771   1.785   5.620
10189SOL    HW131466   1.727   1.830   5.697
10189SOL    HW231467   1.726   1.813   5.535
10190SOL     OW31468   4.066   3.690   0.667
10190SOL    HW131469   4.164   3.710   0.675
10190SOL    HW231470   4.043   3.675   0.571
10191SOL     OW31471   5.810   0.585   0.543
10191SOL    HW131472   5.739   0.607   0.477
10191SOL    HW231473   5.875   0.521   0.503
10192SOL     OW31474   2.573   0.200   4.049
10192SOL    HW131475   2.579   0.140   4.129
10192SOL    HW231476   2.480   0.235   4.041
10193SOL     OW31477   3.556   3.794   3.788
10193SOL    HW131478   3.524   3.763   3.698
10193SOL    HW231479   3.543   3.720   3.855
10194SOL     OW31480   3.191   5.924   3.800
10194SOL    HW131481   3.159   5.870   3.878
10194SOL    HW231482   3.203   5.864   3.721
10195SOL     OW31483   5.225   0.495   3.014
10195SOL    HW131484   5.275   0.562   3.070
10195SOL    HW231485   5.139   0.472   3.059
10196SOL     OW31486   4.811   4.220   3.960
10196SOL    HW131487   4.799   4.122   3.970
10196SOL    HW231488   4.786   4.266   4.045
10197SOL     OW31489   4.646   2.210   2.852
10197SOL    HW131490   4.647   2.110   2.851
10197SOL    HW231491   4.657   2.244   2.758
10198SOL     OW31492   3.010   1.654   2.087
10198SOL    HW131493   2.949   1.719   2.133
10198SOL    HW231494   2.994   1.658   1.988
10199SOL     OW31495   0.810   2.071   6.870
10199SOL    HW131496   0.712   2.079   6.852
10199SOL    HW231497   0.859   2.143   6.821
10200SOL     OW31498   5.949   6.746   3.575
10200SOL    HW131499   5.910   6.831   3.540
10200SOL    HW231500   5.952   6.678   3.502
10201SOL     OW31501   1.395   4.702   2.087
10201SOL    HW131502   1.404   4.731   1.992
10201SOL    HW231503   1.396   4.602   2.092
10202SOL     OW31504   1.246   2.147   3.299
10202SOL    HW131505   1.162   2.138   3.354
10202SOL    HW231506   1.300   2.223   3.334
10203SOL     OW31507   0.397   2.003   1.261
10203SOL    HW131508   0.343   2.087   1.264
10203SOL    HW231509   0.394   1.959   1.351
10204SOL     OW31510   2.335   5.888   4.097
10204SOL    HW131511   2.333   5.813   4.031
10204SOL    HW231512   2.430   5.912   4.117
10205SOL     OW31513   3.520   0.193   1.219
10205SOL    HW131514   3.550   0.286   1.238
10205SOL    HW231515   3.453   0.193   1.145
10206SOL     OW31516   5.878   6.298   0.082
10206SOL    HW131517   5.820   6.338   0.010
10206SOL    HW231518   5.823   6.237   0.139
10207SOL     OW31519   3.757   1.182   2.431
10207SOL    HW131520   3.779   1.276   2.405
10207SOL    HW231521   3.685   1.148   2.370
10208SOL     OW31522   6.697   2.882   6.246
10208SOL    HW131523   6.788   2.854   6.216
10208SOL    HW231524   6.658   2.810   6.304
10209SOL     OW31525   3.386   6.390   0.018
10209SOL    HW131526   3.475   6.362   0.056
10209SOL    HW231527   3.358   6.476   0.059
10210SOL     OW31528   4.961   5.727   6.621
10210SOL    HW131529   5.045   5.700   6.574
10210SOL    HW231530   4.972   5.820   6.659
10211SOL     OW31531   3.865   5.577   5.665
10211SOL    HW131532   3.864   5.675   5.686
10211SOL    HW231533   3.816   5.527   5.736
10212SOL     OW31534   6.385   6.311   5.920
10212SOL    HW131535   6.482   6.331   5.931
10212SOL    HW231536   6.342   6.386   5.869
10213SOL     OW31537   3.816   6.981   4.800
10213SOL    HW131538   3.855   6.889   4.798
10213SOL    HW231539   3.717   6.975   4.804
10214SOL     OW31540   0.125   0.585   0.137
10214SOL    HW131541   0.137   0.628   0.047
10214SOL    HW231542   0.122   0.486   0.126
10215SOL     OW31543   4.371   2.392   0.272
10215SOL    HW131544   4.314   2.319   0.311
10215SOL    HW231545   4.350   2.401   0.175
10216SOL     OW31546   5.123   0.375   2.638
10216SOL    HW131547   5.078   0.343   2.721
10216SOL    HW231548   5.072   0.344   2.558
10217SOL     OW31549   3.686   2.379   5.336
10217SOL    HW131550   3.718   2.467   5.373
10217SOL    HW231551   3.589   2.367   5.359
10218SOL     OW31552   3.831   0.902   6.689
10218SOL    HW131553   3.855   0.989   6.648
10218SOL    HW231554   3.745   0.910   6.738
10219SOL     OW31555   0.921   5.120   0.386
10219SOL    HW131556   0.844   5.089   0.331
10219SOL    HW231557   1.002   5.130   0.327
10220SOL     OW31558   4.071   2.070   0.220
10220SOL    HW131559   4.066   2.143   0.288
10220SOL    HW231560   4.112   2.105   0.136
10221SOL     OW31561   2.496   0.730   4.161
10221SOL    HW131562   2.550   0.706   4.080
10221SOL    HW231563   2.413   0.777   4.133
10222SOL     OW31564   1.922   4.659   5.284
10222SOL    HW131565   1.951   4.566   5.265
10222SOL    HW231566   1.957   4.721   5.214
10223SOL     OW31567   0.888   4.965   6.214
10223SOL    HW131568   0.819   5.001   6.152
10223SOL    HW231569   0.964   5.029   6.221
10224SOL     OW31570   2.509   6.429   5.185
10224SOL    HW131571   2.585   6.364   5.189
10224SOL    HW231572   2.470   6.441   5.276
10225SOL     OW31573   5.217   6.816   4.429
10225SOL    HW131574   5.134   6.760   4.422
10225SOL    HW231575   5.281   6.773   4.492
10226SOL     OW31576   6.567   2.871   6.000
10226SOL    HW131577   6.470   2.874   6.022
10226SOL    HW231578   6.620   2.869   6.085
10227SOL     OW31579   4.831   4.395   5.480
10227SOL    HW131580   4.757   4.461   5.466
10227SOL    HW231581   4.864   4.403   5.574
10228SOL     OW31582   0.789   3.454   1.787
10228SOL    HW131583   0.795   3.377   1.723
10228SOL    HW231584   0.845   3.436   1.867
10229SOL     OW31585   3.121   0.523   1.729
10229SOL    HW131586   3.110   0.616   1.694
10229SOL    HW231587   3.102   0.457   1.657
10230SOL     OW31588   5.686   6.329   3.536
10230SOL    HW131589   5.621   6.396   3.501
10230SOL    HW231590   5.710   6.265   3.462
10231SOL     OW31591   4.657   6.198   4.293
10231SOL    HW131592   4.565   6.164   4.273
10231SOL    HW231593   4.660   6.296   4.275
10232SOL     OW31594   3.690   2.156   3.410
10232SOL    HW131595   3.732   2.184   3.496
10232SOL    HW231596   3.752   2.176   3.334
10233SOL     OW31597   4.836   6.218   5.668
10233SOL    HW131598   4.889   6.198   5.585
10233SOL    HW231599   4.750   6.168   5.666
10234SOL     OW31600   4.020   5.190   1.249
10234SOL    HW131601   3.937   5.155   1.293
10234SOL    HW231602   3.998   5.277   1.203
10235SOL     OW31603   5.200   0.484   0.151
10235SOL    HW131604   5.207   0.584   0.144
10235SOL    HW231605   5.215   0.443   0.061
10236SOL     OW31606   1.736   5.905   1.171
10236SOL    HW131607   1.753   6.001   1.193
10236SOL    HW231608   1.645   5.896   1.129
10237SOL     OW31609   5.758   2.344   2.666
10237SOL    HW131610   5.835   2.375   2.610
10237SOL    HW231611   5.724   2.420   2.721
10238SOL     OW31612   4.956   5.404   6.044
10238SOL    HW131613   4.923   5.482   6.097
10238SOL    HW231614   4.894   5.388   5.967
10239SOL     OW31615   5.810   3.180   4.720
10239SOL    HW131616   5.861   3.220   4.644
10239SOL    HW231617   5.772   3.254   4.776
10240SOL     OW31618   5.106   3.876   3.263
10240SOL    HW131619   5.094   3.910   3.170
10240SOL    HW231620   5.142   3.949   3.321
10241SOL     OW31621   1.036   2.589   2.607
10241SOL    HW131622   1.058   2.681   2.640
10241SOL    HW231623   0.968   2.548   2.668
10242SOL     OW31624   1.331   5.329   6.299
10242SOL    HW131625   1.401   5.390   6.264
10242SOL    HW231626   1.366   5.235   6.299
10243SOL     OW31627   0.684   5.792   2.998
10243SOL    HW131628   0.713   5.698   3.017
10243SOL    HW231629   0.724   5.854   3.067
10244SOL     OW31630   2.256   5.903   6.783
10244SOL    HW131631   2.319   5.968   6.739
10244SOL    HW231632   2.256   5.817   6.732
10245SOL     OW31633   2.522   3.215   1.026
10245SOL    HW131634   2.546   3.177   0.936
10245SOL    HW231635   2.426   3.243   1.026
10246SOL     OW31636   2.914   3.851   4.349
10246SOL    HW131637   2.967   3.922   4.303
10246SOL    HW231638   2.923   3.862   4.448
10247SOL     OW31639   0.935   6.118   6.265
10247SOL    HW131640   0.933   6.113   6.365
10247SOL    HW231641   0.956   6.028   6.228
10248SOL     OW31642   6.127   0.865   3.576
10248SOL    HW131643   6.163   0.821   3.659
10248SOL    HW231644   6.037   0.829   3.555
10249SOL     OW31645   4.942   0.728   6.024
10249SOL    HW131646   4.950   0.770   5.934
10249SOL    HW231647   4.847   0.734   6.055
10250SOL     OW31648   4.361   5.464   0.740
10250SOL    HW131649   4.367   5.414   0.653
10250SOL    HW231650   4.407   5.413   0.812
10251SOL     OW31651   4.007   4.388   1.594
10251SOL    HW131652   3.993   4.399   1.496
10251SOL    HW231653   3.923   4.412   1.643
10252SOL     OW31654   6.951   3.571   1.004
10252SOL    HW131655   6.988   3.535   1.089
10252SOL    HW231656   6.993   3.524   0.926
10253SOL     OW31657   3.889   4.514   0.790
10253SOL    HW131658   3.836   4.521   0.874
10253SOL    HW231659   3.972   4.460   0.807
10254SOL     OW31660   2.511   1.837   4.867
10254SOL    HW131661   2.423   1.790   4.858
10254SOL    HW231662   2.497   1.935   4.854
10255SOL     OW31663   3.137   5.265   3.766
10255SOL    HW131664   3.212   5.236   3.826
10255SOL    HW231665   3.163   5.351   3.721
10256SOL     OW31666   5.053   6.281   0.976
10256SOL    HW131667   5.106   6.241   0.901
10256SOL    HW231668   5.061   6.381   0.972
10257SOL     OW31669   1.695   5.273   5.884
10257SOL    HW131670   1.702   5.174   5.882
10257SOL    HW231671   1.771   5.311   5.937
10258SOL     OW31672   4.252   1.062   2.922
10258SOL    HW131673   4.200   0.985   2.959
10258SOL    HW231674   4.232   1.072   2.824
10259SOL     OW31675   7.012   3.175   4.163
10259SOL    HW131676   6.929   3.146   4.116
10259SOL    HW231677   7.015   3.134   4.254
10260SOL     OW31678   0.232   5.664   2.015
10260SOL    HW131679   0.199   5.746   2.060
10260SOL    HW231680   0.197   5.583   2.062
10261SOL     OW31681   2.361   0.192   1.904
10261SOL    HW131682   2.333   0.157   1.814
10261SOL    HW231683   2.416   0.275   1.892
10262SOL     OW31684   1.012   6.508   3.934
10262SOL    HW131685   1.002   6.585   3.871
10262SOL    HW231686   1.084   6.528   4.001
10263SOL     OW31687   6.653   3.276   4.830
10263SOL    HW131688   6.575   3.246   4.885
10263SOL    HW231689   6.720   3.321   4.889
10264SOL     OW31690   0.434   6.633   0.179
10264SOL    HW131691   0.360   6.584   0.133
10264SOL    HW231692   0.522   6.603   0.143
10265SOL     OW31693   4.963   2.439   3.792
10265SOL    HW131694   5.020   2.460   3.871
10265SOL    HW231695   4.991   2.351   3.753
10266SOL     OW31696   3.522   3.551   6.768
10266SOL    HW131697   3.474   3.575   6.684
10266SOL    HW231698   3.577   3.469   6.752
10267SOL     OW31699   6.316   1.105   6.564
10267SOL    HW131700   6.416   1.115   6.568
10267SOL    HW231701   6.275   1.154   6.641
10268SOL     OW31702   6.632   3.510   0.632
10268SOL    HW131703   6.630   3.515   0.732
10268SOL    HW231704   6.539   3.498   0.598
10269SOL     OW31705   4.138   1.368   6.296
10269SOL    HW131706   4.222   1.314   6.300
10269SOL    HW231707   4.136   1.433   6.373
10270SOL     OW31708   3.384   5.640   2.502
10270SOL    HW131709   3.342   5.664   2.414
10270SOL    HW231710   3.418   5.722   2.546
10271SOL     OW31711   1.983   4.594   1.779
10271SOL    HW131712   1.926   4.610   1.859
10271SOL    HW231713   1.964   4.665   1.711
10272SOL     OW31714   1.461   1.997   4.178
10272SOL    HW131715   1.559   1.998   4.160
10272SOL    HW231716   1.417   2.072   4.128
10273SOL     OW31717   4.210   6.472   3.819
10273SOL    HW131718   4.188   6.378   3.796
10273SOL    HW231719   4.131   6.516   3.860
10274SOL     OW31720   2.819   4.928   6.438
10274SOL    HW131721   2.841   4.986   6.517
10274SOL    HW231722   2.861   4.838   6.450
10275SOL     OW31723   0.819   6.474   1.564
10275SOL    HW131724   0.885   6.487   1.638
10275SOL    HW231725   0.727   6.492   1.598
10276SOL     OW31726   0.994   6.880   0.557
10276SOL    HW131727   0.986   6.919   0.648
10276SOL    HW231728   0.906   6.844   0.527
10277SOL     OW31729   0.203   5.919   2.108
10277SOL    HW131730   0.194   5.907   2.207
10277SOL    HW231731   0.126   5.972   2.074
10278SOL     OW31732   6.439   0.928   5.995
10278SOL    HW131733   6.471   1.002   6.055
10278SOL    HW231734   6.425   0.845   6.049
10279SOL     OW31735   3.426   6.330   4.802
10279SOL    HW131736   3.329   6.336   4.776
10279SOL    HW231737   3.483   6.350   4.723
10280SOL     OW31738   2.704   2.928   0.270
10280SOL    HW131739   2.624   2.988   0.257
10280SOL    HW231740   2.781   2.964   0.217
10281SOL     OW31741   4.863   0.910   4.423
10281SOL    HW131742   4.868   1.004   4.389
10281SOL    HW231743   4.906   0.849   4.357
10282SOL     OW31744   1.221   2.832   3.991
10282SOL    HW131745   1.229   2.869   4.084
10282SOL    HW231746   1.272   2.746   3.985
10283SOL     OW31747   1.449   5.040   5.854
10283SOL    HW131748   1.364   5.002   5.818
10283SOL    HW231749   1.453   5.138   5.833
10284SOL     OW31750   5.389   2.906   6.949
10284SOL    HW131751   5.485   2.910   6.919
10284SOL    HW231752   5.343   2.991   6.924
10285SOL     OW31753   5.267   1.739   1.327
10285SOL    HW131754   5.355   1.776   1.356
10285SOL    HW231755   5.194   1.803   1.353
10286SOL     OW31756   4.207   0.565   4.299
10286SOL    HW131757   4.231   0.473   4.329
10286SOL    HW231758   4.290   0.619   4.285
10287SOL     OW31759   1.897   4.439   2.040
10287SOL    HW131760   1.879   4.522   2.093
10287SOL    HW231761   1.813   4.408   1.996
10288SOL     OW31762   4.283   6.260   4.473
10288SOL    HW131763   4.238   6.245   4.561
10288SOL    HW231764   4.378   6.285   4.488
10289SOL     OW31765   2.997   1.743   1.821
10289SOL    HW131766   3.044   1.831   1.817
10289SOL    HW231767   3.051   1.674   1.773
10290SOL     OW31768   3.368   3.034   3.156
10290SOL    HW131769   3.442   2.966   3.154
10290SOL    HW231770   3.387   3.101   3.228
10291SOL     OW31771   3.642   0.735   4.694
10291SOL    HW131772   3.692   0.776   4.771
10291SOL    HW231773   3.600   0.649   4.724
10292SOL     OW31774   6.804   2.452   4.371
10292SOL    HW131775   6.790   2.490   4.280
10292SOL    HW231776   6.716   2.443   4.418
10293SOL     OW31777   2.652   4.777   2.942
10293SOL    HW131778   2.704   4.817   3.018
10293SOL    HW231779   2.556   4.804   2.949
10294SOL     OW31780   6.175   1.063   3.190
10294SOL    HW131781   6.238   1.007   3.243
10294SOL    HW231782   6.093   1.010   3.169
10295SOL     OW31783   1.764   4.044   4.400
10295SOL    HW131784   1.795   4.124   4.348
10295SOL    HW231785   1.670   4.022   4.375
10296SOL     OW31786   6.515   3.267   2.023
10296SOL    HW131787   6.436   3.211   1.999
10296SOL    HW231788   6.519   3.347   1.963
10297SOL     OW31789   3.286   4.889   5.303
10297SOL    HW131790   3.244   4.980   5.312
10297SOL    HW231791   3.214   4.820   5.305
10298SOL     OW31792   6.158   2.997   2.997
10298SOL    HW131793   6.125   2.958   2.912
10298SOL    HW231794   6.256   2.979   3.007
10299SOL     OW31795   4.624   4.645   2.344
10299SOL    HW131796   4.652   4.586   2.268
10299SOL    HW231797   4.546   4.604   2.390
10300SOL     OW31798   0.785   6.182   1.686
10300SOL    HW131799   0.848   6.259   1.678
10300SOL    HW231800   0.766   6.145   1.595
10301SOL     OW31801   4.589   0.189   1.893
10301SOL    HW131802   4.667   0.169   1.952
10301SOL    HW231803   4.581   0.117   1.824
10302SOL     OW31804   1.661   3.863   3.559
10302SOL    HW131805   1.717   3.945   3.546
10302SOL    HW231806   1.565   3.885   3.540
10303SOL     OW31807   4.585   2.754   1.008
10303SOL    HW131808   4.564   2.745   1.105
10303SOL    HW231809   4.508   2.797   0.961
10304SOL     OW31810   5.830   6.167   3.304
10304SOL    HW131811   5.793   6.150   3.212
10304SOL    HW231812   5.926   6.141   3.306
10305SOL     OW31813   1.961   5.509   1.170
10305SOL    HW131814   2.039   5.458   1.133
10305SOL    HW231815   1.971   5.518   1.269
10306SOL     OW31816   4.400   4.318   0.139
10306SOL    HW131817   4.334   4.371   0.087
10306SOL    HW231818   4.352   4.252   0.196
10307SOL     OW31819   2.229   1.908   5.586
10307SOL    HW131820   2.199   1.888   5.493
10307SOL    HW231821   2.329   1.915   5.588
10308SOL     OW31822   2.637   5.161   4.190
10308SOL    HW131823   2.668   5.067   4.207
10308SOL    HW231824   2.540   5.168   4.213
10309SOL     OW31825   0.155   6.360   3.699
10309SOL    HW131826   0.176   6.440   3.644
10309SOL    HW231827   0.145   6.387   3.795
10310SOL     OW31828   3.139   4.008   4.166
10310SOL    HW131829   3.157   4.078   4.097
10310SOL    HW231830   3.181   3.922   4.138
10311SOL     OW31831   0.696   0.674   0.835
10311SOL    HW131832   0.621   0.656   0.772
10311SOL    HW231833   0.684   0.765   0.875
10312SOL     OW31834   2.384   4.974   0.981
10312SOL    HW131835   2.395   5.044   0.910
10312SOL    HW231836   2.305   4.916   0.958
10313SOL     OW31837   6.828   5.707   3.851
10313SOL    HW131838   6.897   5.673   3.787
10313SOL    HW231839   6.820   5.644   3.928
10314SOL     OW31840   0.031   5.986   5.096
10314SOL    HW131841   0.019   6.070   5.148
10314SOL    HW231842   0.083   6.005   5.012
10315SOL     OW31843   4.500   6.457   5.895
10315SOL    HW131844   4.560   6.457   5.815
10315SOL    HW231845   4.410   6.494   5.869
10316SOL     OW31846   0.387   4.311   3.347
10316SOL    HW131847   0.364   4.404   3.319
10316SOL    HW231848   0.452   4.314   3.423
10317SOL     OW31849   5.073   3.934   6.662
10317SOL    HW131850   5.080   4.023   6.707
10317SOL    HW231851   5.150   3.877   6.689
10318SOL     OW31852   5.709   4.959   2.944
10318SOL    HW131853   5.743   4.934   2.853
10318SOL    HW231854   5.690   5.057   2.946
10319SOL     OW31855   4.993   6.363   3.975
10319SOL    HW131856   5.012   6.460   3.958
10319SOL    HW231857   5.011   6.342   4.071
10320SOL     OW31858   4.143   6.612   1.913
10320SOL    HW131859   4.230   6.659   1.927
10320SOL    HW231860   4.099   6.648   1.831
10321SOL     OW31861   4.656   6.165   4.575
10321SOL    HW131862   4.638   6.069   4.600
10321SOL    HW231863   4.641   6.177   4.477
10322SOL     OW31864   0.075   1.772   0.041
10322SOL    HW131865   0.066   1.688   7.014
10322SOL    HW231866   7.021   1.830   0.025
10323SOL     OW31867   0.996   2.237   5.303
10323SOL    HW131868   1.033   2.193   5.221
10323SOL    HW231869   0.897   2.244   5.295
10324SOL     OW31870   3.478   2.983   4.000
10324SOL    HW131871   3.384   2.978   4.035
10324SOL    HW231872   3.477   2.976   3.901
10325SOL     OW31873   0.646   3.646   3.735
10325SOL    HW131874   0.628   3.662   3.832
10325SOL    HW231875   0.619   3.726   3.682
10326SOL     OW31876   6.046   2.132   1.582
10326SOL    HW131877   5.997   2.054   1.622
10326SOL    HW231878   6.133   2.100   1.543
10327SOL     OW31879   6.296   1.682   3.310
10327SOL    HW131880   6.309   1.607   3.376
10327SOL    HW231881   6.337   1.656   3.223
10328SOL     OW31882   6.501   3.823   2.752
10328SOL    HW131883   6.544   3.752   2.696
10328SOL    HW231884   6.526   3.913   2.715
10329SOL     OW31885   3.321   5.607   3.290
10329SOL    HW131886   3.350   5.668   3.364
10329SOL    HW231887   3.345   5.513   3.313
10330SOL     OW31888   3.129   3.889   0.834
10330SOL    HW131889   3.144   3.798   0.873
10330SOL    HW231890   3.160   3.891   0.739
10331SOL     OW31891   5.424   1.253   4.311
10331SOL    HW131892   5.390   1.332   4.261
10331SOL    HW231893   5.355   1.181   4.311
10332SOL     OW31894   1.437   1.987   6.295
10332SOL    HW131895   1.424   1.941   6.383
10332SOL    HW231896   1.490   2.071   6.308
10333SOL     OW31897   6.826   4.577   5.606
10333SOL    HW131898   6.912   4.566   5.555
10333SOL    HW231899   6.751   4.539   5.552
10334SOL     OW31900   0.396   5.444   5.165
10334SOL    HW131901   0.462   5.401   5.103
10334SOL    HW231902   0.305   5.438   5.126
10335SOL     OW31903   3.552   5.156   3.377
10335SOL    HW131904   3.519   5.213   3.302
10335SOL    HW231905   3.634   5.197   3.417
10336SOL     OW31906   4.900   6.850   3.019
10336SOL    HW131907   4.841   6.930   3.011
10336SOL    HW231908   4.859   6.785   3.083
10337SOL     OW31909   1.390   4.119   6.263
10337SOL    HW131910   1.453   4.182   6.309
10337SOL    HW231911   1.436   4.077   6.185
10338SOL     OW31912   2.759   4.663   2.505
10338SOL    HW131913   2.787   4.712   2.423
10338SOL    HW231914   2.784   4.717   2.586
10339SOL     OW31915   2.948   5.917   0.189
10339SOL    HW131916   2.893   5.860   0.128
10339SOL    HW231917   3.038   5.875   0.201
10340SOL     OW31918   1.753   6.645   0.660
10340SOL    HW131919   1.684   6.706   0.700
10340SOL    HW231920   1.761   6.664   0.562
10341SOL     OW31921   0.814   2.591   1.912
10341SOL    HW131922   0.849   2.684   1.924
10341SOL    HW231923   0.723   2.584   1.953
10342SOL     OW31924   3.266   5.787   4.388
10342SOL    HW131925   3.298   5.718   4.453
10342SOL    HW231926   3.174   5.816   4.413
10343SOL     OW31927   2.371   2.649   4.834
10343SOL    HW131928   2.350   2.731   4.781
10343SOL    HW231929   2.464   2.620   4.813
10344SOL     OW31930   4.605   3.551   1.599
10344SOL    HW131931   4.583   3.645   1.625
10344SOL    HW231932   4.638   3.501   1.679
10345SOL     OW31933   3.499   1.625   6.321
10345SOL    HW131934   3.574   1.627   6.255
10345SOL    HW231935   3.495   1.535   6.364
10346SOL     OW31936   6.264   5.233   0.565
10346SOL    HW131937   6.360   5.205   0.576
10346SOL    HW231938   6.252   5.326   0.598
10347SOL     OW31939   4.281   0.095   1.744
10347SOL    HW131940   4.284   0.165   1.815
10347SOL    HW231941   4.369   0.047   1.741
10348SOL     OW31942   6.729   4.504   5.851
10348SOL    HW131943   6.734   4.566   5.929
10348SOL    HW231944   6.771   4.548   5.771
10349SOL     OW31945   6.198   2.076   6.949
10349SOL    HW131946   6.265   2.105   7.018
10349SOL    HW231947   6.242   2.019   6.880
10350SOL     OW31948   1.801   4.862   4.042
10350SOL    HW131949   1.881   4.908   4.005
10350SOL    HW231950   1.721   4.883   3.985
10351SOL     OW31951   3.691   5.179   4.978
10351SOL    HW131952   3.653   5.180   4.886
10351SOL    HW231953   3.640   5.114   5.034
10352SOL     OW31954   0.182   0.907   1.044
10352SOL    HW131955   0.165   1.004   1.027
10352SOL    HW231956   0.127   0.877   1.122
10353SOL     OW31957   5.801   2.944   3.631
10353SOL    HW131958   5.713   2.897   3.622
10353SOL    HW231959   5.802   2.997   3.716
10354SOL     OW31960   6.673   3.015   1.079
10354SOL    HW131961   6.728   3.021   1.163
10354SOL    HW231962   6.577   3.003   1.103
10355SOL     OW31963   0.631   1.923   0.874
10355SOL    HW131964   0.650   2.018   0.899
10355SOL    HW231965   0.703   1.889   0.814
10356SOL     OW31966   5.630   2.578   6.945
10356SOL    HW131967   5.674   2.492   6.967
10356SOL    HW231968   5.645   2.644   7.019
10357SOL     OW31969   0.874   0.532   6.243
10357SOL    HW131970   0.912   0.487   6.324
10357SOL    HW231971   0.788   0.488   6.218
10358SOL     OW31972   0.779   2.811   3.903
10358SOL    HW131973   0.854   2.750   3.929
10358SOL    HW231974   0.816   2.897   3.868
10359SOL     OW31975   0.760   2.654   2.405
10359SOL    HW131976   0.766   2.558   2.380
10359SOL    HW231977   0.842   2.702   2.374
10360SOL     OW31978   5.942   4.222   1.021
10360SOL    HW131979   5.925   4.168   1.104
10360SOL    HW231980   5.871   4.201   0.954
10361SOL     OW31981   5.941   1.547   2.295
10361SOL    HW131982   5.999   1.619   2.333
10361SOL    HW231983   5.984   1.458   2.310
10362SOL     OW31984   0.707   6.098   1.430
10362SOL    HW131985   0.801   6.066   1.419
10362SOL    HW231986   0.647   6.047   1.367
10363SOL     OW31987   5.331   4.848   6.205
10363SOL    HW131988   5.280   4.775   6.250
10363SOL    HW231989   5.287   4.872   6.118
10364SOL     OW31990   5.727   5.209   2.014
10364SOL    HW131991   5.803   5.274   2.016
10364SOL    HW231992   5.645   5.252   2.052
10365SOL     OW31993   6.219   5.869   6.802
10365SOL    HW131994   6.246   5.812   6.880
10365SOL    HW231995   6.125   5.900   6.814
10366SOL     OW31996   3.134   0.200   3.563
10366SOL    HW131997   3.054   0.245   3.602
10366SOL    HW231998   3.145   0.109   3.604
10367SOL     OW31999   5.750   6.296   1.963
10367SOL    HW132000   5.694   6.286   1.880
10367SOL    HW232001   5.690   6.314   2.041
10368SOL     OW32002   0.999   6.449   1.768
10368SOL    HW132003   1.085   6.457   1.717
10368SOL    HW232004   1.011   6.384   1.843
10369SOL     OW32005   2.549   0.482   5.539
10369SOL    HW132006   2.512   0.488   5.632
10369SOL    HW232007   2.624   0.547   5.529
10370SOL     OW32008   2.016   2.155   5.943
10370SOL    HW132009   1.934   2.212   5.947
10370SOL    HW232010   2.068   2.177   5.860
10371SOL     OW32011   4.083   5.347   3.696
10371SOL    HW132012   4.182   5.344   3.682
10371SOL    HW232013   4.037   5.368   3.610
10372SOL     OW32014   1.916   6.449   0.298
10372SOL    HW132015   1.897   6.445   0.396
10372SOL    HW232016   1.829   6.458   0.249
10373SOL     OW32017   6.544   0.496   6.797
10373SOL    HW132018   6.477   0.508   6.724
10373SOL    HW232019   6.617   0.564   6.786
10374SOL     OW32020   2.622   4.687   3.345
10374SOL    HW132021   2.618   4.616   3.416
10374SOL    HW232022   2.606   4.776   3.386
10375SOL     OW32023   2.271   5.551   6.942
10375SOL    HW132024   2.267   5.486   7.018
10375SOL    HW232025   2.179   5.579   6.917
10376SOL     OW32026   2.293   4.712   3.866
10376SOL    HW132027   2.231   4.640   3.899
10376SOL    HW232028   2.351   4.743   3.941
10377SOL     OW32029   2.422   0.659   3.450
10377SOL    HW132030   2.413   0.567   3.411
10377SOL    HW232031   2.504   0.663   3.507
10378SOL     OW32032   0.516   6.382   5.424
10378SOL    HW132033   0.607   6.415   5.451
10378SOL    HW232034   0.449   6.455   5.439
10379SOL     OW32035   1.520   6.453   3.519
10379SOL    HW132036   1.423   6.468   3.500
10379SOL    HW232037   1.534   6.441   3.617
10380SOL     OW32038   3.103   1.307   3.922
10380SOL    HW132039   3.147   1.374   3.862
10380SOL    HW232040   3.113   1.216   3.884
10381SOL     OW32041   3.859   0.118   2.913
10381SOL    HW132042   3.774   0.092   2.866
10381SOL    HW232043   3.840   0.190   2.979
10382SOL     OW32044   4.097   5.784   1.905
10382SOL    HW132045   4.141   5.702   1.941
10382SOL    HW232046   3.998   5.771   1.904
10383SOL     OW32047   0.264   6.559   6.994
10383SOL    HW132048   0.206   6.518   6.923
10383SOL    HW232049   0.320   6.631   6.954
10384SOL     OW32050   5.002   5.226   1.151
10384SOL    HW132051   5.070   5.181   1.093
10384SOL    HW232052   5.036   5.229   1.245
10385SOL     OW32053   4.257   4.500   7.004
10385SOL    HW132054   4.285   4.591   6.974
10385SOL    HW232055   4.158   4.490   6.991
10386SOL     OW32056   0.163   0.478   2.075
10386SOL    HW132057   0.119   0.487   1.986
10386SOL    HW232058   0.219   0.395   2.076
10387SOL     OW32059   5.252   2.691   2.058
10387SOL    HW132060   5.169   2.644   2.086
10387SOL    HW232061   5.293   2.644   1.980
10388SOL     OW32062   1.562   0.714   4.735
10388SOL    HW132063   1.557   0.616   4.717
10388SOL    HW232064   1.515   0.764   4.661
10389SOL     OW32065   0.338   3.573   0.165
10389SOL    HW132066   0.267   3.623   0.214
10389SOL    HW232067   0.419   3.566   0.224
10390SOL     OW32068   2.218   1.880   1.921
10390SOL    HW132069   2.280   1.805   1.897
10390SOL    HW232070   2.271   1.962   1.942
10391SOL     OW32071   6.367   6.873   3.232
10391SOL    HW132072   6.378   6.841   3.326
10391SOL    HW232073   6.429   6.821   3.172
10392SOL     OW32074   6.569   3.740   4.003
10392SOL    HW132075   6.651   3.684   3.989
10392SOL    HW232076   6.564   3.768   4.099
10393SOL     OW32077   1.984   2.678   2.253
10393SOL    HW132078   1.932   2.744   2.198
10393SOL    HW232079   2.059   2.640   2.198
10394SOL     OW32080   3.356   6.121   3.881
10394SOL    HW132081   3.311   6.133   3.969
10394SOL    HW232082   3.312   6.047   3.831
10395SOL     OW32083   0.989   0.923   1.273
10395SOL    HW132084   1.054   0.988   1.232
10395SOL    HW232085   0.945   0.870   1.201
10396SOL     OW32086   3.304   2.197   5.295
10396SOL    HW132087   3.232   2.246   5.245
10396SOL    HW232088   3.357   2.141   5.232
10397SOL     OW32089   5.054   1.354   3.889
10397SOL    HW132090   5.101   1.386   3.971
10397SOL    HW232091   5.017   1.432   3.839
10398SOL     OW32092   5.563   2.015   2.319
10398SOL    HW132093   5.508   1.955   2.377
10398SOL    HW232094   5.598   2.091   2.373
10399SOL     OW32095   0.654   3.978   2.442
10399SOL    HW132096   0.728   4.045   2.449
10399SOL    HW232097   0.573   4.021   2.403
10400SOL     OW32098   1.923   6.468   0.885
10400SOL    HW132099   1.907   6.526   0.804
10400SOL    HW232100   1.860   6.495   0.958
10401SOL     OW32101   0.204   0.440   5.866
10401SOL    HW132102   0.235   0.387   5.945
10401SOL    HW232103   0.283   0.469   5.813
10402SOL     OW32104   6.509   4.197   4.809
10402SOL    HW132105   6.418   4.237   4.793
10402SOL    HW232106   6.556   4.184   4.722
10403SOL     OW32107   3.142   0.320   0.947
10403SOL    HW132108   3.071   0.328   0.878
10403SOL    HW232109   3.126   0.385   1.021
10404SOL     OW32110   0.065   6.478   5.845
10404SOL    HW132111   0.047   6.406   5.912
10404SOL    HW232112   0.138   6.537   5.878
10405SOL     OW32113   0.345   2.509   6.580
10405SOL    HW132114   0.270   2.445   6.567
10405SOL    HW232115   0.415   2.494   6.509
10406SOL     OW32116   1.481   5.889   1.083
10406SOL    HW132117   1.400   5.834   1.062
10406SOL    HW232118   1.501   5.949   1.005
10407SOL     OW32119   2.108   6.226   5.828
10407SOL    HW132120   2.051   6.161   5.878
10407SOL    HW232121   2.111   6.313   5.877
10408SOL     OW32122   4.909   0.811   0.276
10408SOL    HW132123   4.849   0.735   0.300
10408SOL    HW232124   4.953   0.792   0.188
10409SOL     OW32125   5.932   3.783   0.962
10409SOL    HW132126   5.977   3.705   1.006
10409SOL    HW232127   6.000   3.834   0.909
10410SOL     OW32128   4.310   0.285   0.127
10410SOL    HW132129   4.372   0.298   0.049
10410SOL    HW232130   4.345   0.337   0.205
10411SOL     OW32131   1.864   5.017   4.639
10411SOL    HW132132   1.882   5.042   4.734
10411SOL    HW232133   1.765   5.019   4.623
10412SOL     OW32134   5.043   6.645   1.069
10412SOL    HW132135   5.031   6.627   1.167
10412SOL    HW232136   4.972   6.598   1.017
10413SOL     OW32137   6.072   3.222   2.666
10413SOL    HW132138   5.978   3.255   2.669
10413SOL    HW232139   6.075   3.126   2.695
10414SOL     OW32140   4.926   2.815   4.613
10414SOL    HW132141   4.991   2.808   4.537
10414SOL    HW232142   4.872   2.898   4.603
10415SOL     OW32143   0.544   0.931   6.315
10415SOL    HW132144   0.585   1.020   6.294
10415SOL    HW232145   0.613   0.873   6.359
10416SOL     OW32146   5.325   2.810   3.690
10416SOL    HW132147   5.288   2.882   3.632
10416SOL    HW232148   5.262   2.791   3.765
10417SOL     OW32149   1.787   4.087   2.908
10417SOL    HW132150   1.847   4.051   2.979
10417SOL    HW232151   1.749   4.175   2.938
10418SOL     OW32152   1.576   5.585   5.878
10418SOL    HW132153   1.516   5.523   5.828
10418SOL    HW232154   1.589   5.551   5.971
10419SOL     OW32155   0.939   1.239   0.295
10419SOL    HW132156   0.949   1.319   0.355
10419SOL    HW232157   0.843   1.212   0.291
10420SOL     OW32158   0.047   2.563   2.831
10420SOL    HW132159   0.077   2.639   2.774
10420SOL    HW232160   0.127   2.513   2.865
10421SOL     OW32161   0.300   1.732   3.044
10421SOL    HW132162   0.330   1.639   3.066
10421SOL    HW232163   0.333   1.757   2.953
10422SOL     OW32164   5.377   3.723   6.069
10422SOL    HW132165   5.448   3.653   6.076
10422SOL    HW232166   5.365   3.767   6.158
10423SOL     OW32167   4.838   4.270   2.746
10423SOL    HW132168   4.816   4.216   2.666
10423SOL    HW232169   4.760   4.270   2.810
10424SOL     OW32170   4.909   1.198   6.336
10424SOL    HW132171   4.952   1.281   6.372
10424SOL    HW232172   4.953   1.172   6.250
10425SOL     OW32173   1.883   6.881   1.564
10425SOL    HW132174   1.786   6.870   1.542
10425SOL    HW232175   1.892   6.917   1.657
10426SOL     OW32176   6.252   4.364   0.390
10426SOL    HW132177   6.263   4.383   0.488
10426SOL    HW232178   6.269   4.267   0.373
10427SOL     OW32179   4.950   0.923   0.918
10427SOL    HW132180   4.854   0.922   0.945
10427SOL    HW232181   4.997   0.843   0.956
10428SOL     OW32182   4.388   0.889   3.535
10428SOL    HW132183   4.294   0.897   3.501
10428SOL    HW232184   4.442   0.966   3.500
10429SOL     OW32185   5.865   5.811   1.839
10429SOL    HW132186   5.903   5.811   1.746
10429SOL    HW232187   5.833   5.720   1.862
10430SOL     OW32188   4.181   6.200   3.363
10430SOL    HW132189   4.251   6.198   3.292
10430SOL    HW232190   4.114   6.271   3.342
10431SOL     OW32191   2.332   1.414   4.864
10431SOL    HW132192   2.318   1.449   4.772
10431SOL    HW232193   2.251   1.433   4.920
10432SOL     OW32194   4.915   1.014   4.919
10432SOL    HW132195   4.883   1.022   4.825
10432SOL    HW232196   5.014   1.014   4.921
10433SOL     OW32197   2.935   6.744   0.975
10433SOL    HW132198   3.011   6.779   0.921
10433SOL    HW232199   2.953   6.761   1.072
10434SOL     OW32200   2.765   2.049   4.715
10434SOL    HW132201   2.856   2.011   4.731
10434SOL    HW232202   2.739   2.107   4.792
10435SOL     OW32203   5.576   5.336   6.616
10435SOL    HW132204   5.492   5.353   6.667
10435SOL    HW232205   5.650   5.314   6.679
10436SOL     OW32206   1.160   0.273   2.568
10436SOL    HW132207   1.120   0.191   2.526
10436SOL    HW232208   1.207   0.327   2.498
10437SOL     OW32209   0.186   4.460   5.843
10437SOL    HW132210   0.198   4.416   5.754
10437SOL    HW232211   0.096   4.437   5.880
10438SOL     OW32212   3.559   0.130   5.802
10438SOL    HW132213   3.484   0.134   5.867
10438SOL    HW232214   3.637   0.182   5.837
10439SOL     OW32215   3.817   1.103   5.393
10439SOL    HW132216   3.850   1.148   5.476
10439SOL    HW232217   3.856   1.011   5.387
10440SOL     OW32218   1.620   5.996   0.823
10440SOL    HW132219   1.634   6.084   0.867
10440SOL    HW232220   1.696   5.976   0.761
10441SOL     OW32221   4.014   7.006   0.465
10441SOL    HW132222   4.051   0.071   0.442
10441SOL    HW232223   3.927   7.017   0.513
10442SOL     OW32224   4.462   6.054   5.449
10442SOL    HW132225   4.522   6.077   5.372
10442SOL    HW232226   4.429   5.960   5.437
10443SOL     OW32227   6.261   2.902   4.766
10443SOL    HW132228   6.213   2.831   4.714
10443SOL    HW232229   6.242   2.991   4.725
10444SOL     OW32230   3.596   5.013   4.742
10444SOL    HW132231   3.691   4.991   4.766
10444SOL    HW232232   3.536   4.990   4.819
10445SOL     OW32233   6.231   6.074   2.695
10445SOL    HW132234   6.138   6.103   2.717
10445SOL    HW232235   6.236   5.975   2.695
10446SOL     OW32236   0.817   6.289   6.667
10446SOL    HW132237   0.792   6.362   6.603
10446SOL    HW232238   0.736   6.265   6.721
10447SOL     OW32239   5.888   1.854   0.873
10447SOL    HW132240   5.800   1.810   0.859
10447SOL    HW232241   5.962   1.786   0.866
10448SOL     OW32242   3.420   3.843   2.169
10448SOL    HW132243   3.520   3.838   2.166
10448SOL    HW232244   3.392   3.924   2.221
10449SOL     OW32245   1.541   5.511   4.570
10449SOL    HW132246   1.580   5.589   4.619
10449SOL    HW232247   1.613   5.445   4.549
10450SOL     OW32248   6.978   3.184   0.879
10450SOL    HW132249   6.881   3.165   0.860
10450SOL    HW232250   7.015   3.112   0.938
10451SOL     OW32251   2.303   4.387   2.456
10451SOL    HW132252   2.375   4.432   2.404
10451SOL    HW232253   2.308   4.415   2.552
10452SOL     OW32254   1.426   3.164   5.183
10452SOL    HW132255   1.494   3.215   5.235
10452SOL    HW232256   1.344   3.152   5.238
10453SOL     OW32257   4.846   0.744   1.231
10453SOL    HW132258   4.809   0.652   1.239
10453SOL    HW232259   4.824   0.782   1.142
10454SOL     OW32260   5.061   3.688   2.186
10454SOL    HW132261   4.986   3.754   2.175
10454SOL    HW232262   5.081   3.677   2.283
10455SOL     OW32263   0.369   4.921   2.723
10455SOL    HW132264   0.449   4.882   2.768
10455SOL    HW232265   0.384   5.019   2.708
10456SOL     OW32266   3.513   6.107   1.637
10456SOL    HW132267   3.530   6.115   1.538
10456SOL    HW232268   3.505   6.011   1.662
10457SOL     OW32269   3.578   3.324   3.770
10457SOL    HW132270   3.518   3.245   3.762
10457SOL    HW232271   3.603   3.357   3.679
10458SOL     OW32272   6.962   6.311   2.052
10458SOL    HW132273   6.872   6.345   2.025
10458SOL    HW232274   6.952   6.222   2.096
10459SOL     OW32275   7.014   5.206   1.827
10459SOL    HW132276   7.022   5.204   1.727
10459SOL    HW232277   6.923   5.176   1.854
10460SOL     OW32278   1.629   4.407   1.962
10460SOL    HW132279   1.554   4.467   1.987
10460SOL    HW232280   1.646   4.413   1.864
10461SOL     OW32281   2.929   1.108   6.296
10461SOL    HW132282   2.889   1.091   6.206
10461SOL    HW232283   3.018   1.152   6.285
10462SOL     OW32284   5.306   6.627   1.013
10462SOL    HW132285   5.208   6.648   1.021
10462SOL    HW232286   5.322   6.571   0.932
10463SOL     OW32287   3.201   3.377   1.443
10463SOL    HW132288   3.215   3.474   1.465
10463SOL    HW232289   3.279   3.344   1.390
10464SOL     OW32290   5.585   6.479   1.601
10464SOL    HW132291   5.503   6.517   1.644
10464SOL    HW232292   5.567   6.463   1.504
10465SOL     OW32293   0.052   5.154   4.737
10465SOL    HW132294   6.979   5.173   4.735
10465SOL    HW232295   0.066   5.056   4.755
10466SOL     OW32296   5.195   6.172   6.060
10466SOL    HW132297   5.183   6.163   5.961
10466SOL    HW232298   5.118   6.130   6.107
10467SOL     OW32299   4.714   1.340   3.814
10467SOL    HW132300   4.787   1.349   3.745
10467SOL    HW232301   4.667   1.427   3.824
10468SOL     OW32302   2.858   5.163   3.614
10468SOL    HW132303   2.914   5.127   3.539
10468SOL    HW232304   2.916   5.215   3.677
10469SOL     OW32305   1.088   5.159   6.827
10469SOL    HW132306   1.153   5.213   6.774
10469SOL    HW232307   1.095   5.062   6.801
10470SOL     OW32308   2.750   1.920   4.446
10470SOL    HW132309   2.775   1.941   4.351
10470SOL    HW232310   2.828   1.876   4.492
10471SOL     OW32311   4.262   4.012   0.219
10471SOL    HW132312   4.343   3.987   0.272
10471SOL    HW232313   4.206   3.931   0.201
10472SOL     OW32314   4.192   1.335   3.708
10472SOL    HW132315   4.150   1.426   3.713
10472SOL    HW232316   4.121   1.265   3.713
10473SOL     OW32317   4.560   5.378   6.941
10473SOL    HW132318   4.470   5.359   6.982
10473SOL    HW232319   4.625   5.400   7.013
10474SOL     OW32320   5.123   1.316   3.375
10474SOL    HW132321   5.190   1.243   3.364
10474SOL    HW232322   5.062   1.294   3.451
10475SOL     OW32323   4.870   6.294   1.777
10475SOL    HW132324   4.776   6.282   1.808
10475SOL    HW232325   4.886   6.390   1.753
10476SOL     OW32326   0.367   5.010   6.819
10476SOL    HW132327   0.424   4.931   6.798
10476SOL    HW232328   0.380   5.036   6.915
10477SOL     OW32329   4.644   4.378   5.073
10477SOL    HW132330   4.653   4.403   4.976
10477SOL    HW232331   4.734   4.360   5.111
10478SOL     OW32332   0.422   6.454   2.854
10478SOL    HW132333   0.487   6.524   2.884
10478SOL    HW232334   0.437   6.436   2.757
10479SOL     OW32335   1.049   4.473   1.871
10479SOL    HW132336   1.033   4.392   1.927
10479SOL    HW232337   0.963   4.519   1.854
10480SOL     OW32338   5.578   0.745   1.503
10480SOL    HW132339   5.571   0.653   1.543
10480SOL    HW232340   5.500   0.800   1.533
10481SOL     OW32341   2.512   1.126   4.247
10481SOL    HW132342   2.530   1.100   4.342
10481SOL    HW232343   2.414   1.129   4.231
10482SOL     OW32344   0.658   5.839   6.313
10482SOL    HW132345   0.701   5.774   6.376
10482SOL    HW232346   0.560   5.844   6.332
10483SOL     OW32347   6.392   5.670   0.903
10483SOL    HW132348   6.319   5.734   0.878
10483SOL    HW232349   6.353   5.579   0.918
10484SOL     OW32350   6.500   2.055   1.704
10484SOL    HW132351   6.477   2.076   1.799
10484SOL    HW232352   6.598   2.036   1.697
10485SOL     OW32353   3.449   4.191   4.095
10485SOL    HW132354   3.423   4.281   4.129
10485SOL    HW232355   3.502   4.143   4.165
10486SOL     OW32356   6.098   5.175   5.743
10486SOL    HW132357   6.101   5.075   5.736
10486SOL    HW232358   6.169   5.214   5.683
10487SOL     OW32359   5.360   2.990   2.900
10487SOL    HW132360   5.349   2.979   2.999
10487SOL    HW232361   5.424   3.065   2.881
10488SOL     OW32362   0.348   2.336   4.948
10488SOL    HW132363   0.282   2.266   4.976
10488SOL    HW232364   0.339   2.352   4.849
10489SOL     OW32365   5.806   4.413   3.481
10489SOL    HW132366   5.765   4.475   3.548
10489SOL    HW232367   5.844   4.334   3.528
10490SOL     OW32368   5.476   6.378   6.594
10490SOL    HW132369   5.478   6.279   6.611
10490SOL    HW232370   5.563   6.418   6.623
10491SOL     OW32371   2.193   3.213   5.710
10491SOL    HW132372   2.166   3.228   5.805
10491SOL    HW232373   2.218   3.300   5.668
10492SOL     OW32374   2.707   6.196   0.486
10492SOL    HW132375   2.726   6.104   0.520
10492SOL    HW232376   2.613   6.200   0.451
10493SOL     OW32377   3.845   5.409   0.821
10493SOL    HW132378   3.933   5.455   0.806
10493SOL    HW232379   3.853   5.349   0.901
10494SOL     OW32380   0.286   4.666   4.193
10494SOL    HW132381   0.213   4.728   4.221
10494SOL    HW232382   0.278   4.647   4.095
10495SOL     OW32383   6.963   0.215   0.678
10495SOL    HW132384   0.006   0.250   0.742
10495SOL    HW232385   6.898   0.156   0.727
10496SOL     OW32386   0.571   4.646   6.389
10496SOL    HW132387   0.486   4.614   6.347
10496SOL    HW232388   0.649   4.598   6.349
10497SOL     OW32389   3.140   6.627   1.588
10497SOL    HW132390   3.163   6.647   1.683
10497SOL    HW232391   3.224   6.613   1.535
10498SOL     OW32392   3.776   3.380   6.710
10498SOL    HW132393   3.767   3.390   6.611
10498SOL    HW232394   3.865   3.415   6.739
10499SOL     OW32395   4.427   4.541   2.473
10499SOL    HW132396   4.357   4.596   2.427
10499SOL    HW232397   4.426   4.561   2.571
10500SOL     OW32398   1.681   3.309   4.842
10500SOL    HW132399   1.738   3.269   4.770
10500SOL    HW232400   1.626   3.383   4.804
10501SOL     OW32401   3.904   4.864   3.516
10501SOL    HW132402   3.913   4.962   3.533
10501SOL    HW232403   3.809   4.843   3.491
10502SOL     OW32404   2.960   3.534   2.500
10502SOL    HW132405   3.015   3.458   2.534
10502SOL    HW232406   2.992   3.561   2.409
10503SOL     OW32407   6.619   1.177   0.176
10503SOL    HW132408   6.709   1.181   0.133
10503SOL    HW232409   6.631   1.161   0.274
10504SOL     OW32410   1.613   3.937   5.550
10504SOL    HW132411   1.549   3.920   5.625
10504SOL    HW232412   1.578   3.894   5.466
10505SOL     OW32413   6.313   6.540   0.920
10505SOL    HW132414   6.225   6.506   0.886
10505SOL    HW232415   6.339   6.622   0.868
10506SOL     OW32416   1.430   4.525   5.761
10506SOL    HW132417   1.365   4.599   5.742
10506SOL    HW232418   1.495   4.555   5.831
10507SOL     OW32419   1.305   6.224   5.801
10507SOL    HW132420   1.250   6.193   5.723
10507SOL    HW232421   1.268   6.185   5.885
10508SOL     OW32422   1.717   6.353   0.704
10508SOL    HW132423   1.676   6.444   0.692
10508SOL    HW232424   1.679   6.291   0.636
10509SOL     OW32425   4.838   2.999   2.745
10509SOL    HW132426   4.931   3.011   2.779
10509SOL    HW232427   4.779   2.966   2.818
10510SOL     OW32428   5.390   5.977   3.173
10510SOL    HW132429   5.420   5.924   3.094
10510SOL    HW232430   5.430   6.068   3.170
10511SOL     OW32431   4.234   1.562   1.130
10511SOL    HW132432   4.181   1.600   1.054
10511SOL    HW232433   4.172   1.525   1.199
10512SOL     OW32434   4.135   1.498   5.755
10512SOL    HW132435   4.152   1.523   5.850
10512SOL    HW232436   4.222   1.487   5.707
10513SOL     OW32437   3.268   3.562   0.749
10513SOL    HW132438   3.324   3.580   0.829
10513SOL    HW232439   3.211   3.481   0.765
10514SOL     OW32440   1.388   5.515   1.449
10514SOL    HW132441   1.400   5.614   1.446
10514SOL    HW232442   1.295   5.494   1.478
10515SOL     OW32443   2.081   3.720   4.889
10515SOL    HW132444   2.120   3.660   4.959
10515SOL    HW232445   2.124   3.702   4.801
10516SOL     OW32446   5.448   1.616   1.987
10516SOL    HW132447   5.495   1.534   2.019
10516SOL    HW232448   5.504   1.661   1.917
10517SOL     OW32449   0.809   1.937   2.166
10517SOL    HW132450   0.738   1.933   2.235
10517SOL    HW232451   0.768   1.926   2.075
10518SOL     OW32452   0.621   6.372   2.191
10518SOL    HW132453   0.613   6.284   2.144
10518SOL    HW232454   0.530   6.413   2.201
10519SOL     OW32455   2.972   6.764   1.251
10519SOL    HW132456   3.022   6.678   1.236
10519SOL    HW232457   2.876   6.743   1.270
10520SOL     OW32458   1.764   2.593   6.293
10520SOL    HW132459   1.774   2.652   6.214
10520SOL    HW232460   1.826   2.514   6.284
10521SOL     OW32461   6.409   2.371   3.063
10521SOL    HW132462   6.326   2.382   3.007
10521SOL    HW232463   6.405   2.286   3.114
10522SOL     OW32464   5.468   1.437   3.981
10522SOL    HW132465   5.375   1.455   4.012
10522SOL    HW232466   5.473   1.448   3.881
10523SOL     OW32467   0.519   3.968   1.714
10523SOL    HW132468   0.616   3.994   1.723
10523SOL    HW232469   0.465   4.049   1.691
10524SOL     OW32470   6.531   6.013   4.904
10524SOL    HW132471   6.460   6.055   4.961
10524SOL    HW232472   6.560   5.927   4.946
10525SOL     OW32473   4.581   1.068   3.796
10525SOL    HW132474   4.553   1.105   3.708
10525SOL    HW232475   4.644   1.131   3.840
10526SOL     OW32476   0.942   5.948   5.930
10526SOL    HW132477   0.857   5.926   5.882
10526SOL    HW232478   0.950   5.892   6.012
10527SOL     OW32479   0.054   6.332   5.595
10527SOL    HW132480   0.088   6.367   5.682
10527SOL    HW232481   6.979   6.339   5.593
10528SOL     OW32482   1.785   5.114   5.226
10528SOL    HW132483   1.865   5.169   5.248
10528SOL    HW232484   1.702   5.162   5.254
10529SOL     OW32485   0.168   4.998   0.511
10529SOL    HW132486   0.110   4.916   0.512
10529SOL    HW232487   0.264   4.970   0.518
10530SOL     OW32488   6.758   0.337   0.951
10530SOL    HW132489   6.854   0.353   0.970
10530SOL    HW232490   6.729   0.250   0.992
10531SOL     OW32491   3.467   2.511   6.339
10531SOL    HW132492   3.434   2.516   6.244
10531SOL    HW232493   3.389   2.514   6.401
10532SOL     OW32494   4.582   6.046   5.692
10532SOL    HW132495   4.537   6.058   5.604
10532SOL    HW232496   4.656   5.979   5.683
10533SOL     OW32497   4.093   6.732   3.614
10533SOL    HW132498   4.099   6.749   3.515
10533SOL    HW232499   4.029   6.657   3.631
10534SOL     OW32500   1.387   6.643   3.800
10534SOL    HW132501   1.416   6.666   3.893
10534SOL    HW232502   1.419   6.552   3.777
10535SOL     OW32503   3.907   1.776   2.780
10535SOL    HW132504   3.818   1.768   2.736
10535SOL    HW232505   3.975   1.725   2.726
10536SOL     OW32506   5.963   3.785   4.477
10536SOL    HW132507   6.039   3.721   4.482
10536SOL    HW232508   5.884   3.748   4.526
10537SOL     OW32509   3.876   1.169   3.377
10537SOL    HW132510   3.848   1.115   3.297
10537SOL    HW232511   3.952   1.229   3.352
10538SOL     OW32512   6.459   2.615   3.565
10538SOL    HW132513   6.412   2.698   3.536
10538SOL    HW232514   6.537   2.598   3.505
10539SOL     OW32515   6.815   6.762   3.274
10539SOL    HW132516   6.720   6.790   3.256
10539SOL    HW232517   6.816   6.687   3.340
10540SOL     OW32518   1.757   4.036   6.959
10540SOL    HW132519   1.842   4.002   6.919
10540SOL    HW232520   1.681   4.016   6.897
10541SOL     OW32521   3.386   2.515   5.728
10541SOL    HW132522   3.481   2.496   5.754
10541SOL    HW232523   3.334   2.542   5.809
10542SOL     OW32524   4.113   6.499   2.522
10542SOL    HW132525   4.025   6.452   2.517
10542SOL    HW232526   4.152   6.486   2.613
10543SOL     OW32527   2.189   2.582   4.228
10543SOL    HW132528   2.117   2.529   4.274
10543SOL    HW232529   2.272   2.580   4.283
10544SOL     OW32530   2.860   1.813   2.483
10544SOL    HW132531   2.804   1.819   2.565
10544SOL    HW232532   2.895   1.720   2.473
10545SOL     OW32533   1.771   3.385   1.912
10545SOL    HW132534   1.809   3.294   1.924
10545SOL    HW232535   1.675   3.378   1.884
10546SOL     OW32536   2.626   6.974   5.292
10546SOL    HW132537   2.538   7.003   5.330
10546SOL    HW232538   2.620   6.972   5.192
10547SOL     OW32539   3.647   6.243   6.067
10547SOL    HW132540   3.702   6.226   6.149
10547SOL    HW232541   3.637   6.342   6.054
10548SOL     OW32542   0.767   5.949   3.228
10548SOL    HW132543   0.753   6.048   3.230
10548SOL    HW232544   0.863   5.929   3.251
10549SOL     OW32545   6.956   0.660   2.685
10549SOL    HW132546   6.888   0.663   2.612
10549SOL    HW232547   6.921   0.709   2.765
10550SOL     OW32548   5.517   6.225   3.176
10550SOL    HW132549   5.536   6.304   3.117
10550SOL    HW232550   5.523   6.254   3.272
10551SOL     OW32551   4.310   0.790   4.865
10551SOL    HW132552   4.232   0.730   4.845
10551SOL    HW232553   4.345   0.769   4.956
10552SOL     OW32554   2.624   6.274   3.579
10552SOL    HW132555   2.551   6.276   3.647
10552SOL    HW232556   2.712   6.272   3.624
10553SOL     OW32557   5.527   5.653   1.246
10553SOL    HW132558   5.540   5.653   1.345
10553SOL    HW232559   5.431   5.639   1.225
10554SOL     OW32560   5.931   6.079   1.987
10554SOL    HW132561   5.911   6.002   1.927
10554SOL    HW232562   5.883   6.161   1.954
10555SOL     OW32563   3.563   3.325   1.655
10555SOL    HW132564   3.554   3.367   1.564
10555SOL    HW232565   3.612   3.387   1.716
10556SOL     OW32566   2.699   1.864   2.058
10556SOL    HW132567   2.723   1.917   1.977
10556SOL    HW232568   2.765   1.883   2.131
10557SOL     OW32569   1.035   4.311   3.239
10557SOL    HW132570   0.946   4.276   3.270
10557SOL    HW232571   1.051   4.284   3.145
10558SOL     OW32572   4.135   4.794   4.536
10558SOL    HW132573   4.049   4.842   4.517
10558SOL    HW232574   4.166   4.818   4.628
10559SOL     OW32575   3.511   5.808   1.383
10559SOL    HW132576   3.414   5.835   1.381
10559SOL    HW232577   3.531   5.763   1.470
10560SOL     OW32578   5.817   6.966   3.496
10560SOL    HW132579   5.781   7.021   3.421
10560SOL    HW232580   5.833   7.025   3.576
10561SOL     OW32581   0.904   5.346   6.144
10561SOL    HW132582   0.972   5.272   6.143
10561SOL    HW232583   0.848   5.340   6.062
10562SOL     OW32584   3.906   6.035   2.437
10562SOL    HW132585   3.971   6.075   2.371
10562SOL    HW232586   3.874   5.947   2.402
10563SOL     OW32587   1.565   6.327   2.065
10563SOL    HW132588   1.618   6.346   2.147
10563SOL    HW232589   1.517   6.411   2.037
10564SOL     OW32590   5.426   4.613   3.243
10564SOL    HW132591   5.347   4.552   3.243
10564SOL    HW232592   5.417   4.679   3.317
10565SOL     OW32593   0.535   1.291   5.047
10565SOL    HW132594   0.442   1.287   5.082
10565SOL    HW232595   0.557   1.206   4.998
10566SOL     OW32596   3.788   2.058   1.188
10566SOL    HW132597   3.739   2.019   1.265
10566SOL    HW232598   3.726   2.112   1.132
10567SOL     OW32599   2.490   2.864   6.340
10567SOL    HW132600   2.583   2.883   6.370
10567SOL    HW232601   2.458   2.779   6.382
10568SOL     OW32602   5.071   2.187   5.776
10568SOL    HW132603   5.023   2.203   5.862
10568SOL    HW232604   5.167   2.212   5.787
10569SOL     OW32605   5.377   0.275   1.198
10569SOL    HW132606   5.277   0.275   1.196
10569SOL    HW232607   5.412   0.288   1.105
10570SOL     OW32608   1.385   3.794   3.500
10570SOL    HW132609   1.302   3.796   3.444
10570SOL    HW232610   1.437   3.712   3.479
10571SOL     OW32611   0.219   3.978   5.944
10571SOL    HW132612   0.242   4.018   5.856
10571SOL    HW232613   0.292   3.996   6.009
10572SOL     OW32614   6.259   4.362   0.725
10572SOL    HW132615   6.247   4.364   0.824
10572SOL    HW232616   6.177   4.324   0.682
10573SOL     OW32617   6.800   2.094   3.527
10573SOL    HW132618   6.757   2.101   3.437
10573SOL    HW232619   6.775   2.007   3.569
10574SOL     OW32620   5.573   2.172   2.565
10574SOL    HW132621   5.643   2.221   2.618
10574SOL    HW232622   5.560   2.081   2.604
10575SOL     OW32623   5.496   6.910   2.895
10575SOL    HW132624   5.447   6.918   2.808
10575SOL    HW232625   5.430   6.897   2.969
10576SOL     OW32626   1.143   3.283   5.011
10576SOL    HW132627   1.088   3.366   5.026
10576SOL    HW232628   1.170   3.245   5.100
10577SOL     OW32629   3.697   4.287   0.153
10577SOL    HW132630   3.714   4.264   0.249
10577SOL    HW232631   3.755   4.230   0.094
10578SOL     OW32632   1.173   3.613   2.849
10578SOL    HW132633   1.260   3.567   2.862
10578SOL    HW232634   1.155   3.623   2.751
10579SOL     OW32635   6.987   2.946   6.793
10579SOL    HW132636   6.946   2.903   6.713
10579SOL    HW232637   0.061   2.941   6.787
10580SOL     OW32638   5.375   6.133   6.836
10580SOL    HW132639   5.318   6.175   6.765
10580SOL    HW232640   5.433   6.063   6.794
10581SOL     OW32641   4.804   0.716   3.218
10581SOL    HW132642   4.892   0.762   3.206
10581SOL    HW232643   4.741   0.778   3.264
10582SOL     OW32644   6.622   3.216   6.910
10582SOL    HW132645   6.551   3.280   6.936
10582SOL    HW232646   6.691   3.263   6.855
10583SOL     OW32647   4.246   2.107   5.534
10583SOL    HW132648   4.290   2.037   5.479
10583SOL    HW232649   4.315   2.173   5.564
10584SOL     OW32650   0.183   0.821   3.624
10584SOL    HW132651   0.226   0.780   3.543
10584SOL    HW232652   0.251   0.831   3.696
10585SOL     OW32653   1.454   0.981   5.601
10585SOL    HW132654   1.411   1.070   5.588
10585SOL    HW232655   1.501   0.954   5.517
10586SOL     OW32656   4.234   3.937   5.691
10586SOL    HW132657   4.185   3.853   5.669
10586SOL    HW232658   4.308   3.917   5.756
10587SOL     OW32659   1.959   5.114   4.855
10587SOL    HW132660   2.052   5.098   4.824
10587SOL    HW232661   1.948   5.078   4.948
10588SOL     OW32662   1.459   4.035   4.016
10588SOL    HW132663   1.423   4.109   4.072
10588SOL    HW232664   1.535   3.991   4.063
10589SOL     OW32665   6.345   6.980   3.524
10589SOL    HW132666   6.303   6.918   3.591
10589SOL    HW232667   6.413   0.013   3.571
10590SOL     OW32668   0.898   5.644   2.146
10590SOL    HW132669   0.986   5.651   2.193
10590SOL    HW232670   0.867   5.735   2.120
10591SOL     OW32671   6.650   4.322   2.507
10591SOL    HW132672   6.725   4.340   2.571
10591SOL    HW232673   6.679   4.255   2.440
10592SOL     OW32674   0.115   2.605   4.712
10592SOL    HW132675   0.105   2.654   4.799
10592SOL    HW232676   0.030   2.613   4.660
10593SOL     OW32677   3.640   5.834   3.688
10593SOL    HW132678   3.685   5.807   3.773
10593SOL    HW232679   3.695   5.904   3.642
10594SOL     OW32680   3.542   5.813   4.108
10594SOL    HW132681   3.473   5.808   4.035
10594SOL    HW232682   3.519   5.889   4.169
10595SOL     OW32683   4.811   6.511   0.991
10595SOL    HW132684   4.729   6.527   0.937
10595SOL    HW232685   4.793   6.440   1.059
10596SOL     OW32686   5.371   3.968   0.536
10596SOL    HW132687   5.394   3.873   0.515
10596SOL    HW232688   5.338   3.975   0.630
10597SOL     OW32689   1.763   6.975   4.982
10597SOL    HW132690   1.783   6.919   5.062
10597SOL    HW232691   1.790   6.926   4.899
10598SOL     OW32692   3.374   1.003   0.596
10598SOL    HW132693   3.351   0.963   0.507
10598SOL    HW232694   3.469   0.978   0.619
10599SOL     OW32695   0.721   2.291   0.717
10599SOL    HW132696   0.737   2.237   0.800
10599SOL    HW232697   0.623   2.294   0.697
10600SOL     OW32698   4.327   0.947   1.773
10600SOL    HW132699   4.367   0.874   1.829
10600SOL    HW232700   4.366   0.944   1.681
10601SOL     OW32701   1.913   1.325   4.861
10601SOL    HW132702   1.887   1.374   4.779
10601SOL    HW232703   1.892   1.227   4.850
10602SOL     OW32704   6.484   6.574   1.537
10602SOL    HW132705   6.560   6.509   1.538
10602SOL    HW232706   6.408   6.538   1.591
10603SOL     OW32707   6.060   0.602   2.937
10603SOL    HW132708   6.028   0.686   2.891
10603SOL    HW232709   6.098   0.540   2.869
10604SOL     OW32710   5.258   2.027   5.211
10604SOL    HW132711   5.264   2.115   5.259
10604SOL    HW232712   5.336   1.970   5.236
10605SOL     OW32713   3.910   1.878   1.713
10605SOL    HW132714   3.891   1.787   1.750
10605SOL    HW232715   3.889   1.947   1.782
10606SOL     OW32716   6.434   1.758   0.072
10606SOL    HW132717   6.496   1.723   0.001
10606SOL    HW232718   6.361   1.692   0.088
10607SOL     OW32719   3.067   4.760   0.800
10607SOL    HW132720   3.092   4.671   0.838
10607SOL    HW232721   3.028   4.817   0.872
10608SOL     OW32722   5.636   3.858   2.811
10608SOL    HW132723   5.625   3.876   2.713
10608SOL    HW232724   5.615   3.941   2.862
10609SOL     OW32725   6.348   6.891   6.502
10609SOL    HW132726   6.291   6.973   6.494
10609SOL    HW232727   6.331   6.831   6.423
10610SOL     OW32728   0.703   1.381   3.023
10610SOL    HW132729   0.721   1.472   3.060
10610SOL    HW232730   0.606   1.360   3.030
10611SOL     OW32731   4.445   4.990   4.998
10611SOL    HW132732   4.371   4.928   4.976
10611SOL    HW232733   4.487   5.024   4.914
10612SOL     OW32734   6.312   2.842   3.537
10612SOL    HW132735   6.219   2.820   3.566
10612SOL    HW232736   6.309   2.908   3.462
10613SOL     OW32737   5.000   5.503   5.006
10613SOL    HW132738   5.037   5.589   4.972
10613SOL    HW232739   4.948   5.520   5.090
10614SOL     OW32740   3.924   2.227   6.739
10614SOL    HW132741   3.988   2.150   6.736
10614SOL    HW232742   3.855   2.210   6.809
10615SOL     OW32743   2.690   2.600   5.349
10615SOL    HW132744   2.654   2.694   5.346
10615SOL    HW232745   2.614   2.535   5.352
10616SOL     OW32746   1.601   5.896   0.155
10616SOL    HW132747   1.516   5.851   0.126
10616SOL    HW232748   1.675   5.871   0.094
10617SOL     OW32749   1.417   2.688   0.821
10617SOL    HW132750   1.430   2.787   0.810
10617SOL    HW232751   1.368   2.652   0.742
10618SOL     OW32752   0.646   5.241   4.346
10618SOL    HW132753   0.636   5.142   4.341
10618SOL    HW232754   0.624   5.282   4.258
10619SOL     OW32755   1.217   3.047   1.208
10619SOL    HW132756   1.150   2.973   1.201
10619SOL    HW232757   1.299   3.023   1.157
10620SOL     OW32758   3.484   0.793   5.667
10620SOL    HW132759   3.399   0.795   5.613
10620SOL    HW232760   3.478   0.861   5.740
10621SOL     OW32761   0.518   3.910   3.698
10621SOL    HW132762   0.434   3.886   3.746
10621SOL    HW232763   0.501   3.912   3.599
10622SOL     OW32764   4.141   2.223   6.124
10622SOL    HW132765   4.177   2.205   6.033
10622SOL    HW232766   4.201   2.289   6.171
10623SOL     OW32767   5.328   5.349   5.704
10623SOL    HW132768   5.267   5.413   5.752
10623SOL    HW232769   5.396   5.401   5.652
10624SOL     OW32770   0.300   1.920   6.393
10624SOL    HW132771   0.280   1.949   6.300
10624SOL    HW232772   0.221   1.938   6.451
10625SOL     OW32773   6.101   5.759   0.598
10625SOL    HW132774   6.004   5.786   0.594
10625SOL    HW232775   6.155   5.822   0.542
10626SOL     OW32776   5.919   3.090   2.274
10626SOL    HW132777   5.831   3.123   2.240
10626SOL    HW232778   5.947   3.009   2.223
10627SOL     OW32779   5.778   4.744   5.314
10627SOL    HW132780   5.724   4.785   5.240
10627SOL    HW232781   5.717   4.706   5.383
10628SOL     OW32782   2.643   6.018   0.791
10628SOL    HW132783   2.579   6.004   0.867
10628SOL    HW232784   2.640   5.939   0.730
10629SOL     OW32785   4.514   5.015   4.216
10629SOL    HW132786   4.554   4.949   4.152
10629SOL    HW232787   4.428   4.979   4.251
10630SOL     OW32788   3.963   0.633   1.343
10630SOL    HW132789   4.025   0.589   1.407
10630SOL    HW232790   3.998   0.724   1.319
10631SOL     OW32791   3.670   5.676   1.830
10631SOL    HW132792   3.695   5.708   1.922
10631SOL    HW232793   3.609   5.597   1.838
10632SOL     OW32794   5.914   6.987   3.924
10632SOL    HW132795   5.918   0.025   3.847
10632SOL    HW232796   5.882   0.009   4.006
10633SOL     OW32797   2.440   3.165   0.268
10633SOL    HW132798   2.498   3.137   0.191
10633SOL    HW232799   2.414   3.084   0.321
10634SOL     OW32800   1.040   4.520   7.006
10634SOL    HW132801   0.991   4.475   0.055
10634SOL    HW232802   1.138   4.508   7.019
10635SOL     OW32803   3.308   5.111   6.382
10635SOL    HW132804   3.350   5.188   6.431
10635SOL    HW232805   3.319   5.124   6.284
10636SOL     OW32806   6.120   3.027   0.563
10636SOL    HW132807   6.206   2.978   0.578
10636SOL    HW232808   6.049   2.963   0.534
10637SOL     OW32809   2.851   1.060   6.004
10637SOL    HW132810   2.833   1.124   5.930
10637SOL    HW232811   2.802   0.974   5.986
10638SOL     OW32812   5.012   5.224   0.456
10638SOL    HW132813   5.064   5.138   0.457
10638SOL    HW232814   4.943   5.220   0.384
10639SOL     OW32815   6.250   4.833   0.572
10639SOL    HW132816   6.190   4.824   0.652
10639SOL    HW232817   6.210   4.783   0.495
10640SOL     OW32818   3.927   6.496   4.288
10640SOL    HW132819   3.951   6.512   4.384
10640SOL    HW232820   3.985   6.424   4.251
10641SOL     OW32821   1.174   1.383   3.297
10641SOL    HW132822   1.122   1.403   3.214
10641SOL    HW232823   1.270   1.370   3.273
10642SOL     OW32824   0.129   2.225   6.122
10642SOL    HW132825   0.193   2.264   6.188
10642SOL    HW232826   0.169   2.231   6.030
10643SOL     OW32827   2.904   5.486   5.783
10643SOL    HW132828   2.939   5.397   5.754
10643SOL    HW232829   2.902   5.489   5.883
10644SOL     OW32830   7.002   3.635   2.847
10644SOL    HW132831   6.946   3.582   2.911
10644SOL    HW232832   6.958   3.637   2.757
10645SOL     OW32833   2.318   2.654   3.091
10645SOL    HW132834   2.271   2.624   3.009
10645SOL    HW232835   2.271   2.734   3.129
10646SOL     OW32836   4.925   0.715   3.561
10646SOL    HW132837   4.899   0.752   3.472
10646SOL    HW232838   4.886   0.771   3.633
10647SOL     OW32839   3.840   5.392   4.989
10647SOL    HW132840   3.819   5.441   4.904
10647SOL    HW232841   3.781   5.313   4.997
10648SOL     OW32842   4.602   4.047   5.432
10648SOL    HW132843   4.508   4.073   5.411
10648SOL    HW232844   4.619   3.953   5.400
10649SOL     OW32845   6.123   3.209   3.687
10649SOL    HW132846   6.154   3.139   3.752
10649SOL    HW232847   6.080   3.165   3.608
10650SOL     OW32848   0.282   6.722   2.804
10650SOL    HW132849   0.358   6.698   2.744
10650SOL    HW232850   0.246   6.812   2.778
10651SOL     OW32851   2.391   6.279   5.860
10651SOL    HW132852   2.309   6.226   5.836
10651SOL    HW232853   2.472   6.222   5.850
10652SOL     OW32854   2.354   0.641   6.988
10652SOL    HW132855   2.348   0.624   6.890
10652SOL    HW232856   2.324   0.561   0.013
10653SOL     OW32857   5.327   6.372   4.672
10653SOL    HW132858   5.379   6.442   4.722
10653SOL    HW232859   5.335   6.389   4.574
10654SOL     OW32860   6.644   1.320   3.899
10654SOL    HW132861   6.691   1.377   3.966
10654SOL    HW232862   6.647   1.225   3.928
10655SOL     OW32863   6.955   4.829   0.605
10655SOL    HW132864   6.932   4.857   0.698
10655SOL    HW232865   6.903   4.884   0.540
10656SOL     OW32866   5.880   1.598   5.489
10656SOL    HW132867   5.828   1.564   5.411
10656SOL    HW232868   5.958   1.652   5.458
10657SOL     OW32869   4.735   6.890   5.481
10657SOL    HW132870   4.804   6.921   5.546
10657SOL    HW232871   4.772   6.894   5.389
10658SOL     OW32872   0.674   1.612   5.668
10658SOL    HW132873   0.628   1.525   5.651
10658SOL    HW232874   0.746   1.600   5.736
10659SOL     OW32875   6.710   5.383   0.470
10659SOL    HW132876   6.750   5.442   0.540
10659SOL    HW232877   6.621   5.418   0.443
10660SOL     OW32878   5.920   3.013   6.537
10660SOL    HW132879   5.967   2.925   6.538
10660SOL    HW232880   5.822   2.999   6.527
10661SOL     OW32881   3.576   5.769   5.658
10661SOL    HW132882   3.550   5.705   5.730
10661SOL    HW232883   3.656   5.820   5.686
10662SOL     OW32884   3.538   1.431   1.117
10662SOL    HW132885   3.446   1.469   1.126
10662SOL    HW232886   3.545   1.346   1.169
10663SOL     OW32887   0.322   2.924   3.573
10663SOL    HW132888   0.306   2.959   3.481
10663SOL    HW232889   0.341   2.826   3.570
10664SOL     OW32890   1.333   6.258   4.641
10664SOL    HW132891   1.277   6.239   4.560
10664SOL    HW232892   1.282   6.232   4.723
10665SOL     OW32893   3.209   3.399   0.443
10665SOL    HW132894   3.168   3.394   0.534
10665SOL    HW232895   3.305   3.429   0.452
10666SOL     OW32896   4.114   3.822   1.102
10666SOL    HW132897   4.053   3.827   1.181
10666SOL    HW232898   4.086   3.747   1.043
10667SOL     OW32899   5.709   2.353   4.406
10667SOL    HW132900   5.675   2.389   4.493
10667SOL    HW232901   5.689   2.417   4.333
10668SOL     OW32902   3.439   3.070   6.137
10668SOL    HW132903   3.517   3.021   6.101
10668SOL    HW232904   3.450   3.084   6.236
10669SOL     OW32905   6.288   2.030   1.495
10669SOL    HW132906   6.270   1.936   1.468
10669SOL    HW232907   6.340   2.031   1.580
10670SOL     OW32908   4.705   4.192   3.700
10670SOL    HW132909   4.659   4.277   3.676
10670SOL    HW232910   4.731   4.195   3.796
10671SOL     OW32911   1.852   3.230   4.640
10671SOL    HW132912   1.868   3.167   4.564
10671SOL    HW232913   1.853   3.324   4.606
10672SOL     OW32914   6.489   3.983   1.820
10672SOL    HW132915   6.433   4.028   1.889
10672SOL    HW232916   6.502   3.887   1.845
10673SOL     OW32917   3.281   1.501   1.210
10673SOL    HW132918   3.204   1.438   1.198
10673SOL    HW232919   3.247   1.587   1.248
10674SOL     OW32920   3.889   3.457   4.428
10674SOL    HW132921   3.864   3.458   4.332
10674SOL    HW232922   3.826   3.398   4.478
10675SOL     OW32923   3.292   6.653   5.694
10675SOL    HW132924   3.266   6.633   5.789
10675SOL    HW232925   3.218   6.705   5.650
10676SOL     OW32926   1.582   0.521   5.416
10676SOL    HW132927   1.658   0.514   5.480
10676SOL    HW232928   1.598   0.459   5.338
10677SOL     OW32929   0.635   2.306   6.906
10677SOL    HW132930   0.584   2.247   6.968
10677SOL    HW232931   0.710   2.349   6.954
10678SOL     OW32932   3.959   5.285   2.816
10678SOL    HW132933   3.968   5.213   2.748
10678SOL    HW232934   4.047   5.299   2.861
10679SOL     OW32935   4.748   3.950   0.398
10679SOL    HW132936   4.728   3.956   0.495
10679SOL    HW232937   4.815   4.020   0.373
10680SOL     OW32938   4.127   1.121   5.964
10680SOL    HW132939   4.221   1.102   5.992
10680SOL    HW232940   4.068   1.045   5.993
10681SOL     OW32941   2.556   3.294   5.357
10681SOL    HW132942   2.643   3.342   5.340
10681SOL    HW232943   2.550   3.215   5.295
10682SOL     OW32944   4.816   3.560   6.544
10682SOL    HW132945   4.857   3.562   6.635
10682SOL    HW232946   4.765   3.475   6.531
10683SOL     OW32947   2.596   0.350   3.112
10683SOL    HW132948   2.557   0.413   3.045
10683SOL    HW232949   2.677   0.306   3.074
10684SOL     OW32950   4.781   4.447   1.816
10684SOL    HW132951   4.782   4.525   1.753
10684SOL    HW232952   4.717   4.465   1.891
10685SOL     OW32953   0.761   6.596   2.263
10685SOL    HW132954   0.692   6.525   2.276
10685SOL    HW232955   0.849   6.562   2.298
10686SOL     OW32956   2.674   0.912   6.878
10686SOL    HW132957   2.713   0.999   6.848
10686SOL    HW232958   2.633   0.865   6.800
10687SOL     OW32959   1.189   3.525   3.556
10687SOL    HW132960   1.103   3.504   3.603
10687SOL    HW232961   1.256   3.558   3.622
10688SOL     OW32962   5.288   1.075   3.328
10688SOL    HW132963   5.266   1.066   3.230
10688SOL    HW232964   5.387   1.064   3.341
10689SOL     OW32965   1.090   1.103   2.494
10689SOL    HW132966   1.113   1.010   2.523
10689SOL    HW232967   0.991   1.113   2.490
10690SOL     OW32968   0.957   6.431   4.498
10690SOL    HW132969   1.044   6.446   4.544
10690SOL    HW232970   0.966   6.457   4.401
10691SOL     OW32971   3.208   6.960   2.073
10691SOL    HW132972   3.141   6.886   2.073
10691SOL    HW232973   3.299   6.924   2.091
10692SOL     OW32974   2.793   1.718   4.143
10692SOL    HW132975   2.827   1.800   4.189
10692SOL    HW232976   2.731   1.669   4.205
10693SOL     OW32977   1.595   5.286   0.410
10693SOL    HW132978   1.569   5.251   0.319
10693SOL    HW232979   1.625   5.210   0.467
10694SOL     OW32980   4.712   0.273   5.603
10694SOL    HW132981   4.614   0.264   5.587
10694SOL    HW232982   4.749   0.347   5.547
10695SOL     OW32983   5.083   4.377   1.826
10695SOL    HW132984   5.136   4.444   1.773
10695SOL    HW232985   5.016   4.425   1.882
10696SOL     OW32986   5.885   4.594   4.039
10696SOL    HW132987   5.932   4.550   4.116
10696SOL    HW232988   5.937   4.674   4.010
10697SOL     OW32989   2.870   5.370   5.292
10697SOL    HW132990   2.783   5.332   5.262
10697SOL    HW232991   2.903   5.436   5.225
10698SOL     OW32992   3.456   3.495   0.490
10698SOL    HW132993   3.444   3.589   0.522
10698SOL    HW232994   3.548   3.484   0.452
10699SOL     OW32995   3.780   3.203   0.655
10699SOL    HW132996   3.850   3.274   0.644
10699SOL    HW232997   3.691   3.246   0.672
10700SOL     OW32998   4.790   0.491   1.343
10700SOL    HW132999   4.844   0.481   1.427
10700SOL    HW233000   4.701   0.448   1.355
10701SOL     OW33001   3.286   6.477   6.547
10701SOL    HW133002   3.194   6.488   6.584
10701SOL    HW233003   3.340   6.420   6.609
10702SOL     OW33004   5.439   1.970   1.778
10702SOL    HW133005   5.509   1.909   1.741
10702SOL    HW233006   5.446   1.972   1.877
10703SOL     OW33007   0.363   2.301   5.330
10703SOL    HW133008   0.271   2.337   5.313
10703SOL    HW233009   0.390   2.241   5.254
10704SOL     OW33010   5.445   6.665   2.235
10704SOL    HW133011   5.451   6.630   2.142
10704SOL    HW233012   5.446   6.765   2.233
10705SOL     OW33013   4.964   3.332   0.793
10705SOL    HW133014   5.005   3.277   0.720
10705SOL    HW233015   4.994   3.296   0.881
10706SOL     OW33016   3.447   0.640   1.461
10706SOL    HW133017   3.541   0.649   1.429
10706SOL    HW233018   3.434   0.696   1.544
10707SOL     OW33019   4.879   6.553   3.553
10707SOL    HW133020   4.963   6.605   3.537
10707SOL    HW233021   4.901   6.461   3.584
10708SOL     OW33022   4.249   0.717   2.057
10708SOL    HW133023   4.224   0.622   2.077
10708SOL    HW233024   4.178   0.759   2.000
10709SOL     OW33025   6.051   4.293   2.944
10709SOL    HW133026   5.956   4.280   2.973
10709SOL    HW233027   6.053   4.332   2.852
10710SOL     OW33028   4.944   1.882   4.087
10710SOL    HW133029   4.858   1.932   4.077
10710SOL    HW233030   4.979   1.894   4.179
10711SOL     OW33031   3.312   6.931   2.660
10711SOL    HW133032   3.279   7.007   2.604
10711SOL    HW233033   3.388   6.886   2.614
10712SOL     OW33034   5.403   0.079   3.601
10712SOL    HW133035   5.395   0.062   3.502
10712SOL    HW233036   5.354   0.007   3.650
10713SOL     OW33037   1.820   3.987   1.890
10713SOL    HW133038   1.815   3.898   1.934
10713SOL    HW233039   1.754   4.049   1.933
10714SOL     OW33040   2.960   3.722   4.604
10714SOL    HW133041   2.932   3.689   4.694
10714SOL    HW233042   2.934   3.655   4.535
10715SOL     OW33043   5.739   0.658   1.873
10715SOL    HW133044   5.672   0.615   1.813
10715SOL    HW233045   5.815   0.595   1.890
10716SOL     OW33046   5.268   0.740   3.242
10716SOL    HW133047   5.243   0.721   3.337
10716SOL    HW233048   5.318   0.826   3.238
10717SOL     OW33049   1.993   3.121   6.389
10717SOL    HW133050   1.894   3.108   6.380
10717SOL    HW233051   2.015   3.217   6.372
10718SOL     OW33052   1.983   5.506   5.564
10718SOL    HW133053   1.926   5.553   5.631
10718SOL    HW233054   2.049   5.448   5.611
10719SOL     OW33055   0.396   5.799   4.426
10719SOL    HW133056   0.369   5.895   4.420
10719SOL    HW233057   0.342   5.745   4.362
10720SOL     OW33058   0.329   4.750   3.240
10720SOL    HW133059   0.281   4.821   3.187
10720SOL    HW233060   0.360   4.789   3.326
10721SOL     OW33061   5.267   3.393   5.869
10721SOL    HW133062   5.341   3.355   5.814
10721SOL    HW233063   5.290   3.386   5.966
10722SOL     OW33064   6.893   3.680   5.868
10722SOL    HW133065   6.837   3.685   5.785
10722SOL    HW233066   6.979   3.633   5.848
10723SOL     OW33067   5.768   6.606   0.895
10723SOL    HW133068   5.684   6.658   0.876
10723SOL    HW233069   5.752   6.509   0.876
10724SOL     OW33070   6.812   6.402   6.661
10724SOL    HW133071   6.874   6.389   6.584
10724SOL    HW233072   6.738   6.464   6.635
10725SOL     OW33073   1.883   5.949   5.581
10725SOL    HW133074   1.845   6.020   5.521
10725SOL    HW233075   1.977   5.973   5.606
10726SOL     OW33076   4.876   1.155   4.280
10726SOL    HW133077   4.972   1.167   4.253
10726SOL    HW233078   4.827   1.240   4.265
10727SOL     OW33079   2.276   6.699   5.993
10727SOL    HW133080   2.246   6.753   5.914
10727SOL    HW233081   2.210   6.626   6.010
10728SOL     OW33082   4.601   5.942   0.700
10728SOL    HW133083   4.583   6.027   0.749
10728SOL    HW233084   4.545   5.869   0.738
10729SOL     OW33085   6.533   2.621   1.352
10729SOL    HW133086   6.469   2.650   1.280
10729SOL    HW233087   6.495   2.645   1.441
10730SOL     OW33088   4.740   6.989   2.658
10730SOL    HW133089   4.737   0.009   2.569
10730SOL    HW233090   4.810   0.006   2.715
10731SOL     OW33091   4.507   0.070   0.998
10731SOL    HW133092   4.502   6.995   0.990
10731SOL    HW233093   4.430   0.111   0.950
10732SOL     OW33094   0.674   4.056   6.251
10732SOL    HW133095   0.644   3.983   6.312
10732SOL    HW233096   0.766   4.036   6.217
10733SOL     OW33097   6.414   2.069   0.086
10733SOL    HW133098   6.501   2.117   0.076
10733SOL    HW233099   6.430   1.971   0.089
10734SOL     OW33100   6.782   2.880   2.161
10734SOL    HW133101   6.749   2.822   2.086
10734SOL    HW233102   6.800   2.972   2.126
10735SOL     OW33103   0.210   4.967   3.137
10735SOL    HW133104   0.156   4.973   3.221
10735SOL    HW233105   0.187   5.045   3.078
10736SOL     OW33106   2.639   0.677   3.891
10736SOL    HW133107   2.569   0.715   3.830
10736SOL    HW233108   2.646   0.578   3.876
10737SOL     OW33109   6.902   2.559   1.383
10737SOL    HW133110   6.882   2.652   1.415
10737SOL    HW233111   7.001   2.545   1.385
10738SOL     OW33112   4.552   0.107   3.589
10738SOL    HW133113   4.524   0.154   3.672
10738SOL    HW233114   4.488   0.033   3.569
10739SOL     OW33115   2.700   1.584   2.088
10739SOL    HW133116   2.644   1.664   2.065
10739SOL    HW233117   2.784   1.585   2.034
10740SOL     OW33118   4.754   5.032   3.196
10740SOL    HW133119   4.819   5.102   3.166
10740SOL    HW233120   4.664   5.049   3.155
10741SOL     OW33121   3.718   0.881   2.933
10741SOL    HW133122   3.742   0.951   3.002
10741SOL    HW233123   3.796   0.820   2.920
10742SOL     OW33124   6.805   5.477   0.748
10742SOL    HW133125   6.728   5.540   0.745
10742SOL    HW233126   6.786   5.404   0.814
10743SOL     OW33127   2.435   2.512   5.257
10743SOL    HW133128   2.356   2.474   5.304
10743SOL    HW233129   2.416   2.606   5.229
10744SOL     OW33130   4.992   1.701   0.660
10744SOL    HW133131   4.984   1.631   0.590
10744SOL    HW233132   4.974   1.661   0.750
10745SOL     OW33133   6.652   5.413   5.893
10745SOL    HW133134   6.579   5.470   5.929
10745SOL    HW233135   6.715   5.388   5.967
10746SOL     OW33136   0.900   4.301   6.130
10746SOL    HW133137   0.961   4.238   6.081
10746SOL    HW233138   0.808   4.262   6.133
10747SOL     OW33139   3.169   2.160   4.543
10747SOL    HW133140   3.263   2.129   4.560
10747SOL    HW233141   3.119   2.164   4.630
10748SOL     OW33142   4.794   1.488   2.336
10748SOL    HW133143   4.784   1.542   2.252
10748SOL    HW233144   4.727   1.415   2.337
10749SOL     OW33145   2.658   7.017   6.373
10749SOL    HW133146   2.651   0.035   6.283
10749SOL    HW233147   2.659   0.063   6.444
10750SOL     OW33148   3.911   0.105   6.376
10750SOL    HW133149   3.987   0.106   6.311
10750SOL    HW233150   3.833   0.153   6.336
10751SOL     OW33151   1.931   5.434   3.740
10751SOL    HW133152   1.936   5.478   3.650
10751SOL    HW233153   1.880   5.349   3.733
10752SOL     OW33154   4.836   4.930   3.888
10752SOL    HW133155   4.793   4.946   3.799
10752SOL    HW233156   4.787   4.858   3.936
10753SOL     OW33157   6.801   3.226   4.409
10753SOL    HW133158   6.742   3.196   4.484
10753SOL    HW233159   6.744   3.240   4.327
10754SOL     OW33160   1.797   0.477   2.347
10754SOL    HW133161   1.781   0.514   2.438
10754SOL    HW233162   1.869   0.530   2.302
10755SOL     OW33163   6.124   5.505   2.165
10755SOL    HW133164   6.145   5.460   2.252
10755SOL    HW233165   6.123   5.604   2.179
10756SOL     OW33166   0.582   6.880   5.022
10756SOL    HW133167   0.583   6.815   5.097
10756SOL    HW233168   0.542   6.966   5.053
10757SOL     OW33169   2.838   3.284   1.197
10757SOL    HW133170   2.762   3.308   1.138
10757SOL    HW233171   2.867   3.365   1.249
10758SOL     OW33172   0.599   5.327   4.080
10758SOL    HW133173   0.554   5.333   3.991
10758SOL    HW233174   0.692   5.363   4.072
10759SOL     OW33175   0.117   2.313   6.597
10759SOL    HW133176   0.052   2.237   6.592
10759SOL    HW233177   0.101   2.365   6.681
10760SOL     OW33178   5.710   1.187   4.379
10760SOL    HW133179   5.793   1.240   4.362
10760SOL    HW233180   5.630   1.246   4.364
10761SOL     OW33181   2.613   4.832   5.490
10761SOL    HW133182   2.669   4.755   5.457
10761SOL    HW233183   2.653   4.867   5.575
10762SOL     OW33184   3.351   1.125   4.811
10762SOL    HW133185   3.407   1.163   4.738
10762SOL    HW233186   3.394   1.043   4.848
10763SOL     OW33187   4.356   6.657   3.649
10763SOL    HW133188   4.264   6.692   3.631
10763SOL    HW233189   4.349   6.570   3.699
10764SOL     OW33190   5.190   6.950   4.836
10764SOL    HW133191   5.173   0.007   4.782
10764SOL    HW233192   5.146   6.959   4.926
10765SOL     OW33193   5.495   3.702   0.731
10765SOL    HW133194   5.559   3.777   0.714
10765SOL    HW233195   5.449   3.677   0.646
10766SOL     OW33196   4.428   3.144   1.259
10766SOL    HW133197   4.527   3.145   1.246
10766SOL    HW233198   4.390   3.234   1.234
10767SOL     OW33199   4.308   1.446   2.575
10767SOL    HW133200   4.230   1.507   2.571
10767SOL    HW233201   4.392   1.497   2.560
10768SOL     OW33202   6.127   4.657   0.371
10768SOL    HW133203   6.096   4.635   0.464
10768SOL    HW233204   6.096   4.585   0.308
10769SOL     OW33205   1.927   4.202   5.403
10769SOL    HW133206   1.925   4.159   5.312
10769SOL    HW233207   1.934   4.301   5.393
10770SOL     OW33208   4.175   6.200   3.800
10770SOL    HW133209   4.255   6.187   3.741
10770SOL    HW233210   4.107   6.130   3.782
10771SOL     OW33211   2.275   1.730   3.807
10771SOL    HW133212   2.248   1.817   3.850
10771SOL    HW233213   2.352   1.746   3.746
10772SOL     OW33214   5.516   5.253   3.820
10772SOL    HW133215   5.495   5.183   3.889
10772SOL    HW233216   5.472   5.229   3.734
10773SOL     OW33217   5.714   4.580   3.662
10773SOL    HW133218   5.728   4.514   3.736
10773SOL    HW233219   5.736   4.672   3.696
10774SOL     OW33220   0.815   0.638   3.216
10774SOL    HW133221   0.794   0.633   3.118
10774SOL    HW233222   0.814   0.734   3.245
10775SOL     OW33223   0.439   3.568   1.916
10775SOL    HW133224   0.386   3.492   1.954
10775SOL    HW233225   0.488   3.538   1.834
10776SOL     OW33226   1.645   0.391   6.493
10776SOL    HW133227   1.637   0.322   6.422
10776SOL    HW233228   1.654   0.346   6.582
10777SOL     OW33229   2.439   5.705   1.089
10777SOL    HW133230   2.442   5.790   1.037
10777SOL    HW233231   2.343   5.680   1.106
10778SOL     OW33232   5.929   5.566   2.782
10778SOL    HW133233   5.845   5.531   2.823
10778SOL    HW233234   5.927   5.548   2.683
10779SOL     OW33235   5.286   2.422   3.582
10779SOL    HW133236   5.297   2.408   3.680
10779SOL    HW233237   5.374   2.409   3.536
10780SOL     OW33238   6.730   0.288   2.590
10780SOL    HW133239   6.694   0.382   2.590
10780SOL    HW233240   6.655   0.224   2.602
10781SOL     OW33241   3.626   0.077   4.205
10781SOL    HW133242   3.687   0.137   4.153
10781SOL    HW233243   3.674   7.016   4.224
10782SOL     OW33244   6.083   5.493   4.316
10782SOL    HW133245   6.103   5.402   4.281
10782SOL    HW233246   5.984   5.510   4.310
10783SOL     OW33247   6.968   1.676   3.347
10783SOL    HW133248   6.892   1.739   3.361
10783SOL    HW233249   6.954   1.594   3.404
10784SOL     OW33250   2.946   1.783   4.569
10784SOL    HW133251   3.010   1.775   4.493
10784SOL    HW233252   2.910   1.692   4.592
10785SOL     OW33253   1.220   3.904   6.264
10785SOL    HW133254   1.291   3.970   6.244
10785SOL    HW233255   1.258   3.812   6.264
10786SOL     OW33256   0.701   5.247   3.309
10786SOL    HW133257   0.650   5.187   3.370
10786SOL    HW233258   0.640   5.281   3.237
10787SOL     OW33259   1.776   2.029   6.556
10787SOL    HW133260   1.835   2.107   6.537
10787SOL    HW233261   1.687   2.062   6.588
10788SOL     OW33262   5.839   3.987   6.274
10788SOL    HW133263   5.888   3.916   6.222
10788SOL    HW233264   5.861   4.077   6.237
10789SOL     OW33265   5.996   2.123   0.482
10789SOL    HW133266   5.968   2.027   0.472
10789SOL    HW233267   5.936   2.168   0.548
10790SOL     OW33268   0.027   5.892   2.826
10790SOL    HW133269   0.016   5.896   2.925
10790SOL    HW233270   6.972   5.847   2.785
10791SOL     OW33271   0.441   6.686   3.045
10791SOL    HW133272   0.370   6.712   2.979
10791SOL    HW233273   0.521   6.745   3.033
10792SOL     OW33274   3.980   4.146   5.137
10792SOL    HW133275   3.988   4.104   5.046
10792SOL    HW233276   3.890   4.189   5.147
10793SOL     OW33277   5.780   3.604   4.586
10793SOL    HW133278   5.761   3.589   4.683
10793SOL    HW233279   5.808   3.518   4.544
10794SOL     OW33280   3.288   3.905   3.372
10794SOL    HW133281   3.269   3.907   3.470
10794SOL    HW233282   3.224   3.843   3.327
10795SOL     OW33283   0.050   4.479   3.307
10795SOL    HW133284   0.031   4.475   3.209
10795SOL    HW233285   0.044   4.387   3.346
10796SOL     OW33286   1.230   6.243   5.270
10796SOL    HW133287   1.274   6.159   5.240
10796SOL    HW233288   1.292   6.320   5.257
10797SOL     OW33289   3.766   2.397   0.213
10797SOL    HW133290   3.698   2.323   0.207
10797SOL    HW233291   3.800   2.417   0.121
10798SOL     OW33292   6.735   1.627   1.254
10798SOL    HW133293   6.818   1.662   1.211
10798SOL    HW233294   6.706   1.544   1.207
10799SOL     OW33295   4.050   2.016   1.515
10799SOL    HW133296   3.998   2.098   1.491
10799SOL    HW233297   4.000   1.964   1.586
10800SOL     OW33298   1.105   0.294   1.455
10800SOL    HW133299   1.119   0.311   1.357
10800SOL    HW233300   1.193   0.300   1.503
10801SOL     OW33301   1.671   0.616   1.145
10801SOL    HW133302   1.656   0.714   1.158
10801SOL    HW233303   1.768   0.599   1.125
10802SOL     OW33304   6.489   1.129   3.552
10802SOL    HW133305   6.483   1.196   3.478
10802SOL    HW233306   6.475   1.037   3.514
10803SOL     OW33307   1.702   5.822   6.144
10803SOL    HW133308   1.753   5.807   6.059
10803SOL    HW233309   1.715   5.917   6.174
10804SOL     OW33310   0.067   3.048   4.419
10804SOL    HW133311   0.030   3.035   4.511
10804SOL    HW233312   0.135   3.121   4.421
10805SOL     OW33313   6.246   1.159   6.285
10805SOL    HW133314   6.250   1.141   6.383
10805SOL    HW233315   6.211   1.251   6.270
10806SOL     OW33316   1.883   4.971   6.955
10806SOL    HW133317   1.860   5.064   6.926
10806SOL    HW233318   1.915   4.919   6.876
10807SOL     OW33319   2.730   6.253   5.187
10807SOL    HW133320   2.798   6.191   5.226
10807SOL    HW233321   2.714   6.230   5.091
10808SOL     OW33322   0.936   3.430   6.165
10808SOL    HW133323   0.863   3.414   6.099
10808SOL    HW233324   0.965   3.343   6.205
10809SOL     OW33325   2.075   0.162   4.663
10809SOL    HW133326   1.997   0.114   4.622
10809SOL    HW233327   2.143   0.096   4.693
10810SOL     OW33328   6.804   0.098   4.028
10810SOL    HW133329   6.805   0.116   3.930
10810SOL    HW233330   6.781   0.182   4.078
10811SOL     OW33331   5.147   5.126   4.625
10811SOL    HW133332   5.129   5.039   4.670
10811SOL    HW233333   5.139   5.200   4.692
10812SOL     OW33334   5.972   2.808   0.442
10812SOL    HW133335   5.975   2.709   0.447
10812SOL    HW233336   5.968   2.837   0.347
10813SOL     OW33337   0.335   3.523   6.162
10813SOL    HW133338   0.279   3.598   6.197
10813SOL    HW233339   0.349   3.455   6.234
10814SOL     OW33340   3.400   1.106   1.340
10814SOL    HW133341   3.494   1.091   1.309
10814SOL    HW233342   3.399   1.177   1.411
10815SOL     OW33343   5.407   0.872   4.765
10815SOL    HW133344   5.422   0.861   4.864
10815SOL    HW233345   5.467   0.809   4.715
10816SOL     OW33346   3.989   3.095   4.646
10816SOL    HW133347   4.031   3.166   4.590
10816SOL    HW233348   3.996   3.007   4.599
10817SOL     OW33349   1.711   6.237   3.605
10817SOL    HW133350   1.724   6.213   3.702
10817SOL    HW233351   1.771   6.313   3.582
10818SOL     OW33352   3.971   4.462   6.974
10818SOL    HW133353   3.949   4.558   6.957
10818SOL    HW233354   3.913   4.404   6.917
10819SOL     OW33355   6.209   6.271   5.241
10819SOL    HW133356   6.217   6.370   5.245
10819SOL    HW233357   6.282   6.228   5.294
10820SOL     OW33358   2.557   4.616   5.984
10820SOL    HW133359   2.597   4.613   6.076
10820SOL    HW233360   2.492   4.691   5.977
10821SOL     OW33361   4.903   5.592   3.109
10821SOL    HW133362   4.968   5.653   3.064
10821SOL    HW233363   4.810   5.622   3.089
10822SOL     OW33364   5.540   1.154   1.974
10822SOL    HW133365   5.622   1.152   1.917
10822SOL    HW233366   5.559   1.111   2.062
10823SOL     OW33367   5.547   6.691   1.179
10823SOL    HW133368   5.457   6.704   1.137
10823SOL    HW233369   5.619   6.715   1.113
10824SOL     OW33370   1.103   3.105   3.923
10824SOL    HW133371   1.184   3.048   3.913
10824SOL    HW233372   1.121   3.196   3.884
10825SOL     OW33373   0.760   2.481   0.470
10825SOL    HW133374   0.678   2.522   0.429
10825SOL    HW233375   0.739   2.451   0.563
10826SOL     OW33376   0.233   3.591   2.718
10826SOL    HW133377   0.277   3.653   2.783
10826SOL    HW233378   0.134   3.607   2.720
10827SOL     OW33379   6.492   4.399   4.564
10827SOL    HW133380   6.582   4.443   4.567
10827SOL    HW233381   6.502   4.305   4.532
10828SOL     OW33382   6.480   4.251   5.316
10828SOL    HW133383   6.488   4.270   5.414
10828SOL    HW233384   6.465   4.153   5.303
10829SOL     OW33385   3.568   3.178   4.741
10829SOL    HW133386   3.635   3.137   4.803
10829SOL    HW233387   3.493   3.113   4.727
10830SOL     OW33388   4.211   2.216   3.370
10830SOL    HW133389   4.285   2.272   3.408
10830SOL    HW233390   4.154   2.180   3.445
10831SOL     OW33391   4.362   0.071   3.973
10831SOL    HW133392   4.308   0.012   3.914
10831SOL    HW233393   4.428   0.122   3.917
10832SOL     OW33394   6.469   2.666   0.063
10832SOL    HW133395   6.507   2.598   0.125
10832SOL    HW233396   6.449   2.750   0.114
10833SOL     OW33397   0.705   1.459   0.147
10833SOL    HW133398   0.630   1.525   0.159
10833SOL    HW233399   0.718   1.441   0.050
10834SOL     OW33400   6.075   6.302   1.532
10834SOL    HW133401   6.077   6.283   1.434
10834SOL    HW233402   5.983   6.332   1.557
10835SOL     OW33403   0.251   2.235   5.565
10835SOL    HW133404   0.297   2.291   5.634
10835SOL    HW233405   0.288   2.256   5.474
10836SOL     OW33406   0.095   1.036   3.333
10836SOL    HW133407   0.042   1.118   3.312
10836SOL    HW233408   0.170   1.058   3.395
10837SOL     OW33409   0.561   3.390   2.772
10837SOL    HW133410   0.605   3.301   2.762
10837SOL    HW233411   0.465   3.378   2.795
10838SOL     OW33412   0.550   6.091   2.030
10838SOL    HW133413   0.483   6.143   1.978
10838SOL    HW233414   0.503   6.030   2.094
10839SOL     OW33415   4.778   2.891   0.379
10839SOL    HW133416   4.708   2.877   0.309
10839SOL    HW233417   4.764   2.826   0.454
10840SOL     OW33418   2.574   0.178   1.594
10840SOL    HW133419   2.651   0.115   1.588
10840SOL    HW233420   2.570   0.234   1.511
10841SOL     OW33421   2.192   5.301   4.635
10841SOL    HW133422   2.221   5.206   4.637
10841SOL    HW233423   2.093   5.306   4.646
10842SOL     OW33424   5.384   4.518   2.088
10842SOL    HW133425   5.393   4.618   2.080
10842SOL    HW233426   5.468   4.481   2.127
10843SOL     OW33427   2.940   2.102   1.333
10843SOL    HW133428   2.856   2.053   1.307
10843SOL    HW233429   2.978   2.146   1.252
10844SOL     OW33430   1.308   5.332   5.283
10844SOL    HW133431   1.240   5.390   5.238
10844SOL    HW233432   1.275   5.308   5.375
10845SOL     OW33433   3.746   0.327   4.435
10845SOL    HW133434   3.808   0.383   4.379
10845SOL    HW233435   3.789   0.307   4.523
10846SOL     OW33436   5.573   0.149   6.254
10846SOL    HW133437   5.635   0.094   6.198
10846SOL    HW233438   5.480   0.140   6.219
10847SOL     OW33439   3.364   0.809   6.076
10847SOL    HW133440   3.414   0.881   6.028
10847SOL    HW233441   3.312   0.756   6.010
10848SOL     OW33442   1.917   4.881   1.934
10848SOL    HW133443   1.948   4.875   1.839
10848SOL    HW233444   1.894   4.975   1.956
10849SOL     OW33445   2.228   6.599   3.433
10849SOL    HW133446   2.303   6.532   3.434
10849SOL    HW233447   2.261   6.685   3.396
10850SOL     OW33448   4.136   4.345   0.916
10850SOL    HW133449   4.072   4.399   0.972
10850SOL    HW233450   4.168   4.400   0.839
10851SOL     OW33451   1.496   4.638   0.302
10851SOL    HW133452   1.504   4.577   0.223
10851SOL    HW233453   1.416   4.697   0.291
10852SOL     OW33454   2.240   1.971   2.554
10852SOL    HW133455   2.168   1.926   2.502
10852SOL    HW233456   2.221   2.069   2.559
10853SOL     OW33457   3.119   1.401   6.163
10853SOL    HW133458   3.186   1.475   6.172
10853SOL    HW233459   3.027   1.439   6.160
10854SOL     OW33460   3.120   6.683   5.298
10854SOL    HW133461   3.119   6.731   5.210
10854SOL    HW233462   3.042   6.620   5.303
10855SOL     OW33463   3.863   1.487   6.946
10855SOL    HW133464   3.860   1.452   6.853
10855SOL    HW233465   3.934   1.557   6.953
10856SOL     OW33466   0.677   1.061   0.764
10856SOL    HW133467   0.599   1.043   0.704
10856SOL    HW233468   0.672   1.155   0.797
10857SOL     OW33469   6.271   2.961   2.410
10857SOL    HW133470   6.275   3.061   2.412
10857SOL    HW233471   6.364   2.925   2.402
10858SOL     OW33472   3.146   6.365   2.302
10858SOL    HW133473   3.071   6.300   2.292
10858SOL    HW233474   3.218   6.344   2.236
10859SOL     OW33475   1.446   5.624   3.702
10859SOL    HW133476   1.516   5.557   3.727
10859SOL    HW233477   1.410   5.603   3.611
10860SOL     OW33478   0.128   3.735   3.485
10860SOL    HW133479   0.152   3.697   3.396
10860SOL    HW233480   0.061   3.675   3.529
10861SOL     OW33481   3.434   2.958   4.951
10861SOL    HW133482   3.375   2.910   5.015
10861SOL    HW233483   3.502   2.895   4.914
10862SOL     OW33484   0.802   0.361   5.126
10862SOL    HW133485   0.727   0.352   5.192
10862SOL    HW233486   0.765   0.358   5.033
10863SOL     OW33487   2.304   6.172   4.216
10863SOL    HW133488   2.264   6.135   4.300
10863SOL    HW233489   2.271   6.120   4.138
10864SOL     OW33490   3.706   6.085   3.285
10864SOL    HW133491   3.781   6.089   3.218
10864SOL    HW233492   3.661   6.174   3.289
10865SOL     OW33493   6.282   1.709   5.826
10865SOL    HW133494   6.265   1.612   5.808
10865SOL    HW233495   6.363   1.719   5.884
10866SOL     OW33496   5.128   4.976   0.476
10866SOL    HW133497   5.226   4.967   0.495
10866SOL    HW233498   5.083   4.888   0.493
10867SOL     OW33499   2.976   1.713   0.011
10867SOL    HW133500   3.015   1.639   0.066
10867SOL    HW233501   2.971   1.684   6.941
10868SOL     OW33502   3.063   2.231   3.081
10868SOL    HW133503   3.140   2.292   3.065
10868SOL    HW233504   3.083   2.170   3.157
10869NA      NA33505   6.334   2.542   5.606
10870NA      NA33506   4.485   4.475   5.219
10871NA      NA33507   2.203   3.591   1.737
10872NA      NA33508   4.870   3.790   5.178
10873NA      NA33509   4.272   2.387   5.342
10874NA      NA33510   3.723   4.740   1.702
10875NA      NA33511   6.435   6.100   4.525
10876NA      NA33512   3.623   3.648   4.886
10877NA      NA33513   4.650   6.972   6.638
10878NA      NA33514   3.020   0.290   4.927
10879NA      NA33515   0.513   5.200   2.413
10880NA      NA33516   3.013   0.527   2.705
10881NA      NA33517   3.593   4.025   1.205
10882NA      NA33518   3.738   3.319   2.956
   7.02514   7.02514   7.02514
