Generated by trjconv : CNT in water t= 433.00000
33518
    1C        C    1   2.846   2.768   4.750
    1C        C    2   2.900   2.717   4.869
    1C        C    3   2.843   2.771   4.985
    1C        C    4   2.854   2.775   4.263
    1C        C    5   2.905   2.725   4.385
    1C        C    6   2.848   2.773   4.505
    1C        C    7   3.017   2.644   4.629
    1C        C    8   2.902   2.726   4.628
    1C        C    9   3.083   2.606   4.748
    1C        C   10   3.019   2.639   4.869
    1C        C   11   3.189   2.499   4.980
    1C        C   12   3.066   2.567   4.979
    1C        C   13   2.850   2.769   3.771
    1C        C   14   2.899   2.720   3.894
    1C        C   15   2.848   2.771   4.016
    1C        C   16   3.019   2.648   4.141
    1C        C   17   2.904   2.730   4.139
    1C        C   18   3.083   2.615   4.263
    1C        C   19   3.022   2.646   4.386
    1C        C   20   3.213   2.556   4.506
    1C        C   21   3.082   2.609   4.509
    1C        C   22   3.282   2.534   4.627
    1C        C   23   3.213   2.548   4.750
    1C        C   24   3.420   2.483   4.866
    1C        C   25   3.278   2.503   4.868
    1C        C   26   3.496   2.475   4.984
    1C        C   27   2.852   2.773   3.284
    1C        C   28   2.909   2.728   3.405
    1C        C   29   2.854   2.774   3.527
    1C        C   30   3.020   2.643   3.651
    1C        C   31   2.903   2.722   3.648
    1C        C   32   3.078   2.605   3.774
    1C        C   33   3.017   2.643   3.896
    1C        C   34   3.212   2.561   4.016
    1C        C   35   3.081   2.614   4.018
    1C        C   36   3.279   2.541   4.139
    1C        C   37   3.214   2.564   4.262
    1C        C   38   3.419   2.507   4.382
    1C        C   39   3.282   2.540   4.384
    1C        C   40   3.489   2.507   4.505
    1C        C   41   3.420   2.504   4.628
    1C        C   42   3.637   2.479   4.745
    1C        C   43   3.495   2.481   4.745
    1C        C   44   3.710   2.479   4.866
    1C        C   45   3.635   2.476   4.985
    1C        C   46   2.838   2.754   2.796
    1C        C   47   2.899   2.715   2.917
    1C        C   48   2.846   2.763   3.039
    1C        C   49   3.020   2.643   3.161
    1C        C   50   2.906   2.727   3.162
    1C        C   51   3.084   2.610   3.283
    1C        C   52   3.025   2.648   3.406
    1C        C   53   3.209   2.547   3.531
    1C        C   54   3.082   2.608   3.529
    1C        C   55   3.279   2.529   3.652
    1C        C   56   3.209   2.554   3.773
    1C        C   57   3.419   2.511   3.897
    1C        C   58   3.281   2.541   3.894
    1C        C   59   3.488   2.503   4.019
    1C        C   60   3.417   2.511   4.141
    1C        C   61   3.632   2.496   4.260
    1C        C   62   3.491   2.495   4.261
    1C        C   63   3.704   2.502   4.381
    1C        C   64   3.631   2.505   4.502
    1C        C   65   3.840   2.538   4.624
    1C        C   66   3.703   2.503   4.623
    1C        C   67   3.910   2.558   4.745
    1C        C   68   3.845   2.519   4.864
    1C        C   69   4.054   2.585   4.980
    1C        C   70   3.924   2.533   4.979
    1C        C   71   2.826   2.735   2.311
    1C        C   72   2.886   2.694   2.432
    1C        C   73   2.834   2.745   2.553
    1C        C   74   3.010   2.626   2.675
    1C        C   75   2.890   2.702   2.675
    1C        C   76   3.074   2.589   2.795
    1C        C   77   3.016   2.637   2.916
    1C        C   78   3.209   2.551   3.041
    1C        C   79   3.079   2.606   3.039
    1C        C   80   3.277   2.529   3.163
    1C        C   81   3.212   2.550   3.286
    1C        C   82   3.417   2.502   3.407
    1C        C   83   3.277   2.524   3.409
    1C        C   84   3.487   2.495   3.529
    1C        C   85   3.418   2.504   3.652
    1C        C   86   3.630   2.504   3.772
    1C        C   87   3.488   2.500   3.774
    1C        C   88   3.699   2.509   3.895
    1C        C   89   3.630   2.501   4.019
    1C        C   90   3.840   2.542   4.138
    1C        C   91   3.703   2.507   4.139
    1C        C   92   3.908   2.566   4.260
    1C        C   93   3.841   2.540   4.381
    1C        C   94   4.033   2.630   4.502
    1C        C   95   3.907   2.565   4.503
    1C        C   96   4.095   2.670   4.623
    1C        C   97   4.035   2.625   4.743
    1C        C   98   4.185   2.773   4.868
    1C        C   99   4.100   2.658   4.865
    1C        C  100   4.210   2.848   4.983
    1C        C  101   2.822   2.731   2.072
    1C        C  102   2.990   2.595   2.191
    1C        C  103   2.873   2.676   2.191
    1C        C  104   3.064   2.570   2.311
    1C        C  105   3.005   2.619   2.430
    1C        C  106   3.196   2.528   2.553
    1C        C  107   3.069   2.589   2.553
    1C        C  108   3.269   2.512   2.673
    1C        C  109   3.205   2.538   2.796
    1C        C  110   3.414   2.499   2.914
    1C        C  111   3.275   2.524   2.918
    1C        C  112   3.483   2.495   3.037
    1C        C  113   3.416   2.506   3.161
    1C        C  114   3.627   2.500   3.280
    1C        C  115   3.486   2.498   3.284
    1C        C  116   3.697   2.511   3.403
    1C        C  117   3.629   2.498   3.526
    1C        C  118   3.836   2.540   3.647
    1C        C  119   3.698   2.510   3.648
    1C        C  120   3.900   2.567   3.770
    1C        C  121   3.835   2.546   3.894
    1C        C  122   4.029   2.636   4.012
    1C        C  123   3.900   2.577   4.015
    1C        C  124   4.089   2.673   4.135
    1C        C  125   4.032   2.633   4.258
    1C        C  126   4.199   2.761   4.379
    1C        C  127   4.094   2.668   4.380
    1C        C  128   4.246   2.817   4.500
    1C        C  129   4.195   2.769   4.623
    1C        C  130   4.320   2.940   4.742
    1C        C  131   4.233   2.827   4.746
    1C        C  132   4.355   3.007   4.861
    1C        C  133   4.287   2.964   4.975
    1C        C  134   3.178   2.470   2.084
    1C        C  135   3.043   2.505   2.092
    1C        C  136   3.264   2.476   2.194
    1C        C  137   3.196   2.518   2.311
    1C        C  138   3.405   2.482   2.428
    1C        C  139   3.265   2.502   2.433
    1C        C  140   3.480   2.486   2.548
    1C        C  141   3.410   2.495   2.671
    1C        C  142   3.625   2.494   2.793
    1C        C  143   3.484   2.493   2.791
    1C        C  144   3.697   2.501   2.915
    1C        C  145   3.624   2.496   3.036
    1C        C  146   3.833   2.537   3.158
    1C        C  147   3.696   2.503   3.157
    1C        C  148   3.901   2.562   3.279
    1C        C  149   3.835   2.540   3.402
    1C        C  150   4.030   2.622   3.523
    1C        C  151   3.903   2.562   3.525
    1C        C  152   4.088   2.665   3.645
    1C        C  153   4.025   2.634   3.768
    1C        C  154   4.195   2.763   3.889
    1C        C  155   4.088   2.671   3.889
    1C        C  156   4.242   2.815   4.012
    1C        C  157   4.199   2.761   4.135
    1C        C  158   4.338   2.922   4.255
    1C        C  159   4.252   2.810   4.257
    1C        C  160   4.375   2.985   4.376
    1C        C  161   4.332   2.929   4.499
    1C        C  162   4.434   3.118   4.616
    1C        C  163   4.364   2.995   4.619
    1C        C  164   4.466   3.185   4.736
    1C        C  165   4.430   3.127   4.860
    1C        C  166   4.518   3.323   4.973
    1C        C  167   4.482   3.189   4.975
    1C        C  168   3.480   2.439   2.072
    1C        C  169   3.404   2.459   2.188
    1C        C  170   3.620   2.474   2.310
    1C        C  171   3.478   2.468   2.309
    1C        C  172   3.695   2.487   2.429
    1C        C  173   3.621   2.488   2.549
    1C        C  174   3.828   2.541   2.668
    1C        C  175   3.693   2.501   2.670
    1C        C  176   3.895   2.563   2.791
    1C        C  177   3.834   2.535   2.915
    1C        C  178   4.029   2.620   3.033
    1C        C  179   3.902   2.559   3.036
    1C        C  180   4.090   2.656   3.156
    1C        C  181   4.028   2.624   3.279
    1C        C  182   4.197   2.751   3.399
    1C        C  183   4.089   2.662   3.401
    1C        C  184   4.245   2.802   3.521
    1C        C  185   4.199   2.753   3.645
    1C        C  186   4.333   2.919   3.767
    1C        C  187   4.250   2.805   3.766
    1C        C  188   4.371   2.980   3.888
    1C        C  189   4.337   2.920   4.012
    1C        C  190   4.444   3.105   4.130
    1C        C  191   4.377   2.980   4.133
    1C        C  192   4.468   3.174   4.251
    1C        C  193   4.438   3.112   4.374
    1C        C  194   4.504   3.317   4.496
    1C        C  195   4.465   3.181   4.494
    1C        C  196   4.517   3.390   4.616
    1C        C  197   4.512   3.319   4.738
    1C        C  198   4.554   3.539   4.855
    1C        C  199   4.535   3.397   4.855
    1C        C  200   4.593   3.624   4.963
    1C        C  201   3.618   2.417   2.077
    1C        C  202   3.828   2.512   2.184
    1C        C  203   3.692   2.469   2.187
    1C        C  204   3.902   2.537   2.303
    1C        C  205   3.833   2.519   2.425
    1C        C  206   4.025   2.615   2.547
    1C        C  207   3.897   2.554   2.545
    1C        C  208   4.083   2.659   2.668
    1C        C  209   4.021   2.627   2.791
    1C        C  210   4.203   2.742   2.910
    1C        C  211   4.087   2.660   2.911
    1C        C  212   4.252   2.793   3.032
    1C        C  213   4.197   2.748   3.155
    1C        C  214   4.334   2.912   3.275
    1C        C  215   4.249   2.799   3.276
    1C        C  216   4.368   2.975   3.397
    1C        C  217   4.331   2.914   3.520
    1C        C  218   4.431   3.101   3.643
    1C        C  219   4.371   2.973   3.642
    1C        C  220   4.454   3.173   3.762
    1C        C  221   4.432   3.107   3.885
    1C        C  222   4.496   3.309   4.008
    1C        C  223   4.463   3.172   4.007
    1C        C  224   4.513   3.381   4.128
    1C        C  225   4.503   3.311   4.251
    1C        C  226   4.522   3.524   4.371
    1C        C  227   4.515   3.383   4.372
    1C        C  228   4.527   3.600   4.489
    1C        C  229   4.524   3.531   4.613
    1C        C  230   4.500   3.745   4.728
    1C        C  231   4.533   3.607   4.732
    1C        C  232   4.494   3.818   4.848
    1C        C  233   4.547   3.756   4.962
    1C        C  234   4.019   2.614   2.063
    1C        C  235   3.899   2.545   2.067
    1C        C  236   4.082   2.652   2.182
    1C        C  237   4.024   2.610   2.303
    1C        C  238   4.202   2.732   2.424
    1C        C  239   4.088   2.647   2.424
    1C        C  240   4.254   2.784   2.544
    1C        C  241   4.198   2.741   2.666
    1C        C  242   4.337   2.902   2.786
    1C        C  243   4.256   2.786   2.787
    1C        C  244   4.375   2.963   2.908
    1C        C  245   4.339   2.904   3.031
    1C        C  246   4.433   3.096   3.153
    1C        C  247   4.375   2.968   3.152
    1C        C  248   4.458   3.163   3.275
    1C        C  249   4.433   3.100   3.400
    1C        C  250   4.495   3.304   3.517
    1C        C  251   4.457   3.168   3.521
    1C        C  252   4.506   3.374   3.639
    1C        C  253   4.490   3.310   3.764
    1C        C  254   4.520   3.520   3.882
    1C        C  255   4.509   3.379   3.885
    1C        C  256   4.513   3.591   4.003
    1C        C  257   4.515   3.523   4.126
    1C        C  258   4.495   3.734   4.245
    1C        C  259   4.514   3.594   4.248
    1C        C  260   4.479   3.809   4.364
    1C        C  261   4.498   3.738   4.485
    1C        C  262   4.426   3.942   4.606
    1C        C  263   4.476   3.809   4.605
    1C        C  264   4.399   4.010   4.727
    1C        C  265   4.438   3.948   4.848
    1C        C  266   4.330   4.134   4.962
    1C        C  267   4.393   4.010   4.965
    1C        C  268   4.261   2.778   2.064
    1C        C  269   4.196   2.736   2.181
    1C        C  270   4.343   2.891   2.305
    1C        C  271   4.251   2.783   2.302
    1C        C  272   4.383   2.959   2.422
    1C        C  273   4.341   2.896   2.542
    1C        C  274   4.446   3.081   2.664
    1C        C  275   4.379   2.957   2.663
    1C        C  276   4.465   3.153   2.785
    1C        C  277   4.437   3.090   2.908
    1C        C  278   4.501   3.294   3.028
    1C        C  279   4.461   3.158   3.029
    1C        C  280   4.507   3.367   3.149
    1C        C  281   4.493   3.299   3.272
    1C        C  282   4.518   3.512   3.391
    1C        C  283   4.507   3.371   3.393
    1C        C  284   4.515   3.583   3.513
    1C        C  285   4.516   3.515   3.637
    1C        C  286   4.497   3.727   3.753
    1C        C  287   4.521   3.588   3.758
    1C        C  288   4.478   3.794   3.876
    1C        C  289   4.488   3.730   4.002
    1C        C  290   4.433   3.936   4.117
    1C        C  291   4.478   3.803   4.123
    1C        C  292   4.407   4.006   4.237
    1C        C  293   4.433   3.942   4.361
    1C        C  294   4.328   4.127   4.482
    1C        C  295   4.395   4.003   4.483
    1C        C  296   4.293   4.193   4.603
    1C        C  297   4.332   4.135   4.725
    1C        C  298   4.202   4.312   4.838
    1C        C  299   4.290   4.200   4.845
    1C        C  300   4.177   4.404   4.945
    1C        C  301   4.349   2.885   2.068
    1C        C  302   4.473   3.067   2.176
    1C        C  303   4.397   2.945   2.185
    1C        C  304   4.485   3.143   2.296
    1C        C  305   4.452   3.082   2.419
    1C        C  306   4.507   3.284   2.540
    1C        C  307   4.476   3.146   2.542
    1C        C  308   4.515   3.357   2.661
    1C        C  309   4.501   3.290   2.784
    1C        C  310   4.519   3.503   2.902
    1C        C  311   4.514   3.362   2.905
    1C        C  312   4.515   3.577   3.022
    1C        C  313   4.513   3.508   3.146
    1C        C  314   4.490   3.719   3.265
    1C        C  315   4.515   3.580   3.267
    1C        C  316   4.479   3.790   3.387
    1C        C  317   4.500   3.724   3.510
    1C        C  318   4.429   3.927   3.629
    1C        C  319   4.479   3.795   3.630
    1C        C  320   4.398   3.989   3.752
    1C        C  321   4.430   3.927   3.875
    1C        C  322   4.324   4.116   3.992
    1C        C  323   4.397   3.996   3.994
    1C        C  324   4.288   4.178   4.114
    1C        C  325   4.330   4.125   4.238
    1C        C  326   4.190   4.286   4.354
    1C        C  327   4.288   4.184   4.359
    1C        C  328   4.141   4.341   4.474
    1C        C  329   4.196   4.295   4.596
    1C        C  330   4.030   4.436   4.717
    1C        C  331   4.146   4.354   4.715
    1C        C  332   3.975   4.494   4.834
    1C        C  333   4.061   4.482   4.944
    1C        C  334   4.556   3.266   2.064
    1C        C  335   4.533   3.127   2.062
    1C        C  336   4.540   3.349   2.176
    1C        C  337   4.513   3.282   2.297
    1C        C  338   4.523   3.495   2.417
    1C        C  339   4.521   3.354   2.418
    1C        C  340   4.518   3.570   2.536
    1C        C  341   4.516   3.498   2.658
    1C        C  342   4.502   3.712   2.776
    1C        C  343   4.515   3.572   2.779
    1C        C  344   4.481   3.784   2.896
    1C        C  345   4.489   3.716   3.019
    1C        C  346   4.430   3.919   3.140
    1C        C  347   4.473   3.785   3.141
    1C        C  348   4.398   3.983   3.262
    1C        C  349   4.429   3.922   3.386
    1C        C  350   4.325   4.110   3.504
    1C        C  351   4.396   3.988   3.506
    1C        C  352   4.281   4.167   3.626
    1C        C  353   4.322   4.108   3.747
    1C        C  354   4.184   4.272   3.867
    1C        C  355   4.282   4.170   3.868
    1C        C  356   4.129   4.319   3.988
    1C        C  357   4.183   4.272   4.110
    1C        C  358   4.018   4.409   4.230
    1C        C  359   4.131   4.323   4.231
    1C        C  360   3.959   4.447   4.352
    1C        C  361   4.022   4.417   4.475
    1C        C  362   3.830   4.511   4.596
    1C        C  363   3.960   4.456   4.595
    1C        C  364   3.764   4.542   4.717
    1C        C  365   3.841   4.537   4.836
    1C        C  366   3.630   4.593   4.951
    1C        C  367   3.767   4.573   4.949
    1C        C  368   4.510   3.564   2.058
    1C        C  369   4.525   3.489   2.176
    1C        C  370   4.505   3.706   2.286
    1C        C  371   4.522   3.566   2.294
    1C        C  372   4.484   3.776   2.407
    1C        C  373   4.500   3.710   2.531
    1C        C  374   4.430   3.911   2.651
    1C        C  375   4.484   3.780   2.653
    1C        C  376   4.399   3.977   2.772
    1C        C  377   4.433   3.917   2.895
    1C        C  378   4.327   4.101   3.015
    1C        C  379   4.404   3.983   3.017
    1C        C  380   4.284   4.160   3.136
    1C        C  381   4.319   4.100   3.259
    1C        C  382   4.180   4.261   3.379
    1C        C  383   4.278   4.160   3.380
    1C        C  384   4.128   4.313   3.500
    1C        C  385   4.183   4.269   3.623
    1C        C  386   4.010   4.392   3.743
    1C        C  387   4.129   4.315   3.745
    1C        C  388   3.950   4.431   3.864
    1C        C  389   4.011   4.397   3.987
    1C        C  390   3.818   4.483   4.109
    1C        C  391   3.950   4.434   4.109
    1C        C  392   3.755   4.505   4.234
    1C        C  393   3.826   4.496   4.355
    1C        C  394   3.620   4.553   4.476
    1C        C  395   3.758   4.526   4.475
    1C        C  396   3.547   4.558   4.597
    1C        C  397   3.625   4.566   4.714
    1C        C  398   3.413   4.558   4.839
    1C        C  399   3.552   4.579   4.835
    1C        C  400   3.341   4.524   4.954
    1C        C  401   4.506   3.703   2.053
    1C        C  402   4.456   3.918   2.168
    1C        C  403   4.497   3.783   2.168
    1C        C  404   4.420   3.981   2.289
    1C        C  405   4.438   3.909   2.409
    1C        C  406   4.329   4.095   2.527
    1C        C  407   4.406   3.977   2.528
    1C        C  408   4.282   4.153   2.647
    1C        C  409   4.328   4.099   2.769
    1C        C  410   4.179   4.250   2.891
    1C        C  411   4.283   4.154   2.891
    1C        C  412   4.123   4.297   3.012
    1C        C  413   4.180   4.256   3.134
    1C        C  414   4.007   4.380   3.254
    1C        C  415   4.126   4.303   3.256
    1C        C  416   3.946   4.415   3.377
    1C        C  417   4.008   4.386   3.501
    1C        C  418   3.812   4.472   3.620
    1C        C  419   3.945   4.423   3.622
    1C        C  420   3.747   4.494   3.744
    1C        C  421   3.817   4.480   3.865
    1C        C  422   3.609   4.522   3.989
    1C        C  423   3.749   4.503   3.987
    1C        C  424   3.543   4.533   4.114
    1C        C  425   3.617   4.533   4.234
    1C        C  426   3.405   4.548   4.357
    1C        C  427   3.546   4.551   4.355
    1C        C  428   3.333   4.545   4.479
    1C        C  429   3.406   4.552   4.599
    1C        C  430   3.195   4.526   4.725
    1C        C  431   3.334   4.551   4.721
    1C        C  432   3.125   4.499   4.846
    1C        C  433   3.207   4.486   4.959
    1C        C  434   4.387   4.123   2.051
    1C        C  435   4.451   3.998   2.053
    1C        C  436   4.308   4.164   2.163
    1C        C  437   4.341   4.100   2.285
    1C        C  438   4.190   4.254   2.402
    1C        C  439   4.290   4.155   2.405
    1C        C  440   4.134   4.302   2.523
    1C        C  441   4.188   4.258   2.646
    1C        C  442   4.013   4.378   2.766
    1C        C  443   4.130   4.300   2.768
    1C        C  444   3.948   4.412   2.887
    1C        C  445   4.007   4.377   3.011
    1C        C  446   3.813   4.466   3.131
    1C        C  447   3.944   4.413   3.132
    1C        C  448   3.747   4.484   3.255
    1C        C  449   3.814   4.466   3.378
    1C        C  450   3.607   4.521   3.500
    1C        C  451   3.745   4.495   3.498
    1C        C  452   3.539   4.534   3.624
    1C        C  453   3.610   4.530   3.746
    1C        C  454   3.399   4.543   3.867
    1C        C  455   3.540   4.542   3.868
    1C        C  456   3.331   4.535   3.990
    1C        C  457   3.402   4.538   4.113
    1C        C  458   3.196   4.506   4.239
    1C        C  459   3.333   4.539   4.236
    1C        C  460   3.126   4.491   4.361
    1C        C  461   3.194   4.517   4.482
    1C        C  462   2.999   4.436   4.605
    1C        C  463   3.126   4.497   4.605
    1C        C  464   2.933   4.405   4.725
    1C        C  465   2.991   4.448   4.848
    1C        C  466   2.800   4.342   4.964
    1C        C  467   2.907   4.432   4.963
    1C        C  468   4.122   4.285   2.046
    1C        C  469   4.190   4.245   2.162
    1C        C  470   4.009   4.369   2.283
    1C        C  471   4.131   4.295   2.281
    1C        C  472   3.942   4.400   2.403
    1C        C  473   4.009   4.368   2.524
    1C        C  474   3.815   4.458   2.646
    1C        C  475   3.946   4.406   2.645
    1C        C  476   3.747   4.486   2.767
    1C        C  477   3.817   4.464   2.888
    1C        C  478   3.606   4.510   3.010
    1C        C  479   3.745   4.483   3.009
    1C        C  480   3.537   4.515   3.133
    1C        C  481   3.608   4.508   3.255
    1C        C  482   3.396   4.528   3.378
    1C        C  483   3.538   4.522   3.377
    1C        C  484   3.328   4.528   3.501
    1C        C  485   3.398   4.535   3.624
    1C        C  486   3.189   4.504   3.748
    1C        C  487   3.327   4.537   3.746
    1C        C  488   3.127   4.481   3.873
    1C        C  489   3.192   4.508   3.995
    1C        C  490   3.000   4.419   4.118
    1C        C  491   3.127   4.481   4.118
    1C        C  492   2.939   4.387   4.241
    1C        C  493   2.999   4.430   4.362
    1C        C  494   2.827   4.308   4.486
    1C        C  495   2.937   4.397   4.484
    1C        C  496   2.776   4.260   4.608
    1C        C  497   2.823   4.314   4.730
    1C        C  498   2.667   4.167   4.848
    1C        C  499   2.755   4.278   4.848
    1C        C  500   2.604   4.120   4.964
    1C        C  501   4.003   4.358   2.045
    1C        C  502   3.816   4.466   2.161
    1C        C  503   3.943   4.402   2.163
    1C        C  504   3.745   4.484   2.281
    1C        C  505   3.812   4.454   2.402
    1C        C  506   3.608   4.507   2.523
    1C        C  507   3.746   4.478   2.524
    1C        C  508   3.537   4.513   2.645
    1C        C  509   3.608   4.512   2.767
    1C        C  510   3.394   4.528   2.888
    1C        C  511   3.535   4.521   2.888
    1C        C  512   3.325   4.522   3.011
    1C        C  513   3.396   4.521   3.133
    1C        C  514   3.188   4.491   3.260
    1C        C  515   3.326   4.522   3.255
    1C        C  516   3.119   4.473   3.382
    1C        C  517   3.189   4.503   3.501
    1C        C  518   2.998   4.417   3.628
    1C        C  519   3.124   4.481   3.624
    1C        C  520   2.939   4.380   3.751
    1C        C  521   3.004   4.412   3.872
    1C        C  522   2.836   4.285   4.000
    1C        C  523   2.946   4.374   3.995
    1C        C  524   2.791   4.236   4.124
    1C        C  525   2.835   4.293   4.246
    1C        C  526   2.693   4.136   4.369
    1C        C  527   2.778   4.249   4.368
    1C        C  528   2.650   4.080   4.492
    1C        C  529   2.690   4.148   4.609
    1C        C  530   2.591   3.961   4.735
    1C        C  531   2.640   4.094   4.730
    1C        C  532   2.547   3.906   4.859
    1C        C  533   2.535   3.999   4.967
    1C        C  534   3.619   4.561   2.047
    1C        C  535   3.749   4.510   2.046
    1C        C  536   3.535   4.537   2.160
    1C        C  537   3.606   4.513   2.281
    1C        C  538   3.393   4.514   2.404
    1C        C  539   3.534   4.517   2.403
    1C        C  540   3.322   4.509   2.526
    1C        C  541   3.396   4.513   2.646
    1C        C  542   3.185   4.484   2.768
    1C        C  543   3.322   4.516   2.767
    1C        C  544   3.120   4.466   2.892
    1C        C  545   3.187   4.491   3.014
    1C        C  546   2.995   4.406   3.137
    1C        C  547   3.122   4.470   3.138
    1C        C  548   2.938   4.368   3.260
    1C        C  549   2.993   4.409   3.384
    1C        C  550   2.833   4.277   3.508
    1C        C  551   2.936   4.374   3.509
    1C        C  552   2.783   4.233   3.633
    1C        C  553   2.831   4.289   3.754
    1C        C  554   2.702   4.124   3.879
    1C        C  555   2.785   4.238   3.877
    1C        C  556   2.663   4.065   4.001
    1C        C  557   2.703   4.125   4.122
    1C        C  558   2.611   3.941   4.250
    1C        C  559   2.666   4.071   4.247
    1C        C  560   2.574   3.880   4.372
    1C        C  561   2.598   3.949   4.493
    1C        C  562   2.535   3.750   4.618
    1C        C  563   2.569   3.887   4.617
    1C        C  564   2.521   3.686   4.743
    1C        C  565   2.526   3.764   4.862
    1C        C  566   2.538   3.549   4.981
    1C        C  567   2.525   3.688   4.979
    1C        C  568   3.327   4.477   2.043
    1C        C  569   3.395   4.516   2.159
    1C        C  570   3.184   4.480   2.282
    1C        C  571   3.322   4.511   2.282
    1C        C  572   3.114   4.466   2.404
    1C        C  573   3.183   4.483   2.526
    1C        C  574   2.985   4.407   2.650
    1C        C  575   3.114   4.463   2.648
    1C        C  576   2.928   4.367   2.774
    1C        C  577   2.992   4.406   2.893
    1C        C  578   2.823   4.280   3.018
    1C        C  579   2.932   4.369   3.016
    1C        C  580   2.777   4.227   3.140
    1C        C  581   2.830   4.278   3.261
    1C        C  582   2.697   4.116   3.388
    1C        C  583   2.787   4.225   3.385
    1C        C  584   2.661   4.060   3.513
    1C        C  585   2.701   4.118   3.635
    1C        C  586   2.595   3.938   3.758
    1C        C  587   2.663   4.062   3.758
    1C        C  588   2.569   3.875   3.882
    1C        C  589   2.602   3.937   4.004
    1C        C  590   2.547   3.736   4.132
    1C        C  591   2.584   3.873   4.129
    1C        C  592   2.534   3.670   4.255
    1C        C  593   2.542   3.743   4.376
    1C        C  594   2.521   3.534   4.501
    1C        C  595   2.529   3.675   4.499
    1C        C  596   2.525   3.466   4.625
    1C        C  597   2.521   3.544   4.743
    1C        C  598   2.538   3.331   4.867
    1C        C  599   2.533   3.472   4.864
    1C        C  600   2.537   3.256   4.986
    1C        C  601   3.194   4.440   2.043
    1C        C  602   2.983   4.398   2.161
    1C        C  603   3.117   4.447   2.160
    1C        C  604   2.924   4.365   2.286
    1C        C  605   2.988   4.403   2.406
    1C        C  606   2.818   4.276   2.529
    1C        C  607   2.927   4.365   2.528
    1C        C  608   2.772   4.223   2.652
    1C        C  609   2.820   4.276   2.774
    1C        C  610   2.691   4.111   2.897
    1C        C  611   2.772   4.226   2.897
    1C        C  612   2.655   4.055   3.021
    1C        C  613   2.690   4.115   3.144
    1C        C  614   2.598   3.927   3.268
    1C        C  615   2.658   4.055   3.267
    1C        C  616   2.572   3.866   3.393
    1C        C  617   2.602   3.931   3.514
    1C        C  618   2.537   3.732   3.642
    1C        C  619   2.572   3.868   3.637
    1C        C  620   2.528   3.665   3.766
    1C        C  621   2.538   3.737   3.887
    1C        C  622   2.521   3.526   4.011
    1C        C  623   2.532   3.667   4.010
    1C        C  624   2.519   3.457   4.135
    1C        C  625   2.519   3.529   4.256
    1C        C  626   2.539   3.320   4.380
    1C        C  627   2.521   3.460   4.380
    1C        C  628   2.558   3.255   4.504
    1C        C  629   2.544   3.326   4.625
    1C        C  630   2.601   3.123   4.745
    1C        C  631   2.561   3.259   4.748
    1C        C  632   2.621   3.051   4.866
    1C        C  633   2.565   3.119   4.980
    1C        C  634   2.783   4.304   2.057
    1C        C  635   2.894   4.390   2.049
    1C        C  636   2.749   4.232   2.172
    1C        C  637   2.812   4.278   2.290
    1C        C  638   2.675   4.113   2.411
    1C        C  639   2.760   4.225   2.410
    1C        C  640   2.643   4.050   2.533
    1C        C  641   2.692   4.107   2.653
    1C        C  642   2.593   3.921   2.780
    1C        C  643   2.652   4.049   2.776
    1C        C  644   2.564   3.859   2.903
    1C        C  645   2.595   3.927   3.024
    1C        C  646   2.536   3.723   3.151
    1C        C  647   2.576   3.859   3.146
    1C        C  648   2.524   3.656   3.275
    1C        C  649   2.537   3.729   3.396
    1C        C  650   2.520   3.521   3.519
    1C        C  651   2.525   3.662   3.519
    1C        C  652   2.523   3.454   3.644
    1C        C  653   2.519   3.524   3.767
    1C        C  654   2.536   3.314   3.891
    1C        C  655   2.517   3.454   3.889
    1C        C  656   2.554   3.248   4.015
    1C        C  657   2.540   3.318   4.137
    1C        C  658   2.607   3.118   4.261
    1C        C  659   2.552   3.249   4.259
    1C        C  660   2.638   3.057   4.385
    1C        C  661   2.605   3.122   4.506
    1C        C  662   2.709   2.934   4.626
    1C        C  663   2.634   3.054   4.626
    1C        C  664   2.752   2.875   4.747
    1C        C  665   2.702   2.933   4.867
    1C        C  666   2.744   2.869   4.984
    1C        C  667   2.682   4.025   2.054
    1C        C  668   2.687   4.105   2.169
    1C        C  669   2.588   3.916   2.293
    1C        C  670   2.641   4.048   2.290
    1C        C  671   2.566   3.849   2.415
    1C        C  672   2.586   3.921   2.535
    1C        C  673   2.525   3.719   2.659
    1C        C  674   2.567   3.854   2.658
    1C        C  675   2.516   3.651   2.783
    1C        C  676   2.532   3.722   2.904
    1C        C  677   2.513   3.514   3.030
    1C        C  678   2.526   3.655   3.028
    1C        C  679   2.517   3.446   3.154
    1C        C  680   2.516   3.515   3.277
    1C        C  681   2.534   3.306   3.403
    1C        C  682   2.514   3.446   3.400
    1C        C  683   2.551   3.241   3.527
    1C        C  684   2.536   3.314   3.648
    1C        C  685   2.605   3.113   3.774
    1C        C  686   2.553   3.244   3.769
    1C        C  687   2.638   3.050   3.896
    1C        C  688   2.607   3.117   4.017
    1C        C  689   2.715   2.936   4.141
    1C        C  690   2.635   3.053   4.139
    1C        C  691   2.758   2.879   4.263
    1C        C  692   2.714   2.937   4.384
    1C        C  693   2.751   2.875   4.505
    1C        C  694   2.637   3.892   2.059
    1C        C  695   2.538   3.704   2.176
    1C        C  696   2.578   3.839   2.175
    1C        C  697   2.515   3.638   2.299
    1C        C  698   2.528   3.713   2.418
    1C        C  699   2.496   3.505   2.544
    1C        C  700   2.505   3.646   2.540
    1C        C  701   2.511   3.437   2.667
    1C        C  702   2.511   3.510   2.788
    1C        C  703   2.526   3.299   2.914
    1C        C  704   2.509   3.439   2.910
    1C        C  705   2.543   3.232   3.037
    1C        C  706   2.531   3.305   3.157
    1C        C  707   2.592   3.104   3.283
    1C        C  708   2.546   3.238   3.280
    1C        C  709   2.629   3.045   3.406
    1C        C  710   2.606   3.111   3.528
    1C        C  711   2.714   2.930   3.651
    1C        C  712   2.638   3.049   3.652
    1C        C  713   2.754   2.872   3.774
    1C        C  714   2.710   2.929   3.896
    1C        C  715   2.753   2.876   4.019
    1C        C  716   2.452   3.501   2.062
    1C        C  717   2.498   3.633   2.062
    1C        C  718   2.473   3.426   2.182
    1C        C  719   2.488   3.499   2.303
    1C        C  720   2.515   3.289   2.427
    1C        C  721   2.490   3.428   2.426
    1C        C  722   2.541   3.225   2.550
    1C        C  723   2.534   3.298   2.671
    1C        C  724   2.595   3.095   2.792
    1C        C  725   2.550   3.229   2.793
    1C        C  726   2.623   3.034   2.916
    1C        C  727   2.594   3.100   3.037
    1C        C  728   2.705   2.924   3.160
    1C        C  729   2.627   3.041   3.161
    1C        C  730   2.751   2.872   3.283
    1C        C  731   2.707   2.927   3.405
    1C        C  732   2.751   2.872   3.528
    1C        C  733   2.492   3.201   2.073
    1C        C  734   2.494   3.284   2.185
    1C        C  735   2.583   3.087   2.307
    1C        C  736   2.525   3.216   2.306
    1C        C  737   2.617   3.023   2.428
    1C        C  738   2.589   3.092   2.548
    1C        C  739   2.697   2.911   2.670
    1C        C  740   2.616   3.027   2.670
    1C        C  741   2.743   2.858   2.793
    1C        C  742   2.703   2.917   2.915
    1C        C  743   2.749   2.867   3.038
    1C        C  744   2.544   3.072   2.073
    1C        C  745   2.686   2.901   2.186
    1C        C  746   2.607   3.018   2.186
    1C        C  747   2.735   2.845   2.306
    1C        C  748   2.691   2.902   2.427
    1C        C  749   2.739   2.850   2.549
    1C        C  750   2.739   2.843   2.070
    1C        C  751   3.672   2.307   1.993
    1C        O  752   3.721   2.199   2.035
    1C        O  753   3.644   2.313   1.856
    1C        C  754   4.636   3.060   1.979
    1C        O  755   4.613   2.993   1.875
    1C        O  756   4.771   3.064   2.018
    1C        C  757   4.426   4.225   1.950
    1C        O  758   4.474   4.336   1.985
    1C        O  759   4.456   4.206   1.815
    1C        C  760   3.598   4.684   1.966
    1C        O  761   3.633   4.793   2.019
    1C        O  762   3.610   4.680   1.827
    1C        C  763   2.869   4.504   1.958
    1C        O  764   2.878   4.496   1.832
    1C        O  765   2.811   4.623   2.003
    1C        C  766   2.342   3.476   1.965
    1C        O  767   2.379   3.439   1.851
    1C        O  768   2.217   3.418   1.990
    1C        C  769   4.720   3.616   5.040
    1C        O  770   4.716   3.595   5.164
    1C        O  771   4.849   3.637   4.990
    1C        C  772   4.288   4.474   5.014
    1C        O  773   4.288   4.458   5.139
    1C        O  774   4.418   4.477   4.963
    1C        C  775   4.142   2.512   5.074
    1C        O  776   4.180   2.392   5.061
    1C        O  777   4.158   2.559   5.205
    1C        C  778   2.908   4.527   5.076
    1C        O  779   2.857   4.642   5.078
    1C        O  780   2.961   4.492   5.201
    1C        C  781   2.482   3.043   5.076
    1C        O  782   2.363   3.012   5.048
    1C        O  783   2.485   3.070   5.212
    1C        C  784   2.429   3.988   5.070
    1C        O  785   2.304   3.984   5.054
    1C        O  786   2.464   3.950   5.200
    1C        C  787   2.952   2.407   2.030
    1C        O  788   2.953   2.406   1.904
    1C        O  789   2.937   2.279   2.082
    1C        C  790   3.191   2.400   5.091
    1C        O  791   3.164   2.278   5.079
    1C        O  792   3.178   2.449   5.221
    1C        H  793   4.258   3.042   5.042
    1C        H  794   4.146   2.838   5.069
    1C        H  795   4.550   3.125   5.027
    1C        H  796   4.567   3.363   5.059
    1C        H  797   4.492   3.773   5.052
    1C        H  798   4.422   3.973   5.062
    1C        H  799   4.308   4.186   5.053
    1C        H  800   4.028   4.516   5.040
    1C        H  801   3.825   4.597   5.036
    1C        H  802   3.593   4.651   5.033
    1C        H  803   3.382   4.537   5.051
    1C        H  804   3.162   4.483   5.056
    1C        H  805   3.901   2.463   5.057
    1C        H  806   3.675   2.493   5.082
    1C        H  807   2.990   2.529   5.044
    1C        H  808   3.446   2.524   5.066
    1C        H  809   2.870   2.727   5.079
    1C        H  810   2.689   2.885   5.075
    1C        H  811   2.467   3.293   5.058
    1C        H  812   2.564   3.509   5.077
    1C        H  813   2.514   3.740   5.072
    1C        H  814   2.646   4.156   5.056
    1C        H  815   2.731   4.355   5.045
    1C        H  816   2.713   2.879   1.973
    1C        H  817   2.825   2.673   1.983
    1C        H  818   3.210   2.454   1.983
    1C        H  819   3.444   2.493   1.986
    1C        H  820   3.845   2.528   1.976
    1C        H  821   4.051   2.645   1.966
    1C        H  822   4.289   2.704   1.992
    1C        H  823   4.378   2.924   1.973
    1C        H  824   4.595   3.310   1.975
    1C        H  825   4.440   3.526   1.987
    1C        H  826   4.545   3.748   1.964
    1C        H  827   3.816   4.560   1.980
    1C        H  828   3.944   4.354   1.956
    1C        H  829   4.153   4.236   1.956
    1C        H  830   4.496   3.963   1.962
    1C        H  831   2.671   3.824   1.984
    1C        H  832   2.729   4.058   1.964
    1C        H  833   2.710   4.308   1.979
    1C        H  834   3.382   4.418   1.972
    1C        H  835   3.153   4.396   1.955
    1C        H  836   2.532   3.014   1.985
    1C        H  837   2.466   3.237   1.975
    1C        H  838   2.496   3.682   1.967
    2V3OU   H29  839   2.801   3.550   5.112
    2V3OU   C27  840   2.783   3.505   5.212
    2V3OU   H27  841   2.728   3.575   5.280
    2V3OU   H28  842   2.728   3.407   5.207
    2V3OU   O11  843   2.911   3.479   5.271
    2V3OU   C15  844   2.916   3.400   5.384
    2V3OU   C13  845   3.048   3.383   5.432
    2V3OU   C14  846   3.074   3.274   5.517
    2V3OU   C16  847   2.969   3.191   5.552
    2V3OU    H6  848   2.992   3.107   5.620
    2V3OU   C12  849   3.214   3.235   5.546
    2V3OU    O2  850   3.234   3.134   5.617
    2V3OU   C10  851   3.326   3.311   5.488
    2V3OU    C8  852   3.458   3.272   5.505
    2V3OU   O10  853   3.485   3.152   5.563
    2V3OU   H26  854   3.401   3.120   5.600
    2V3OU    C6  855   3.569   3.352   5.466
    2V3OU    C5  856   3.540   3.471   5.399
    2V3OU    C4  857   3.706   3.294   5.461
    2V3OU    H4  858   3.726   3.223   5.547
    2V3OU    H5  859   3.710   3.236   5.364
    2V3OU    C2  860   3.815   3.401   5.460
    2V3OU    O6  861   3.813   3.474   5.583
    2V3OU   H21  862   3.765   3.555   5.558
    2V3OU    C3  863   3.784   3.494   5.342
    2V3OU    H2  864   3.861   3.574   5.331
    2V3OU    H3  865   3.783   3.431   5.249
    2V3OU   C25  866   3.951   3.332   5.442
    2V3OU    O7  867   3.999   3.297   5.335
    2V3OU   C26  868   4.033   3.295   5.565
    2V3OU   H22  869   4.069   3.387   5.617
    2V3OU   H23  870   4.123   3.237   5.532
    2V3OU    O8  871   3.958   3.213   5.651
    2V3OU   H24  872   3.931   3.268   5.726
    2V3OU    C1  873   3.650   3.564   5.358
    2V3OU    H1  874   3.630   3.620   5.262
    2V3OU    O3  875   3.664   3.657   5.466
    2V3OU   C19  876   3.624   3.793   5.449
    2V3OU    H9  877   3.527   3.799   5.392
    2V3OU    O4  878   3.717   3.856   5.364
    2V3OU   C20  879   3.849   3.877   5.415
    2V3OU   H10  880   3.888   3.772   5.431
    2V3OU   C24  881   3.610   3.858   5.587
    2V3OU   H16  882   3.545   3.794   5.653
    2V3OU   H17  883   3.561   3.958   5.580
    2V3OU   C23  884   3.751   3.878   5.642
    2V3OU   H15  885   3.793   3.774   5.659
    2V3OU    N1  886   3.731   3.952   5.765
    2V3OU   H19  887   3.813   3.932   5.819
    2V3OU   H20  888   3.645   3.934   5.812
    2V3OU   C21  889   3.853   3.952   5.549
    2V3OU   H11  890   3.957   3.929   5.587
    2V3OU    O5  891   3.840   4.093   5.551
    2V3OU   H18  892   3.786   4.102   5.631
    2V3OU   C22  893   3.915   3.952   5.301
    2V3OU   H12  894   3.862   4.050   5.284
    2V3OU   H13  895   3.908   3.892   5.206
    2V3OU   H14  896   4.024   3.965   5.324
    2V3OU   C11  897   3.157   3.474   5.395
    2V3OU    O1  898   3.138   3.583   5.337
    2V3OU    C9  899   3.297   3.429   5.415
    2V3OU    C7  900   3.404   3.508   5.376
    2V3OU    O9  901   3.387   3.625   5.305
    2V3OU   H25  902   3.291   3.631   5.295
    2V3OU   C17  903   2.812   3.313   5.425
    2V3OU    H7  904   2.712   3.351   5.407
    2V3OU   C18  905   2.838   3.204   5.506
    2V3OU    H8  906   2.756   3.151   5.556
    3SOL     OW  907   3.893   3.978   4.126
    3SOL    HW1  908   3.928   4.008   4.214
    3SOL    HW2  909   3.796   4.003   4.118
    4SOL     OW  910   6.512   0.223   0.507
    4SOL    HW1  911   6.574   0.249   0.580
    4SOL    HW2  912   6.420   0.255   0.529
    5SOL     OW  913   4.560   1.668   1.385
    5SOL    HW1  914   4.587   1.738   1.318
    5SOL    HW2  915   4.462   1.649   1.375
    6SOL     OW  916   5.364   0.394   2.821
    6SOL    HW1  917   5.283   0.386   2.879
    6SOL    HW2  918   5.413   0.307   2.820
    7SOL     OW  919   2.266   4.294   3.582
    7SOL    HW1  920   2.255   4.344   3.496
    7SOL    HW2  921   2.332   4.340   3.640
    8SOL     OW  922   1.974   3.369   5.670
    8SOL    HW1  923   1.890   3.335   5.630
    8SOL    HW2  924   1.988   3.328   5.759
    9SOL     OW  925   6.297   0.819   6.678
    9SOL    HW1  926   6.309   0.840   6.775
    9SOL    HW2  927   6.200   0.800   6.660
   10SOL     OW  928   4.466   4.821   3.051
   10SOL    HW1  929   4.556   4.797   3.014
   10SOL    HW2  930   4.396   4.764   3.008
   11SOL     OW  931   2.319   0.805   0.998
   11SOL    HW1  932   2.369   0.891   1.001
   11SOL    HW2  933   2.338   0.753   1.081
   12SOL     OW  934   3.205   5.207   3.470
   12SOL    HW1  935   3.303   5.191   3.470
   12SOL    HW2  936   3.179   5.258   3.551
   13SOL     OW  937   5.110   6.027   1.402
   13SOL    HW1  938   5.062   6.025   1.490
   13SOL    HW2  939   5.208   6.013   1.417
   14SOL     OW  940   4.244   5.354   4.956
   14SOL    HW1  941   4.227   5.302   5.040
   14SOL    HW2  942   4.340   5.382   4.952
   15SOL     OW  943   6.661   5.854   6.105
   15SOL    HW1  944   6.695   5.947   6.116
   15SOL    HW2  945   6.707   5.794   6.170
   16SOL     OW  946   1.269   3.660   5.303
   16SOL    HW1  947   1.303   3.646   5.210
   16SOL    HW2  948   1.310   3.743   5.341
   17SOL     OW  949   6.084   1.304   5.351
   17SOL    HW1  950   6.154   1.345   5.410
   17SOL    HW2  951   6.078   1.206   5.370
   18SOL     OW  952   3.081   0.879   5.758
   18SOL    HW1  953   3.145   0.806   5.783
   18SOL    HW2  954   3.133   0.961   5.732
   19SOL     OW  955   1.700   1.104   3.099
   19SOL    HW1  956   1.762   1.090   3.176
   19SOL    HW2  957   1.749   1.150   3.025
   20SOL     OW  958   6.063   1.723   5.672
   20SOL    HW1  959   6.001   1.774   5.612
   20SOL    HW2  960   6.027   1.631   5.686
   21SOL     OW  961   2.960   5.079   2.772
   21SOL    HW1  962   2.959   4.980   2.753
   21SOL    HW2  963   2.870   5.108   2.802
   22SOL     OW  964   1.820   6.137   5.807
   22SOL    HW1  965   1.795   6.069   5.739
   22SOL    HW2  966   1.740   6.190   5.834
   23SOL     OW  967   5.228   4.208   1.913
   23SOL    HW1  968   5.208   4.250   2.001
   23SOL    HW2  969   5.323   4.226   1.888
   24SOL     OW  970   4.431   0.722   1.591
   24SOL    HW1  971   4.480   0.805   1.563
   24SOL    HW2  972   4.381   0.685   1.513
   25SOL     OW  973   2.233   0.740   4.122
   25SOL    HW1  974   2.279   0.750   4.210
   25SOL    HW2  975   2.294   0.770   4.049
   26SOL     OW  976   1.013   3.024   6.714
   26SOL    HW1  977   1.029   3.009   6.617
   26SOL    HW2  978   1.089   3.075   6.754
   27SOL     OW  979   6.857   0.871   1.044
   27SOL    HW1  980   6.880   0.859   0.947
   27SOL    HW2  981   6.927   0.926   1.089
   28SOL     OW  982   2.717   0.916   4.658
   28SOL    HW1  983   2.788   0.902   4.589
   28SOL    HW2  984   2.754   0.897   4.749
   29SOL     OW  985   0.186   0.313   1.189
   29SOL    HW1  986   0.266   0.312   1.130
   29SOL    HW2  987   0.190   0.393   1.250
   30SOL     OW  988   4.252   0.496   4.971
   30SOL    HW1  989   4.257   0.396   4.981
   30SOL    HW2  990   4.289   0.523   4.883
   31SOL     OW  991   1.302   3.309   5.198
   31SOL    HW1  992   1.273   3.340   5.288
   31SOL    HW2  993   1.310   3.209   5.199
   32SOL     OW  994   2.465   0.683   1.219
   32SOL    HW1  995   2.439   0.705   1.313
   32SOL    HW2  996   2.561   0.710   1.204
   33SOL     OW  997   0.564   5.375   5.715
   33SOL    HW1  998   0.553   5.385   5.617
   33SOL    HW2  999   0.636   5.436   5.748
   34SOL     OW 1000   2.272   5.440   5.348
   34SOL    HW1 1001   2.195   5.503   5.336
   34SOL    HW2 1002   2.355   5.493   5.366
   35SOL     OW 1003   2.980   3.178   0.552
   35SOL    HW1 1004   2.941   3.087   0.567
   35SOL    HW2 1005   3.056   3.193   0.616
   36SOL     OW 1006   4.386   0.568   4.729
   36SOL    HW1 1007   4.440   0.488   4.756
   36SOL    HW2 1008   4.426   0.650   4.769
   37SOL     OW 1009   2.774   0.714   3.682
   37SOL    HW1 1010   2.872   0.697   3.687
   37SOL    HW2 1011   2.756   0.794   3.624
   38SOL     OW 1012   0.215   4.486   2.947
   38SOL    HW1 1013   0.134   4.543   2.934
   38SOL    HW2 1014   0.236   4.437   2.862
   39SOL     OW 1015   6.894   5.473   5.985
   39SOL    HW1 1016   6.799   5.444   5.994
   39SOL    HW2 1017   6.916   5.537   6.059
   40SOL     OW 1018   3.983   0.679   6.320
   40SOL    HW1 1019   4.079   0.672   6.292
   40SOL    HW2 1020   3.966   0.770   6.357
   41SOL     OW 1021   5.895   4.495   1.459
   41SOL    HW1 1022   5.978   4.498   1.404
   41SOL    HW2 1023   5.839   4.576   1.441
   42SOL     OW 1024   2.101   5.633   6.039
   42SOL    HW1 1025   2.080   5.544   6.078
   42SOL    HW2 1026   2.171   5.622   5.968
   43SOL     OW 1027   4.847   6.593   4.545
   43SOL    HW1 1028   4.831   6.628   4.452
   43SOL    HW2 1029   4.838   6.667   4.611
   44SOL     OW 1030   6.686   1.547   6.055
   44SOL    HW1 1031   6.745   1.613   6.101
   44SOL    HW2 1032   6.591   1.575   6.064
   45SOL     OW 1033   3.482   5.030   0.049
   45SOL    HW1 1034   3.491   5.107   0.113
   45SOL    HW2 1035   3.572   5.005   0.014
   46SOL     OW 1036   0.191   2.735   4.222
   46SOL    HW1 1037   0.148   2.822   4.248
   46SOL    HW2 1038   0.253   2.750   4.145
   47SOL     OW 1039   5.959   2.745   1.534
   47SOL    HW1 1040   5.872   2.778   1.497
   47SOL    HW2 1041   6.023   2.821   1.542
   48SOL     OW 1042   6.236   3.671   0.793
   48SOL    HW1 1043   6.242   3.715   0.703
   48SOL    HW2 1044   6.142   3.672   0.825
   49SOL     OW 1045   4.075   3.011   0.184
   49SOL    HW1 1046   4.034   3.053   0.103
   49SOL    HW2 1047   4.132   3.078   0.231
   50SOL     OW 1048   6.428   3.393   6.667
   50SOL    HW1 1049   6.340   3.440   6.663
   50SOL    HW2 1050   6.428   3.329   6.744
   51SOL     OW 1051   2.730   5.879   2.695
   51SOL    HW1 1052   2.810   5.882   2.754
   51SOL    HW2 1053   2.753   5.833   2.609
   52SOL     OW 1054   5.741   2.871   1.454
   52SOL    HW1 1055   5.693   2.905   1.373
   52SOL    HW2 1056   5.682   2.880   1.534
   53SOL     OW 1057   3.956   0.447   2.364
   53SOL    HW1 1058   3.863   0.462   2.399
   53SOL    HW2 1059   4.018   0.515   2.402
   54SOL     OW 1060   5.451   6.891   0.133
   54SOL    HW1 1061   5.447   6.962   0.203
   54SOL    HW2 1062   5.437   6.801   0.176
   55SOL     OW 1063   0.959   3.292   6.107
   55SOL    HW1 1064   0.968   3.391   6.098
   55SOL    HW2 1065   1.048   3.252   6.130
   56SOL     OW 1066   0.830   2.580   6.887
   56SOL    HW1 1067   0.910   2.528   6.916
   56SOL    HW2 1068   0.778   2.609   6.967
   57SOL     OW 1069   4.597   0.345   0.069
   57SOL    HW1 1070   4.513   0.383   0.108
   57SOL    HW2 1071   4.599   0.364   6.998
   58SOL     OW 1072   0.932   0.602   6.166
   58SOL    HW1 1073   0.881   0.558   6.092
   58SOL    HW2 1074   0.873   0.609   6.247
   59SOL     OW 1075   4.890   3.252   5.710
   59SOL    HW1 1076   4.872   3.322   5.780
   59SOL    HW2 1077   4.894   3.295   5.620
   60SOL     OW 1078   5.597   0.544   2.948
   60SOL    HW1 1079   5.509   0.515   2.910
   60SOL    HW2 1080   5.600   0.644   2.954
   61SOL     OW 1081   6.672   6.342   5.193
   61SOL    HW1 1082   6.679   6.287   5.276
   61SOL    HW2 1083   6.745   6.317   5.130
   62SOL     OW 1084   6.666   1.954   2.365
   62SOL    HW1 1085   6.577   1.920   2.396
   62SOL    HW2 1086   6.689   2.037   2.416
   63SOL     OW 1087   4.478   5.808   4.977
   63SOL    HW1 1088   4.450   5.773   5.066
   63SOL    HW2 1089   4.402   5.803   4.913
   64SOL     OW 1090   0.271   4.769   0.069
   64SOL    HW1 1091   0.318   4.683   0.052
   64SOL    HW2 1092   0.193   4.777   0.007
   65SOL     OW 1093   1.113   0.174   5.337
   65SOL    HW1 1094   1.110   0.265   5.378
   65SOL    HW2 1095   1.165   0.112   5.396
   66SOL     OW 1096   4.299   0.854   2.190
   66SOL    HW1 1097   4.328   0.853   2.286
   66SOL    HW2 1098   4.369   0.898   2.135
   67SOL     OW 1099   1.165   2.461   1.192
   67SOL    HW1 1100   1.190   2.376   1.147
   67SOL    HW2 1101   1.127   2.525   1.125
   68SOL     OW 1102   0.001   1.723   5.476
   68SOL    HW1 1103   0.080   1.662   5.472
   68SOL    HW2 1104   6.962   1.686   5.540
   69SOL     OW 1105   1.027   5.471   6.265
   69SOL    HW1 1106   1.076   5.384   6.274
   69SOL    HW2 1107   1.060   5.536   6.333
   70SOL     OW 1108   4.994   3.492   4.089
   70SOL    HW1 1109   5.060   3.427   4.054
   70SOL    HW2 1110   4.964   3.553   4.015
   71SOL     OW 1111   4.435   1.546   4.337
   71SOL    HW1 1112   4.460   1.623   4.278
   71SOL    HW2 1113   4.338   1.553   4.363
   72SOL     OW 1114   0.412   0.869   3.736
   72SOL    HW1 1115   0.444   0.889   3.643
   72SOL    HW2 1116   0.453   0.934   3.800
   73SOL     OW 1117   2.880   0.547   1.153
   73SOL    HW1 1118   2.848   0.628   1.203
   73SOL    HW2 1119   2.802   0.489   1.130
   74SOL     OW 1120   2.098   2.522   0.778
   74SOL    HW1 1121   2.022   2.463   0.803
   74SOL    HW2 1122   2.177   2.500   0.834
   75SOL     OW 1123   3.937   2.834   0.363
   75SOL    HW1 1124   3.866   2.804   0.299
   75SOL    HW2 1125   3.987   2.912   0.324
   76SOL     OW 1126   3.452   4.684   5.273
   76SOL    HW1 1127   3.352   4.694   5.281
   76SOL    HW2 1128   3.492   4.773   5.250
   77SOL     OW 1129   1.500   4.368   4.555
   77SOL    HW1 1130   1.564   4.387   4.481
   77SOL    HW2 1131   1.539   4.300   4.618
   78SOL     OW 1132   4.947   2.108   0.827
   78SOL    HW1 1133   4.903   2.026   0.864
   78SOL    HW2 1134   5.018   2.139   0.891
   79SOL     OW 1135   1.957   5.002   2.685
   79SOL    HW1 1136   1.981   5.002   2.587
   79SOL    HW2 1137   1.903   5.084   2.706
   80SOL     OW 1138   4.749   1.962   4.405
   80SOL    HW1 1139   4.661   1.942   4.447
   80SOL    HW2 1140   4.765   2.061   4.405
   81SOL     OW 1141   3.752   5.439   1.448
   81SOL    HW1 1142   3.806   5.379   1.389
   81SOL    HW2 1143   3.656   5.412   1.443
   82SOL     OW 1144   1.985   5.611   1.549
   82SOL    HW1 1145   2.055   5.623   1.480
   82SOL    HW2 1146   1.910   5.557   1.512
   83SOL     OW 1147   4.988   1.280   4.575
   83SOL    HW1 1148   4.950   1.302   4.485
   83SOL    HW2 1149   5.084   1.308   4.578
   84SOL     OW 1150   5.853   2.472   2.431
   84SOL    HW1 1151   5.806   2.436   2.351
   84SOL    HW2 1152   5.806   2.555   2.462
   85SOL     OW 1153   2.277   0.601   3.769
   85SOL    HW1 1154   2.333   0.520   3.751
   85SOL    HW2 1155   2.336   0.677   3.795
   86SOL     OW 1156   5.274   0.600   6.582
   86SOL    HW1 1157   5.268   0.700   6.588
   86SOL    HW2 1158   5.365   0.571   6.609
   87SOL     OW 1159   2.944   4.392   0.182
   87SOL    HW1 1160   2.899   4.470   0.224
   87SOL    HW2 1161   3.013   4.424   0.116
   88SOL     OW 1162   3.479   3.644   0.001
   88SOL    HW1 1163   3.573   3.641   6.994
   88SOL    HW2 1164   3.469   3.723   0.061
   89SOL     OW 1165   2.924   3.759   3.107
   89SOL    HW1 1166   2.945   3.812   3.188
   89SOL    HW2 1167   2.944   3.813   3.025
   90SOL     OW 1168   4.709   4.174   3.394
   90SOL    HW1 1169   4.684   4.077   3.397
   90SOL    HW2 1170   4.736   4.199   3.302
   91SOL     OW 1171   4.669   4.794   5.738
   91SOL    HW1 1172   4.764   4.767   5.758
   91SOL    HW2 1173   4.667   4.848   5.655
   92SOL     OW 1174   5.610   3.904   6.674
   92SOL    HW1 1175   5.643   3.996   6.697
   92SOL    HW2 1176   5.577   3.903   6.579
   93SOL     OW 1177   3.006   3.491   2.088
   93SOL    HW1 1178   2.966   3.478   1.997
   93SOL    HW2 1179   3.081   3.426   2.100
   94SOL     OW 1180   3.122   1.993   5.347
   94SOL    HW1 1181   3.089   2.086   5.362
   94SOL    HW2 1182   3.109   1.968   5.251
   95SOL     OW 1183   0.607   0.459   4.411
   95SOL    HW1 1184   0.653   0.543   4.438
   95SOL    HW2 1185   0.673   0.384   4.412
   96SOL     OW 1186   5.353   5.176   0.518
   96SOL    HW1 1187   5.277   5.236   0.543
   96SOL    HW2 1188   5.397   5.140   0.600
   97SOL     OW 1189   2.825   5.102   5.698
   97SOL    HW1 1190   2.827   5.008   5.665
   97SOL    HW2 1191   2.760   5.155   5.644
   98SOL     OW 1192   1.534   2.569   3.207
   98SOL    HW1 1193   1.530   2.470   3.200
   98SOL    HW2 1194   1.443   2.608   3.194
   99SOL     OW 1195   3.977   3.148   5.067
   99SOL    HW1 1196   3.953   3.197   5.151
   99SOL    HW2 1197   3.952   3.052   5.076
  100SOL     OW 1198   0.117   0.832   3.935
  100SOL    HW1 1199   0.206   0.823   3.889
  100SOL    HW2 1200   0.050   0.773   3.890
  101SOL     OW 1201   6.819   4.223   2.521
  101SOL    HW1 1202   6.824   4.234   2.620
  101SOL    HW2 1203   6.871   4.142   2.493
  102SOL     OW 1204   2.941   0.665   0.305
  102SOL    HW1 1205   2.863   0.727   0.319
  102SOL    HW2 1206   3.010   0.681   0.375
  103SOL     OW 1207   2.306   0.900   2.038
  103SOL    HW1 1208   2.229   0.964   2.042
  103SOL    HW2 1209   2.375   0.927   2.105
  104SOL     OW 1210   0.749   4.695   1.528
  104SOL    HW1 1211   0.649   4.700   1.535
  104SOL    HW2 1212   0.775   4.605   1.493
  105SOL     OW 1213   5.546   0.927   5.651
  105SOL    HW1 1214   5.604   0.877   5.716
  105SOL    HW2 1215   5.579   0.910   5.558
  106SOL     OW 1216   5.696   4.728   2.148
  106SOL    HW1 1217   5.752   4.806   2.122
  106SOL    HW2 1218   5.721   4.697   2.239
  107SOL     OW 1219   5.588   0.729   1.183
  107SOL    HW1 1220   5.532   0.715   1.101
  107SOL    HW2 1221   5.682   0.749   1.156
  108SOL     OW 1222   2.029   1.146   5.409
  108SOL    HW1 1223   2.025   1.120   5.506
  108SOL    HW2 1224   1.940   1.129   5.367
  109SOL     OW 1225   1.793   0.931   4.098
  109SOL    HW1 1226   1.831   0.923   4.006
  109SOL    HW2 1227   1.703   0.887   4.100
  110SOL     OW 1228   3.020   4.074   5.486
  110SOL    HW1 1229   3.101   4.026   5.452
  110SOL    HW2 1230   3.034   4.173   5.476
  111SOL     OW 1231   6.759   1.397   1.594
  111SOL    HW1 1232   6.840   1.345   1.621
  111SOL    HW2 1233   6.748   1.393   1.495
  112SOL     OW 1234   4.644   0.050   6.752
  112SOL    HW1 1235   4.736   0.025   6.783
  112SOL    HW2 1236   4.581   7.004   6.775
  113SOL     OW 1237   6.907   5.989   1.556
  113SOL    HW1 1238   6.840   5.989   1.482
  113SOL    HW2 1239   6.862   6.009   1.643
  114SOL     OW 1240   0.461   3.510   3.603
  114SOL    HW1 1241   0.494   3.417   3.582
  114SOL    HW2 1242   0.434   3.556   3.518
  115SOL     OW 1243   5.637   0.751   3.783
  115SOL    HW1 1244   5.556   0.801   3.754
  115SOL    HW2 1245   5.715   0.814   3.789
  116SOL     OW 1246   0.872   4.709   0.348
  116SOL    HW1 1247   0.850   4.807   0.348
  116SOL    HW2 1248   0.962   4.696   0.306
  117SOL     OW 1249   2.364   1.888   6.988
  117SOL    HW1 1250   2.463   1.880   6.976
  117SOL    HW2 1251   2.324   1.926   6.905
  118SOL     OW 1252   1.498   1.857   4.357
  118SOL    HW1 1253   1.571   1.823   4.296
  118SOL    HW2 1254   1.469   1.947   4.327
  119SOL     OW 1255   6.796   6.176   6.458
  119SOL    HW1 1256   6.746   6.092   6.436
  119SOL    HW2 1257   6.731   6.247   6.484
  120SOL     OW 1258   4.764   2.134   4.703
  120SOL    HW1 1259   4.671   2.121   4.667
  120SOL    HW2 1260   4.758   2.171   4.795
  121SOL     OW 1261   1.501   4.375   6.561
  121SOL    HW1 1262   1.566   4.351   6.489
  121SOL    HW2 1263   1.531   4.334   6.647
  122SOL     OW 1264   0.610   3.871   6.928
  122SOL    HW1 1265   0.689   3.932   6.925
  122SOL    HW2 1266   0.637   3.779   6.902
  123SOL     OW 1267   0.949   1.294   1.660
  123SOL    HW1 1268   0.882   1.219   1.661
  123SOL    HW2 1269   1.031   1.264   1.611
  124SOL     OW 1270   2.324   2.770   0.548
  124SOL    HW1 1271   2.379   2.720   0.480
  124SOL    HW2 1272   2.345   2.736   0.639
  125SOL     OW 1273   3.738   3.703   0.159
  125SOL    HW1 1274   3.823   3.685   0.209
  125SOL    HW2 1275   3.759   3.707   0.061
  126SOL     OW 1276   4.160   3.478   4.357
  126SOL    HW1 1277   4.079   3.439   4.402
  126SOL    HW2 1278   4.239   3.470   4.418
  127SOL     OW 1279   0.560   5.975   5.952
  127SOL    HW1 1280   0.522   6.042   6.015
  127SOL    HW2 1281   0.501   5.966   5.872
  128SOL     OW 1282   4.988   3.335   0.784
  128SOL    HW1 1283   4.919   3.375   0.844
  128SOL    HW2 1284   4.944   3.270   0.722
  129SOL     OW 1285   1.509   5.471   1.119
  129SOL    HW1 1286   1.499   5.386   1.170
  129SOL    HW2 1287   1.484   5.548   1.178
  130SOL     OW 1288   5.236   2.596   4.923
  130SOL    HW1 1289   5.156   2.583   4.982
  130SOL    HW2 1290   5.292   2.669   4.961
  131SOL     OW 1291   0.002   2.099   3.673
  131SOL    HW1 1292   7.003   2.012   3.630
  131SOL    HW2 1293   0.049   2.080   3.759
  132SOL     OW 1294   4.124   3.325   2.191
  132SOL    HW1 1295   4.164   3.363   2.108
  132SOL    HW2 1296   4.069   3.245   2.168
  133SOL     OW 1297   5.432   6.542   6.019
  133SOL    HW1 1298   5.387   6.504   5.939
  133SOL    HW2 1299   5.513   6.487   6.041
  134SOL     OW 1300   4.950   0.758   1.883
  134SOL    HW1 1301   4.970   0.844   1.837
  134SOL    HW2 1302   4.962   0.770   1.982
  135SOL     OW 1303   4.999   3.487   3.444
  135SOL    HW1 1304   4.987   3.586   3.435
  135SOL    HW2 1305   4.937   3.453   3.515
  136SOL     OW 1306   3.447   7.022   5.928
  136SOL    HW1 1307   3.507   0.017   5.851
  136SOL    HW2 1308   3.474   6.934   5.966
  137SOL     OW 1309   2.809   2.499   5.565
  137SOL    HW1 1310   2.845   2.477   5.475
  137SOL    HW2 1311   2.713   2.529   5.557
  138SOL     OW 1312   0.992   5.888   6.011
  138SOL    HW1 1313   1.030   5.806   5.969
  138SOL    HW2 1314   1.052   5.918   6.086
  139SOL     OW 1315   2.119   6.091   0.094
  139SOL    HW1 1316   2.185   6.065   0.024
  139SOL    HW2 1317   2.154   6.168   0.147
  140SOL     OW 1318   2.583   0.124   1.898
  140SOL    HW1 1319   2.634   0.156   1.818
  140SOL    HW2 1320   2.491   0.161   1.895
  141SOL     OW 1321   6.537   3.613   0.260
  141SOL    HW1 1322   6.482   3.679   0.310
  141SOL    HW2 1323   6.621   3.656   0.228
  142SOL     OW 1324   1.569   4.345   2.627
  142SOL    HW1 1325   1.586   4.248   2.610
  142SOL    HW2 1326   1.641   4.381   2.686
  143SOL     OW 1327   4.982   6.685   2.275
  143SOL    HW1 1328   5.034   6.699   2.359
  143SOL    HW2 1329   5.045   6.678   2.198
  144SOL     OW 1330   3.596   4.946   3.517
  144SOL    HW1 1331   3.622   4.947   3.613
  144SOL    HW2 1332   3.550   5.031   3.493
  145SOL     OW 1333   6.852   4.965   3.088
  145SOL    HW1 1334   6.755   4.945   3.099
  145SOL    HW2 1335   6.905   4.881   3.099
  146SOL     OW 1336   5.841   1.693   6.634
  146SOL    HW1 1337   5.848   1.629   6.558
  146SOL    HW2 1338   5.745   1.709   6.656
  147SOL     OW 1339   4.928   1.239   5.389
  147SOL    HW1 1340   5.009   1.181   5.394
  147SOL    HW2 1341   4.862   1.210   5.459
  148SOL     OW 1342   0.990   5.192   0.745
  148SOL    HW1 1343   1.000   5.112   0.685
  148SOL    HW2 1344   1.021   5.274   0.697
  149SOL     OW 1345   2.021   2.936   5.798
  149SOL    HW1 1346   2.070   2.901   5.878
  149SOL    HW2 1347   2.078   2.927   5.716
  150SOL     OW 1348   4.283   1.740   4.857
  150SOL    HW1 1349   4.355   1.804   4.829
  150SOL    HW2 1350   4.261   1.680   4.781
  151SOL     OW 1351   3.824   2.468   0.745
  151SOL    HW1 1352   3.755   2.419   0.797
  151SOL    HW2 1353   3.779   2.529   0.679
  152SOL     OW 1354   1.276   2.006   0.147
  152SOL    HW1 1355   1.325   1.923   0.176
  152SOL    HW2 1356   1.334   2.060   0.087
  153SOL     OW 1357   3.129   1.027   3.474
  153SOL    HW1 1358   3.197   1.083   3.428
  153SOL    HW2 1359   3.167   0.937   3.492
  154SOL     OW 1360   5.982   1.541   1.405
  154SOL    HW1 1361   6.071   1.584   1.425
  154SOL    HW2 1362   5.993   1.442   1.404
  155SOL     OW 1363   1.711   6.848   2.163
  155SOL    HW1 1364   1.728   6.939   2.126
  155SOL    HW2 1365   1.793   6.793   2.154
  156SOL     OW 1366   5.021   2.069   0.549
  156SOL    HW1 1367   4.973   2.108   0.628
  156SOL    HW2 1368   4.956   2.057   0.474
  157SOL     OW 1369   4.634   5.068   6.866
  157SOL    HW1 1370   4.633   4.977   6.824
  157SOL    HW2 1371   4.714   5.119   6.834
  158SOL     OW 1372   0.260   2.921   2.741
  158SOL    HW1 1373   0.318   2.957   2.668
  158SOL    HW2 1374   0.267   2.980   2.821
  159SOL     OW 1375   5.960   5.619   0.393
  159SOL    HW1 1376   5.978   5.620   0.294
  159SOL    HW2 1377   6.046   5.617   0.443
  160SOL     OW 1378   6.475   6.895   1.257
  160SOL    HW1 1379   6.565   6.877   1.298
  160SOL    HW2 1380   6.469   6.846   1.170
  161SOL     OW 1381   0.114   6.654   0.246
  161SOL    HW1 1382   0.049   6.666   0.171
  161SOL    HW2 1383   0.194   6.713   0.230
  162SOL     OW 1384   4.015   0.100   0.077
  162SOL    HW1 1385   3.968   0.177   0.035
  162SOL    HW2 1386   4.109   0.095   0.042
  163SOL     OW 1387   6.842   3.716   2.943
  163SOL    HW1 1388   6.901   3.648   2.988
  163SOL    HW2 1389   6.892   3.757   2.867
  164SOL     OW 1390   2.090   2.397   3.509
  164SOL    HW1 1391   2.183   2.429   3.524
  164SOL    HW2 1392   2.092   2.300   3.483
  165SOL     OW 1393   0.471   6.281   3.492
  165SOL    HW1 1394   0.489   6.375   3.466
  165SOL    HW2 1395   0.501   6.266   3.586
  166SOL     OW 1396   0.217   3.498   3.174
  166SOL    HW1 1397   0.126   3.537   3.160
  166SOL    HW2 1398   0.263   3.489   3.086
  167SOL     OW 1399   4.719   2.062   6.975
  167SOL    HW1 1400   4.705   1.985   6.911
  167SOL    HW2 1401   4.648   2.060   0.018
  168SOL     OW 1402   5.000   4.226   1.753
  168SOL    HW1 1403   5.019   4.162   1.679
  168SOL    HW2 1404   5.086   4.254   1.796
  169SOL     OW 1405   5.987   1.888   1.419
  169SOL    HW1 1406   5.985   1.983   1.387
  169SOL    HW2 1407   5.956   1.828   1.346
  170SOL     OW 1408   0.826   5.414   3.053
  170SOL    HW1 1409   0.860   5.463   3.133
  170SOL    HW2 1410   0.840   5.469   2.971
  171SOL     OW 1411   3.057   4.306   0.505
  171SOL    HW1 1412   3.103   4.381   0.457
  171SOL    HW2 1413   2.959   4.328   0.514
  172SOL     OW 1414   6.705   1.923   0.210
  172SOL    HW1 1415   6.708   1.973   0.123
  172SOL    HW2 1416   6.614   1.883   0.222
  173SOL     OW 1417   6.812   1.989   5.050
  173SOL    HW1 1418   6.875   2.066   5.061
  173SOL    HW2 1419   6.835   1.918   5.117
  174SOL     OW 1420   5.900   5.419   5.510
  174SOL    HW1 1421   5.978   5.469   5.548
  174SOL    HW2 1422   5.841   5.483   5.461
  175SOL     OW 1423   0.791   0.352   1.175
  175SOL    HW1 1424   0.767   0.257   1.157
  175SOL    HW2 1425   0.885   0.357   1.209
  176SOL     OW 1426   5.522   4.580   2.378
  176SOL    HW1 1427   5.477   4.670   2.385
  176SOL    HW2 1428   5.497   4.538   2.291
  177SOL     OW 1429   5.891   2.503   4.362
  177SOL    HW1 1430   5.847   2.589   4.387
  177SOL    HW2 1431   5.829   2.427   4.383
  178SOL     OW 1432   2.007   6.299   4.901
  178SOL    HW1 1433   2.017   6.225   4.967
  178SOL    HW2 1434   2.008   6.387   4.949
  179SOL     OW 1435   3.660   4.546   1.415
  179SOL    HW1 1436   3.643   4.640   1.383
  179SOL    HW2 1437   3.746   4.514   1.376
  180SOL     OW 1438   3.993   1.563   0.447
  180SOL    HW1 1439   3.952   1.640   0.398
  180SOL    HW2 1440   4.016   1.491   0.382
  181SOL     OW 1441   3.029   2.237   5.366
  181SOL    HW1 1442   3.077   2.301   5.306
  181SOL    HW2 1443   2.944   2.208   5.322
  182SOL     OW 1444   4.869   2.467   6.738
  182SOL    HW1 1445   4.915   2.421   6.661
  182SOL    HW2 1446   4.794   2.523   6.703
  183SOL     OW 1447   3.400   1.332   3.679
  183SOL    HW1 1448   3.423   1.407   3.617
  183SOL    HW2 1449   3.342   1.366   3.753
  184SOL     OW 1450   5.684   6.035   3.680
  184SOL    HW1 1451   5.738   5.998   3.604
  184SOL    HW2 1452   5.722   6.002   3.766
  185SOL     OW 1453   6.781   1.467   4.174
  185SOL    HW1 1454   6.761   1.535   4.103
  185SOL    HW2 1455   6.737   1.381   4.151
  186SOL     OW 1456   4.290   5.872   4.069
  186SOL    HW1 1457   4.275   5.950   4.130
  186SOL    HW2 1458   4.330   5.903   3.983
  187SOL     OW 1459   4.916   6.513   1.697
  187SOL    HW1 1460   4.836   6.569   1.718
  187SOL    HW2 1461   4.999   6.567   1.714
  188SOL     OW 1462   1.780   3.464   3.188
  188SOL    HW1 1463   1.734   3.389   3.236
  188SOL    HW2 1464   1.879   3.452   3.195
  189SOL     OW 1465   6.225   5.247   6.131
  189SOL    HW1 1466   6.161   5.286   6.198
  189SOL    HW2 1467   6.195   5.269   6.039
  190SOL     OW 1468   6.203   0.331   0.216
  190SOL    HW1 1469   6.237   0.365   0.304
  190SOL    HW2 1470   6.130   0.264   0.232
  191SOL     OW 1471   6.918   1.234   5.761
  191SOL    HW1 1472   6.838   1.290   5.741
  191SOL    HW2 1473   6.999   1.292   5.766
  192SOL     OW 1474   0.704   5.397   0.698
  192SOL    HW1 1475   0.691   5.375   0.795
  192SOL    HW2 1476   0.637   5.465   0.670
  193SOL     OW 1477   2.448   6.297   6.305
  193SOL    HW1 1478   2.386   6.236   6.354
  193SOL    HW2 1479   2.396   6.358   6.246
  194SOL     OW 1480   3.828   6.654   2.071
  194SOL    HW1 1481   3.736   6.690   2.058
  194SOL    HW2 1482   3.894   6.730   2.069
  195SOL     OW 1483   3.707   0.754   1.655
  195SOL    HW1 1484   3.637   0.732   1.587
  195SOL    HW2 1485   3.705   0.686   1.728
  196SOL     OW 1486   1.934   1.519   0.873
  196SOL    HW1 1487   1.962   1.511   0.777
  196SOL    HW2 1488   1.860   1.455   0.891
  197SOL     OW 1489   2.313   6.133   0.543
  197SOL    HW1 1490   2.238   6.147   0.478
  197SOL    HW2 1491   2.399   6.163   0.502
  198SOL     OW 1492   4.312   0.060   6.742
  198SOL    HW1 1493   4.333   0.149   6.703
  198SOL    HW2 1494   4.246   0.013   6.684
  199SOL     OW 1495   6.815   6.508   3.148
  199SOL    HW1 1496   6.906   6.503   3.191
  199SOL    HW2 1497   6.755   6.562   3.206
  200SOL     OW 1498   0.512   3.628   3.833
  200SOL    HW1 1499   0.547   3.551   3.886
  200SOL    HW2 1500   0.499   3.601   3.738
  201SOL     OW 1501   3.481   1.035   6.744
  201SOL    HW1 1502   3.384   1.034   6.768
  201SOL    HW2 1503   3.511   0.942   6.723
  202SOL     OW 1504   3.495   0.274   2.888
  202SOL    HW1 1505   3.405   0.300   2.924
  202SOL    HW2 1506   3.533   0.201   2.946
  203SOL     OW 1507   5.460   3.653   6.560
  203SOL    HW1 1508   5.475   3.561   6.524
  203SOL    HW2 1509   5.495   3.721   6.495
  204SOL     OW 1510   2.328   6.567   0.927
  204SOL    HW1 1511   2.231   6.564   0.903
  204SOL    HW2 1512   2.376   6.493   0.881
  205SOL     OW 1513   6.194   1.659   0.701
  205SOL    HW1 1514   6.276   1.716   0.696
  205SOL    HW2 1515   6.136   1.677   0.622
  206SOL     OW 1516   1.027   4.616   2.039
  206SOL    HW1 1517   0.974   4.589   1.959
  206SOL    HW2 1518   1.124   4.597   2.023
  207SOL     OW 1519   4.602   0.411   5.800
  207SOL    HW1 1520   4.589   0.477   5.726
  207SOL    HW2 1521   4.697   0.413   5.830
  208SOL     OW 1522   4.573   5.472   6.217
  208SOL    HW1 1523   4.599   5.400   6.153
  208SOL    HW2 1524   4.475   5.467   6.235
  209SOL     OW 1525   6.438   5.535   5.643
  209SOL    HW1 1526   6.509   5.493   5.587
  209SOL    HW2 1527   6.480   5.591   5.714
  210SOL     OW 1528   3.789   2.880   1.059
  210SOL    HW1 1529   3.784   2.901   0.961
  210SOL    HW2 1530   3.824   2.787   1.071
  211SOL     OW 1531   1.764   1.302   0.867
  211SOL    HW1 1532   1.664   1.297   0.866
  211SOL    HW2 1533   1.802   1.214   0.895
  212SOL     OW 1534   0.352   4.879   3.903
  212SOL    HW1 1535   0.332   4.865   4.000
  212SOL    HW2 1536   0.450   4.898   3.891
  213SOL     OW 1537   5.173   2.189   6.824
  213SOL    HW1 1538   5.108   2.242   6.879
  213SOL    HW2 1539   5.232   2.136   6.885
  214SOL     OW 1540   1.048   0.313   2.745
  214SOL    HW1 1541   1.074   0.298   2.650
  214SOL    HW2 1542   0.964   0.367   2.748
  215SOL     OW 1543   3.641   3.457   2.862
  215SOL    HW1 1544   3.649   3.424   2.956
  215SOL    HW2 1545   3.552   3.502   2.851
  216SOL     OW 1546   0.917   6.792   6.153
  216SOL    HW1 1547   0.905   6.803   6.252
  216SOL    HW2 1548   0.850   6.850   6.105
  217SOL     OW 1549   0.806   2.754   3.070
  217SOL    HW1 1550   0.882   2.689   3.068
  217SOL    HW2 1551   0.726   2.712   3.028
  218SOL     OW 1552   1.378   3.949   5.331
  218SOL    HW1 1553   1.335   4.037   5.310
  218SOL    HW2 1554   1.473   3.950   5.298
  219SOL     OW 1555   4.719   5.372   0.059
  219SOL    HW1 1556   4.817   5.392   0.062
  219SOL    HW2 1557   4.667   5.457   0.068
  220SOL     OW 1558   2.588   5.176   0.302
  220SOL    HW1 1559   2.599   5.169   0.203
  220SOL    HW2 1560   2.575   5.272   0.328
  221SOL     OW 1561   5.568   1.918   4.521
  221SOL    HW1 1562   5.519   1.838   4.485
  221SOL    HW2 1563   5.661   1.918   4.486
  222SOL     OW 1564   0.723   5.895   5.300
  222SOL    HW1 1565   0.732   5.885   5.399
  222SOL    HW2 1566   0.634   5.935   5.279
  223SOL     OW 1567   6.875   4.007   1.995
  223SOL    HW1 1568   6.941   4.052   1.935
  223SOL    HW2 1569   6.905   4.016   2.090
  224SOL     OW 1570   2.869   2.218   1.755
  224SOL    HW1 1571   2.899   2.291   1.817
  224SOL    HW2 1572   2.918   2.225   1.668
  225SOL     OW 1573   5.863   0.854   6.870
  225SOL    HW1 1574   5.764   0.852   6.876
  225SOL    HW2 1575   5.902   0.890   6.954
  226SOL     OW 1576   6.782   5.883   1.095
  226SOL    HW1 1577   6.857   5.822   1.071
  226SOL    HW2 1578   6.802   5.976   1.065
  227SOL     OW 1579   1.469   3.614   3.750
  227SOL    HW1 1580   1.371   3.592   3.754
  227SOL    HW2 1581   1.482   3.711   3.771
  228SOL     OW 1582   4.579   6.855   3.918
  228SOL    HW1 1583   4.560   6.850   3.820
  228SOL    HW2 1584   4.624   6.771   3.948
  229SOL     OW 1585   6.067   5.730   2.234
  229SOL    HW1 1586   6.149   5.680   2.264
  229SOL    HW2 1587   6.053   5.713   2.136
  230SOL     OW 1588   2.284   4.399   4.879
  230SOL    HW1 1589   2.250   4.344   4.956
  230SOL    HW2 1590   2.338   4.475   4.914
  231SOL     OW 1591   0.789   2.702   6.121
  231SOL    HW1 1592   0.723   2.777   6.118
  231SOL    HW2 1593   0.784   2.657   6.210
  232SOL     OW 1594   2.369   4.706   6.536
  232SOL    HW1 1595   2.438   4.646   6.575
  232SOL    HW2 1596   2.278   4.680   6.569
  233SOL     OW 1597   2.252   1.109   5.796
  233SOL    HW1 1598   2.346   1.142   5.807
  233SOL    HW2 1599   2.241   1.024   5.848
  234SOL     OW 1600   2.889   5.653   6.398
  234SOL    HW1 1601   2.838   5.697   6.324
  234SOL    HW2 1602   2.858   5.690   6.486
  235SOL     OW 1603   2.971   3.307   4.561
  235SOL    HW1 1604   2.919   3.355   4.633
  235SOL    HW2 1605   2.913   3.297   4.480
  236SOL     OW 1606   6.599   2.355   5.599
  236SOL    HW1 1607   6.642   2.327   5.685
  236SOL    HW2 1608   6.645   2.310   5.522
  237SOL     OW 1609   0.599   0.068   1.458
  237SOL    HW1 1610   0.566   0.030   1.372
  237SOL    HW2 1611   0.630   0.162   1.444
  238SOL     OW 1612   5.967   2.914   2.935
  238SOL    HW1 1613   5.948   2.909   2.836
  238SOL    HW2 1614   5.941   2.827   2.977
  239SOL     OW 1615   6.698   5.692   6.696
  239SOL    HW1 1616   6.782   5.667   6.743
  239SOL    HW2 1617   6.698   5.790   6.675
  240SOL     OW 1618   0.178   4.157   5.910
  240SOL    HW1 1619   0.176   4.073   5.855
  240SOL    HW2 1620   0.271   4.193   5.912
  241SOL     OW 1621   0.429   0.902   3.003
  241SOL    HW1 1622   0.500   0.971   3.016
  241SOL    HW2 1623   0.410   0.892   2.905
  242SOL     OW 1624   1.738   3.691   4.313
  242SOL    HW1 1625   1.828   3.712   4.274
  242SOL    HW2 1626   1.667   3.728   4.254
  243SOL     OW 1627   5.866   6.690   5.509
  243SOL    HW1 1628   5.785   6.693   5.569
  243SOL    HW2 1629   5.905   6.598   5.512
  244SOL     OW 1630   6.144   1.957   5.807
  244SOL    HW1 1631   6.101   1.946   5.897
  244SOL    HW2 1632   6.128   1.875   5.752
  245SOL     OW 1633   5.653   2.270   4.146
  245SOL    HW1 1634   5.710   2.217   4.084
  245SOL    HW2 1635   5.686   2.259   4.240
  246SOL     OW 1636   4.931   3.119   3.060
  246SOL    HW1 1637   4.930   3.192   3.128
  246SOL    HW2 1638   4.846   3.066   3.067
  247SOL     OW 1639   2.429   1.266   3.395
  247SOL    HW1 1640   2.352   1.214   3.358
  247SOL    HW2 1641   2.423   1.268   3.495
  248SOL     OW 1642   5.900   1.517   3.392
  248SOL    HW1 1643   5.804   1.545   3.381
  248SOL    HW2 1644   5.944   1.576   3.459
  249SOL     OW 1645   3.439   6.862   3.785
  249SOL    HW1 1646   3.412   6.772   3.817
  249SOL    HW2 1647   3.530   6.885   3.821
  250SOL     OW 1648   5.273   2.950   5.852
  250SOL    HW1 1649   5.180   2.912   5.859
  250SOL    HW2 1650   5.267   3.048   5.834
  251SOL     OW 1651   4.240   2.399   0.144
  251SOL    HW1 1652   4.327   2.358   0.114
  251SOL    HW2 1653   4.259   2.483   0.195
  252SOL     OW 1654   0.167   0.816   5.867
  252SOL    HW1 1655   0.119   0.804   5.954
  252SOL    HW2 1656   0.173   0.914   5.845
  253SOL     OW 1657   2.964   3.251   6.945
  253SOL    HW1 1658   3.019   3.301   6.878
  253SOL    HW2 1659   2.986   3.284   0.009
  254SOL     OW 1660   5.738   3.221   5.073
  254SOL    HW1 1661   5.740   3.219   5.173
  254SOL    HW2 1662   5.660   3.169   5.039
  255SOL     OW 1663   2.841   1.869   3.371
  255SOL    HW1 1664   2.791   1.802   3.317
  255SOL    HW2 1665   2.786   1.898   3.449
  256SOL     OW 1666   5.765   5.076   0.007
  256SOL    HW1 1667   5.798   5.042   0.095
  256SOL    HW2 1668   5.675   5.118   0.019
  257SOL     OW 1669   2.976   6.431   5.934
  257SOL    HW1 1670   2.901   6.433   6.000
  257SOL    HW2 1671   2.959   6.497   5.861
  258SOL     OW 1672   5.536   4.446   4.782
  258SOL    HW1 1673   5.497   4.355   4.765
  258SOL    HW2 1674   5.610   4.438   4.849
  259SOL     OW 1675   1.637   2.040   2.344
  259SOL    HW1 1676   1.570   2.111   2.366
  259SOL    HW2 1677   1.729   2.074   2.362
  260SOL     OW 1678   5.296   0.431   5.878
  260SOL    HW1 1679   5.221   0.373   5.846
  260SOL    HW2 1680   5.368   0.373   5.916
  261SOL     OW 1681   0.828   3.635   2.139
  261SOL    HW1 1682   0.824   3.643   2.040
  261SOL    HW2 1683   0.922   3.617   2.168
  262SOL     OW 1684   0.946   4.824   2.265
  262SOL    HW1 1685   0.931   4.747   2.327
  262SOL    HW2 1686   0.966   4.790   2.173
  263SOL     OW 1687   1.038   2.153   4.368
  263SOL    HW1 1688   1.037   2.232   4.307
  263SOL    HW2 1689   0.947   2.139   4.407
  264SOL     OW 1690   2.580   4.736   6.012
  264SOL    HW1 1691   2.566   4.835   6.007
  264SOL    HW2 1692   2.496   4.692   6.043
  265SOL     OW 1693   5.567   3.835   4.880
  265SOL    HW1 1694   5.634   3.773   4.839
  265SOL    HW2 1695   5.495   3.783   4.925
  266SOL     OW 1696   4.240   1.669   0.468
  266SOL    HW1 1697   4.298   1.592   0.494
  266SOL    HW2 1698   4.144   1.642   0.474
  267SOL     OW 1699   0.924   2.279   5.990
  267SOL    HW1 1700   0.883   2.188   5.989
  267SOL    HW2 1701   1.004   2.280   5.930
  268SOL     OW 1702   4.205   4.872   4.829
  268SOL    HW1 1703   4.298   4.880   4.795
  268SOL    HW2 1704   4.141   4.867   4.752
  269SOL     OW 1705   0.576   1.688   5.931
  269SOL    HW1 1706   0.603   1.660   6.024
  269SOL    HW2 1707   0.658   1.715   5.880
  270SOL     OW 1708   5.315   1.153   3.232
  270SOL    HW1 1709   5.336   1.056   3.220
  270SOL    HW2 1710   5.400   1.207   3.226
  271SOL     OW 1711   1.622   0.898   0.316
  271SOL    HW1 1712   1.686   0.847   0.259
  271SOL    HW2 1713   1.597   0.842   0.396
  272SOL     OW 1714   3.310   5.563   3.377
  272SOL    HW1 1715   3.388   5.619   3.353
  272SOL    HW2 1716   3.232   5.585   3.318
  273SOL     OW 1717   2.351   6.288   5.067
  273SOL    HW1 1718   2.325   6.384   5.051
  273SOL    HW2 1719   2.281   6.244   5.122
  274SOL     OW 1720   6.281   2.058   1.334
  274SOL    HW1 1721   6.217   2.089   1.264
  274SOL    HW2 1722   6.317   1.968   1.310
  275SOL     OW 1723   6.529   5.929   5.137
  275SOL    HW1 1724   6.470   5.968   5.066
  275SOL    HW2 1725   6.562   5.839   5.106
  276SOL     OW 1726   6.531   5.921   3.716
  276SOL    HW1 1727   6.586   5.870   3.781
  276SOL    HW2 1728   6.439   5.935   3.753
  277SOL     OW 1729   4.597   1.238   5.637
  277SOL    HW1 1730   4.586   1.241   5.538
  277SOL    HW2 1731   4.629   1.326   5.670
  278SOL     OW 1732   6.167   3.163   2.798
  278SOL    HW1 1733   6.182   3.192   2.892
  278SOL    HW2 1734   6.105   3.227   2.752
  279SOL     OW 1735   6.714   2.673   4.356
  279SOL    HW1 1736   6.784   2.719   4.302
  279SOL    HW2 1737   6.757   2.606   4.417
  280SOL     OW 1738   3.330   0.966   3.788
  280SOL    HW1 1739   3.363   0.957   3.694
  280SOL    HW2 1740   3.239   0.926   3.795
  281SOL     OW 1741   5.027   6.015   4.036
  281SOL    HW1 1742   4.929   6.012   4.056
  281SOL    HW2 1743   5.063   5.922   4.034
  282SOL     OW 1744   3.893   1.691   0.242
  282SOL    HW1 1745   3.907   1.597   0.211
  282SOL    HW2 1746   3.798   1.718   0.226
  283SOL     OW 1747   6.222   1.960   5.069
  283SOL    HW1 1748   6.219   1.861   5.083
  283SOL    HW2 1749   6.315   1.993   5.087
  284SOL     OW 1750   5.541   5.683   3.882
  284SOL    HW1 1751   5.607   5.758   3.889
  284SOL    HW2 1752   5.580   5.611   3.825
  285SOL     OW 1753   4.320   0.462   5.850
  285SOL    HW1 1754   4.417   0.456   5.828
  285SOL    HW2 1755   4.266   0.451   5.766
  286SOL     OW 1756   3.080   5.301   5.092
  286SOL    HW1 1757   3.102   5.279   5.187
  286SOL    HW2 1758   3.079   5.217   5.037
  287SOL     OW 1759   2.883   6.825   5.965
  287SOL    HW1 1760   2.978   6.802   5.944
  287SOL    HW2 1761   2.863   6.918   5.934
  288SOL     OW 1762   3.563   1.059   0.824
  288SOL    HW1 1763   3.537   1.107   0.908
  288SOL    HW2 1764   3.653   1.092   0.793
  289SOL     OW 1765   6.443   6.284   4.179
  289SOL    HW1 1766   6.514   6.246   4.120
  289SOL    HW2 1767   6.484   6.351   4.241
  290SOL     OW 1768   3.410   0.895   4.956
  290SOL    HW1 1769   3.497   0.941   4.936
  290SOL    HW2 1770   3.401   0.815   4.898
  291SOL     OW 1771   4.269   6.789   4.888
  291SOL    HW1 1772   4.341   6.777   4.820
  291SOL    HW2 1773   4.250   6.887   4.899
  292SOL     OW 1774   4.396   0.279   3.616
  292SOL    HW1 1775   4.344   0.267   3.701
  292SOL    HW2 1776   4.489   0.246   3.629
  293SOL     OW 1777   6.124   6.591   2.445
  293SOL    HW1 1778   6.146   6.496   2.467
  293SOL    HW2 1779   6.052   6.624   2.506
  294SOL     OW 1780   6.584   0.449   5.601
  294SOL    HW1 1781   6.653   0.413   5.539
  294SOL    HW2 1782   6.583   0.549   5.596
  295SOL     OW 1783   1.344   1.586   5.036
  295SOL    HW1 1784   1.324   1.624   5.127
  295SOL    HW2 1785   1.430   1.535   5.040
  296SOL     OW 1786   0.102   2.423   1.442
  296SOL    HW1 1787   0.101   2.494   1.513
  296SOL    HW2 1788   0.039   2.350   1.469
  297SOL     OW 1789   5.549   3.472   3.641
  297SOL    HW1 1790   5.634   3.487   3.692
  297SOL    HW2 1791   5.562   3.498   3.546
  298SOL     OW 1792   3.577   0.793   6.706
  298SOL    HW1 1793   3.674   0.781   6.726
  298SOL    HW2 1794   3.563   0.786   6.607
  299SOL     OW 1795   2.302   1.207   6.198
  299SOL    HW1 1796   2.234   1.272   6.164
  299SOL    HW2 1797   2.374   1.257   6.246
  300SOL     OW 1798   4.118   6.974   2.758
  300SOL    HW1 1799   4.172   0.026   2.732
  300SOL    HW2 1800   4.031   6.975   2.709
  301SOL     OW 1801   6.304   5.403   0.801
  301SOL    HW1 1802   6.384   5.347   0.778
  301SOL    HW2 1803   6.223   5.365   0.756
  302SOL     OW 1804   6.160   5.672   1.048
  302SOL    HW1 1805   6.075   5.709   1.009
  302SOL    HW2 1806   6.228   5.661   0.975
  303SOL     OW 1807   5.797   5.495   2.070
  303SOL    HW1 1808   5.728   5.556   2.031
  303SOL    HW2 1809   5.773   5.474   2.165
  304SOL     OW 1810   2.885   6.396   5.412
  304SOL    HW1 1811   2.933   6.484   5.416
  304SOL    HW2 1812   2.916   6.345   5.332
  305SOL     OW 1813   1.314   2.966   2.260
  305SOL    HW1 1814   1.280   3.059   2.246
  305SOL    HW2 1815   1.257   2.902   2.208
  306SOL     OW 1816   6.493   0.126   2.693
  306SOL    HW1 1817   6.471   0.070   2.612
  306SOL    HW2 1818   6.466   0.221   2.676
  307SOL     OW 1819   3.463   3.038   3.240
  307SOL    HW1 1820   3.427   2.994   3.322
  307SOL    HW2 1821   3.540   2.984   3.204
  308SOL     OW 1822   5.744   1.696   3.778
  308SOL    HW1 1823   5.733   1.723   3.873
  308SOL    HW2 1824   5.759   1.777   3.722
  309SOL     OW 1825   0.929   6.340   5.872
  309SOL    HW1 1826   0.941   6.417   5.809
  309SOL    HW2 1827   1.018   6.313   5.908
  310SOL     OW 1828   5.115   6.171   4.975
  310SOL    HW1 1829   5.180   6.200   4.905
  310SOL    HW2 1830   5.029   6.220   4.962
  311SOL     OW 1831   2.330   5.414   2.985
  311SOL    HW1 1832   2.357   5.489   3.045
  311SOL    HW2 1833   2.309   5.449   2.894
  312SOL     OW 1834   4.742   2.028   2.920
  312SOL    HW1 1835   4.765   2.021   3.017
  312SOL    HW2 1836   4.644   2.011   2.908
  313SOL     OW 1837   4.107   3.352   3.333
  313SOL    HW1 1838   4.099   3.262   3.375
  313SOL    HW2 1839   4.085   3.422   3.401
  314SOL     OW 1840   2.044   6.496   5.915
  314SOL    HW1 1841   2.025   6.558   5.991
  314SOL    HW2 1842   2.060   6.548   5.831
  315SOL     OW 1843   6.168   1.599   3.466
  315SOL    HW1 1844   6.172   1.502   3.440
  315SOL    HW2 1845   6.259   1.639   3.457
  316SOL     OW 1846   3.552   0.977   5.204
  316SOL    HW1 1847   3.540   1.018   5.114
  316SOL    HW2 1848   3.579   1.048   5.270
  317SOL     OW 1849   1.202   1.223   1.550
  317SOL    HW1 1850   1.260   1.142   1.547
  317SOL    HW2 1851   1.259   1.305   1.557
  318SOL     OW 1852   0.137   0.482   5.599
  318SOL    HW1 1853   0.132   0.574   5.560
  318SOL    HW2 1854   0.134   0.487   5.698
  319SOL     OW 1855   1.617   2.443   2.771
  319SOL    HW1 1856   1.560   2.362   2.784
  319SOL    HW2 1857   1.561   2.518   2.734
  320SOL     OW 1858   5.911   2.661   6.582
  320SOL    HW1 1859   5.888   2.709   6.497
  320SOL    HW2 1860   5.850   2.583   6.594
  321SOL     OW 1861   4.349   3.195   1.021
  321SOL    HW1 1862   4.399   3.129   1.076
  321SOL    HW2 1863   4.368   3.288   1.053
  322SOL     OW 1864   3.482   3.301   6.111
  322SOL    HW1 1865   3.427   3.380   6.137
  322SOL    HW2 1866   3.424   3.221   6.104
  323SOL     OW 1867   0.130   3.073   3.541
  323SOL    HW1 1868   0.140   3.170   3.518
  323SOL    HW2 1869   0.074   3.064   3.624
  324SOL     OW 1870   0.679   6.945   3.845
  324SOL    HW1 1871   0.765   6.987   3.817
  324SOL    HW2 1872   0.641   6.996   3.922
  325SOL     OW 1873   0.595   3.813   2.488
  325SOL    HW1 1874   0.554   3.885   2.430
  325SOL    HW2 1875   0.644   3.855   2.564
  326SOL     OW 1876   0.439   6.367   6.773
  326SOL    HW1 1877   0.467   6.355   6.677
  326SOL    HW2 1878   0.486   6.447   6.811
  327SOL     OW 1879   4.158   5.061   3.390
  327SOL    HW1 1880   4.185   5.041   3.484
  327SOL    HW2 1881   4.083   5.002   3.363
  328SOL     OW 1882   2.010   4.121   2.311
  328SOL    HW1 1883   1.967   4.173   2.237
  328SOL    HW2 1884   2.073   4.181   2.361
  329SOL     OW 1885   3.592   4.168   2.010
  329SOL    HW1 1886   3.517   4.170   2.076
  329SOL    HW2 1887   3.680   4.162   2.058
  330SOL     OW 1888   3.542   5.016   0.506
  330SOL    HW1 1889   3.607   4.945   0.532
  330SOL    HW2 1890   3.473   4.978   0.444
  331SOL     OW 1891   5.501   5.297   6.585
  331SOL    HW1 1892   5.427   5.363   6.592
  331SOL    HW2 1893   5.464   5.204   6.589
  332SOL     OW 1894   5.477   2.260   2.716
  332SOL    HW1 1895   5.380   2.276   2.729
  332SOL    HW2 1896   5.501   2.276   2.620
  333SOL     OW 1897   3.518   1.483   6.237
  333SOL    HW1 1898   3.443   1.425   6.268
  333SOL    HW2 1899   3.517   1.569   6.286
  334SOL     OW 1900   3.752   3.527   3.583
  334SOL    HW1 1901   3.660   3.549   3.551
  334SOL    HW2 1902   3.769   3.574   3.670
  335SOL     OW 1903   3.277   0.341   5.892
  335SOL    HW1 1904   3.228   0.309   5.974
  335SOL    HW2 1905   3.228   0.311   5.810
  336SOL     OW 1906   3.156   1.651   3.100
  336SOL    HW1 1907   3.206   1.693   3.025
  336SOL    HW2 1908   3.084   1.591   3.063
  337SOL     OW 1909   2.160   0.278   5.710
  337SOL    HW1 1910   2.078   0.328   5.682
  337SOL    HW2 1911   2.241   0.335   5.693
  338SOL     OW 1912   4.725   1.960   1.629
  338SOL    HW1 1913   4.661   1.897   1.674
  338SOL    HW2 1914   4.791   1.907   1.576
  339SOL     OW 1915   3.777   5.005   5.009
  339SOL    HW1 1916   3.781   5.086   5.068
  339SOL    HW2 1917   3.764   5.034   4.914
  340SOL     OW 1918   4.614   1.989   3.596
  340SOL    HW1 1919   4.698   1.991   3.651
  340SOL    HW2 1920   4.609   2.071   3.539
  341SOL     OW 1921   5.494   0.021   4.090
  341SOL    HW1 1922   5.447   6.974   4.137
  341SOL    HW2 1923   5.538   0.081   4.156
  342SOL     OW 1924   5.031   2.451   1.528
  342SOL    HW1 1925   5.047   2.443   1.627
  342SOL    HW2 1926   4.933   2.454   1.511
  343SOL     OW 1927   0.819   5.839   2.957
  343SOL    HW1 1928   0.730   5.835   2.912
  343SOL    HW2 1929   0.837   5.933   2.988
  344SOL     OW 1930   1.755   1.311   1.830
  344SOL    HW1 1931   1.718   1.363   1.906
  344SOL    HW2 1932   1.854   1.324   1.825
  345SOL     OW 1933   6.123   3.279   3.925
  345SOL    HW1 1934   6.161   3.354   3.979
  345SOL    HW2 1935   6.130   3.194   3.976
  346SOL     OW 1936   1.515   6.946   3.066
  346SOL    HW1 1937   1.611   6.971   3.055
  346SOL    HW2 1938   1.457   7.012   3.017
  347SOL     OW 1939   2.663   5.134   0.624
  347SOL    HW1 1940   2.574   5.173   0.601
  347SOL    HW2 1941   2.650   5.044   0.666
  348SOL     OW 1942   5.162   5.677   2.206
  348SOL    HW1 1943   5.196   5.769   2.189
  348SOL    HW2 1944   5.129   5.638   2.120
  349SOL     OW 1945   6.591   4.354   1.485
  349SOL    HW1 1946   6.546   4.443   1.488
  349SOL    HW2 1947   6.659   4.348   1.558
  350SOL     OW 1948   3.274   3.103   0.161
  350SOL    HW1 1949   3.249   3.146   0.248
  350SOL    HW2 1950   3.192   3.063   0.120
  351SOL     OW 1951   3.229   4.477   1.588
  351SOL    HW1 1952   3.305   4.416   1.565
  351SOL    HW2 1953   3.174   4.436   1.661
  352SOL     OW 1954   4.096   6.648   2.973
  352SOL    HW1 1955   4.110   6.692   3.061
  352SOL    HW2 1956   4.001   6.617   2.965
  353SOL     OW 1957   2.255   6.241   6.778
  353SOL    HW1 1958   2.326   6.291   6.828
  353SOL    HW2 1959   2.249   6.148   6.813
  354SOL     OW 1960   6.903   2.269   0.349
  354SOL    HW1 1961   6.870   2.357   0.382
  354SOL    HW2 1962   6.857   2.247   0.263
  355SOL     OW 1963   2.184   2.437   2.632
  355SOL    HW1 1964   2.159   2.526   2.669
  355SOL    HW2 1965   2.135   2.421   2.547
  356SOL     OW 1966   0.964   0.052   6.301
  356SOL    HW1 1967   0.959   6.983   6.327
  356SOL    HW2 1968   1.041   0.096   6.348
  357SOL     OW 1969   5.386   6.599   4.388
  357SOL    HW1 1970   5.326   6.519   4.385
  357SOL    HW2 1971   5.475   6.573   4.426
  358SOL     OW 1972   5.064   5.945   0.720
  358SOL    HW1 1973   5.129   6.010   0.680
  358SOL    HW2 1974   5.093   5.852   0.700
  359SOL     OW 1975   3.169   2.161   1.957
  359SOL    HW1 1976   3.225   2.214   1.893
  359SOL    HW2 1977   3.086   2.212   1.979
  360SOL     OW 1978   1.429   4.461   4.197
  360SOL    HW1 1979   1.404   4.451   4.101
  360SOL    HW2 1980   1.445   4.558   4.217
  361SOL     OW 1981   6.740   6.289   3.432
  361SOL    HW1 1982   6.830   6.262   3.396
  361SOL    HW2 1983   6.671   6.222   3.403
  362SOL     OW 1984   3.852   4.257   1.181
  362SOL    HW1 1985   3.804   4.343   1.196
  362SOL    HW2 1986   3.878   4.250   1.084
  363SOL     OW 1987   5.980   5.406   2.911
  363SOL    HW1 1988   6.071   5.417   2.871
  363SOL    HW2 1989   5.963   5.310   2.931
  364SOL     OW 1990   0.264   5.329   6.815
  364SOL    HW1 1991   0.290   5.320   6.719
  364SOL    HW2 1992   0.300   5.251   6.867
  365SOL     OW 1993   3.372   1.651   2.389
  365SOL    HW1 1994   3.356   1.562   2.432
  365SOL    HW2 1995   3.310   1.719   2.427
  366SOL     OW 1996   6.020   2.713   0.845
  366SOL    HW1 1997   6.049   2.741   0.936
  366SOL    HW2 1998   6.100   2.703   0.786
  367SOL     OW 1999   4.494   1.907   5.801
  367SOL    HW1 2000   4.526   1.991   5.758
  367SOL    HW2 2001   4.396   1.895   5.783
  368SOL     OW 2002   6.506   1.821   5.972
  368SOL    HW1 2003   6.469   1.746   6.027
  368SOL    HW2 2004   6.456   1.905   5.992
  369SOL     OW 2005   5.485   3.523   2.609
  369SOL    HW1 2006   5.471   3.597   2.676
  369SOL    HW2 2007   5.434   3.545   2.526
  370SOL     OW 2008   2.229   2.904   4.264
  370SOL    HW1 2009   2.200   2.869   4.353
  370SOL    HW2 2010   2.232   3.004   4.267
  371SOL     OW 2011   2.088   4.029   6.783
  371SOL    HW1 2012   2.103   4.124   6.755
  371SOL    HW2 2013   2.176   3.986   6.800
  372SOL     OW 2014   2.890   6.870   5.642
  372SOL    HW1 2015   2.953   6.934   5.688
  372SOL    HW2 2016   2.816   6.922   5.599
  373SOL     OW 2017   6.311   6.488   4.554
  373SOL    HW1 2018   6.225   6.442   4.532
  373SOL    HW2 2019   6.332   6.477   4.651
  374SOL     OW 2020   2.595   1.817   2.704
  374SOL    HW1 2021   2.644   1.904   2.702
  374SOL    HW2 2022   2.498   1.833   2.723
  375SOL     OW 2023   1.114   4.569   5.286
  375SOL    HW1 2024   1.028   4.541   5.245
  375SOL    HW2 2025   1.099   4.594   5.382
  376SOL     OW 2026   2.735   0.905   4.064
  376SOL    HW1 2027   2.662   0.938   4.004
  376SOL    HW2 2028   2.708   0.818   4.105
  377SOL     OW 2029   1.696   2.520   6.904
  377SOL    HW1 2030   1.615   2.574   6.881
  377SOL    HW2 2031   1.705   2.445   6.839
  378SOL     OW 2032   3.031   1.956   1.509
  378SOL    HW1 2033   3.102   1.920   1.448
  378SOL    HW2 2034   3.009   1.887   1.578
  379SOL     OW 2035   5.901   2.358   6.292
  379SOL    HW1 2036   5.922   2.364   6.389
  379SOL    HW2 2037   5.820   2.413   6.272
  380SOL     OW 2038   4.010   1.556   1.265
  380SOL    HW1 2039   3.990   1.621   1.192
  380SOL    HW2 2040   3.924   1.531   1.312
  381SOL     OW 2041   1.584   4.639   3.396
  381SOL    HW1 2042   1.486   4.654   3.388
  381SOL    HW2 2043   1.632   4.695   3.328
  382SOL     OW 2044   6.047   0.404   0.450
  382SOL    HW1 2045   6.002   0.471   0.390
  382SOL    HW2 2046   5.980   0.335   0.479
  383SOL     OW 2047   3.985   2.649   1.401
  383SOL    HW1 2048   3.889   2.632   1.423
  383SOL    HW2 2049   3.992   2.729   1.341
  384SOL     OW 2050   6.561   3.960   4.669
  384SOL    HW1 2051   6.467   3.978   4.639
  384SOL    HW2 2052   6.593   4.036   4.724
  385SOL     OW 2053   4.633   4.819   6.746
  385SOL    HW1 2054   4.729   4.803   6.768
  385SOL    HW2 2055   4.588   4.731   6.730
  386SOL     OW 2056   4.247   0.461   4.373
  386SOL    HW1 2057   4.201   0.531   4.428
  386SOL    HW2 2058   4.224   0.475   4.276
  387SOL     OW 2059   2.189   5.360   3.547
  387SOL    HW1 2060   2.157   5.400   3.633
  387SOL    HW2 2061   2.122   5.378   3.475
  388SOL     OW 2062   2.233   2.660   6.602
  388SOL    HW1 2063   2.325   2.655   6.640
  388SOL    HW2 2064   2.186   2.573   6.618
  389SOL     OW 2065   3.016   3.629   3.421
  389SOL    HW1 2066   2.989   3.703   3.358
  389SOL    HW2 2067   3.104   3.651   3.462
  390SOL     OW 2068   2.352   1.634   4.084
  390SOL    HW1 2069   2.357   1.625   3.985
  390SOL    HW2 2070   2.442   1.657   4.120
  391SOL     OW 2071   1.096   2.531   6.603
  391SOL    HW1 2072   1.167   2.462   6.619
  391SOL    HW2 2073   1.007   2.486   6.598
  392SOL     OW 2074   2.672   5.306   1.897
  392SOL    HW1 2075   2.581   5.348   1.899
  392SOL    HW2 2076   2.725   5.345   1.822
  393SOL     OW 2077   6.133   4.506   5.250
  393SOL    HW1 2078   6.169   4.468   5.335
  393SOL    HW2 2079   6.042   4.470   5.233
  394SOL     OW 2080   6.924   6.674   0.070
  394SOL    HW1 2081   6.883   6.588   0.041
  394SOL    HW2 2082   6.977   6.713   7.022
  395SOL     OW 2083   5.371   3.951   2.595
  395SOL    HW1 2084   5.306   3.875   2.582
  395SOL    HW2 2085   5.464   3.918   2.579
  396SOL     OW 2086   3.317   3.991   3.522
  396SOL    HW1 2087   3.364   4.079   3.530
  396SOL    HW2 2088   3.382   3.917   3.542
  397SOL     OW 2089   4.565   2.114   5.618
  397SOL    HW1 2090   4.633   2.170   5.570
  397SOL    HW2 2091   4.497   2.081   5.552
  398SOL     OW 2092   1.090   5.433   2.401
  398SOL    HW1 2093   1.084   5.443   2.302
  398SOL    HW2 2094   1.175   5.475   2.434
  399SOL     OW 2095   4.565   5.642   1.341
  399SOL    HW1 2096   4.663   5.645   1.362
  399SOL    HW2 2097   4.532   5.549   1.350
  400SOL     OW 2098   0.320   6.424   5.395
  400SOL    HW1 2099   0.414   6.404   5.367
  400SOL    HW2 2100   0.298   6.519   5.372
  401SOL     OW 2101   4.470   1.255   6.320
  401SOL    HW1 2102   4.529   1.184   6.283
  401SOL    HW2 2103   4.468   1.333   6.257
  402SOL     OW 2104   6.450   6.132   2.850
  402SOL    HW1 2105   6.498   6.165   2.769
  402SOL    HW2 2106   6.427   6.209   2.910
  403SOL     OW 2107   4.851   2.356   5.971
  403SOL    HW1 2108   4.778   2.292   5.945
  403SOL    HW2 2109   4.940   2.310   5.962
  404SOL     OW 2110   1.228   6.769   3.949
  404SOL    HW1 2111   1.178   6.821   3.880
  404SOL    HW2 2112   1.326   6.785   3.938
  405SOL     OW 2113   1.706   2.716   0.766
  405SOL    HW1 2114   1.682   2.622   0.744
  405SOL    HW2 2115   1.788   2.718   0.823
  406SOL     OW 2116   1.176   2.513   4.424
  406SOL    HW1 2117   1.140   2.488   4.514
  406SOL    HW2 2118   1.121   2.471   4.353
  407SOL     OW 2119   2.946   7.018   4.602
  407SOL    HW1 2120   2.965   6.971   4.689
  407SOL    HW2 2121   2.964   6.955   4.526
  408SOL     OW 2122   1.550   0.292   3.617
  408SOL    HW1 2123   1.643   0.307   3.585
  408SOL    HW2 2124   1.537   0.334   3.706
  409SOL     OW 2125   6.613   3.143   3.002
  409SOL    HW1 2126   6.578   3.161   2.910
  409SOL    HW2 2127   6.567   3.064   3.041
  410SOL     OW 2128   2.070   0.433   0.258
  410SOL    HW1 2129   2.159   0.477   0.266
  410SOL    HW2 2130   2.077   0.337   0.283
  411SOL     OW 2131   5.697   5.053   6.466
  411SOL    HW1 2132   5.728   5.144   6.493
  411SOL    HW2 2133   5.728   4.987   6.534
  412SOL     OW 2134   3.525   6.302   2.940
  412SOL    HW1 2135   3.578   6.217   2.936
  412SOL    HW2 2136   3.462   6.307   2.863
  413SOL     OW 2137   3.308   5.333   0.310
  413SOL    HW1 2138   3.305   5.418   0.256
  413SOL    HW2 2139   3.261   5.260   0.259
  414SOL     OW 2140   4.423   5.005   1.174
  414SOL    HW1 2141   4.512   4.960   1.178
  414SOL    HW2 2142   4.434   5.103   1.188
  415SOL     OW 2143   1.391   5.912   0.781
  415SOL    HW1 2144   1.435   5.864   0.705
  415SOL    HW2 2145   1.367   5.846   0.853
  416SOL     OW 2146   4.016   5.869   4.976
  416SOL    HW1 2147   3.960   5.787   4.968
  416SOL    HW2 2148   3.957   5.948   4.992
  417SOL     OW 2149   3.277   6.303   1.829
  417SOL    HW1 2150   3.347   6.375   1.835
  417SOL    HW2 2151   3.219   6.307   1.911
  418SOL     OW 2152   4.935   6.293   0.495
  418SOL    HW1 2153   4.911   6.379   0.540
  418SOL    HW2 2154   4.895   6.217   0.546
  419SOL     OW 2155   0.176   0.837   0.733
  419SOL    HW1 2156   0.204   0.742   0.738
  419SOL    HW2 2157   0.225   0.883   0.659
  420SOL     OW 2158   5.896   3.915   1.068
  420SOL    HW1 2159   5.850   3.916   0.979
  420SOL    HW2 2160   5.834   3.877   1.137
  421SOL     OW 2161   1.450   4.960   6.269
  421SOL    HW1 2162   1.427   4.949   6.365
  421SOL    HW2 2163   1.414   4.883   6.217
  422SOL     OW 2164   5.810   4.747   0.425
  422SOL    HW1 2165   5.741   4.693   0.375
  422SOL    HW2 2166   5.786   4.749   0.522
  423SOL     OW 2167   5.884   2.963   0.177
  423SOL    HW1 2168   5.966   3.003   0.135
  423SOL    HW2 2169   5.889   2.975   0.276
  424SOL     OW 2170   2.684   3.649   0.287
  424SOL    HW1 2171   2.652   3.591   0.212
  424SOL    HW2 2172   2.723   3.733   0.250
  425SOL     OW 2173   5.142   1.892   1.131
  425SOL    HW1 2174   5.183   1.954   1.198
  425SOL    HW2 2175   5.044   1.911   1.124
  426SOL     OW 2176   5.120   2.676   5.578
  426SOL    HW1 2177   5.070   2.709   5.659
  426SOL    HW2 2178   5.071   2.599   5.539
  427SOL     OW 2179   5.644   4.350   2.201
  427SOL    HW1 2180   5.699   4.387   2.126
  427SOL    HW2 2181   5.571   4.292   2.165
  428SOL     OW 2182   4.107   0.394   5.319
  428SOL    HW1 2183   4.095   0.359   5.226
  428SOL    HW2 2184   4.112   0.494   5.316
  429SOL     OW 2185   2.053   5.169   0.431
  429SOL    HW1 2186   2.087   5.199   0.520
  429SOL    HW2 2187   1.953   5.167   0.432
  430SOL     OW 2188   1.586   6.940   4.436
  430SOL    HW1 2189   1.490   6.964   4.448
  430SOL    HW2 2190   1.633   7.014   4.388
  431SOL     OW 2191   3.356   0.903   0.015
  431SOL    HW1 2192   3.413   0.834   6.997
  431SOL    HW2 2193   3.413   0.978   0.047
  432SOL     OW 2194   0.118   2.070   0.184
  432SOL    HW1 2195   0.062   2.060   0.102
  432SOL    HW2 2196   0.204   2.117   0.161
  433SOL     OW 2197   3.033   0.093   4.221
  433SOL    HW1 2198   3.116   0.082   4.166
  433SOL    HW2 2199   3.055   0.134   4.309
  434SOL     OW 2200   5.482   4.609   1.185
  434SOL    HW1 2201   5.513   4.687   1.240
  434SOL    HW2 2202   5.389   4.626   1.152
  435SOL     OW 2203   3.418   3.281   5.849
  435SOL    HW1 2204   3.340   3.218   5.850
  435SOL    HW2 2205   3.463   3.279   5.938
  436SOL     OW 2206   1.576   0.072   1.110
  436SOL    HW1 2207   1.633   0.057   1.029
  436SOL    HW2 2208   1.600   0.005   1.180
  437SOL     OW 2209   6.693   6.928   6.436
  437SOL    HW1 2210   6.632   6.907   6.359
  437SOL    HW2 2211   6.672   6.866   6.512
  438SOL     OW 2212   1.787   2.921   2.167
  438SOL    HW1 2213   1.721   2.867   2.219
  438SOL    HW2 2214   1.877   2.912   2.209
  439SOL     OW 2215   6.331   4.887   3.034
  439SOL    HW1 2216   6.313   4.887   3.132
  439SOL    HW2 2217   6.428   4.905   3.018
  440SOL     OW 2218   0.754   2.120   4.522
  440SOL    HW1 2219   0.794   2.206   4.554
  440SOL    HW2 2220   0.665   2.106   4.566
  441SOL     OW 2221   1.334   1.789   3.326
  441SOL    HW1 2222   1.420   1.839   3.321
  441SOL    HW2 2223   1.262   1.849   3.361
  442SOL     OW 2224   0.423   4.221   0.067
  442SOL    HW1 2225   0.414   4.181   7.003
  442SOL    HW2 2226   0.497   4.174   0.116
  443SOL     OW 2227   1.240   4.566   4.765
  443SOL    HW1 2228   1.293   4.589   4.683
  443SOL    HW2 2229   1.223   4.467   4.766
  444SOL     OW 2230   4.901   2.614   5.962
  444SOL    HW1 2231   4.824   2.674   5.983
  444SOL    HW2 2232   4.871   2.518   5.964
  445SOL     OW 2233   1.946   5.609   2.877
  445SOL    HW1 2234   2.015   5.680   2.894
  445SOL    HW2 2235   1.871   5.648   2.824
  446SOL     OW 2236   4.086   4.896   3.658
  446SOL    HW1 2237   4.173   4.946   3.662
  446SOL    HW2 2238   4.037   4.908   3.744
  447SOL     OW 2239   0.130   4.109   6.964
  447SOL    HW1 2240   0.095   4.169   6.892
  447SOL    HW2 2241   0.228   4.093   6.949
  448SOL     OW 2242   3.582   0.649   5.030
  448SOL    HW1 2243   3.505   0.621   5.087
  448SOL    HW2 2244   3.620   0.568   4.985
  449SOL     OW 2245   5.254   1.142   5.051
  449SOL    HW1 2246   5.157   1.166   5.058
  449SOL    HW2 2247   5.264   1.043   5.049
  450SOL     OW 2248   0.245   5.930   3.655
  450SOL    HW1 2249   0.167   5.914   3.595
  450SOL    HW2 2250   0.330   5.915   3.605
  451SOL     OW 2251   0.969   2.280   2.369
  451SOL    HW1 2252   0.991   2.305   2.275
  451SOL    HW2 2253   0.920   2.193   2.370
  452SOL     OW 2254   6.666   5.559   7.015
  452SOL    HW1 2255   6.592   5.627   7.022
  452SOL    HW2 2256   6.748   5.594   0.033
  453SOL     OW 2257   2.936   0.901   6.486
  453SOL    HW1 2258   3.009   0.926   6.422
  453SOL    HW2 2259   2.855   0.875   6.435
  454SOL     OW 2260   6.995   6.091   5.896
  454SOL    HW1 2261   0.046   6.146   5.926
  454SOL    HW2 2262   7.012   6.060   5.802
  455SOL     OW 2263   6.430   0.078   4.630
  455SOL    HW1 2264   6.336   0.103   4.651
  455SOL    HW2 2265   6.459   0.125   4.546
  456SOL     OW 2266   4.521   5.680   5.668
  456SOL    HW1 2267   4.527   5.776   5.696
  456SOL    HW2 2268   4.455   5.633   5.725
  457SOL     OW 2269   2.175   4.327   2.878
  457SOL    HW1 2270   2.124   4.261   2.934
  457SOL    HW2 2271   2.112   4.397   2.845
  458SOL     OW 2272   5.543   5.392   5.346
  458SOL    HW1 2273   5.522   5.372   5.250
  458SOL    HW2 2274   5.596   5.476   5.351
  459SOL     OW 2275   1.124   0.321   3.559
  459SOL    HW1 2276   1.185   0.247   3.531
  459SOL    HW2 2277   1.040   0.316   3.505
  460SOL     OW 2278   0.206   1.334   2.227
  460SOL    HW1 2279   0.111   1.319   2.199
  460SOL    HW2 2280   0.228   1.431   2.218
  461SOL     OW 2281   4.640   6.654   4.947
  461SOL    HW1 2282   4.552   6.639   4.900
  461SOL    HW2 2283   4.656   6.579   5.011
  462SOL     OW 2284   4.416   2.297   6.000
  462SOL    HW1 2285   4.391   2.343   6.085
  462SOL    HW2 2286   4.338   2.295   5.938
  463SOL     OW 2287   6.236   5.423   2.818
  463SOL    HW1 2288   6.278   5.347   2.867
  463SOL    HW2 2289   6.252   5.413   2.720
  464SOL     OW 2290   2.767   1.645   6.564
  464SOL    HW1 2291   2.684   1.694   6.538
  464SOL    HW2 2292   2.828   1.639   6.485
  465SOL     OW 2293   0.673   1.939   4.306
  465SOL    HW1 2294   0.672   2.039   4.309
  465SOL    HW2 2295   0.638   1.908   4.217
  466SOL     OW 2296   0.089   6.145   3.843
  466SOL    HW1 2297   0.165   6.128   3.907
  466SOL    HW2 2298   0.126   6.160   3.751
  467SOL     OW 2299   1.179   0.133   6.420
  467SOL    HW1 2300   1.172   0.094   6.512
  467SOL    HW2 2301   1.221   0.224   6.426
  468SOL     OW 2302   3.342   5.843   0.495
  468SOL    HW1 2303   3.424   5.840   0.438
  468SOL    HW2 2304   3.343   5.766   0.559
  469SOL     OW 2305   3.168   4.847   0.352
  469SOL    HW1 2306   3.259   4.888   0.361
  469SOL    HW2 2307   3.119   4.855   0.439
  470SOL     OW 2308   3.393   0.263   2.161
  470SOL    HW1 2309   3.479   0.226   2.125
  470SOL    HW2 2310   3.355   0.329   2.097
  471SOL     OW 2311   1.358   2.697   4.359
  471SOL    HW1 2312   1.314   2.787   4.356
  471SOL    HW2 2313   1.287   2.626   4.365
  472SOL     OW 2314   4.832   3.526   6.491
  472SOL    HW1 2315   4.802   3.619   6.511
  472SOL    HW2 2316   4.885   3.525   6.406
  473SOL     OW 2317   0.501   2.855   1.155
  473SOL    HW1 2318   0.453   2.942   1.144
  473SOL    HW2 2319   0.495   2.802   1.071
  474SOL     OW 2320   4.643   5.101   3.826
  474SOL    HW1 2321   4.556   5.136   3.859
  474SOL    HW2 2322   4.691   5.171   3.774
  475SOL     OW 2323   6.508   0.524   6.771
  475SOL    HW1 2324   6.464   0.511   6.860
  475SOL    HW2 2325   6.557   0.611   6.770
  476SOL     OW 2326   0.182   4.279   2.204
  476SOL    HW1 2327   0.201   4.347   2.133
  476SOL    HW2 2328   0.265   4.226   2.221
  477SOL     OW 2329   2.511   4.858   4.951
  477SOL    HW1 2330   2.601   4.897   4.973
  477SOL    HW2 2331   2.444   4.893   5.016
  478SOL     OW 2332   3.179   6.226   2.090
  478SOL    HW1 2333   3.182   6.195   2.186
  478SOL    HW2 2334   3.153   6.322   2.086
  479SOL     OW 2335   4.361   1.785   0.251
  479SOL    HW1 2336   4.325   1.760   0.341
  479SOL    HW2 2337   4.303   1.855   0.210
  480SOL     OW 2338   1.274   6.754   0.148
  480SOL    HW1 2339   1.330   6.671   0.154
  480SOL    HW2 2340   1.285   6.808   0.231
  481SOL     OW 2341   2.048   0.400   1.046
  481SOL    HW1 2342   2.079   0.397   1.141
  481SOL    HW2 2343   2.121   0.365   0.987
  482SOL     OW 2344   4.844   4.620   2.338
  482SOL    HW1 2345   4.786   4.619   2.256
  482SOL    HW2 2346   4.853   4.714   2.371
  483SOL     OW 2347   5.453   2.322   1.455
  483SOL    HW1 2348   5.460   2.315   1.555
  483SOL    HW2 2349   5.359   2.346   1.430
  484SOL     OW 2350   0.829   2.705   5.035
  484SOL    HW1 2351   0.745   2.651   5.047
  484SOL    HW2 2352   0.880   2.706   5.121
  485SOL     OW 2353   4.303   5.645   2.096
  485SOL    HW1 2354   4.250   5.698   2.163
  485SOL    HW2 2355   4.399   5.644   2.124
  486SOL     OW 2356   0.883   1.785   0.800
  486SOL    HW1 2357   0.815   1.808   0.870
  486SOL    HW2 2358   0.840   1.726   0.731
  487SOL     OW 2359   1.054   1.655   7.007
  487SOL    HW1 2360   1.049   1.555   7.004
  487SOL    HW2 2361   1.147   1.685   6.986
  488SOL     OW 2362   1.133   0.469   1.459
  488SOL    HW1 2363   1.106   0.565   1.452
  488SOL    HW2 2364   1.206   0.450   1.394
  489SOL     OW 2365   3.497   5.772   0.017
  489SOL    HW1 2366   3.429   5.805   0.082
  489SOL    HW2 2367   3.455   5.766   6.954
  490SOL     OW 2368   6.729   5.785   4.168
  490SOL    HW1 2369   6.725   5.883   4.191
  490SOL    HW2 2370   6.818   5.748   4.195
  491SOL     OW 2371   6.868   2.683   3.328
  491SOL    HW1 2372   6.965   2.698   3.310
  491SOL    HW2 2373   6.840   2.596   3.288
  492SOL     OW 2374   3.081   0.273   4.957
  492SOL    HW1 2375   3.106   0.293   4.862
  492SOL    HW2 2376   3.025   0.348   4.992
  493SOL     OW 2377   5.604   5.366   6.123
  493SOL    HW1 2378   5.531   5.390   6.059
  493SOL    HW2 2379   5.574   5.289   6.180
  494SOL     OW 2380   0.701   6.489   0.050
  494SOL    HW1 2381   0.730   6.554   0.121
  494SOL    HW2 2382   0.685   6.399   0.092
  495SOL     OW 2383   5.221   5.640   2.914
  495SOL    HW1 2384   5.134   5.642   2.866
  495SOL    HW2 2385   5.289   5.593   2.857
  496SOL     OW 2386   5.604   2.810   2.752
  496SOL    HW1 2387   5.542   2.844   2.823
  496SOL    HW2 2388   5.551   2.778   2.674
  497SOL     OW 2389   3.292   1.549   5.276
  497SOL    HW1 2390   3.235   1.619   5.318
  497SOL    HW2 2391   3.268   1.459   5.313
  498SOL     OW 2392   1.161   4.139   1.745
  498SOL    HW1 2393   1.222   4.062   1.765
  498SOL    HW2 2394   1.142   4.141   1.647
  499SOL     OW 2395   3.079   0.847   3.797
  499SOL    HW1 2396   3.091   0.778   3.726
  499SOL    HW2 2397   3.030   0.807   3.875
  500SOL     OW 2398   1.283   4.121   3.312
  500SOL    HW1 2399   1.195   4.080   3.334
  500SOL    HW2 2400   1.302   4.112   3.215
  501SOL     OW 2401   3.351   0.657   1.027
  501SOL    HW1 2402   3.307   0.696   1.108
  501SOL    HW2 2403   3.358   0.726   0.955
  502SOL     OW 2404   6.148   4.456   6.347
  502SOL    HW1 2405   6.064   4.493   6.388
  502SOL    HW2 2406   6.151   4.357   6.362
  503SOL     OW 2407   5.861   4.917   5.977
  503SOL    HW1 2408   5.947   4.916   6.030
  503SOL    HW2 2409   5.878   4.953   5.886
  504SOL     OW 2410   2.630   6.367   3.640
  504SOL    HW1 2411   2.721   6.333   3.661
  504SOL    HW2 2412   2.585   6.307   3.574
  505SOL     OW 2413   3.758   0.409   5.679
  505SOL    HW1 2414   3.828   0.417   5.608
  505SOL    HW2 2415   3.801   0.384   5.766
  506SOL     OW 2416   1.695   5.494   4.608
  506SOL    HW1 2417   1.727   5.553   4.682
  506SOL    HW2 2418   1.607   5.528   4.575
  507SOL     OW 2419   3.315   0.697   4.156
  507SOL    HW1 2420   3.243   0.760   4.186
  507SOL    HW2 2421   3.358   0.732   4.073
  508SOL     OW 2422   6.393   3.713   2.660
  508SOL    HW1 2423   6.323   3.770   2.703
  508SOL    HW2 2424   6.364   3.690   2.567
  509SOL     OW 2425   3.366   1.495   1.621
  509SOL    HW1 2426   3.355   1.487   1.720
  509SOL    HW2 2427   3.459   1.523   1.599
  510SOL     OW 2428   6.644   4.632   5.869
  510SOL    HW1 2429   6.646   4.552   5.810
  510SOL    HW2 2430   6.657   4.604   5.964
  511SOL     OW 2431   0.106   6.469   6.858
  511SOL    HW1 2432   0.158   6.531   6.917
  511SOL    HW2 2433   0.161   6.445   6.778
  512SOL     OW 2434   0.160   3.233   0.444
  512SOL    HW1 2435   0.144   3.288   0.362
  512SOL    HW2 2436   0.207   3.288   0.513
  513SOL     OW 2437   5.792   6.500   3.001
  513SOL    HW1 2438   5.725   6.454   2.943
  513SOL    HW2 2439   5.825   6.583   2.956
  514SOL     OW 2440   6.538   2.191   4.218
  514SOL    HW1 2441   6.587   2.190   4.131
  514SOL    HW2 2442   6.596   2.231   4.289
  515SOL     OW 2443   2.050   0.093   6.182
  515SOL    HW1 2444   2.131   0.052   6.224
  515SOL    HW2 2445   1.997   0.141   6.252
  516SOL     OW 2446   2.788   4.452   1.547
  516SOL    HW1 2447   2.777   4.482   1.641
  516SOL    HW2 2448   2.856   4.509   1.501
  517SOL     OW 2449   5.133   6.189   2.474
  517SOL    HW1 2450   5.218   6.137   2.459
  517SOL    HW2 2451   5.151   6.286   2.462
  518SOL     OW 2452   2.979   1.821   1.732
  518SOL    HW1 2453   3.054   1.837   1.796
  518SOL    HW2 2454   2.902   1.880   1.756
  519SOL     OW 2455   6.831   0.459   5.011
  519SOL    HW1 2456   6.886   0.516   4.950
  519SOL    HW2 2457   6.734   0.478   4.996
  520SOL     OW 2458   5.535   4.664   6.479
  520SOL    HW1 2459   5.541   4.674   6.380
  520SOL    HW2 2460   5.622   4.690   6.521
  521SOL     OW 2461   6.253   2.351   6.622
  521SOL    HW1 2462   6.278   2.334   6.717
  521SOL    HW2 2463   6.217   2.267   6.581
  522SOL     OW 2464   3.899   2.912   5.523
  522SOL    HW1 2465   3.893   2.858   5.607
  522SOL    HW2 2466   3.947   2.998   5.542
  523SOL     OW 2467   6.911   5.272   3.939
  523SOL    HW1 2468   6.812   5.270   3.953
  523SOL    HW2 2469   6.946   5.363   3.963
  524SOL     OW 2470   2.611   1.114   6.679
  524SOL    HW1 2471   2.614   1.214   6.676
  524SOL    HW2 2472   2.637   1.083   6.770
  525SOL     OW 2473   2.504   3.373   6.333
  525SOL    HW1 2474   2.578   3.342   6.273
  525SOL    HW2 2475   2.506   3.473   6.339
  526SOL     OW 2476   2.658   6.686   4.996
  526SOL    HW1 2477   2.578   6.692   4.937
  526SOL    HW2 2478   2.719   6.613   4.962
  527SOL     OW 2479   6.118   2.942   6.283
  527SOL    HW1 2480   6.176   2.890   6.345
  527SOL    HW2 2481   6.173   2.979   6.209
  528SOL     OW 2482   1.409   1.119   3.893
  528SOL    HW1 2483   1.446   1.029   3.870
  528SOL    HW2 2484   1.433   1.185   3.822
  529SOL     OW 2485   0.643   5.393   4.631
  529SOL    HW1 2486   0.585   5.312   4.637
  529SOL    HW2 2487   0.672   5.406   4.536
  530SOL     OW 2488   2.725   2.970   5.341
  530SOL    HW1 2489   2.763   3.058   5.369
  530SOL    HW2 2490   2.632   2.984   5.307
  531SOL     OW 2491   0.421   1.006   1.683
  531SOL    HW1 2492   0.370   1.069   1.624
  531SOL    HW2 2493   0.372   0.919   1.689
  532SOL     OW 2494   0.986   2.731   5.943
  532SOL    HW1 2495   1.059   2.662   5.948
  532SOL    HW2 2496   0.906   2.699   5.994
  533SOL     OW 2497   4.965   5.841   4.552
  533SOL    HW1 2498   5.061   5.821   4.532
  533SOL    HW2 2499   4.958   5.872   4.647
  534SOL     OW 2500   5.097   5.254   3.303
  534SOL    HW1 2501   5.111   5.201   3.220
  534SOL    HW2 2502   5.158   5.221   3.375
  535SOL     OW 2503   1.115   4.433   4.528
  535SOL    HW1 2504   1.148   4.386   4.611
  535SOL    HW2 2505   1.148   4.528   4.529
  536SOL     OW 2506   0.313   5.044   1.974
  536SOL    HW1 2507   0.335   5.057   2.071
  536SOL    HW2 2508   0.354   5.117   1.920
  537SOL     OW 2509   2.126   6.505   3.885
  537SOL    HW1 2510   2.210   6.530   3.838
  537SOL    HW2 2511   2.080   6.431   3.835
  538SOL     OW 2512   1.540   5.927   3.460
  538SOL    HW1 2513   1.523   5.847   3.518
  538SOL    HW2 2514   1.610   5.905   3.393
  539SOL     OW 2515   6.989   5.904   0.477
  539SOL    HW1 2516   6.954   5.897   0.384
  539SOL    HW2 2517   6.947   5.834   0.535
  540SOL     OW 2518   0.445   1.764   2.271
  540SOL    HW1 2519   0.413   1.785   2.364
  540SOL    HW2 2520   0.451   1.849   2.218
  541SOL     OW 2521   2.860   6.603   4.422
  541SOL    HW1 2522   2.804   6.533   4.378
  541SOL    HW2 2523   2.833   6.613   4.518
  542SOL     OW 2524   6.585   6.776   6.928
  542SOL    HW1 2525   6.616   6.692   6.973
  542SOL    HW2 2526   6.665   6.828   6.896
  543SOL     OW 2527   0.424   4.902   5.641
  543SOL    HW1 2528   0.416   4.915   5.740
  543SOL    HW2 2529   0.442   4.990   5.597
  544SOL     OW 2530   1.012   4.491   1.221
  544SOL    HW1 2531   0.927   4.490   1.274
  544SOL    HW2 2532   1.015   4.410   1.161
  545SOL     OW 2533   3.427   1.556   3.525
  545SOL    HW1 2534   3.371   1.574   3.444
  545SOL    HW2 2535   3.426   1.636   3.585
  546SOL     OW 2536   1.810   3.351   1.839
  546SOL    HW1 2537   1.717   3.366   1.804
  546SOL    HW2 2538   1.863   3.299   1.773
  547SOL     OW 2539   2.252   1.490   6.906
  547SOL    HW1 2540   2.326   1.514   6.968
  547SOL    HW2 2541   2.252   1.391   6.891
  548SOL     OW 2542   3.483   2.872   2.886
  548SOL    HW1 2543   3.535   2.837   2.807
  548SOL    HW2 2544   3.391   2.898   2.856
  549SOL     OW 2545   4.233   3.514   1.668
  549SOL    HW1 2546   4.277   3.602   1.684
  549SOL    HW2 2547   4.143   3.529   1.626
  550SOL     OW 2548   7.010   3.123   2.874
  550SOL    HW1 2549   7.027   3.060   2.950
  550SOL    HW2 2550   0.069   3.164   2.845
  551SOL     OW 2551   6.884   2.103   0.809
  551SOL    HW1 2552   6.865   2.107   0.711
  551SOL    HW2 2553   6.836   2.026   0.850
  552SOL     OW 2554   3.847   5.882   0.250
  552SOL    HW1 2555   3.891   5.821   0.185
  552SOL    HW2 2556   3.917   5.931   0.302
  553SOL     OW 2557   1.846   6.931   2.845
  553SOL    HW1 2558   1.826   7.007   2.907
  553SOL    HW2 2559   1.830   6.844   2.892
  554SOL     OW 2560   5.062   6.991   6.569
  554SOL    HW1 2561   4.979   6.958   6.524
  554SOL    HW2 2562   5.125   6.914   6.583
  555SOL     OW 2563   2.458   5.270   3.974
  555SOL    HW1 2564   2.557   5.279   3.963
  555SOL    HW2 2565   2.414   5.359   3.959
  556SOL     OW 2566   5.984   2.205   4.224
  556SOL    HW1 2567   5.936   2.222   4.310
  556SOL    HW2 2568   6.040   2.284   4.200
  557SOL     OW 2569   0.074   6.049   6.755
  557SOL    HW1 2570   0.083   5.997   6.670
  557SOL    HW2 2571   0.124   6.002   6.827
  558SOL     OW 2572   4.266   3.556   5.227
  558SOL    HW1 2573   4.181   3.556   5.280
  558SOL    HW2 2574   4.244   3.568   5.130
  559SOL     OW 2575   6.978   6.287   6.632
  559SOL    HW1 2576   6.939   6.227   6.562
  559SOL    HW2 2577   7.026   6.232   6.700
  560SOL     OW 2578   3.467   6.632   0.608
  560SOL    HW1 2579   3.368   6.630   0.616
  560SOL    HW2 2580   3.506   6.553   0.655
  561SOL     OW 2581   5.662   0.151   6.955
  561SOL    HW1 2582   5.572   0.154   6.912
  561SOL    HW2 2583   5.686   0.057   6.978
  562SOL     OW 2584   4.611   1.113   6.105
  562SOL    HW1 2585   4.544   1.052   6.063
  562SOL    HW2 2586   4.704   1.082   6.081
  563SOL     OW 2587   2.772   6.620   3.554
  563SOL    HW1 2588   2.703   6.553   3.581
  563SOL    HW2 2589   2.829   6.581   3.481
  564SOL     OW 2590   2.258   2.254   6.102
  564SOL    HW1 2591   2.338   2.287   6.052
  564SOL    HW2 2592   2.196   2.330   6.121
  565SOL     OW 2593   4.255   3.009   5.825
  565SOL    HW1 2594   4.245   2.916   5.790
  565SOL    HW2 2595   4.289   3.006   5.919
  566SOL     OW 2596   4.413   4.736   3.512
  566SOL    HW1 2597   4.450   4.827   3.495
  566SOL    HW2 2598   4.321   4.729   3.475
  567SOL     OW 2599   2.977   3.271   3.931
  567SOL    HW1 2600   2.898   3.261   3.869
  567SOL    HW2 2601   3.061   3.254   3.880
  568SOL     OW 2602   3.560   2.268   0.500
  568SOL    HW1 2603   3.607   2.267   0.589
  568SOL    HW2 2604   3.626   2.247   0.428
  569SOL     OW 2605   1.299   2.825   0.339
  569SOL    HW1 2606   1.272   2.793   0.430
  569SOL    HW2 2607   1.392   2.861   0.344
  570SOL     OW 2608   1.520   6.420   0.403
  570SOL    HW1 2609   1.598   6.405   0.342
  570SOL    HW2 2610   1.441   6.367   0.370
  571SOL     OW 2611   3.212   6.010   2.639
  571SOL    HW1 2612   3.194   5.952   2.560
  571SOL    HW2 2613   3.304   6.050   2.632
  572SOL     OW 2614   2.060   4.480   5.843
  572SOL    HW1 2615   1.973   4.439   5.816
  572SOL    HW2 2616   2.100   4.426   5.917
  573SOL     OW 2617   3.527   1.471   5.646
  573SOL    HW1 2618   3.577   1.516   5.572
  573SOL    HW2 2619   3.512   1.537   5.721
  574SOL     OW 2620   2.195   2.083   4.408
  574SOL    HW1 2621   2.169   2.179   4.419
  574SOL    HW2 2622   2.245   2.053   4.489
  575SOL     OW 2623   6.464   3.488   0.605
  575SOL    HW1 2624   6.421   3.501   0.694
  575SOL    HW2 2625   6.461   3.391   0.580
  576SOL     OW 2626   1.440   2.222   2.044
  576SOL    HW1 2627   1.454   2.315   2.013
  576SOL    HW2 2628   1.528   2.176   2.052
  577SOL     OW 2629   2.345   1.619   3.808
  577SOL    HW1 2630   2.300   1.682   3.744
  577SOL    HW2 2631   2.423   1.576   3.762
  578SOL     OW 2632   0.416   3.231   3.565
  578SOL    HW1 2633   0.331   3.193   3.529
  578SOL    HW2 2634   0.480   3.248   3.490
  579SOL     OW 2635   4.194   2.256   1.129
  579SOL    HW1 2636   4.196   2.291   1.223
  579SOL    HW2 2637   4.258   2.307   1.072
  580SOL     OW 2638   0.980   4.798   6.168
  580SOL    HW1 2639   1.068   4.750   6.160
  580SOL    HW2 2640   0.905   4.733   6.153
  581SOL     OW 2641   3.768   3.030   3.405
  581SOL    HW1 2642   3.716   2.985   3.478
  581SOL    HW2 2643   3.774   3.128   3.423
  582SOL     OW 2644   5.754   4.015   2.270
  582SOL    HW1 2645   5.807   4.092   2.304
  582SOL    HW2 2646   5.798   3.976   2.190
  583SOL     OW 2647   3.008   4.613   6.838
  583SOL    HW1 2648   3.025   4.517   6.812
  583SOL    HW2 2649   3.081   4.670   6.800
  584SOL     OW 2650   0.173   4.752   5.577
  584SOL    HW1 2651   0.136   4.823   5.637
  584SOL    HW2 2652   0.236   4.793   5.511
  585SOL     OW 2653   0.244   2.474   6.027
  585SOL    HW1 2654   0.246   2.546   6.095
  585SOL    HW2 2655   0.235   2.514   5.936
  586SOL     OW 2656   2.645   6.896   0.517
  586SOL    HW1 2657   2.728   6.843   0.499
  586SOL    HW2 2658   2.598   6.858   0.596
  587SOL     OW 2659   1.423   2.381   5.380
  587SOL    HW1 2660   1.355   2.310   5.401
  587SOL    HW2 2661   1.469   2.408   5.465
  588SOL     OW 2662   3.557   6.759   1.557
  588SOL    HW1 2663   3.565   6.686   1.489
  588SOL    HW2 2664   3.478   6.742   1.615
  589SOL     OW 2665   3.791   5.106   1.891
  589SOL    HW1 2666   3.808   5.175   1.821
  589SOL    HW2 2667   3.720   5.137   1.953
  590SOL     OW 2668   0.146   2.906   2.098
  590SOL    HW1 2669   0.110   2.999   2.094
  590SOL    HW2 2670   0.129   2.867   2.188
  591SOL     OW 2671   4.272   6.919   3.800
  591SOL    HW1 2672   4.311   7.011   3.804
  591SOL    HW2 2673   4.346   6.852   3.793
  592SOL     OW 2674   4.891   1.154   0.304
  592SOL    HW1 2675   4.957   1.229   0.299
  592SOL    HW2 2676   4.887   1.120   0.398
  593SOL     OW 2677   4.140   2.196   4.055
  593SOL    HW1 2678   4.089   2.145   3.986
  593SOL    HW2 2679   4.227   2.227   4.016
  594SOL     OW 2680   4.134   3.566   6.965
  594SOL    HW1 2681   4.065   3.550   6.895
  594SOL    HW2 2682   4.130   3.662   6.993
  595SOL     OW 2683   4.010   6.846   4.421
  595SOL    HW1 2684   3.968   6.779   4.482
  595SOL    HW2 2685   4.011   6.810   4.327
  596SOL     OW 2686   0.937   4.253   2.377
  596SOL    HW1 2687   0.866   4.279   2.443
  596SOL    HW2 2688   1.027   4.264   2.418
  597SOL     OW 2689   3.418   0.120   0.047
  597SOL    HW1 2690   3.516   0.101   0.049
  597SOL    HW2 2691   3.397   0.176   6.995
  598SOL     OW 2692   4.157   4.666   0.325
  598SOL    HW1 2693   4.079   4.700   0.273
  598SOL    HW2 2694   4.240   4.713   0.295
  599SOL     OW 2695   0.053   0.260   2.742
  599SOL    HW1 2696   0.121   0.327   2.772
  599SOL    HW2 2697   6.999   0.266   2.800
  600SOL     OW 2698   0.921   6.646   0.805
  600SOL    HW1 2699   0.969   6.575   0.858
  600SOL    HW2 2700   0.855   6.603   0.744
  601SOL     OW 2701   2.539   5.979   3.385
  601SOL    HW1 2702   2.482   5.900   3.403
  601SOL    HW2 2703   2.634   5.958   3.409
  602SOL     OW 2704   1.353   6.955   0.953
  602SOL    HW1 2705   1.385   6.861   0.960
  602SOL    HW2 2706   1.391   7.009   1.028
  603SOL     OW 2707   3.925   1.883   3.555
  603SOL    HW1 2708   3.828   1.888   3.531
  603SOL    HW2 2709   3.969   1.812   3.500
  604SOL     OW 2710   1.348   3.421   6.874
  604SOL    HW1 2711   1.349   3.520   6.863
  604SOL    HW2 2712   1.441   3.385   6.862
  605SOL     OW 2713   0.004   5.756   3.582
  605SOL    HW1 2714   6.956   5.808   3.542
  605SOL    HW2 2715   0.051   5.705   3.510
  606SOL     OW 2716   4.319   0.238   4.964
  606SOL    HW1 2717   4.359   0.172   4.901
  606SOL    HW2 2718   4.353   0.220   5.056
  607SOL     OW 2719   5.154   1.162   3.639
  607SOL    HW1 2720   5.252   1.146   3.654
  607SOL    HW2 2721   5.124   1.106   3.561
  608SOL     OW 2722   2.862   0.382   0.626
  608SOL    HW1 2723   2.812   0.421   0.548
  608SOL    HW2 2724   2.951   0.349   0.596
  609SOL     OW 2725   3.531   2.944   4.217
  609SOL    HW1 2726   3.626   2.944   4.248
  609SOL    HW2 2727   3.529   2.934   4.117
  610SOL     OW 2728   5.055   2.402   4.037
  610SOL    HW1 2729   5.144   2.424   3.997
  610SOL    HW2 2730   5.064   2.321   4.094
  611SOL     OW 2731   0.258   0.730   0.052
  611SOL    HW1 2732   0.357   0.745   0.048
  611SOL    HW2 2733   0.225   0.703   6.989
  612SOL     OW 2734   3.616   5.215   6.064
  612SOL    HW1 2735   3.645   5.189   5.972
  612SOL    HW2 2736   3.576   5.306   6.062
  613SOL     OW 2737   4.065   1.595   5.703
  613SOL    HW1 2738   4.131   1.650   5.755
  613SOL    HW2 2739   3.979   1.644   5.696
  614SOL     OW 2740   6.161   4.783   1.013
  614SOL    HW1 2741   6.167   4.726   1.095
  614SOL    HW2 2742   6.070   4.823   1.006
  615SOL     OW 2743   0.355   0.083   0.266
  615SOL    HW1 2744   0.266   0.076   0.222
  615SOL    HW2 2745   0.347   0.056   0.362
  616SOL     OW 2746   5.569   2.151   4.655
  616SOL    HW1 2747   5.559   2.070   4.597
  616SOL    HW2 2748   5.616   2.126   4.740
  617SOL     OW 2749   0.518   4.680   5.513
  617SOL    HW1 2750   0.481   4.749   5.575
  617SOL    HW2 2751   0.559   4.724   5.433
  618SOL     OW 2752   5.959   3.396   1.181
  618SOL    HW1 2753   6.045   3.444   1.163
  618SOL    HW2 2754   5.920   3.429   1.268
  619SOL     OW 2755   3.115   0.536   0.581
  619SOL    HW1 2756   3.204   0.507   0.618
  619SOL    HW2 2757   3.074   0.603   0.643
  620SOL     OW 2758   5.661   3.318   2.140
  620SOL    HW1 2759   5.566   3.346   2.153
  620SOL    HW2 2760   5.721   3.398   2.143
  621SOL     OW 2761   2.664   6.883   6.151
  621SOL    HW1 2762   2.750   6.889   6.101
  621SOL    HW2 2763   2.674   6.927   6.241
  622SOL     OW 2764   1.016   2.390   5.435
  622SOL    HW1 2765   1.081   2.314   5.435
  622SOL    HW2 2766   1.054   2.467   5.485
  623SOL     OW 2767   6.362   6.891   4.228
  623SOL    HW1 2768   6.274   6.849   4.251
  623SOL    HW2 2769   6.359   6.989   4.248
  624SOL     OW 2770   6.284   1.598   6.621
  624SOL    HW1 2771   6.328   1.514   6.589
  624SOL    HW2 2772   6.233   1.580   6.705
  625SOL     OW 2773   2.294   1.458   0.365
  625SOL    HW1 2774   2.391   1.481   0.356
  625SOL    HW2 2775   2.276   1.422   0.457
  626SOL     OW 2776   1.314   5.812   3.632
  626SOL    HW1 2777   1.408   5.787   3.653
  626SOL    HW2 2778   1.269   5.846   3.714
  627SOL     OW 2779   6.320   6.997   0.089
  627SOL    HW1 2780   6.325   6.939   0.008
  627SOL    HW2 2781   6.302   0.064   0.060
  628SOL     OW 2782   5.161   4.291   5.634
  628SOL    HW1 2783   5.158   4.249   5.543
  628SOL    HW2 2784   5.231   4.247   5.689
  629SOL     OW 2785   6.952   0.878   0.324
  629SOL    HW1 2786   6.921   0.784   0.311
  629SOL    HW2 2787   6.989   0.913   0.238
  630SOL     OW 2788   7.012   1.623   1.351
  630SOL    HW1 2789   0.078   1.615   1.318
  630SOL    HW2 2790   6.973   1.532   1.363
  631SOL     OW 2791   2.465   2.668   4.853
  631SOL    HW1 2792   2.543   2.729   4.840
  631SOL    HW2 2793   2.488   2.600   4.923
  632SOL     OW 2794   4.769   3.126   0.432
  632SOL    HW1 2795   4.700   3.091   0.496
  632SOL    HW2 2796   4.850   3.154   0.483
  633SOL     OW 2797   1.514   5.290   1.366
  633SOL    HW1 2798   1.536   5.289   1.464
  633SOL    HW2 2799   1.581   5.236   1.316
  634SOL     OW 2800   2.950   3.572   3.965
  634SOL    HW1 2801   3.015   3.496   3.955
  634SOL    HW2 2802   2.913   3.596   3.875
  635SOL     OW 2803   5.331   1.325   6.579
  635SOL    HW1 2804   5.233   1.308   6.562
  635SOL    HW2 2805   5.364   1.395   6.516
  636SOL     OW 2806   2.957   0.083   6.421
  636SOL    HW1 2807   3.001   0.126   6.342
  636SOL    HW2 2808   3.005   0.110   6.504
  637SOL     OW 2809   6.199   1.148   1.862
  637SOL    HW1 2810   6.128   1.205   1.903
  637SOL    HW2 2811   6.184   1.053   1.886
  638SOL     OW 2812   5.919   3.311   3.730
  638SOL    HW1 2813   5.860   3.230   3.724
  638SOL    HW2 2814   5.996   3.292   3.791
  639SOL     OW 2815   5.191   4.671   2.930
  639SOL    HW1 2816   5.207   4.607   3.005
  639SOL    HW2 2817   5.267   4.665   2.865
  640SOL     OW 2818   0.055   2.807   2.363
  640SOL    HW1 2819   0.142   2.778   2.404
  640SOL    HW2 2820   0.013   2.877   2.420
  641SOL     OW 2821   1.952   4.758   5.170
  641SOL    HW1 2822   1.950   4.808   5.083
  641SOL    HW2 2823   1.860   4.733   5.197
  642SOL     OW 2824   1.126   3.928   4.589
  642SOL    HW1 2825   1.045   3.889   4.634
  642SOL    HW2 2826   1.174   3.855   4.540
  643SOL     OW 2827   4.794   6.326   6.588
  643SOL    HW1 2828   4.748   6.268   6.656
  643SOL    HW2 2829   4.760   6.420   6.596
  644SOL     OW 2830   0.286   6.949   4.728
  644SOL    HW1 2831   0.307   6.852   4.711
  644SOL    HW2 2832   0.371   6.998   4.747
  645SOL     OW 2833   3.570   4.931   3.116
  645SOL    HW1 2834   3.572   4.976   3.026
  645SOL    HW2 2835   3.476   4.931   3.150
  646SOL     OW 2836   3.764   0.826   5.310
  646SOL    HW1 2837   3.679   0.857   5.267
  646SOL    HW2 2838   3.810   0.904   5.352
  647SOL     OW 2839   4.992   2.218   4.603
  647SOL    HW1 2840   5.064   2.216   4.673
  647SOL    HW2 2841   4.908   2.179   4.641
  648SOL     OW 2842   5.968   1.441   2.688
  648SOL    HW1 2843   6.044   1.422   2.751
  648SOL    HW2 2844   6.004   1.478   2.602
  649SOL     OW 2845   2.131   4.957   0.304
  649SOL    HW1 2846   2.097   5.043   0.340
  649SOL    HW2 2847   2.198   4.918   0.367
  650SOL     OW 2848   6.647   5.629   0.609
  650SOL    HW1 2849   6.642   5.530   0.603
  650SOL    HW2 2850   6.646   5.657   0.705
  651SOL     OW 2851   1.454   0.313   5.695
  651SOL    HW1 2852   1.445   0.215   5.708
  651SOL    HW2 2853   1.430   0.337   5.601
  652SOL     OW 2854   4.250   0.606   2.133
  652SOL    HW1 2855   4.163   0.596   2.180
  652SOL    HW2 2856   4.285   0.698   2.147
  653SOL     OW 2857   6.859   6.820   0.857
  653SOL    HW1 2858   6.842   6.790   0.763
  653SOL    HW2 2859   6.868   6.919   0.859
  654SOL     OW 2860   6.650   6.551   6.052
  654SOL    HW1 2861   6.641   6.633   5.996
  654SOL    HW2 2862   6.712   6.486   6.008
  655SOL     OW 2863   0.339   5.076   2.257
  655SOL    HW1 2864   0.271   5.052   2.326
  655SOL    HW2 2865   0.416   5.013   2.263
  656SOL     OW 2866   3.180   6.639   0.675
  656SOL    HW1 2867   3.128   6.555   0.685
  656SOL    HW2 2868   3.145   6.709   0.738
  657SOL     OW 2869   3.779   3.226   1.772
  657SOL    HW1 2870   3.827   3.156   1.825
  657SOL    HW2 2871   3.733   3.183   1.694
  658SOL     OW 2872   2.393   4.286   4.285
  658SOL    HW1 2873   2.423   4.215   4.349
  658SOL    HW2 2874   2.319   4.339   4.326
  659SOL     OW 2875   3.740   6.339   5.937
  659SOL    HW1 2876   3.699   6.276   6.004
  659SOL    HW2 2877   3.832   6.363   5.966
  660SOL     OW 2878   5.056   4.434   2.372
  660SOL    HW1 2879   5.109   4.471   2.449
  660SOL    HW2 2880   4.973   4.488   2.360
  661SOL     OW 2881   5.114   4.539   4.378
  661SOL    HW1 2882   5.193   4.567   4.432
  661SOL    HW2 2883   5.143   4.518   4.284
  662SOL     OW 2884   4.880   2.903   0.302
  662SOL    HW1 2885   4.976   2.917   0.277
  662SOL    HW2 2886   4.837   2.991   0.320
  663SOL     OW 2887   6.969   4.372   6.937
  663SOL    HW1 2888   6.975   4.466   6.905
  663SOL    HW2 2889   6.890   4.327   6.896
  664SOL     OW 2890   1.480   6.276   6.321
  664SOL    HW1 2891   1.414   6.311   6.256
  664SOL    HW2 2892   1.443   6.283   6.414
  665SOL     OW 2893   3.944   5.282   1.354
  665SOL    HW1 2894   3.921   5.244   1.265
  665SOL    HW2 2895   3.960   5.208   1.419
  666SOL     OW 2896   3.934   1.463   0.116
  666SOL    HW1 2897   3.980   1.465   0.027
  666SOL    HW2 2898   3.981   1.399   0.176
  667SOL     OW 2899   0.567   2.958   3.665
  667SOL    HW1 2900   0.650   3.005   3.635
  667SOL    HW2 2901   0.517   3.016   3.729
  668SOL     OW 2902   4.535   6.777   0.019
  668SOL    HW1 2903   4.532   6.692   0.073
  668SOL    HW2 2904   4.616   6.829   0.044
  669SOL     OW 2905   0.770   6.804   3.631
  669SOL    HW1 2906   0.723   6.801   3.719
  669SOL    HW2 2907   0.717   6.755   3.563
  670SOL     OW 2908   3.570   3.691   3.106
  670SOL    HW1 2909   3.512   3.612   3.087
  670SOL    HW2 2910   3.513   3.774   3.105
  671SOL     OW 2911   1.612   6.302   6.001
  671SOL    HW1 2912   1.517   6.282   6.027
  671SOL    HW2 2913   1.646   6.377   6.057
  672SOL     OW 2914   1.463   3.469   4.534
  672SOL    HW1 2915   1.508   3.443   4.448
  672SOL    HW2 2916   1.383   3.412   4.549
  673SOL     OW 2917   5.020   0.601   0.026
  673SOL    HW1 2918   4.964   0.532   7.008
  673SOL    HW2 2919   4.992   0.610   0.122
  674SOL     OW 2920   0.739   2.573   3.339
  674SOL    HW1 2921   0.691   2.653   3.302
  674SOL    HW2 2922   0.756   2.588   3.437
  675SOL     OW 2923   0.632   2.755   4.793
  675SOL    HW1 2924   0.691   2.804   4.728
  675SOL    HW2 2925   0.651   2.657   4.788
  676SOL     OW 2926   2.445   4.790   4.679
  676SOL    HW1 2927   2.476   4.697   4.702
  676SOL    HW2 2928   2.423   4.839   4.764
  677SOL     OW 2929   6.338   0.462   0.789
  677SOL    HW1 2930   6.306   0.550   0.825
  677SOL    HW2 2931   6.343   0.395   0.863
  678SOL     OW 2932   2.761   0.658   5.786
  678SOL    HW1 2933   2.815   0.696   5.711
  678SOL    HW2 2934   2.665   0.651   5.758
  679SOL     OW 2935   3.541   0.937   3.286
  679SOL    HW1 2936   3.586   0.854   3.318
  679SOL    HW2 2937   3.577   1.016   3.337
  680SOL     OW 2938   5.141   3.894   5.741
  680SOL    HW1 2939   5.045   3.921   5.739
  680SOL    HW2 2940   5.173   3.892   5.836
  681SOL     OW 2941   6.824   6.634   1.055
  681SOL    HW1 2942   6.778   6.567   0.998
  681SOL    HW2 2943   6.842   6.716   1.001
  682SOL     OW 2944   2.046   6.572   7.013
  682SOL    HW1 2945   2.043   6.474   6.993
  682SOL    HW2 2946   2.061   6.585   0.084
  683SOL     OW 2947   3.712   1.423   6.057
  683SOL    HW1 2948   3.639   1.444   6.122
  683SOL    HW2 2949   3.799   1.418   6.105
  684SOL     OW 2950   0.581   6.625   5.988
  684SOL    HW1 2951   0.632   6.643   6.071
  684SOL    HW2 2952   0.605   6.535   5.952
  685SOL     OW 2953   4.719   0.214   6.529
  685SOL    HW1 2954   4.795   0.175   6.477
  685SOL    HW2 2955   4.686   0.148   6.596
  686SOL     OW 2956   5.514   2.578   3.361
  686SOL    HW1 2957   5.596   2.524   3.343
  686SOL    HW2 2958   5.433   2.525   3.335
  687SOL     OW 2959   6.622   3.031   6.528
  687SOL    HW1 2960   6.694   3.077   6.475
  687SOL    HW2 2961   6.535   3.037   6.479
  688SOL     OW 2962   1.864   3.891   6.809
  688SOL    HW1 2963   1.955   3.931   6.802
  688SOL    HW2 2964   1.868   3.796   6.778
  689SOL     OW 2965   0.329   4.010   6.552
  689SOL    HW1 2966   0.426   4.002   6.574
  689SOL    HW2 2967   0.307   3.953   6.473
  690SOL     OW 2968   1.508   2.023   3.776
  690SOL    HW1 2969   1.599   2.033   3.736
  690SOL    HW2 2970   1.515   1.985   3.868
  691SOL     OW 2971   1.187   2.654   6.375
  691SOL    HW1 2972   1.286   2.644   6.372
  691SOL    HW2 2973   1.153   2.624   6.465
  692SOL     OW 2974   2.471   7.014   3.038
  692SOL    HW1 2975   2.438   6.930   2.997
  692SOL    HW2 2976   2.569   7.025   3.018
  693SOL     OW 2977   6.592   2.596   2.682
  693SOL    HW1 2978   6.641   2.669   2.635
  693SOL    HW2 2979   6.521   2.560   2.623
  694SOL     OW 2980   3.124   5.459   1.155
  694SOL    HW1 2981   3.068   5.533   1.193
  694SOL    HW2 2982   3.083   5.427   1.070
  695SOL     OW 2983   5.220   5.633   5.101
  695SOL    HW1 2984   5.299   5.680   5.139
  695SOL    HW2 2985   5.226   5.535   5.123
  696SOL     OW 2986   3.409   5.259   2.382
  696SOL    HW1 2987   3.336   5.267   2.315
  696SOL    HW2 2988   3.444   5.165   2.383
  697SOL     OW 2989   0.861   3.288   4.825
  697SOL    HW1 2990   0.914   3.248   4.899
  697SOL    HW2 2991   0.919   3.347   4.770
  698SOL     OW 2992   4.424   0.611   3.368
  698SOL    HW1 2993   4.522   0.634   3.363
  698SOL    HW2 2994   4.372   0.694   3.386
  699SOL     OW 2995   1.498   4.689   0.884
  699SOL    HW1 2996   1.524   4.595   0.905
  699SOL    HW2 2997   1.398   4.695   0.876
  700SOL     OW 2998   2.644   2.418   4.078
  700SOL    HW1 2999   2.662   2.501   4.131
  700SOL    HW2 3000   2.549   2.417   4.048
  701SOL     OW 3001   0.548   4.664   6.908
  701SOL    HW1 3002   0.484   4.590   6.887
  701SOL    HW2 3003   0.577   4.657   7.004
  702SOL     OW 3004   5.019   6.464   5.082
  702SOL    HW1 3005   5.106   6.495   5.044
  702SOL    HW2 3006   4.951   6.459   5.009
  703SOL     OW 3007   4.304   3.581   6.642
  703SOL    HW1 3008   4.337   3.651   6.705
  703SOL    HW2 3009   4.246   3.623   6.573
  704SOL     OW 3010   1.402   0.927   6.639
  704SOL    HW1 3011   1.359   0.894   6.555
  704SOL    HW2 3012   1.476   0.865   6.665
  705SOL     OW 3013   5.219   0.691   3.329
  705SOL    HW1 3014   5.280   0.658   3.401
  705SOL    HW2 3015   5.197   0.616   3.267
  706SOL     OW 3016   3.520   2.093   4.091
  706SOL    HW1 3017   3.510   2.003   4.134
  706SOL    HW2 3018   3.441   2.111   4.033
  707SOL     OW 3019   4.544   0.612   1.251
  707SOL    HW1 3020   4.569   0.576   1.341
  707SOL    HW2 3021   4.519   0.537   1.190
  708SOL     OW 3022   4.703   0.402   1.320
  708SOL    HW1 3023   4.732   0.306   1.310
  708SOL    HW2 3024   4.620   0.405   1.375
  709SOL     OW 3025   0.811   4.872   0.678
  709SOL    HW1 3026   0.826   4.911   0.768
  709SOL    HW2 3027   0.731   4.915   0.635
  710SOL     OW 3028   3.443   4.160   2.444
  710SOL    HW1 3029   3.454   4.109   2.529
  710SOL    HW2 3030   3.435   4.258   2.464
  711SOL     OW 3031   6.652   2.351   5.013
  711SOL    HW1 3032   6.633   2.284   4.941
  711SOL    HW2 3033   6.628   2.312   5.102
  712SOL     OW 3034   1.174   3.697   1.179
  712SOL    HW1 3035   1.249   3.762   1.169
  712SOL    HW2 3036   1.089   3.746   1.199
  713SOL     OW 3037   3.575   3.386   2.226
  713SOL    HW1 3038   3.670   3.399   2.199
  713SOL    HW2 3039   3.568   3.394   2.326
  714SOL     OW 3040   5.619   4.254   5.162
  714SOL    HW1 3041   5.558   4.307   5.221
  714SOL    HW2 3042   5.592   4.157   5.164
  715SOL     OW 3043   4.131   5.725   6.373
  715SOL    HW1 3044   4.212   5.782   6.383
  715SOL    HW2 3045   4.115   5.675   6.459
  716SOL     OW 3046   0.425   5.353   1.510
  716SOL    HW1 3047   0.492   5.293   1.556
  716SOL    HW2 3048   0.469   5.397   1.432
  717SOL     OW 3049   6.140   4.069   6.822
  717SOL    HW1 3050   6.083   4.070   6.904
  717SOL    HW2 3051   6.235   4.085   6.846
  718SOL     OW 3052   3.500   2.906   5.653
  718SOL    HW1 3053   3.515   2.996   5.613
  718SOL    HW2 3054   3.514   2.910   5.752
  719SOL     OW 3055   6.755   2.627   1.375
  719SOL    HW1 3056   6.674   2.658   1.425
  719SOL    HW2 3057   6.825   2.699   1.377
  720SOL     OW 3058   2.158   1.886   5.434
  720SOL    HW1 3059   2.087   1.930   5.379
  720SOL    HW2 3060   2.155   1.787   5.418
  721SOL     OW 3061   1.551   0.596   5.356
  721SOL    HW1 3062   1.617   0.611   5.430
  721SOL    HW2 3063   1.566   0.505   5.317
  722SOL     OW 3064   4.114   6.565   4.883
  722SOL    HW1 3065   4.144   6.651   4.842
  722SOL    HW2 3066   4.168   6.489   4.846
  723SOL     OW 3067   2.161   2.718   2.482
  723SOL    HW1 3068   2.253   2.736   2.446
  723SOL    HW2 3069   2.132   2.626   2.453
  724SOL     OW 3070   0.801   1.692   4.998
  724SOL    HW1 3071   0.756   1.719   4.913
  724SOL    HW2 3072   0.734   1.690   5.073
  725SOL     OW 3073   2.832   5.242   2.106
  725SOL    HW1 3074   2.906   5.182   2.078
  725SOL    HW2 3075   2.788   5.281   2.025
  726SOL     OW 3076   3.273   5.437   6.551
  726SOL    HW1 3077   3.340   5.374   6.511
  726SOL    HW2 3078   3.185   5.391   6.561
  727SOL     OW 3079   3.487   5.618   4.500
  727SOL    HW1 3080   3.524   5.709   4.479
  727SOL    HW2 3081   3.399   5.607   4.455
  728SOL     OW 3082   0.377   3.948   5.545
  728SOL    HW1 3083   0.284   3.948   5.582
  728SOL    HW2 3084   0.380   4.005   5.463
  729SOL     OW 3085   2.073   1.312   0.561
  729SOL    HW1 3086   2.120   1.225   0.543
  729SOL    HW2 3087   1.974   1.295   0.566
  730SOL     OW 3088   6.147   0.095   3.735
  730SOL    HW1 3089   6.136   7.026   3.759
  730SOL    HW2 3090   6.192   0.103   3.646
  731SOL     OW 3091   5.251   3.085   4.847
  731SOL    HW1 3092   5.217   3.078   4.753
  731SOL    HW2 3093   5.197   3.024   4.906
  732SOL     OW 3094   0.652   2.614   1.333
  732SOL    HW1 3095   0.727   2.633   1.396
  732SOL    HW2 3096   0.590   2.692   1.329
  733SOL     OW 3097   5.154   4.421   3.848
  733SOL    HW1 3098   5.190   4.471   3.769
  733SOL    HW2 3099   5.054   4.429   3.849
  734SOL     OW 3100   0.290   3.969   1.724
  734SOL    HW1 3101   0.243   3.907   1.661
  734SOL    HW2 3102   0.335   4.042   1.672
  735SOL     OW 3103   1.714   3.502   0.478
  735SOL    HW1 3104   1.724   3.414   0.430
  735SOL    HW2 3105   1.804   3.546   0.484
  736SOL     OW 3106   6.219   6.934   3.025
  736SOL    HW1 3107   6.197   6.840   3.000
  736SOL    HW2 3108   6.314   6.953   3.002
  737SOL     OW 3109   4.731   3.781   1.521
  737SOL    HW1 3110   4.722   3.878   1.497
  737SOL    HW2 3111   4.758   3.729   1.440
  738SOL     OW 3112   0.357   4.435   4.299
  738SOL    HW1 3113   0.364   4.367   4.372
  738SOL    HW2 3114   0.369   4.526   4.337
  739SOL     OW 3115   4.654   6.777   5.931
  739SOL    HW1 3116   4.736   6.835   5.936
  739SOL    HW2 3117   4.574   6.835   5.917
  740SOL     OW 3118   5.589   0.564   0.809
  740SOL    HW1 3119   5.556   0.505   0.734
  740SOL    HW2 3120   5.549   0.533   0.895
  741SOL     OW 3121   0.946   6.246   3.291
  741SOL    HW1 3122   0.860   6.217   3.331
  741SOL    HW2 3123   0.979   6.328   3.338
  742SOL     OW 3124   1.987   6.439   3.255
  742SOL    HW1 3125   2.021   6.359   3.305
  742SOL    HW2 3126   1.953   6.507   3.320
  743SOL     OW 3127   1.024   4.345   4.120
  743SOL    HW1 3128   1.020   4.445   4.116
  743SOL    HW2 3129   1.086   4.316   4.193
  744SOL     OW 3130   6.825   6.150   6.852
  744SOL    HW1 3131   6.920   6.124   6.835
  744SOL    HW2 3132   6.764   6.091   6.799
  745SOL     OW 3133   0.975   5.289   3.764
  745SOL    HW1 3134   1.017   5.268   3.852
  745SOL    HW2 3135   1.045   5.324   3.701
  746SOL     OW 3136   0.513   6.452   5.215
  746SOL    HW1 3137   0.563   6.536   5.235
  746SOL    HW2 3138   0.577   6.378   5.194
  747SOL     OW 3139   4.434   4.626   3.785
  747SOL    HW1 3140   4.534   4.623   3.792
  747SOL    HW2 3141   4.409   4.647   3.690
  748SOL     OW 3142   4.770   4.514   0.980
  748SOL    HW1 3143   4.755   4.507   0.881
  748SOL    HW2 3144   4.755   4.608   1.009
  749SOL     OW 3145   6.935   2.656   5.020
  749SOL    HW1 3146   6.850   2.619   4.983
  749SOL    HW2 3147   6.955   2.744   4.976
  750SOL     OW 3148   3.046   2.838   0.828
  750SOL    HW1 3149   2.983   2.916   0.822
  750SOL    HW2 3150   3.086   2.835   0.919
  751SOL     OW 3151   4.203   1.241   0.628
  751SOL    HW1 3152   4.112   1.282   0.626
  751SOL    HW2 3153   4.196   1.144   0.651
  752SOL     OW 3154   4.507   2.492   1.963
  752SOL    HW1 3155   4.565   2.429   1.911
  752SOL    HW2 3156   4.529   2.586   1.937
  753SOL     OW 3157   1.843   3.518   4.983
  753SOL    HW1 3158   1.801   3.430   5.004
  753SOL    HW2 3159   1.933   3.523   5.027
  754SOL     OW 3160   5.018   4.248   6.991
  754SOL    HW1 3161   5.030   4.174   6.924
  754SOL    HW2 3162   5.079   4.324   6.968
  755SOL     OW 3163   0.592   6.056   6.619
  755SOL    HW1 3164   0.628   5.965   6.597
  755SOL    HW2 3165   0.638   6.091   6.701
  756SOL     OW 3166   5.018   0.789   2.496
  756SOL    HW1 3167   4.924   0.806   2.467
  756SOL    HW2 3168   5.079   0.796   2.417
  757SOL     OW 3169   0.647   6.530   4.097
  757SOL    HW1 3170   0.628   6.489   4.186
  757SOL    HW2 3171   0.567   6.582   4.066
  758SOL     OW 3172   3.677   2.076   1.058
  758SOL    HW1 3173   3.581   2.084   1.087
  758SOL    HW2 3174   3.732   2.146   1.103
  759SOL     OW 3175   0.690   1.218   0.188
  759SOL    HW1 3176   0.777   1.251   0.226
  759SOL    HW2 3177   0.700   1.205   0.089
  760SOL     OW 3178   4.709   1.469   6.701
  760SOL    HW1 3179   4.651   1.397   6.664
  760SOL    HW2 3180   4.681   1.557   6.662
  761SOL     OW 3181   5.995   3.443   0.499
  761SOL    HW1 3182   6.091   3.431   0.522
  761SOL    HW2 3183   5.962   3.364   0.447
  762SOL     OW 3184   2.044   6.115   3.925
  762SOL    HW1 3185   2.059   6.197   3.979
  762SOL    HW2 3186   2.130   6.064   3.916
  763SOL     OW 3187   4.037   5.807   6.909
  763SOL    HW1 3188   3.955   5.841   6.863
  763SOL    HW2 3189   4.021   5.715   6.943
  764SOL     OW 3190   3.043   1.155   3.016
  764SOL    HW1 3191   2.968   1.143   2.951
  764SOL    HW2 3192   3.026   1.237   3.071
  765SOL     OW 3193   0.813   6.214   1.257
  765SOL    HW1 3194   0.760   6.271   1.321
  765SOL    HW2 3195   0.755   6.142   1.220
  766SOL     OW 3196   6.937   0.615   6.662
  766SOL    HW1 3197   6.920   0.650   6.570
  766SOL    HW2 3198   6.873   0.540   6.681
  767SOL     OW 3199   0.565   6.536   1.762
  767SOL    HW1 3200   0.663   6.541   1.743
  767SOL    HW2 3201   0.539   6.612   1.821
  768SOL     OW 3202   1.984   0.284   2.514
  768SOL    HW1 3203   1.958   0.308   2.608
  768SOL    HW2 3204   1.992   0.366   2.459
  769SOL     OW 3205   3.532   0.577   4.632
  769SOL    HW1 3206   3.575   0.492   4.664
  769SOL    HW2 3207   3.507   0.567   4.535
  770SOL     OW 3208   2.951   5.724   3.377
  770SOL    HW1 3209   2.996   5.675   3.303
  770SOL    HW2 3210   2.885   5.664   3.422
  771SOL     OW 3211   1.973   5.489   2.562
  771SOL    HW1 3212   1.961   5.496   2.661
  771SOL    HW2 3213   2.022   5.570   2.529
  772SOL     OW 3214   6.961   4.155   0.408
  772SOL    HW1 3215   6.991   4.114   0.322
  772SOL    HW2 3216   6.877   4.110   0.438
  773SOL     OW 3217   6.908   3.020   3.347
  773SOL    HW1 3218   6.808   3.014   3.348
  773SOL    HW2 3219   6.947   2.941   3.395
  774SOL     OW 3220   1.627   2.004   2.081
  774SOL    HW1 3221   1.576   1.926   2.044
  774SOL    HW2 3222   1.609   2.012   2.179
  775SOL     OW 3223   1.169   1.975   4.202
  775SOL    HW1 3224   1.138   2.000   4.293
  775SOL    HW2 3225   1.091   1.968   4.140
  776SOL     OW 3226   1.358   6.647   5.780
  776SOL    HW1 3227   1.366   6.635   5.879
  776SOL    HW2 3228   1.262   6.662   5.755
  777SOL     OW 3229   3.694   1.115   1.317
  777SOL    HW1 3230   3.756   1.139   1.392
  777SOL    HW2 3231   3.691   1.190   1.251
  778SOL     OW 3232   3.969   0.729   3.502
  778SOL    HW1 3233   4.013   0.750   3.415
  778SOL    HW2 3234   3.873   0.708   3.487
  779SOL     OW 3235   0.287   1.562   2.130
  779SOL    HW1 3236   0.339   1.633   2.177
  779SOL    HW2 3237   0.324   1.550   2.038
  780SOL     OW 3238   5.974   2.691   4.212
  780SOL    HW1 3239   6.071   2.699   4.234
  780SOL    HW2 3240   5.934   2.614   4.263
  781SOL     OW 3241   5.951   1.391   6.133
  781SOL    HW1 3242   5.857   1.423   6.122
  781SOL    HW2 3243   6.010   1.439   6.069
  782SOL     OW 3244   0.842   3.765   1.003
  782SOL    HW1 3245   0.823   3.793   0.909
  782SOL    HW2 3246   0.895   3.680   1.002
  783SOL     OW 3247   2.870   5.532   6.935
  783SOL    HW1 3248   2.797   5.549   7.001
  783SOL    HW2 3249   2.954   5.576   6.965
  784SOL     OW 3250   4.475   0.463   5.539
  784SOL    HW1 3251   4.465   0.423   5.448
  784SOL    HW2 3252   4.399   0.526   5.557
  785SOL     OW 3253   6.090   1.557   2.475
  785SOL    HW1 3254   6.176   1.545   2.524
  785SOL    HW2 3255   6.101   1.523   2.381
  786SOL     OW 3256   0.094   0.615   0.224
  786SOL    HW1 3257   0.146   0.687   0.179
  786SOL    HW2 3258   0.108   0.621   0.323
  787SOL     OW 3259   2.796   1.282   5.795
  787SOL    HW1 3260   2.832   1.233   5.715
  787SOL    HW2 3261   2.787   1.379   5.773
  788SOL     OW 3262   2.130   3.485   4.368
  788SOL    HW1 3263   2.035   3.471   4.396
  788SOL    HW2 3264   2.133   3.555   4.297
  789SOL     OW 3265   6.228   4.447   1.985
  789SOL    HW1 3266   6.302   4.430   2.051
  789SOL    HW2 3267   6.265   4.451   1.893
  790SOL     OW 3268   2.360   1.543   4.384
  790SOL    HW1 3269   2.419   1.577   4.310
  790SOL    HW2 3270   2.309   1.464   4.351
  791SOL     OW 3271   4.298   0.514   3.835
  791SOL    HW1 3272   4.356   0.556   3.764
  791SOL    HW2 3273   4.356   0.476   3.907
  792SOL     OW 3274   6.247   6.974   2.149
  792SOL    HW1 3275   6.188   6.894   2.153
  792SOL    HW2 3276   6.323   6.957   2.087
  793SOL     OW 3277   5.190   6.379   1.631
  793SOL    HW1 3278   5.207   6.364   1.728
  793SOL    HW2 3279   5.107   6.331   1.604
  794SOL     OW 3280   2.756   4.882   5.560
  794SOL    HW1 3281   2.715   4.808   5.613
  794SOL    HW2 3282   2.806   4.844   5.482
  795SOL     OW 3283   3.703   5.095   5.825
  795SOL    HW1 3284   3.607   5.118   5.806
  795SOL    HW2 3285   3.737   5.034   5.754
  796SOL     OW 3286   0.164   2.203   5.643
  796SOL    HW1 3287   0.253   2.219   5.685
  796SOL    HW2 3288   0.149   2.105   5.632
  797SOL     OW 3289   5.017   2.543   2.583
  797SOL    HW1 3290   4.961   2.623   2.563
  797SOL    HW2 3291   5.038   2.494   2.499
  798SOL     OW 3292   4.655   0.604   0.643
  798SOL    HW1 3293   4.717   0.543   0.692
  798SOL    HW2 3294   4.691   0.697   0.644
  799SOL     OW 3295   6.300   2.195   3.395
  799SOL    HW1 3296   6.331   2.231   3.307
  799SOL    HW2 3297   6.201   2.178   3.390
  800SOL     OW 3298   5.608   0.649   2.099
  800SOL    HW1 3299   5.509   0.663   2.100
  800SOL    HW2 3300   5.633   0.593   2.020
  801SOL     OW 3301   1.285   2.625   3.212
  801SOL    HW1 3302   1.211   2.569   3.248
  801SOL    HW2 3303   1.250   2.716   3.190
  802SOL     OW 3304   4.642   1.403   0.444
  802SOL    HW1 3305   4.607   1.319   0.401
  802SOL    HW2 3306   4.680   1.463   0.374
  803SOL     OW 3307   5.938   5.893   4.478
  803SOL    HW1 3308   5.840   5.876   4.489
  803SOL    HW2 3309   5.987   5.859   4.558
  804SOL     OW 3310   6.733   6.791   0.236
  804SOL    HW1 3311   6.663   6.722   0.251
  804SOL    HW2 3312   6.812   6.749   0.191
  805SOL     OW 3313   4.308   2.745   5.730
  805SOL    HW1 3314   4.356   2.681   5.791
  805SOL    HW2 3315   4.375   2.800   5.680
  806SOL     OW 3316   4.067   1.325   5.742
  806SOL    HW1 3317   4.152   1.312   5.691
  806SOL    HW2 3318   4.043   1.422   5.744
  807SOL     OW 3319   1.133   0.909   3.651
  807SOL    HW1 3320   1.057   0.969   3.678
  807SOL    HW2 3321   1.212   0.965   3.627
  808SOL     OW 3322   4.867   3.389   5.955
  808SOL    HW1 3323   4.775   3.424   5.933
  808SOL    HW2 3324   4.858   3.306   6.011
  809SOL     OW 3325   1.099   4.959   0.885
  809SOL    HW1 3326   1.153   4.942   0.968
  809SOL    HW2 3327   1.139   4.910   0.808
  810SOL     OW 3328   4.348   3.355   1.270
  810SOL    HW1 3329   4.271   3.292   1.264
  810SOL    HW2 3330   4.416   3.318   1.334
  811SOL     OW 3331   4.886   5.798   3.521
  811SOL    HW1 3332   4.969   5.741   3.524
  811SOL    HW2 3333   4.858   5.821   3.614
  812SOL     OW 3334   0.017   0.493   1.533
  812SOL    HW1 3335   0.087   0.424   1.549
  812SOL    HW2 3336   7.009   0.484   1.440
  813SOL     OW 3337   4.510   6.237   3.454
  813SOL    HW1 3338   4.608   6.252   3.438
  813SOL    HW2 3339   4.466   6.214   3.367
  814SOL     OW 3340   5.384   6.540   2.755
  814SOL    HW1 3341   5.338   6.523   2.668
  814SOL    HW2 3342   5.315   6.547   2.828
  815SOL     OW 3343   6.110   2.347   1.744
  815SOL    HW1 3344   6.127   2.251   1.720
  815SOL    HW2 3345   6.138   2.363   1.839
  816SOL     OW 3346   6.454   6.094   0.325
  816SOL    HW1 3347   6.404   6.016   0.362
  816SOL    HW2 3348   6.392   6.150   0.270
  817SOL     OW 3349   1.901   4.326   2.583
  817SOL    HW1 3350   1.820   4.342   2.526
  817SOL    HW2 3351   1.978   4.300   2.525
  818SOL     OW 3352   6.296   2.868   0.500
  818SOL    HW1 3353   6.283   2.845   0.596
  818SOL    HW2 3354   6.242   2.807   0.442
  819SOL     OW 3355   6.182   2.570   4.549
  819SOL    HW1 3356   6.255   2.613   4.602
  819SOL    HW2 3357   6.177   2.612   4.459
  820SOL     OW 3358   1.444   2.903   4.942
  820SOL    HW1 3359   1.389   2.981   4.913
  820SOL    HW2 3360   1.440   2.893   5.041
  821SOL     OW 3361   1.949   4.958   0.641
  821SOL    HW1 3362   1.895   4.935   0.722
  821SOL    HW2 3363   1.917   5.045   0.603
  822SOL     OW 3364   0.811   4.523   4.951
  822SOL    HW1 3365   0.841   4.566   4.865
  822SOL    HW2 3366   0.824   4.424   4.945
  823SOL     OW 3367   5.020   4.287   6.271
  823SOL    HW1 3368   5.033   4.287   6.172
  823SOL    HW2 3369   5.087   4.347   6.314
  824SOL     OW 3370   4.804   1.699   5.082
  824SOL    HW1 3371   4.811   1.757   5.000
  824SOL    HW2 3372   4.718   1.719   5.130
  825SOL     OW 3373   2.126   3.127   2.268
  825SOL    HW1 3374   2.204   3.188   2.280
  825SOL    HW2 3375   2.061   3.168   2.204
  826SOL     OW 3376   5.943   3.429   0.791
  826SOL    HW1 3377   5.922   3.392   0.700
  826SOL    HW2 3378   5.877   3.395   0.857
  827SOL     OW 3379   3.616   5.478   6.308
  827SOL    HW1 3380   3.549   5.536   6.355
  827SOL    HW2 3381   3.588   5.463   6.214
  828SOL     OW 3382   6.392   0.451   5.165
  828SOL    HW1 3383   6.360   0.382   5.230
  828SOL    HW2 3384   6.406   0.408   5.076
  829SOL     OW 3385   3.195   3.176   3.817
  829SOL    HW1 3386   3.242   3.098   3.860
  829SOL    HW2 3387   3.255   3.256   3.820
  830SOL     OW 3388   5.109   4.806   5.652
  830SOL    HW1 3389   5.042   4.759   5.710
  830SOL    HW2 3390   5.201   4.791   5.689
  831SOL     OW 3391   6.906   6.861   4.576
  831SOL    HW1 3392   6.845   6.938   4.595
  831SOL    HW2 3393   6.979   6.890   4.515
  832SOL     OW 3394   2.551   1.522   0.328
  832SOL    HW1 3395   2.594   1.583   0.394
  832SOL    HW2 3396   2.563   1.427   0.357
  833SOL     OW 3397   6.183   6.571   6.563
  833SOL    HW1 3398   6.105   6.634   6.558
  833SOL    HW2 3399   6.172   6.500   6.494
  834SOL     OW 3400   3.254   3.636   3.544
  834SOL    HW1 3401   3.330   3.699   3.524
  834SOL    HW2 3402   3.209   3.664   3.629
  835SOL     OW 3403   4.052   6.917   3.616
  835SOL    HW1 3404   4.116   6.930   3.692
  835SOL    HW2 3405   3.961   6.900   3.652
  836SOL     OW 3406   3.694   6.467   6.763
  836SOL    HW1 3407   3.755   6.411   6.820
  836SOL    HW2 3408   3.625   6.511   6.820
  837SOL     OW 3409   5.386   0.379   0.042
  837SOL    HW1 3410   5.382   0.470   0.001
  837SOL    HW2 3411   5.390   0.387   0.142
  838SOL     OW 3412   1.441   6.636   5.083
  838SOL    HW1 3413   1.380   6.646   5.004
  838SOL    HW2 3414   1.502   6.558   5.069
  839SOL     OW 3415   2.771   1.412   3.503
  839SOL    HW1 3416   2.837   1.486   3.518
  839SOL    HW2 3417   2.819   1.326   3.492
  840SOL     OW 3418   1.122   1.115   0.049
  840SOL    HW1 3419   1.161   1.024   0.065
  840SOL    HW2 3420   1.041   1.106   7.017
  841SOL     OW 3421   6.351   3.897   0.022
  841SOL    HW1 3422   6.334   3.879   6.952
  841SOL    HW2 3423   6.303   3.828   0.077
  842SOL     OW 3424   3.993   5.348   3.044
  842SOL    HW1 3425   4.008   5.318   3.138
  842SOL    HW2 3426   4.041   5.434   3.028
  843SOL     OW 3427   5.920   2.349   1.175
  843SOL    HW1 3428   5.912   2.396   1.263
  843SOL    HW2 3429   5.916   2.416   1.101
  844SOL     OW 3430   5.158   6.222   0.664
  844SOL    HW1 3431   5.090   6.225   0.592
  844SOL    HW2 3432   5.145   6.298   0.726
  845SOL     OW 3433   6.012   3.494   5.203
  845SOL    HW1 3434   5.997   3.457   5.294
  845SOL    HW2 3435   5.927   3.487   5.150
  846SOL     OW 3436   5.899   1.387   0.427
  846SOL    HW1 3437   5.824   1.341   0.379
  846SOL    HW2 3438   5.911   1.345   0.517
  847SOL     OW 3439   6.206   3.377   0.912
  847SOL    HW1 3440   6.247   3.400   1.000
  847SOL    HW2 3441   6.122   3.428   0.900
  848SOL     OW 3442   6.555   0.155   6.239
  848SOL    HW1 3443   6.635   0.140   6.180
  848SOL    HW2 3444   6.529   0.251   6.236
  849SOL     OW 3445   0.309   6.168   5.093
  849SOL    HW1 3446   0.323   6.254   5.045
  849SOL    HW2 3447   0.363   6.096   5.050
  850SOL     OW 3448   4.556   0.942   3.305
  850SOL    HW1 3449   4.650   0.910   3.293
  850SOL    HW2 3450   4.550   1.038   3.278
  851SOL     OW 3451   0.433   1.252   6.996
  851SOL    HW1 3452   0.417   1.209   0.057
  851SOL    HW2 3453   0.358   1.231   6.934
  852SOL     OW 3454   2.451   2.656   6.759
  852SOL    HW1 3455   2.528   2.637   6.698
  852SOL    HW2 3456   2.460   2.600   6.842
  853SOL     OW 3457   1.136   2.827   2.113
  853SOL    HW1 3458   1.041   2.855   2.128
  853SOL    HW2 3459   1.150   2.736   2.151
  854SOL     OW 3460   5.578   6.340   2.799
  854SOL    HW1 3461   5.520   6.266   2.831
  854SOL    HW2 3462   5.522   6.410   2.754
  855SOL     OW 3463   5.412   0.434   1.787
  855SOL    HW1 3464   5.474   0.504   1.750
  855SOL    HW2 3465   5.465   0.369   1.842
  856SOL     OW 3466   1.908   0.349   5.562
  856SOL    HW1 3467   1.944   0.442   5.574
  856SOL    HW2 3468   1.921   0.320   5.468
  857SOL     OW 3469   5.917   3.700   0.815
  857SOL    HW1 3470   5.853   3.693   0.891
  857SOL    HW2 3471   5.925   3.612   0.769
  858SOL     OW 3472   2.874   4.910   1.375
  858SOL    HW1 3473   2.903   5.003   1.350
  858SOL    HW2 3474   2.936   4.875   1.446
  859SOL     OW 3475   6.292   4.732   6.786
  859SOL    HW1 3476   6.197   4.762   6.791
  859SOL    HW2 3477   6.298   4.637   6.816
  860SOL     OW 3478   3.569   4.698   0.165
  860SOL    HW1 3479   3.488   4.646   0.190
  860SOL    HW2 3480   3.588   4.686   0.067
  861SOL     OW 3481   3.076   6.646   4.828
  861SOL    HW1 3482   3.101   6.582   4.901
  861SOL    HW2 3483   3.118   6.617   4.742
  862SOL     OW 3484   6.235   4.393   5.016
  862SOL    HW1 3485   6.186   4.421   5.098
  862SOL    HW2 3486   6.331   4.376   5.038
  863SOL     OW 3487   0.592   0.993   0.579
  863SOL    HW1 3488   0.497   1.019   0.564
  863SOL    HW2 3489   0.631   1.048   0.653
  864SOL     OW 3490   5.066   4.243   3.060
  864SOL    HW1 3491   5.087   4.267   2.965
  864SOL    HW2 3492   5.013   4.158   3.062
  865SOL     OW 3493   1.237   0.120   3.992
  865SOL    HW1 3494   1.316   0.071   3.955
  865SOL    HW2 3495   1.245   0.217   3.971
  866SOL     OW 3496   2.632   1.562   2.149
  866SOL    HW1 3497   2.589   1.550   2.060
  866SOL    HW2 3498   2.731   1.575   2.136
  867SOL     OW 3499   3.090   2.960   6.999
  867SOL    HW1 3500   3.141   2.995   6.921
  867SOL    HW2 3501   2.993   2.982   6.988
  868SOL     OW 3502   5.811   0.067   2.987
  868SOL    HW1 3503   5.729   0.120   3.011
  868SOL    HW2 3504   5.830   0.077   2.889
  869SOL     OW 3505   6.434   5.897   2.375
  869SOL    HW1 3506   6.360   5.960   2.399
  869SOL    HW2 3507   6.511   5.910   2.436
  870SOL     OW 3508   0.449   2.422   1.466
  870SOL    HW1 3509   0.539   2.457   1.492
  870SOL    HW2 3510   0.389   2.498   1.442
  871SOL     OW 3511   6.687   2.490   2.015
  871SOL    HW1 3512   6.703   2.533   2.104
  871SOL    HW2 3513   6.750   2.529   1.948
  872SOL     OW 3514   6.324   3.004   4.896
  872SOL    HW1 3515   6.311   3.102   4.912
  872SOL    HW2 3516   6.337   2.988   4.798
  873SOL     OW 3517   4.129   6.785   3.192
  873SOL    HW1 3518   4.138   6.863   3.129
  873SOL    HW2 3519   4.160   6.812   3.283
  874SOL     OW 3520   1.453   4.644   4.932
  874SOL    HW1 3521   1.394   4.620   4.855
  874SOL    HW2 3522   1.549   4.641   4.903
  875SOL     OW 3523   5.286   4.370   0.619
  875SOL    HW1 3524   5.262   4.348   0.525
  875SOL    HW2 3525   5.339   4.295   0.659
  876SOL     OW 3526   6.633   3.839   2.590
  876SOL    HW1 3527   6.549   3.792   2.619
  876SOL    HW2 3528   6.643   3.831   2.491
  877SOL     OW 3529   5.022   5.309   6.898
  877SOL    HW1 3530   5.052   5.364   6.820
  877SOL    HW2 3531   4.980   5.369   6.966
  878SOL     OW 3532   3.126   5.155   0.228
  878SOL    HW1 3533   3.077   5.092   0.288
  878SOL    HW2 3534   3.064   5.188   0.157
  879SOL     OW 3535   4.885   2.179   2.570
  879SOL    HW1 3536   4.923   2.146   2.656
  879SOL    HW2 3537   4.847   2.102   2.518
  880SOL     OW 3538   3.825   4.621   0.281
  880SOL    HW1 3539   3.852   4.620   0.377
  880SOL    HW2 3540   3.729   4.648   0.273
  881SOL     OW 3541   4.396   5.017   4.505
  881SOL    HW1 3542   4.447   5.065   4.434
  881SOL    HW2 3543   4.315   4.974   4.465
  882SOL     OW 3544   1.128   0.642   4.543
  882SOL    HW1 3545   1.162   0.678   4.630
  882SOL    HW2 3546   1.058   0.703   4.506
  883SOL     OW 3547   3.505   5.148   6.628
  883SOL    HW1 3548   3.554   5.221   6.675
  883SOL    HW2 3549   3.479   5.178   6.536
  884SOL     OW 3550   6.148   3.568   2.044
  884SOL    HW1 3551   6.129   3.666   2.054
  884SOL    HW2 3552   6.111   3.518   2.123
  885SOL     OW 3553   5.963   6.436   0.384
  885SOL    HW1 3554   5.880   6.441   0.330
  885SOL    HW2 3555   5.967   6.514   0.447
  886SOL     OW 3556   3.893   1.022   0.154
  886SOL    HW1 3557   3.929   0.929   0.157
  886SOL    HW2 3558   3.869   1.046   0.060
  887SOL     OW 3559   3.971   0.330   6.140
  887SOL    HW1 3560   4.006   0.402   6.079
  887SOL    HW2 3561   3.899   0.368   6.197
  888SOL     OW 3562   6.850   6.569   3.660
  888SOL    HW1 3563   6.760   6.534   3.632
  888SOL    HW2 3564   6.857   6.665   3.636
  889SOL     OW 3565   0.027   6.361   5.297
  889SOL    HW1 3566   6.989   6.425   5.336
  889SOL    HW2 3567   0.120   6.389   5.322
  890SOL     OW 3568   2.712   4.721   2.254
  890SOL    HW1 3569   2.633   4.781   2.244
  890SOL    HW2 3570   2.722   4.665   2.172
  891SOL     OW 3571   5.606   2.687   1.157
  891SOL    HW1 3572   5.587   2.610   1.218
  891SOL    HW2 3573   5.618   2.771   1.211
  892SOL     OW 3574   2.623   3.658   1.076
  892SOL    HW1 3575   2.658   3.566   1.095
  892SOL    HW2 3576   2.698   3.715   1.043
  893SOL     OW 3577   1.297   0.524   0.549
  893SOL    HW1 3578   1.301   0.494   0.644
  893SOL    HW2 3579   1.223   0.590   0.538
  894SOL     OW 3580   1.233   5.691   4.350
  894SOL    HW1 3581   1.198   5.600   4.374
  894SOL    HW2 3582   1.219   5.753   4.427
  895SOL     OW 3583   2.377   0.062   4.344
  895SOL    HW1 3584   2.401   0.071   4.247
  895SOL    HW2 3585   2.283   0.027   4.352
  896SOL     OW 3586   5.895   6.472   3.478
  896SOL    HW1 3587   5.994   6.476   3.466
  896SOL    HW2 3588   5.874   6.438   3.570
  897SOL     OW 3589   4.981   2.885   6.682
  897SOL    HW1 3590   4.887   2.876   6.648
  897SOL    HW2 3591   5.040   2.821   6.632
  898SOL     OW 3592   5.374   6.490   3.712
  898SOL    HW1 3593   5.426   6.460   3.632
  898SOL    HW2 3594   5.333   6.411   3.757
  899SOL     OW 3595   0.508   4.507   6.539
  899SOL    HW1 3596   0.536   4.424   6.491
  899SOL    HW2 3597   0.563   4.585   6.508
  900SOL     OW 3598   0.229   6.167   3.319
  900SOL    HW1 3599   0.217   6.069   3.333
  900SOL    HW2 3600   0.319   6.195   3.353
  901SOL     OW 3601   6.578   1.054   4.000
  901SOL    HW1 3602   6.565   1.017   3.908
  901SOL    HW2 3603   6.608   1.149   3.994
  902SOL     OW 3604   6.940   0.311   6.379
  902SOL    HW1 3605   6.908   0.273   6.465
  902SOL    HW2 3606   6.862   0.338   6.322
  903SOL     OW 3607   0.358   4.887   0.861
  903SOL    HW1 3608   0.351   4.978   0.902
  903SOL    HW2 3609   0.307   4.885   0.775
  904SOL     OW 3610   1.970   1.688   3.413
  904SOL    HW1 3611   1.976   1.617   3.342
  904SOL    HW2 3612   1.881   1.681   3.458
  905SOL     OW 3613   5.324   2.241   5.482
  905SOL    HW1 3614   5.280   2.308   5.423
  905SOL    HW2 3615   5.266   2.160   5.489
  906SOL     OW 3616   0.170   4.121   6.169
  906SOL    HW1 3617   0.146   4.125   6.072
  906SOL    HW2 3618   0.160   4.211   6.210
  907SOL     OW 3619   6.228   2.369   2.558
  907SOL    HW1 3620   6.149   2.400   2.612
  907SOL    HW2 3621   6.254   2.277   2.587
  908SOL     OW 3622   1.919   0.083   3.933
  908SOL    HW1 3623   2.010   0.052   3.906
  908SOL    HW2 3624   1.893   0.037   4.018
  909SOL     OW 3625   3.495   0.931   1.345
  909SOL    HW1 3626   3.443   0.993   1.286
  909SOL    HW2 3627   3.585   0.972   1.364
  910SOL     OW 3628   1.813   1.609   0.586
  910SOL    HW1 3629   1.771   1.518   0.586
  910SOL    HW2 3630   1.818   1.643   0.492
  911SOL     OW 3631   0.283   4.545   1.135
  911SOL    HW1 3632   0.269   4.451   1.105
  911SOL    HW2 3633   0.330   4.597   1.063
  912SOL     OW 3634   6.999   0.800   6.051
  912SOL    HW1 3635   6.908   0.799   6.012
  912SOL    HW2 3636   0.004   0.707   6.064
  913SOL     OW 3637   2.486   1.069   2.338
  913SOL    HW1 3638   2.575   1.112   2.355
  913SOL    HW2 3639   2.415   1.140   2.337
  914SOL     OW 3640   2.783   6.058   3.544
  914SOL    HW1 3641   2.828   6.093   3.461
  914SOL    HW2 3642   2.788   6.127   3.616
  915SOL     OW 3643   0.672   2.718   0.056
  915SOL    HW1 3644   0.575   2.709   0.032
  915SOL    HW2 3645   0.684   2.703   0.154
  916SOL     OW 3646   2.639   2.319   2.960
  916SOL    HW1 3647   2.663   2.364   2.874
  916SOL    HW2 3648   2.595   2.385   3.021
  917SOL     OW 3649   4.257   1.635   1.393
  917SOL    HW1 3650   4.241   1.733   1.408
  917SOL    HW2 3651   4.172   1.593   1.362
  918SOL     OW 3652   2.297   6.176   6.498
  918SOL    HW1 3653   2.219   6.131   6.455
  918SOL    HW2 3654   2.277   6.191   6.595
  919SOL     OW 3655   1.681   5.729   1.663
  919SOL    HW1 3656   1.674   5.758   1.568
  919SOL    HW2 3657   1.775   5.738   1.694
  920SOL     OW 3658   2.737   0.701   3.348
  920SOL    HW1 3659   2.781   0.620   3.388
  920SOL    HW2 3660   2.752   0.702   3.249
  921SOL     OW 3661   5.827   5.121   4.393
  921SOL    HW1 3662   5.878   5.179   4.456
  921SOL    HW2 3663   5.858   5.027   4.402
  922SOL     OW 3664   3.320   3.609   6.809
  922SOL    HW1 3665   3.253   3.683   6.811
  922SOL    HW2 3666   3.372   3.609   6.894
  923SOL     OW 3667   3.140   6.543   6.609
  923SOL    HW1 3668   3.177   6.539   6.702
  923SOL    HW2 3669   3.169   6.461   6.559
  924SOL     OW 3670   6.067   3.847   2.517
  924SOL    HW1 3671   6.033   3.790   2.592
  924SOL    HW2 3672   6.035   3.941   2.530
  925SOL     OW 3673   0.184   2.149   5.137
  925SOL    HW1 3674   0.102   2.180   5.089
  925SOL    HW2 3675   0.265   2.187   5.092
  926SOL     OW 3676   5.166   5.950   0.283
  926SOL    HW1 3677   5.222   5.936   0.201
  926SOL    HW2 3678   5.198   5.890   0.356
  927SOL     OW 3679   4.667   4.415   4.322
  927SOL    HW1 3680   4.715   4.342   4.370
  927SOL    HW2 3681   4.628   4.378   4.237
  928SOL     OW 3682   2.057   0.903   1.513
  928SOL    HW1 3683   2.057   0.905   1.613
  928SOL    HW2 3684   1.964   0.915   1.479
  929SOL     OW 3685   0.034   2.761   2.786
  929SOL    HW1 3686   6.970   2.795   2.768
  929SOL    HW2 3687   0.101   2.823   2.745
  930SOL     OW 3688   5.451   4.978   4.242
  930SOL    HW1 3689   5.510   4.953   4.165
  930SOL    HW2 3690   5.502   4.969   4.327
  931SOL     OW 3691   1.219   2.323   2.473
  931SOL    HW1 3692   1.124   2.341   2.447
  931SOL    HW2 3693   1.234   2.352   2.567
  932SOL     OW 3694   4.590   6.109   1.056
  932SOL    HW1 3695   4.529   6.102   1.134
  932SOL    HW2 3696   4.598   6.021   1.010
  933SOL     OW 3697   1.733   5.211   2.696
  933SOL    HW1 3698   1.788   5.286   2.734
  933SOL    HW2 3699   1.636   5.234   2.703
  934SOL     OW 3700   3.190   1.664   5.040
  934SOL    HW1 3701   3.230   1.621   5.121
  934SOL    HW2 3702   3.129   1.599   4.994
  935SOL     OW 3703   3.948   2.921   6.207
  935SOL    HW1 3704   3.875   2.964   6.259
  935SOL    HW2 3705   3.927   2.925   6.110
  936SOL     OW 3706   0.500   0.736   0.662
  936SOL    HW1 3707   0.502   0.662   0.595
  936SOL    HW2 3708   0.538   0.819   0.621
  937SOL     OW 3709   4.302   1.538   4.674
  937SOL    HW1 3710   4.286   1.606   4.603
  937SOL    HW2 3711   4.251   1.455   4.652
  938SOL     OW 3712   0.611   2.962   6.123
  938SOL    HW1 3713   0.533   2.908   6.092
  938SOL    HW2 3714   0.638   2.932   6.215
  939SOL     OW 3715   5.517   1.593   5.895
  939SOL    HW1 3716   5.438   1.584   5.956
  939SOL    HW2 3717   5.505   1.674   5.837
  940SOL     OW 3718   6.899   1.019   3.769
  940SOL    HW1 3719   6.911   1.116   3.791
  940SOL    HW2 3720   6.841   0.976   3.838
  941SOL     OW 3721   5.483   1.574   3.670
  941SOL    HW1 3722   5.486   1.514   3.590
  941SOL    HW2 3723   5.576   1.598   3.698
  942SOL     OW 3724   4.899   6.618   5.328
  942SOL    HW1 3725   4.868   6.544   5.388
  942SOL    HW2 3726   4.955   6.580   5.254
  943SOL     OW 3727   5.868   2.257   1.563
  943SOL    HW1 3728   5.917   2.328   1.512
  943SOL    HW2 3729   5.934   2.191   1.599
  944SOL     OW 3730   5.705   3.842   4.517
  944SOL    HW1 3731   5.801   3.857   4.542
  944SOL    HW2 3732   5.685   3.744   4.521
  945SOL     OW 3733   5.502   4.421   4.177
  945SOL    HW1 3734   5.434   4.494   4.176
  945SOL    HW2 3735   5.512   4.383   4.085
  946SOL     OW 3736   5.975   2.986   5.818
  946SOL    HW1 3737   6.008   2.988   5.912
  946SOL    HW2 3738   5.992   2.895   5.780
  947SOL     OW 3739   3.251   2.590   6.539
  947SOL    HW1 3740   3.205   2.521   6.483
  947SOL    HW2 3741   3.347   2.594   6.514
  948SOL     OW 3742   3.826   1.688   0.703
  948SOL    HW1 3743   3.887   1.744   0.647
  948SOL    HW2 3744   3.792   1.743   0.779
  949SOL     OW 3745   6.199   5.249   6.497
  949SOL    HW1 3746   6.160   5.282   6.411
  949SOL    HW2 3747   6.130   5.253   6.569
  950SOL     OW 3748   4.022   5.604   0.922
  950SOL    HW1 3749   4.038   5.555   1.007
  950SOL    HW2 3750   4.102   5.597   0.863
  951SOL     OW 3751   0.919   0.874   1.781
  951SOL    HW1 3752   0.874   0.856   1.869
  951SOL    HW2 3753   1.009   0.830   1.779
  952SOL     OW 3754   5.329   0.887   3.118
  952SOL    HW1 3755   5.285   0.799   3.133
  952SOL    HW2 3756   5.409   0.875   3.060
  953SOL     OW 3757   4.221   5.840   6.021
  953SOL    HW1 3758   4.248   5.926   5.977
  953SOL    HW2 3759   4.247   5.842   6.117
  954SOL     OW 3760   5.861   0.353   1.412
  954SOL    HW1 3761   5.945   0.397   1.443
  954SOL    HW2 3762   5.821   0.406   1.338
  955SOL     OW 3763   0.948   5.935   3.282
  955SOL    HW1 3764   0.862   5.925   3.331
  955SOL    HW2 3765   0.975   5.846   3.244
  956SOL     OW 3766   1.888   2.010   0.971
  956SOL    HW1 3767   1.981   2.042   0.989
  956SOL    HW2 3768   1.891   1.914   0.943
  957SOL     OW 3769   1.829   4.845   4.873
  957SOL    HW1 3770   1.767   4.859   4.796
  957SOL    HW2 3771   1.864   4.752   4.872
  958SOL     OW 3772   5.510   2.030   1.264
  958SOL    HW1 3773   5.540   2.015   1.359
  958SOL    HW2 3774   5.425   2.081   1.263
  959SOL     OW 3775   3.085   5.018   3.147
  959SOL    HW1 3776   3.000   5.001   3.098
  959SOL    HW2 3777   3.155   5.049   3.083
  960SOL     OW 3778   1.980   5.746   4.550
  960SOL    HW1 3779   1.969   5.731   4.452
  960SOL    HW2 3780   2.076   5.732   4.575
  961SOL     OW 3781   4.386   6.683   1.579
  961SOL    HW1 3782   4.436   6.597   1.593
  961SOL    HW2 3783   4.288   6.665   1.583
  962SOL     OW 3784   1.610   0.981   3.519
  962SOL    HW1 3785   1.530   0.952   3.467
  962SOL    HW2 3786   1.599   0.956   3.615
  963SOL     OW 3787   6.504   0.917   1.519
  963SOL    HW1 3788   6.480   0.970   1.438
  963SOL    HW2 3789   6.424   0.909   1.579
  964SOL     OW 3790   5.398   3.584   1.828
  964SOL    HW1 3791   5.472   3.577   1.896
  964SOL    HW2 3792   5.419   3.659   1.765
  965SOL     OW 3793   0.379   1.741   0.521
  965SOL    HW1 3794   0.421   1.792   0.596
  965SOL    HW2 3795   0.281   1.762   0.518
  966SOL     OW 3796   6.449   1.197   2.849
  966SOL    HW1 3797   6.402   1.119   2.889
  966SOL    HW2 3798   6.465   1.181   2.751
  967SOL     OW 3799   0.792   5.323   0.449
  967SOL    HW1 3800   0.756   5.356   0.536
  967SOL    HW2 3801   0.872   5.376   0.423
  968SOL     OW 3802   4.736   2.658   2.128
  968SOL    HW1 3803   4.653   2.629   2.175
  968SOL    HW2 3804   4.770   2.742   2.170
  969SOL     OW 3805   4.664   6.289   5.865
  969SOL    HW1 3806   4.731   6.330   5.926
  969SOL    HW2 3807   4.688   6.193   5.848
  970SOL     OW 3808   4.257   1.953   5.482
  970SOL    HW1 3809   4.268   1.892   5.404
  970SOL    HW2 3810   4.246   1.898   5.566
  971SOL     OW 3811   6.999   1.456   1.888
  971SOL    HW1 3812   6.970   1.545   1.852
  971SOL    HW2 3813   7.013   1.392   1.812
  972SOL     OW 3814   6.338   5.276   0.447
  972SOL    HW1 3815   6.308   5.224   0.527
  972SOL    HW2 3816   6.420   5.234   0.409
  973SOL     OW 3817   6.396   4.577   6.255
  973SOL    HW1 3818   6.312   4.526   6.239
  973SOL    HW2 3819   6.430   4.559   6.347
  974SOL     OW 3820   3.143   0.534   3.230
  974SOL    HW1 3821   3.145   0.633   3.233
  974SOL    HW2 3822   3.229   0.500   3.192
  975SOL     OW 3823   2.446   6.066   5.548
  975SOL    HW1 3824   2.434   5.993   5.615
  975SOL    HW2 3825   2.531   6.115   5.567
  976SOL     OW 3826   6.643   3.031   3.269
  976SOL    HW1 3827   6.632   3.086   3.186
  976SOL    HW2 3828   6.615   2.937   3.250
  977SOL     OW 3829   1.584   0.890   3.768
  977SOL    HW1 3830   1.665   0.885   3.826
  977SOL    HW2 3831   1.529   0.808   3.781
  978SOL     OW 3832   5.740   4.086   4.116
  978SOL    HW1 3833   5.666   4.100   4.050
  978SOL    HW2 3834   5.701   4.059   4.204
  979SOL     OW 3835   6.536   0.353   3.388
  979SOL    HW1 3836   6.481   0.392   3.314
  979SOL    HW2 3837   6.553   0.423   3.457
  980SOL     OW 3838   5.159   2.256   4.305
  980SOL    HW1 3839   5.257   2.235   4.298
  980SOL    HW2 3840   5.107   2.190   4.251
  981SOL     OW 3841   1.316   1.437   4.413
  981SOL    HW1 3842   1.279   1.437   4.321
  981SOL    HW2 3843   1.384   1.364   4.422
  982SOL     OW 3844   1.200   2.414   1.579
  982SOL    HW1 3845   1.153   2.369   1.503
  982SOL    HW2 3846   1.152   2.498   1.603
  983SOL     OW 3847   6.047   2.099   3.360
  983SOL    HW1 3848   5.997   2.136   3.281
  983SOL    HW2 3849   6.031   2.000   3.366
  984SOL     OW 3850   4.660   1.558   5.369
  984SOL    HW1 3851   4.620   1.629   5.427
  984SOL    HW2 3852   4.616   1.471   5.388
  985SOL     OW 3853   3.031   5.494   0.860
  985SOL    HW1 3854   2.954   5.555   0.843
  985SOL    HW2 3855   3.059   5.450   0.774
  986SOL     OW 3856   4.883   5.147   6.180
  986SOL    HW1 3857   4.921   5.100   6.260
  986SOL    HW2 3858   4.785   5.164   6.195
  987SOL     OW 3859   3.028   6.344   1.659
  987SOL    HW1 3860   3.125   6.350   1.681
  987SOL    HW2 3861   2.984   6.279   1.721
  988SOL     OW 3862   4.010   2.993   0.834
  988SOL    HW1 3863   4.073   2.933   0.884
  988SOL    HW2 3864   3.962   2.940   0.764
  989SOL     OW 3865   0.812   0.258   6.257
  989SOL    HW1 3866   0.853   0.320   6.324
  989SOL    HW2 3867   0.865   0.173   6.254
  990SOL     OW 3868   4.791   0.365   4.230
  990SOL    HW1 3869   4.736   0.443   4.202
  990SOL    HW2 3870   4.885   0.395   4.249
  991SOL     OW 3871   1.051   2.475   4.745
  991SOL    HW1 3872   1.112   2.539   4.792
  991SOL    HW2 3873   1.079   2.381   4.768
  992SOL     OW 3874   0.308   3.148   6.742
  992SOL    HW1 3875   0.351   3.058   6.755
  992SOL    HW2 3876   0.211   3.135   6.720
  993SOL     OW 3877   3.318   4.971   2.560
  993SOL    HW1 3878   3.369   4.978   2.474
  993SOL    HW2 3879   3.220   4.979   2.541
  994SOL     OW 3880   3.884   3.448   2.049
  994SOL    HW1 3881   3.974   3.452   2.006
  994SOL    HW2 3882   3.860   3.352   2.065
  995SOL     OW 3883   1.822   2.760   6.234
  995SOL    HW1 3884   1.741   2.819   6.238
  995SOL    HW2 3885   1.904   2.815   6.243
  996SOL     OW 3886   1.975   3.520   2.773
  996SOL    HW1 3887   1.877   3.521   2.793
  996SOL    HW2 3888   1.990   3.532   2.675
  997SOL     OW 3889   0.433   0.727   1.309
  997SOL    HW1 3890   0.468   0.792   1.377
  997SOL    HW2 3891   0.509   0.686   1.259
  998SOL     OW 3892   4.182   6.707   1.906
  998SOL    HW1 3893   4.261   6.760   1.936
  998SOL    HW2 3894   4.099   6.761   1.915
  999SOL     OW 3895   6.113   5.757   0.714
  999SOL    HW1 3896   6.077   5.850   0.722
  999SOL    HW2 3897   6.205   5.754   0.753
 1000SOL     OW 3898   2.329   2.548   3.547
 1000SOL    HW1 3899   2.348   2.558   3.644
 1000SOL    HW2 3900   2.399   2.491   3.505
 1001SOL     OW 3901   4.552   6.832   6.535
 1001SOL    HW1 3902   4.467   6.840   6.482
 1001SOL    HW2 3903   4.529   6.819   6.631
 1002SOL     OW 3904   5.597   1.700   6.723
 1002SOL    HW1 3905   5.619   1.604   6.742
 1002SOL    HW2 3906   5.502   1.718   6.748
 1003SOL     OW 3907   2.906   6.154   2.622
 1003SOL    HW1 3908   2.896   6.127   2.718
 1003SOL    HW2 3909   2.877   6.079   2.563
 1004SOL     OW 3910   6.798   0.130   6.559
 1004SOL    HW1 3911   6.747   0.060   6.510
 1004SOL    HW2 3912   6.887   0.094   6.586
 1005SOL     OW 3913   0.467   0.300   2.821
 1005SOL    HW1 3914   0.523   0.370   2.777
 1005SOL    HW2 3915   0.444   0.228   2.756
 1006SOL     OW 3916   2.347   5.288   1.630
 1006SOL    HW1 3917   2.384   5.337   1.551
 1006SOL    HW2 3918   2.251   5.267   1.614
 1007SOL     OW 3919   6.591   1.271   3.385
 1007SOL    HW1 3920   6.522   1.284   3.315
 1007SOL    HW2 3921   6.647   1.354   3.393
 1008SOL     OW 3922   0.843   2.618   3.594
 1008SOL    HW1 3923   0.782   2.666   3.658
 1008SOL    HW2 3924   0.937   2.624   3.627
 1009SOL     OW 3925   7.004   5.723   4.232
 1009SOL    HW1 3926   0.014   5.634   4.208
 1009SOL    HW2 3927   0.052   5.787   4.248
 1010SOL     OW 3928   4.273   1.916   0.655
 1010SOL    HW1 3929   4.343   1.879   0.717
 1010SOL    HW2 3930   4.288   1.881   0.563
 1011SOL     OW 3931   2.647   5.679   3.814
 1011SOL    HW1 3932   2.583   5.746   3.776
 1011SOL    HW2 3933   2.641   5.682   3.914
 1012SOL     OW 3934   6.262   5.235   0.182
 1012SOL    HW1 3935   6.353   5.275   0.173
 1012SOL    HW2 3936   6.225   5.256   0.272
 1013SOL     OW 3937   1.319   0.934   0.047
 1013SOL    HW1 3938   1.353   1.010   7.018
 1013SOL    HW2 3939   1.377   0.854   0.031
 1014SOL     OW 3940   4.225   5.538   6.033
 1014SOL    HW1 3941   4.243   5.545   5.935
 1014SOL    HW2 3942   4.253   5.623   6.078
 1015SOL     OW 3943   3.513   6.481   5.045
 1015SOL    HW1 3944   3.449   6.461   4.971
 1015SOL    HW2 3945   3.598   6.517   5.007
 1016SOL     OW 3946   3.578   2.471   1.287
 1016SOL    HW1 3947   3.484   2.443   1.307
 1016SOL    HW2 3948   3.577   2.541   1.215
 1017SOL     OW 3949   4.781   2.396   0.664
 1017SOL    HW1 3950   4.778   2.403   0.564
 1017SOL    HW2 3951   4.751   2.483   0.704
 1018SOL     OW 3952   1.665   2.941   3.609
 1018SOL    HW1 3953   1.619   2.855   3.588
 1018SOL    HW2 3954   1.665   2.955   3.708
 1019SOL     OW 3955   0.068   1.314   0.157
 1019SOL    HW1 3956   0.039   1.274   0.244
 1019SOL    HW2 3957   0.136   1.385   0.174
 1020SOL     OW 3958   2.349   0.471   1.028
 1020SOL    HW1 3959   2.394   0.545   1.078
 1020SOL    HW2 3960   2.356   0.488   0.929
 1021SOL     OW 3961   6.773   1.144   1.885
 1021SOL    HW1 3962   6.755   1.053   1.847
 1021SOL    HW2 3963   6.693   1.202   1.869
 1022SOL     OW 3964   4.262   3.244   6.278
 1022SOL    HW1 3965   4.303   3.282   6.196
 1022SOL    HW2 3966   4.257   3.315   6.349
 1023SOL     OW 3967   5.715   0.378   2.525
 1023SOL    HW1 3968   5.649   0.437   2.478
 1023SOL    HW2 3969   5.765   0.323   2.458
 1024SOL     OW 3970   6.363   1.854   4.372
 1024SOL    HW1 3971   6.425   1.915   4.423
 1024SOL    HW2 3972   6.415   1.806   4.301
 1025SOL     OW 3973   3.428   4.639   0.860
 1025SOL    HW1 3974   3.355   4.635   0.792
 1025SOL    HW2 3975   3.421   4.561   0.922
 1026SOL     OW 3976   1.875   1.967   0.396
 1026SOL    HW1 3977   1.827   1.880   0.384
 1026SOL    HW2 3978   1.933   1.984   0.316
 1027SOL     OW 3979   2.895   5.126   1.783
 1027SOL    HW1 3980   2.822   5.163   1.725
 1027SOL    HW2 3981   2.856   5.084   1.864
 1028SOL     OW 3982   1.884   6.028   7.006
 1028SOL    HW1 3983   1.889   5.945   6.949
 1028SOL    HW2 3984   1.968   6.036   0.032
 1029SOL     OW 3985   1.698   0.341   0.223
 1029SOL    HW1 3986   1.607   0.369   0.252
 1029SOL    HW2 3987   1.733   0.270   0.284
 1030SOL     OW 3988   3.688   3.430   5.002
 1030SOL    HW1 3989   3.591   3.443   5.024
 1030SOL    HW2 3990   3.701   3.440   4.904
 1031SOL     OW 3991   3.414   5.109   1.294
 1031SOL    HW1 3992   3.512   5.098   1.282
 1031SOL    HW2 3993   3.374   5.146   1.210
 1032SOL     OW 3994   1.926   1.775   5.225
 1032SOL    HW1 3995   1.959   1.773   5.131
 1032SOL    HW2 3996   1.988   1.722   5.284
 1033SOL     OW 3997   2.137   5.505   1.791
 1033SOL    HW1 3998   2.168   5.469   1.879
 1033SOL    HW2 3999   2.037   5.513   1.792
 1034SOL     OW 4000   2.389   5.680   4.051
 1034SOL    HW1 4001   2.422   5.689   4.145
 1034SOL    HW2 4002   2.323   5.605   4.046
 1035SOL     OW 4003   2.831   1.691   4.715
 1035SOL    HW1 4004   2.909   1.714   4.656
 1035SOL    HW2 4005   2.796   1.600   4.689
 1036SOL     OW 4006   4.504   2.068   1.315
 1036SOL    HW1 4007   4.566   2.144   1.295
 1036SOL    HW2 4008   4.477   2.071   1.411
 1037SOL     OW 4009   1.227   1.297   0.844
 1037SOL    HW1 4010   1.176   1.349   0.776
 1037SOL    HW2 4011   1.236   1.202   0.813
 1038SOL     OW 4012   1.357   1.042   5.320
 1038SOL    HW1 4013   1.356   1.129   5.270
 1038SOL    HW2 4014   1.352   1.059   5.418
 1039SOL     OW 4015   3.744   1.402   4.532
 1039SOL    HW1 4016   3.752   1.410   4.432
 1039SOL    HW2 4017   3.811   1.461   4.575
 1040SOL     OW 4018   6.242   3.433   2.658
 1040SOL    HW1 4019   6.159   3.430   2.602
 1040SOL    HW2 4020   6.305   3.500   2.620
 1041SOL     OW 4021   6.766   0.425   4.068
 1041SOL    HW1 4022   6.858   0.413   4.030
 1041SOL    HW2 4023   6.717   0.494   4.016
 1042SOL     OW 4024   4.923   5.271   1.052
 1042SOL    HW1 4025   4.927   5.240   1.147
 1042SOL    HW2 4026   5.015   5.272   1.013
 1043SOL     OW 4027   3.542   1.704   6.426
 1043SOL    HW1 4028   3.543   1.649   6.509
 1043SOL    HW2 4029   3.450   1.742   6.413
 1044SOL     OW 4030   3.725   2.603   1.492
 1044SOL    HW1 4031   3.684   2.573   1.406
 1044SOL    HW2 4032   3.680   2.557   1.568
 1045SOL     OW 4033   3.284   1.104   2.498
 1045SOL    HW1 4034   3.325   1.058   2.419
 1045SOL    HW2 4035   3.339   1.085   2.579
 1046SOL     OW 4036   3.016   0.186   0.277
 1046SOL    HW1 4037   3.024   0.114   0.347
 1046SOL    HW2 4038   3.079   0.261   0.300
 1047SOL     OW 4039   1.555   5.223   2.992
 1047SOL    HW1 4040   1.579   5.305   2.941
 1047SOL    HW2 4041   1.619   5.212   3.068
 1048SOL     OW 4042   5.283   5.075   4.908
 1048SOL    HW1 4043   5.242   5.167   4.903
 1048SOL    HW2 4044   5.212   5.009   4.932
 1049SOL     OW 4045   6.736   3.798   5.054
 1049SOL    HW1 4046   6.745   3.897   5.054
 1049SOL    HW2 4047   6.689   3.769   4.970
 1050SOL     OW 4048   3.661   0.049   6.809
 1050SOL    HW1 4049   3.714   0.134   6.810
 1050SOL    HW2 4050   3.712   7.006   6.760
 1051SOL     OW 4051   4.037   5.060   0.460
 1051SOL    HW1 4052   4.061   5.094   0.369
 1051SOL    HW2 4053   4.116   5.015   0.501
 1052SOL     OW 4054   4.196   0.127   4.679
 1052SOL    HW1 4055   4.206   0.080   4.591
 1052SOL    HW2 4056   4.101   0.121   4.709
 1053SOL     OW 4057   4.985   5.270   3.803
 1053SOL    HW1 4058   4.908   5.281   3.740
 1053SOL    HW2 4059   4.951   5.241   3.893
 1054SOL     OW 4060   3.137   5.233   5.352
 1054SOL    HW1 4061   3.231   5.265   5.347
 1054SOL    HW2 4062   3.110   5.222   5.448
 1055SOL     OW 4063   5.011   5.162   4.592
 1055SOL    HW1 4064   5.077   5.087   4.584
 1055SOL    HW2 4065   4.985   5.174   4.688
 1056SOL     OW 4066   1.738   6.039   4.987
 1056SOL    HW1 4067   1.660   6.008   5.041
 1056SOL    HW2 4068   1.758   5.971   4.916
 1057SOL     OW 4069   2.935   3.438   2.928
 1057SOL    HW1 4070   3.005   3.468   2.993
 1057SOL    HW2 4071   2.845   3.470   2.958
 1058SOL     OW 4072   3.848   1.609   2.343
 1058SOL    HW1 4073   3.805   1.616   2.433
 1058SOL    HW2 4074   3.930   1.666   2.341
 1059SOL     OW 4075   4.568   1.305   2.034
 1059SOL    HW1 4076   4.495   1.241   2.010
 1059SOL    HW2 4077   4.652   1.279   1.988
 1060SOL     OW 4078   0.957   3.712   5.381
 1060SOL    HW1 4079   1.029   3.694   5.315
 1060SOL    HW2 4080   0.896   3.632   5.386
 1061SOL     OW 4081   3.158   5.106   1.738
 1061SOL    HW1 4082   3.060   5.111   1.756
 1061SOL    HW2 4083   3.173   5.080   1.643
 1062SOL     OW 4084   6.655   5.464   5.495
 1062SOL    HW1 4085   6.729   5.402   5.522
 1062SOL    HW2 4086   6.694   5.549   5.459
 1063SOL     OW 4087   1.606   3.405   1.663
 1063SOL    HW1 4088   1.665   3.385   1.585
 1063SOL    HW2 4089   1.541   3.476   1.639
 1064SOL     OW 4090   1.181   3.228   2.247
 1064SOL    HW1 4091   1.131   3.275   2.320
 1064SOL    HW2 4092   1.258   3.284   2.218
 1065SOL     OW 4093   5.492   0.211   3.887
 1065SOL    HW1 4094   5.567   0.273   3.913
 1065SOL    HW2 4095   5.482   0.140   3.956
 1066SOL     OW 4096   4.680   0.632   4.155
 1066SOL    HW1 4097   4.703   0.637   4.058
 1066SOL    HW2 4098   4.712   0.714   4.201
 1067SOL     OW 4099   1.851   2.530   1.543
 1067SOL    HW1 4100   1.784   2.534   1.468
 1067SOL    HW2 4101   1.818   2.467   1.614
 1068SOL     OW 4102   0.477   3.558   2.412
 1068SOL    HW1 4103   0.519   3.530   2.325
 1068SOL    HW2 4104   0.511   3.649   2.438
 1069SOL     OW 4105   4.061   4.442   0.742
 1069SOL    HW1 4106   4.159   4.452   0.754
 1069SOL    HW2 4107   4.028   4.368   0.802
 1070SOL     OW 4108   1.965   0.734   0.020
 1070SOL    HW1 4109   1.888   0.730   0.084
 1070SOL    HW2 4110   2.010   0.645   0.017
 1071SOL     OW 4111   4.218   6.418   2.912
 1071SOL    HW1 4112   4.195   6.515   2.919
 1071SOL    HW2 4113   4.133   6.364   2.914
 1072SOL     OW 4114   3.159   6.456   2.922
 1072SOL    HW1 4115   3.209   6.379   2.880
 1072SOL    HW2 4116   3.063   6.431   2.932
 1073SOL     OW 4117   3.002   4.919   2.435
 1073SOL    HW1 4118   2.933   4.865   2.482
 1073SOL    HW2 4119   3.005   4.894   2.339
 1074SOL     OW 4120   1.337   5.074   1.410
 1074SOL    HW1 4121   1.399   5.018   1.466
 1074SOL    HW2 4122   1.390   5.145   1.363
 1075SOL     OW 4123   5.679   4.413   3.361
 1075SOL    HW1 4124   5.751   4.355   3.399
 1075SOL    HW2 4125   5.605   4.423   3.428
 1076SOL     OW 4126   0.625   4.357   4.759
 1076SOL    HW1 4127   0.598   4.261   4.763
 1076SOL    HW2 4128   0.702   4.368   4.696
 1077SOL     OW 4129   5.445   0.336   1.294
 1077SOL    HW1 4130   5.508   0.372   1.362
 1077SOL    HW2 4131   5.481   0.250   1.257
 1078SOL     OW 4132   1.364   1.734   1.562
 1078SOL    HW1 4133   1.345   1.832   1.566
 1078SOL    HW2 4134   1.458   1.720   1.530
 1079SOL     OW 4135   2.349   5.839   3.599
 1079SOL    HW1 4136   2.319   5.929   3.566
 1079SOL    HW2 4137   2.346   5.837   3.699
 1080SOL     OW 4138   2.304   5.593   3.427
 1080SOL    HW1 4139   2.341   5.677   3.468
 1080SOL    HW2 4140   2.334   5.514   3.480
 1081SOL     OW 4141   1.698   0.962   6.266
 1081SOL    HW1 4142   1.624   0.953   6.199
 1081SOL    HW2 4143   1.784   0.977   6.217
 1082SOL     OW 4144   1.323   0.400   5.452
 1082SOL    HW1 4145   1.356   0.349   5.372
 1082SOL    HW2 4146   1.287   0.488   5.421
 1083SOL     OW 4147   3.850   3.176   2.088
 1083SOL    HW1 4148   3.828   3.157   2.183
 1083SOL    HW2 4149   3.862   3.090   2.039
 1084SOL     OW 4150   5.906   4.610   1.167
 1084SOL    HW1 4151   6.001   4.622   1.193
 1084SOL    HW2 4152   5.847   4.654   1.235
 1085SOL     OW 4153   1.648   4.942   4.082
 1085SOL    HW1 4154   1.606   5.026   4.047
 1085SOL    HW2 4155   1.727   4.966   4.137
 1086SOL     OW 4156   5.063   6.024   3.056
 1086SOL    HW1 4157   5.139   5.965   3.082
 1086SOL    HW2 4158   5.082   6.118   3.085
 1087SOL     OW 4159   4.860   3.093   5.423
 1087SOL    HW1 4160   4.821   3.090   5.515
 1087SOL    HW2 4161   4.844   3.183   5.383
 1088SOL     OW 4162   5.339   4.924   3.656
 1088SOL    HW1 4163   5.323   5.022   3.667
 1088SOL    HW2 4164   5.263   4.885   3.603
 1089SOL     OW 4165   0.165   0.268   4.960
 1089SOL    HW1 4166   0.244   0.213   4.987
 1089SOL    HW2 4167   0.141   0.331   5.034
 1090SOL     OW 4168   1.593   1.735   6.044
 1090SOL    HW1 4169   1.515   1.794   6.022
 1090SOL    HW2 4170   1.675   1.770   5.999
 1091SOL     OW 4171   1.268   1.876   4.708
 1091SOL    HW1 4172   1.298   1.826   4.627
 1091SOL    HW2 4173   1.266   1.974   4.688
 1092SOL     OW 4174   2.361   4.286   1.479
 1092SOL    HW1 4175   2.347   4.190   1.458
 1092SOL    HW2 4176   2.458   4.307   1.481
 1093SOL     OW 4177   1.182   2.668   2.536
 1093SOL    HW1 4178   1.137   2.594   2.586
 1093SOL    HW2 4179   1.145   2.756   2.566
 1094SOL     OW 4180   0.500   6.602   1.356
 1094SOL    HW1 4181   0.456   6.690   1.343
 1094SOL    HW2 4182   0.589   6.615   1.400
 1095SOL     OW 4183   6.117   3.199   6.484
 1095SOL    HW1 4184   6.098   3.164   6.393
 1095SOL    HW2 4185   6.123   3.299   6.481
 1096SOL     OW 4186   3.156   4.814   1.562
 1096SOL    HW1 4187   3.111   4.804   1.651
 1096SOL    HW2 4188   3.243   4.766   1.563
 1097SOL     OW 4189   1.196   4.801   4.872
 1097SOL    HW1 4190   1.221   4.803   4.969
 1097SOL    HW2 4191   1.227   4.714   4.832
 1098SOL     OW 4192   4.707   2.241   1.941
 1098SOL    HW1 4193   4.701   2.145   1.914
 1098SOL    HW2 4194   4.681   2.250   2.037
 1099SOL     OW 4195   4.380   1.947   4.219
 1099SOL    HW1 4196   4.368   2.002   4.302
 1099SOL    HW2 4197   4.359   2.003   4.139
 1100SOL     OW 4198   1.584   1.087   6.506
 1100SOL    HW1 4199   1.624   1.047   6.423
 1100SOL    HW2 4200   1.527   1.019   6.551
 1101SOL     OW 4201   4.884   3.245   1.145
 1101SOL    HW1 4202   4.883   3.313   1.073
 1101SOL    HW2 4203   4.834   3.280   1.225
 1102SOL     OW 4204   0.340   4.100   4.473
 1102SOL    HW1 4205   0.278   4.037   4.425
 1102SOL    HW2 4206   0.433   4.087   4.438
 1103SOL     OW 4207   1.631   1.682   1.808
 1103SOL    HW1 4208   1.626   1.585   1.832
 1103SOL    HW2 4209   1.609   1.693   1.711
 1104SOL     OW 4210   3.140   4.979   6.177
 1104SOL    HW1 4211   3.215   4.991   6.241
 1104SOL    HW2 4212   3.095   4.891   6.194
 1105SOL     OW 4213   4.595   4.098   6.706
 1105SOL    HW1 4214   4.660   4.073   6.778
 1105SOL    HW2 4215   4.525   4.158   6.744
 1106SOL     OW 4216   6.847   2.617   5.623
 1106SOL    HW1 4217   6.754   2.642   5.647
 1106SOL    HW2 4218   6.857   2.517   5.629
 1107SOL     OW 4219   0.779   0.516   0.676
 1107SOL    HW1 4220   0.690   0.545   0.712
 1107SOL    HW2 4221   0.850   0.536   0.744
 1108SOL     OW 4222   1.939   0.690   6.211
 1108SOL    HW1 4223   1.944   0.600   6.168
 1108SOL    HW2 4224   1.880   0.684   6.292
 1109SOL     OW 4225   3.857   6.352   3.977
 1109SOL    HW1 4226   3.894   6.260   3.988
 1109SOL    HW2 4227   3.901   6.397   3.899
 1110SOL     OW 4228   2.817   3.073   1.730
 1110SOL    HW1 4229   2.789   2.983   1.696
 1110SOL    HW2 4230   2.843   3.065   1.827
 1111SOL     OW 4231   5.578   0.774   6.837
 1111SOL    HW1 4232   5.619   0.721   6.763
 1111SOL    HW2 4233   5.579   0.720   6.921
 1112SOL     OW 4234   6.401   0.311   2.375
 1112SOL    HW1 4235   6.311   0.273   2.356
 1112SOL    HW2 4236   6.400   0.356   2.464
 1113SOL     OW 4237   6.625   3.471   2.912
 1113SOL    HW1 4238   6.567   3.541   2.954
 1113SOL    HW2 4239   6.716   3.475   2.953
 1114SOL     OW 4240   4.697   0.564   6.087
 1114SOL    HW1 4241   4.739   0.481   6.049
 1114SOL    HW2 4242   4.768   0.633   6.101
 1115SOL     OW 4243   3.663   3.187   1.059
 1115SOL    HW1 4244   3.634   3.113   0.998
 1115SOL    HW2 4245   3.591   3.204   1.127
 1116SOL     OW 4246   4.447   5.703   4.201
 1116SOL    HW1 4247   4.382   5.763   4.156
 1116SOL    HW2 4248   4.518   5.675   4.136
 1117SOL     OW 4249   2.490   2.697   1.365
 1117SOL    HW1 4250   2.575   2.671   1.410
 1117SOL    HW2 4251   2.506   2.702   1.266
 1118SOL     OW 4252   2.417   4.786   3.199
 1118SOL    HW1 4253   2.461   4.875   3.186
 1118SOL    HW2 4254   2.486   4.719   3.229
 1119SOL     OW 4255   4.281   4.088   1.667
 1119SOL    HW1 4256   4.273   4.148   1.588
 1119SOL    HW2 4257   4.331   4.135   1.740
 1120SOL     OW 4258   5.250   0.080   6.118
 1120SOL    HW1 4259   5.185   0.089   6.043
 1120SOL    HW2 4260   5.205   0.103   6.204
 1121SOL     OW 4261   4.967   2.882   1.968
 1121SOL    HW1 4262   4.895   2.940   2.008
 1121SOL    HW2 4263   4.928   2.794   1.942
 1122SOL     OW 4264   5.700   3.095   6.766
 1122SOL    HW1 4265   5.665   3.063   6.678
 1122SOL    HW2 4266   5.659   3.041   6.840
 1123SOL     OW 4267   4.794   1.039   2.023
 1123SOL    HW1 4268   4.821   1.022   1.928
 1123SOL    HW2 4269   4.851   1.112   2.061
 1124SOL     OW 4270   6.561   3.454   5.203
 1124SOL    HW1 4271   6.647   3.444   5.152
 1124SOL    HW2 4272   6.577   3.513   5.283
 1125SOL     OW 4273   2.893   2.780   5.408
 1125SOL    HW1 4274   2.799   2.808   5.386
 1125SOL    HW2 4275   2.903   2.774   5.507
 1126SOL     OW 4276   4.911   0.126   0.859
 1126SOL    HW1 4277   4.929   0.191   0.933
 1126SOL    HW2 4278   4.968   0.147   0.780
 1127SOL     OW 4279   2.599   4.900   0.754
 1127SOL    HW1 4280   2.628   4.947   0.837
 1127SOL    HW2 4281   2.630   4.805   0.757
 1128SOL     OW 4282   3.268   1.932   3.737
 1128SOL    HW1 4283   3.257   1.992   3.657
 1128SOL    HW2 4284   3.366   1.919   3.755
 1129SOL     OW 4285   4.551   0.681   6.770
 1129SOL    HW1 4286   4.578   0.750   6.703
 1129SOL    HW2 4287   4.605   0.692   6.853
 1130SOL     OW 4288   1.476   3.873   0.741
 1130SOL    HW1 4289   1.569   3.837   0.741
 1130SOL    HW2 4290   1.411   3.797   0.739
 1131SOL     OW 4291   0.540   6.074   5.263
 1131SOL    HW1 4292   0.598   6.149   5.293
 1131SOL    HW2 4293   0.451   6.081   5.307
 1132SOL     OW 4294   5.180   0.202   5.405
 1132SOL    HW1 4295   5.126   0.220   5.323
 1132SOL    HW2 4296   5.119   0.198   5.484
 1133SOL     OW 4297   0.860   3.016   1.484
 1133SOL    HW1 4298   0.937   3.064   1.441
 1133SOL    HW2 4299   0.788   3.003   1.417
 1134SOL     OW 4300   5.631   2.543   6.870
 1134SOL    HW1 4301   5.533   2.531   6.886
 1134SOL    HW2 4302   5.657   2.638   6.887
 1135SOL     OW 4303   3.042   2.246   3.687
 1135SOL    HW1 4304   3.013   2.254   3.782
 1135SOL    HW2 4305   2.972   2.286   3.627
 1136SOL     OW 4306   2.744   5.577   3.473
 1136SOL    HW1 4307   2.748   5.484   3.509
 1136SOL    HW2 4308   2.666   5.585   3.410
 1137SOL     OW 4309   1.452   2.085   6.706
 1137SOL    HW1 4310   1.455   1.988   6.681
 1137SOL    HW2 4311   1.373   2.128   6.664
 1138SOL     OW 4312   2.106   3.342   6.202
 1138SOL    HW1 4313   2.195   3.314   6.165
 1138SOL    HW2 4314   2.116   3.428   6.251
 1139SOL     OW 4315   1.208   6.754   2.657
 1139SOL    HW1 4316   1.145   6.741   2.734
 1139SOL    HW2 4317   1.299   6.778   2.692
 1140SOL     OW 4318   3.210   1.538   3.365
 1140SOL    HW1 4319   3.160   1.576   3.442
 1140SOL    HW2 4320   3.196   1.596   3.284
 1141SOL     OW 4321   5.537   5.762   5.233
 1141SOL    HW1 4322   5.548   5.760   5.134
 1141SOL    HW2 4323   5.524   5.857   5.263
 1142SOL     OW 4324   5.351   0.203   4.302
 1142SOL    HW1 4325   5.299   0.150   4.235
 1142SOL    HW2 4326   5.448   0.200   4.278
 1143SOL     OW 4327   3.912   2.140   3.236
 1143SOL    HW1 4328   4.005   2.141   3.200
 1143SOL    HW2 4329   3.912   2.107   3.330
 1144SOL     OW 4330   0.786   4.367   4.281
 1144SOL    HW1 4331   0.763   4.461   4.254
 1144SOL    HW2 4332   0.855   4.331   4.218
 1145SOL     OW 4333   0.161   5.538   4.433
 1145SOL    HW1 4334   0.206   5.623   4.407
 1145SOL    HW2 4335   0.114   5.499   4.354
 1146SOL     OW 4336   5.866   2.096   0.872
 1146SOL    HW1 4337   5.947   2.040   0.889
 1146SOL    HW2 4338   5.794   2.072   0.937
 1147SOL     OW 4339   0.385   4.123   2.284
 1147SOL    HW1 4340   0.369   4.053   2.354
 1147SOL    HW2 4341   0.447   4.087   2.214
 1148SOL     OW 4342   3.755   6.170   6.297
 1148SOL    HW1 4343   3.748   6.254   6.351
 1148SOL    HW2 4344   3.696   6.178   6.216
 1149SOL     OW 4345   6.416   3.611   3.011
 1149SOL    HW1 4346   6.321   3.583   3.006
 1149SOL    HW2 4347   6.425   3.691   3.070
 1150SOL     OW 4348   1.996   5.049   0.951
 1150SOL    HW1 4349   2.021   4.956   0.978
 1150SOL    HW2 4350   2.042   5.114   1.011
 1151SOL     OW 4351   5.949   4.950   6.602
 1151SOL    HW1 4352   5.884   4.874   6.606
 1151SOL    HW2 4353   6.005   4.941   6.520
 1152SOL     OW 4354   0.959   0.245   4.794
 1152SOL    HW1 4355   0.952   0.332   4.745
 1152SOL    HW2 4356   0.960   0.169   4.728
 1153SOL     OW 4357   2.139   5.814   2.825
 1153SOL    HW1 4358   2.170   5.907   2.846
 1153SOL    HW2 4359   2.217   5.760   2.792
 1154SOL     OW 4360   0.608   3.836   2.133
 1154SOL    HW1 4361   0.643   3.755   2.179
 1154SOL    HW2 4362   0.670   3.913   2.147
 1155SOL     OW 4363   3.198   6.068   1.267
 1155SOL    HW1 4364   3.101   6.048   1.263
 1155SOL    HW2 4365   3.212   6.161   1.301
 1156SOL     OW 4366   2.553   0.694   4.128
 1156SOL    HW1 4367   2.608   0.616   4.099
 1156SOL    HW2 4368   2.515   0.677   4.219
 1157SOL     OW 4369   7.011   2.130   4.058
 1157SOL    HW1 4370   7.000   2.229   4.072
 1157SOL    HW2 4371   0.066   2.113   4.005
 1158SOL     OW 4372   5.573   4.902   6.043
 1158SOL    HW1 4373   5.669   4.899   6.015
 1158SOL    HW2 4374   5.517   4.859   5.972
 1159SOL     OW 4375   3.706   5.740   2.570
 1159SOL    HW1 4376   3.619   5.709   2.532
 1159SOL    HW2 4377   3.743   5.669   2.630
 1160SOL     OW 4378   4.084   3.578   2.546
 1160SOL    HW1 4379   4.145   3.655   2.562
 1160SOL    HW2 4380   4.094   3.511   2.619
 1161SOL     OW 4381   5.648   0.221   3.454
 1161SOL    HW1 4382   5.748   0.223   3.444
 1161SOL    HW2 4383   5.617   0.304   3.501
 1162SOL     OW 4384   3.295   3.882   1.813
 1162SOL    HW1 4385   3.372   3.893   1.876
 1162SOL    HW2 4386   3.256   3.791   1.826
 1163SOL     OW 4387   4.918   2.424   2.034
 1163SOL    HW1 4388   4.872   2.344   1.996
 1163SOL    HW2 4389   4.849   2.490   2.066
 1164SOL     OW 4390   5.572   2.708   3.091
 1164SOL    HW1 4391   5.531   2.677   3.177
 1164SOL    HW2 4392   5.592   2.806   3.097
 1165SOL     OW 4393   1.081   3.356   3.601
 1165SOL    HW1 4394   1.094   3.262   3.570
 1165SOL    HW2 4395   0.998   3.393   3.560
 1166SOL     OW 4396   3.989   2.271   6.528
 1166SOL    HW1 4397   4.087   2.258   6.510
 1166SOL    HW2 4398   3.938   2.192   6.494
 1167SOL     OW 4399   4.324   0.706   5.170
 1167SOL    HW1 4400   4.365   0.776   5.112
 1167SOL    HW2 4401   4.290   0.631   5.113
 1168SOL     OW 4402   0.041   6.476   3.548
 1168SOL    HW1 4403   0.063   6.382   3.571
 1168SOL    HW2 4404   6.991   6.507   3.602
 1169SOL     OW 4405   1.047   3.763   1.529
 1169SOL    HW1 4406   1.115   3.793   1.463
 1169SOL    HW2 4407   1.080   3.682   1.576
 1170SOL     OW 4408   3.570   1.440   2.630
 1170SOL    HW1 4409   3.557   1.387   2.546
 1170SOL    HW2 4410   3.480   1.466   2.666
 1171SOL     OW 4411   3.022   5.648   1.324
 1171SOL    HW1 4412   2.977   5.588   1.390
 1171SOL    HW2 4413   3.096   5.698   1.370
 1172SOL     OW 4414   3.177   3.557   4.159
 1172SOL    HW1 4415   3.104   3.539   4.225
 1172SOL    HW2 4416   3.189   3.656   4.149
 1173SOL     OW 4417   3.221   0.629   5.769
 1173SOL    HW1 4418   3.290   0.624   5.841
 1173SOL    HW2 4419   3.171   0.543   5.763
 1174SOL     OW 4420   2.726   5.916   0.697
 1174SOL    HW1 4421   2.749   5.844   0.763
 1174SOL    HW2 4422   2.641   5.960   0.725
 1175SOL     OW 4423   6.102   4.818   6.138
 1175SOL    HW1 4424   6.174   4.816   6.069
 1175SOL    HW2 4425   6.052   4.732   6.136
 1176SOL     OW 4426   5.786   4.668   0.933
 1176SOL    HW1 4427   5.719   4.600   0.903
 1176SOL    HW2 4428   5.825   4.640   1.020
 1177SOL     OW 4429   6.967   3.091   6.069
 1177SOL    HW1 4430   0.011   3.160   6.063
 1177SOL    HW2 4431   6.990   3.013   6.012
 1178SOL     OW 4432   5.413   3.601   2.350
 1178SOL    HW1 4433   5.491   3.663   2.341
 1178SOL    HW2 4434   5.423   3.526   2.285
 1179SOL     OW 4435   1.661   4.393   0.050
 1179SOL    HW1 4436   1.710   4.477   0.076
 1179SOL    HW2 4437   1.584   4.379   0.112
 1180SOL     OW 4438   2.019   1.749   3.851
 1180SOL    HW1 4439   1.921   1.767   3.849
 1180SOL    HW2 4440   2.052   1.753   3.945
 1181SOL     OW 4441   1.356   4.400   3.957
 1181SOL    HW1 4442   1.314   4.310   3.942
 1181SOL    HW2 4443   1.304   4.469   3.906
 1182SOL     OW 4444   2.049   4.494   3.952
 1182SOL    HW1 4445   1.972   4.480   3.889
 1182SOL    HW2 4446   2.014   4.510   4.044
 1183SOL     OW 4447   4.259   6.023   1.640
 1183SOL    HW1 4448   4.200   6.098   1.610
 1183SOL    HW2 4449   4.344   6.060   1.677
 1184SOL     OW 4450   3.091   2.897   5.225
 1184SOL    HW1 4451   3.167   2.848   5.268
 1184SOL    HW2 4452   3.006   2.871   5.269
 1185SOL     OW 4453   2.071   0.146   0.222
 1185SOL    HW1 4454   2.141   0.083   0.188
 1185SOL    HW2 4455   1.985   0.129   0.173
 1186SOL     OW 4456   5.865   0.736   4.626
 1186SOL    HW1 4457   5.810   0.655   4.606
 1186SOL    HW2 4458   5.952   0.707   4.666
 1187SOL     OW 4459   6.045   6.772   4.901
 1187SOL    HW1 4460   6.002   6.710   4.835
 1187SOL    HW2 4461   5.980   6.793   4.974
 1188SOL     OW 4462   1.819   6.740   5.924
 1188SOL    HW1 4463   1.807   6.837   5.902
 1188SOL    HW2 4464   1.872   6.731   6.008
 1189SOL     OW 4465   5.590   1.443   1.263
 1189SOL    HW1 4466   5.530   1.419   1.186
 1189SOL    HW2 4467   5.556   1.401   1.346
 1190SOL     OW 4468   4.312   5.401   3.210
 1190SOL    HW1 4469   4.383   5.338   3.241
 1190SOL    HW2 4470   4.257   5.430   3.288
 1191SOL     OW 4471   3.101   5.467   5.740
 1191SOL    HW1 4472   3.162   5.510   5.673
 1191SOL    HW2 4473   3.090   5.528   5.819
 1192SOL     OW 4474   6.079   4.912   2.941
 1192SOL    HW1 4475   6.163   4.864   2.965
 1192SOL    HW2 4476   6.047   4.881   2.852
 1193SOL     OW 4477   4.921   0.327   4.562
 1193SOL    HW1 4478   4.992   0.318   4.493
 1193SOL    HW2 4479   4.879   0.418   4.556
 1194SOL     OW 4480   6.599   1.225   0.993
 1194SOL    HW1 4481   6.522   1.193   1.048
 1194SOL    HW2 4482   6.684   1.209   1.044
 1195SOL     OW 4483   5.442   0.677   6.064
 1195SOL    HW1 4484   5.530   0.656   6.020
 1195SOL    HW2 4485   5.425   0.612   6.138
 1196SOL     OW 4486   0.268   5.315   2.579
 1196SOL    HW1 4487   0.359   5.313   2.619
 1196SOL    HW2 4488   0.227   5.223   2.584
 1197SOL     OW 4489   3.950   5.931   5.810
 1197SOL    HW1 4490   3.860   5.946   5.768
 1197SOL    HW2 4491   4.011   5.888   5.743
 1198SOL     OW 4492   3.426   2.117   2.959
 1198SOL    HW1 4493   3.484   2.145   3.036
 1198SOL    HW2 4494   3.335   2.156   2.970
 1199SOL     OW 4495   3.129   4.085   1.888
 1199SOL    HW1 4496   3.102   4.042   1.975
 1199SOL    HW2 4497   3.182   4.020   1.834
 1200SOL     OW 4498   3.823   4.206   6.376
 1200SOL    HW1 4499   3.897   4.151   6.337
 1200SOL    HW2 4500   3.793   4.274   6.310
 1201SOL     OW 4501   1.054   1.720   4.628
 1201SOL    HW1 4502   1.018   1.736   4.535
 1201SOL    HW2 4503   1.138   1.772   4.640
 1202SOL     OW 4504   5.180   0.290   4.873
 1202SOL    HW1 4505   5.252   0.233   4.913
 1202SOL    HW2 4506   5.211   0.326   4.785
 1203SOL     OW 4507   5.498   0.448   1.055
 1203SOL    HW1 4508   5.471   0.417   1.147
 1203SOL    HW2 4509   5.434   0.411   0.988
 1204SOL     OW 4510   3.630   0.766   0.339
 1204SOL    HW1 4511   3.578   0.690   0.299
 1204SOL    HW2 4512   3.587   0.795   0.424
 1205SOL     OW 4513   6.396   2.324   5.895
 1205SOL    HW1 4514   6.307   2.349   5.936
 1205SOL    HW2 4515   6.447   2.408   5.874
 1206SOL     OW 4516   1.733   1.656   4.627
 1206SOL    HW1 4517   1.828   1.686   4.621
 1206SOL    HW2 4518   1.731   1.562   4.663
 1207SOL     OW 4519   5.676   0.187   0.242
 1207SOL    HW1 4520   5.690   0.153   0.150
 1207SOL    HW2 4521   5.695   0.285   0.245
 1208SOL     OW 4522   3.639   4.065   2.641
 1208SOL    HW1 4523   3.610   3.977   2.680
 1208SOL    HW2 4524   3.640   4.134   2.713
 1209SOL     OW 4525   5.851   5.558   5.064
 1209SOL    HW1 4526   5.821   5.521   4.976
 1209SOL    HW2 4527   5.911   5.491   5.109
 1210SOL     OW 4528   4.392   0.195   2.577
 1210SOL    HW1 4529   4.441   0.199   2.664
 1210SOL    HW2 4530   4.303   0.240   2.586
 1211SOL     OW 4531   1.522   3.865   3.796
 1211SOL    HW1 4532   1.522   3.930   3.721
 1211SOL    HW2 4533   1.528   3.914   3.883
 1212SOL     OW 4534   1.196   4.304   4.759
 1212SOL    HW1 4535   1.265   4.231   4.758
 1212SOL    HW2 4536   1.106   4.264   4.776
 1213SOL     OW 4537   6.408   2.981   5.432
 1213SOL    HW1 4538   6.416   2.991   5.333
 1213SOL    HW2 4539   6.488   2.934   5.468
 1214SOL     OW 4540   1.689   3.583   4.010
 1214SOL    HW1 4541   1.627   3.574   3.932
 1214SOL    HW2 4542   1.660   3.660   4.068
 1215SOL     OW 4543   1.632   4.383   3.196
 1215SOL    HW1 4544   1.678   4.309   3.246
 1215SOL    HW2 4545   1.683   4.468   3.209
 1216SOL     OW 4546   1.375   6.626   1.527
 1216SOL    HW1 4547   1.333   6.654   1.441
 1216SOL    HW2 4548   1.416   6.535   1.516
 1217SOL     OW 4549   1.125   6.580   0.510
 1217SOL    HW1 4550   1.066   6.659   0.525
 1217SOL    HW2 4551   1.219   6.611   0.495
 1218SOL     OW 4552   0.636   3.766   4.484
 1218SOL    HW1 4553   0.541   3.746   4.459
 1218SOL    HW2 4554   0.640   3.851   4.535
 1219SOL     OW 4555   3.908   5.852   0.816
 1219SOL    HW1 4556   3.961   5.775   0.851
 1219SOL    HW2 4557   3.877   5.908   0.893
 1220SOL     OW 4558   5.793   2.652   2.924
 1220SOL    HW1 4559   5.766   2.625   2.831
 1220SOL    HW2 4560   5.712   2.656   2.982
 1221SOL     OW 4561   5.269   3.407   0.774
 1221SOL    HW1 4562   5.339   3.378   0.840
 1221SOL    HW2 4563   5.180   3.369   0.800
 1222SOL     OW 4564   0.153   6.763   0.649
 1222SOL    HW1 4565   0.102   6.747   0.564
 1222SOL    HW2 4566   0.108   6.715   0.724
 1223SOL     OW 4567   6.141   0.157   6.172
 1223SOL    HW1 4568   6.113   0.223   6.242
 1223SOL    HW2 4569   6.179   0.076   6.215
 1224SOL     OW 4570   4.441   5.840   0.701
 1224SOL    HW1 4571   4.370   5.898   0.741
 1224SOL    HW2 4572   4.528   5.890   0.700
 1225SOL     OW 4573   4.549   1.823   0.530
 1225SOL    HW1 4574   4.643   1.792   0.541
 1225SOL    HW2 4575   4.506   1.775   0.453
 1226SOL     OW 4576   5.938   6.230   1.387
 1226SOL    HW1 4577   5.951   6.134   1.411
 1226SOL    HW2 4578   5.955   6.287   1.467
 1227SOL     OW 4579   5.595   4.035   5.618
 1227SOL    HW1 4580   5.642   4.112   5.576
 1227SOL    HW2 4581   5.512   4.068   5.664
 1228SOL     OW 4582   3.587   3.405   2.487
 1228SOL    HW1 4583   3.613   3.477   2.550
 1228SOL    HW2 4584   3.572   3.320   2.537
 1229SOL     OW 4585   1.832   6.304   2.423
 1229SOL    HW1 4586   1.843   6.265   2.515
 1229SOL    HW2 4587   1.847   6.233   2.354
 1230SOL     OW 4588   4.892   5.104   2.082
 1230SOL    HW1 4589   4.916   5.107   2.179
 1230SOL    HW2 4590   4.792   5.104   2.072
 1231SOL     OW 4591   1.802   2.286   6.491
 1231SOL    HW1 4592   1.889   2.302   6.446
 1231SOL    HW2 4593   1.771   2.192   6.472
 1232SOL     OW 4594   3.221   0.243   5.211
 1232SOL    HW1 4595   3.312   0.284   5.213
 1232SOL    HW2 4596   3.193   0.230   5.116
 1233SOL     OW 4597   0.165   5.276   3.980
 1233SOL    HW1 4598   0.071   5.244   3.989
 1233SOL    HW2 4599   0.201   5.249   3.891
 1234SOL     OW 4600   0.035   3.210   6.642
 1234SOL    HW1 4601   6.979   3.170   6.679
 1234SOL    HW2 4602   0.062   3.288   6.698
 1235SOL     OW 4603   6.085   4.728   0.467
 1235SOL    HW1 4604   6.001   4.781   0.461
 1235SOL    HW2 4605   6.067   4.640   0.511
 1236SOL     OW 4606   2.309   1.159   1.227
 1236SOL    HW1 4607   2.319   1.093   1.301
 1236SOL    HW2 4608   2.285   1.248   1.265
 1237SOL     OW 4609   1.485   0.198   4.725
 1237SOL    HW1 4610   1.478   0.198   4.824
 1237SOL    HW2 4611   1.424   0.267   4.687
 1238SOL     OW 4612   0.205   6.904   3.886
 1238SOL    HW1 4613   0.287   6.956   3.909
 1238SOL    HW2 4614   0.219   6.857   3.799
 1239SOL     OW 4615   5.779   5.404   4.354
 1239SOL    HW1 4616   5.855   5.470   4.354
 1239SOL    HW2 4617   5.810   5.318   4.312
 1240SOL     OW 4618   5.556   4.839   2.638
 1240SOL    HW1 4619   5.590   4.888   2.718
 1240SOL    HW2 4620   5.619   4.853   2.562
 1241SOL     OW 4621   5.671   5.104   3.897
 1241SOL    HW1 4622   5.654   5.044   3.976
 1241SOL    HW2 4623   5.744   5.168   3.919
 1242SOL     OW 4624   1.709   4.124   6.733
 1242SOL    HW1 4625   1.635   4.091   6.675
 1242SOL    HW2 4626   1.764   4.046   6.765
 1243SOL     OW 4627   1.238   3.851   5.027
 1243SOL    HW1 4628   1.248   3.754   5.048
 1243SOL    HW2 4629   1.328   3.893   5.017
 1244SOL     OW 4630   5.448   6.497   4.772
 1244SOL    HW1 4631   5.430   6.589   4.737
 1244SOL    HW2 4632   5.545   6.476   4.763
 1245SOL     OW 4633   5.375   6.504   2.082
 1245SOL    HW1 4634   5.410   6.464   2.166
 1245SOL    HW2 4635   5.327   6.589   2.102
 1246SOL     OW 4636   4.794   1.715   0.600
 1246SOL    HW1 4637   4.803   1.690   0.696
 1246SOL    HW2 4638   4.827   1.641   0.542
 1247SOL     OW 4639   6.618   6.484   3.548
 1247SOL    HW1 4640   6.530   6.495   3.501
 1247SOL    HW2 4641   6.670   6.410   3.505
 1248SOL     OW 4642   0.467   0.076   4.903
 1248SOL    HW1 4643   0.512   0.021   4.974
 1248SOL    HW2 4644   0.486   0.173   4.919
 1249SOL     OW 4645   0.100   4.604   0.712
 1249SOL    HW1 4646   0.027   4.563   0.766
 1249SOL    HW2 4647   0.128   4.540   0.640
 1250SOL     OW 4648   5.764   3.222   5.332
 1250SOL    HW1 4649   5.697   3.148   5.325
 1250SOL    HW2 4650   5.812   3.215   5.419
 1251SOL     OW 4651   2.492   0.377   2.517
 1251SOL    HW1 4652   2.435   0.316   2.462
 1251SOL    HW2 4653   2.587   0.371   2.486
 1252SOL     OW 4654   2.293   5.457   0.231
 1252SOL    HW1 4655   2.223   5.463   0.302
 1252SOL    HW2 4656   2.266   5.514   0.154
 1253SOL     OW 4657   3.328   1.069   1.157
 1253SOL    HW1 4658   3.253   1.014   1.121
 1253SOL    HW2 4659   3.363   1.130   1.086
 1254SOL     OW 4660   6.255   1.252   2.570
 1254SOL    HW1 4661   6.309   1.336   2.581
 1254SOL    HW2 4662   6.220   1.247   2.476
 1255SOL     OW 4663   5.198   1.681   4.708
 1255SOL    HW1 4664   5.135   1.757   4.727
 1255SOL    HW2 4665   5.189   1.612   4.780
 1256SOL     OW 4666   0.293   6.171   4.556
 1256SOL    HW1 4667   0.246   6.247   4.510
 1256SOL    HW2 4668   0.372   6.144   4.502
 1257SOL     OW 4669   0.400   4.621   3.784
 1257SOL    HW1 4670   0.371   4.711   3.816
 1257SOL    HW2 4671   0.463   4.581   3.851
 1258SOL     OW 4672   3.018   6.323   4.439
 1258SOL    HW1 4673   3.051   6.249   4.381
 1258SOL    HW2 4674   2.997   6.403   4.382
 1259SOL     OW 4675   5.391   0.149   4.932
 1259SOL    HW1 4676   5.440   0.231   4.905
 1259SOL    HW2 4677   5.400   0.135   5.031
 1260SOL     OW 4678   1.925   0.068   2.237
 1260SOL    HW1 4679   1.974   0.156   2.240
 1260SOL    HW2 4680   1.936   0.021   2.324
 1261SOL     OW 4681   6.794   4.674   6.322
 1261SOL    HW1 4682   6.812   4.619   6.404
 1261SOL    HW2 4683   6.759   4.616   6.250
 1262SOL     OW 4684   5.158   5.454   0.791
 1262SOL    HW1 4685   5.178   5.371   0.842
 1262SOL    HW2 4686   5.216   5.528   0.824
 1263SOL     OW 4687   0.775   2.310   1.406
 1263SOL    HW1 4688   0.753   2.385   1.343
 1263SOL    HW2 4689   0.870   2.282   1.392
 1264SOL     OW 4690   1.080   3.331   3.262
 1264SOL    HW1 4691   1.108   3.416   3.305
 1264SOL    HW2 4692   0.990   3.304   3.297
 1265SOL     OW 4693   6.958   4.302   4.813
 1265SOL    HW1 4694   6.913   4.383   4.849
 1265SOL    HW2 4695   7.012   4.327   4.732
 1266SOL     OW 4696   3.073   1.909   5.103
 1266SOL    HW1 4697   3.115   1.832   5.054
 1266SOL    HW2 4698   2.996   1.944   5.050
 1267SOL     OW 4699   0.100   4.844   3.454
 1267SOL    HW1 4700   0.193   4.835   3.417
 1267SOL    HW2 4701   0.071   4.939   3.448
 1268SOL     OW 4702   5.321   2.892   6.131
 1268SOL    HW1 4703   5.252   2.822   6.152
 1268SOL    HW2 4704   5.309   2.923   6.037
 1269SOL     OW 4705   6.746   5.691   5.334
 1269SOL    HW1 4706   6.833   5.732   5.307
 1269SOL    HW2 4707   6.704   5.647   5.254
 1270SOL     OW 4708   2.091   3.768   4.721
 1270SOL    HW1 4709   2.089   3.813   4.632
 1270SOL    HW2 4710   1.998   3.746   4.750
 1271SOL     OW 4711   3.160   1.687   2.635
 1271SOL    HW1 4712   3.093   1.662   2.566
 1271SOL    HW2 4713   3.177   1.785   2.633
 1272SOL     OW 4714   6.377   5.423   1.467
 1272SOL    HW1 4715   6.450   5.471   1.517
 1272SOL    HW2 4716   6.380   5.451   1.371
 1273SOL     OW 4717   2.575   4.528   6.681
 1273SOL    HW1 4718   2.565   4.531   6.781
 1273SOL    HW2 4719   2.616   4.441   6.654
 1274SOL     OW 4720   0.097   2.663   1.608
 1274SOL    HW1 4721   0.087   2.669   1.707
 1274SOL    HW2 4722   0.059   2.746   1.566
 1275SOL     OW 4723   4.446   0.795   4.877
 1275SOL    HW1 4724   4.376   0.850   4.831
 1275SOL    HW2 4725   4.464   0.833   4.968
 1276SOL     OW 4726   6.986   0.486   1.953
 1276SOL    HW1 4727   6.930   0.552   2.003
 1276SOL    HW2 4728   0.032   0.452   2.012
 1277SOL     OW 4729   0.044   0.740   4.659
 1277SOL    HW1 4730   0.027   0.652   4.616
 1277SOL    HW2 4731   0.121   0.786   4.614
 1278SOL     OW 4732   1.614   2.143   5.514
 1278SOL    HW1 4733   1.617   2.241   5.531
 1278SOL    HW2 4734   1.676   2.120   5.438
 1279SOL     OW 4735   2.741   6.120   0.489
 1279SOL    HW1 4736   2.745   6.050   0.560
 1279SOL    HW2 4737   2.735   6.210   0.532
 1280SOL     OW 4738   2.013   0.230   3.137
 1280SOL    HW1 4739   1.929   0.256   3.089
 1280SOL    HW2 4740   2.058   0.156   3.088
 1281SOL     OW 4741   1.614   6.293   3.192
 1281SOL    HW1 4742   1.695   6.350   3.202
 1281SOL    HW2 4743   1.534   6.352   3.174
 1282SOL     OW 4744   0.826   1.405   1.147
 1282SOL    HW1 4745   0.845   1.380   1.242
 1282SOL    HW2 4746   0.741   1.457   1.142
 1283SOL     OW 4747   5.396   4.192   5.728
 1283SOL    HW1 4748   5.445   4.278   5.710
 1283SOL    HW2 4749   5.365   4.191   5.823
 1284SOL     OW 4750   2.917   2.591   1.689
 1284SOL    HW1 4751   2.850   2.550   1.626
 1284SOL    HW2 4752   2.921   2.536   1.772
 1285SOL     OW 4753   4.645   2.794   5.926
 1285SOL    HW1 4754   4.680   2.824   5.837
 1285SOL    HW2 4755   4.576   2.723   5.912
 1286SOL     OW 4756   5.495   4.096   2.174
 1286SOL    HW1 4757   5.423   4.069   2.238
 1286SOL    HW2 4758   5.585   4.082   2.217
 1287SOL     OW 4759   6.024   5.735   6.719
 1287SOL    HW1 4760   6.078   5.792   6.780
 1287SOL    HW2 4761   6.024   5.641   6.752
 1288SOL     OW 4762   0.406   2.708   6.961
 1288SOL    HW1 4763   0.427   2.612   6.974
 1288SOL    HW2 4764   0.416   2.732   6.864
 1289SOL     OW 4765   6.834   5.970   2.321
 1289SOL    HW1 4766   6.823   5.997   2.226
 1289SOL    HW2 4767   6.909   6.022   2.362
 1290SOL     OW 4768   0.475   0.275   6.733
 1290SOL    HW1 4769   0.440   0.349   6.675
 1290SOL    HW2 4770   0.563   0.243   6.696
 1291SOL     OW 4771   1.330   5.368   6.299
 1291SOL    HW1 4772   1.329   5.452   6.244
 1291SOL    HW2 4773   1.420   5.324   6.292
 1292SOL     OW 4774   6.834   4.891   1.170
 1292SOL    HW1 4775   6.893   4.920   1.245
 1292SOL    HW2 4776   6.754   4.952   1.165
 1293SOL     OW 4777   2.171   1.874   6.769
 1293SOL    HW1 4778   2.157   1.904   6.675
 1293SOL    HW2 4779   2.144   1.778   6.777
 1294SOL     OW 4780   0.636   3.355   2.507
 1294SOL    HW1 4781   0.565   3.422   2.484
 1294SOL    HW2 4782   0.698   3.394   2.575
 1295SOL     OW 4783   5.467   3.000   2.350
 1295SOL    HW1 4784   5.460   2.968   2.255
 1295SOL    HW2 4785   5.449   2.923   2.412
 1296SOL     OW 4786   3.747   2.211   6.284
 1296SOL    HW1 4787   3.836   2.214   6.240
 1296SOL    HW2 4788   3.717   2.304   6.307
 1297SOL     OW 4789   6.530   1.352   5.707
 1297SOL    HW1 4790   6.612   1.394   5.746
 1297SOL    HW2 4791   6.509   1.396   5.620
 1298SOL     OW 4792   5.068   3.524   2.707
 1298SOL    HW1 4793   4.993   3.587   2.684
 1298SOL    HW2 4794   5.043   3.472   2.789
 1299SOL     OW 4795   2.009   4.268   3.363
 1299SOL    HW1 4796   2.004   4.233   3.457
 1299SOL    HW2 4797   1.984   4.365   3.362
 1300SOL     OW 4798   2.935   3.444   1.837
 1300SOL    HW1 4799   2.971   3.394   1.758
 1300SOL    HW2 4800   2.839   3.469   1.820
 1301SOL     OW 4801   1.015   6.674   3.608
 1301SOL    HW1 4802   1.043   6.588   3.650
 1301SOL    HW2 4803   0.920   6.693   3.630
 1302SOL     OW 4804   2.441   6.586   5.522
 1302SOL    HW1 4805   2.390   6.546   5.599
 1302SOL    HW2 4806   2.377   6.607   5.448
 1303SOL     OW 4807   3.969   1.802   1.144
 1303SOL    HW1 4808   3.898   1.813   1.074
 1303SOL    HW2 4809   4.026   1.884   1.147
 1304SOL     OW 4810   1.825   0.310   6.292
 1304SOL    HW1 4811   1.789   0.342   6.379
 1304SOL    HW2 4812   1.790   0.218   6.273
 1305SOL     OW 4813   4.737   6.383   4.388
 1305SOL    HW1 4814   4.747   6.481   4.372
 1305SOL    HW2 4815   4.689   6.368   4.475
 1306SOL     OW 4816   1.314   4.048   4.758
 1306SOL    HW1 4817   1.257   4.037   4.677
 1306SOL    HW2 4818   1.319   3.961   4.807
 1307SOL     OW 4819   1.535   3.354   5.047
 1307SOL    HW1 4820   1.489   3.355   5.136
 1307SOL    HW2 4821   1.625   3.312   5.057
 1308SOL     OW 4822   4.147   5.612   4.056
 1308SOL    HW1 4823   4.146   5.553   3.975
 1308SOL    HW2 4824   4.207   5.691   4.038
 1309SOL     OW 4825   5.381   2.799   5.041
 1309SOL    HW1 4826   5.473   2.773   5.069
 1309SOL    HW2 4827   5.360   2.889   5.078
 1310SOL     OW 4828   6.035   4.104   4.352
 1310SOL    HW1 4829   5.969   4.163   4.398
 1310SOL    HW2 4830   6.074   4.151   4.273
 1311SOL     OW 4831   5.903   6.930   4.320
 1311SOL    HW1 4832   5.916   6.941   4.221
 1311SOL    HW2 4833   5.992   6.915   4.364
 1312SOL     OW 4834   0.752   0.299   6.985
 1312SOL    HW1 4835   0.671   0.272   0.010
 1312SOL    HW2 4836   0.833   0.260   7.027
 1313SOL     OW 4837   3.032   5.786   4.976
 1313SOL    HW1 4838   2.991   5.697   4.997
 1313SOL    HW2 4839   3.118   5.771   4.926
 1314SOL     OW 4840   1.151   1.553   5.705
 1314SOL    HW1 4841   1.173   1.474   5.649
 1314SOL    HW2 4842   1.208   1.553   5.787
 1315SOL     OW 4843   1.793   1.377   1.163
 1315SOL    HW1 4844   1.779   1.305   1.231
 1315SOL    HW2 4845   1.766   1.344   1.073
 1316SOL     OW 4846   2.116   0.243   3.396
 1316SOL    HW1 4847   2.055   0.204   3.464
 1316SOL    HW2 4848   2.077   0.232   3.305
 1317SOL     OW 4849   0.826   4.385   4.554
 1317SOL    HW1 4850   0.793   4.398   4.460
 1317SOL    HW2 4851   0.919   4.423   4.562
 1318SOL     OW 4852   0.171   0.853   0.428
 1318SOL    HW1 4853   0.079   0.882   0.402
 1318SOL    HW2 4854   0.167   0.760   0.464
 1319SOL     OW 4855   0.161   1.048   0.930
 1319SOL    HW1 4856   0.158   0.953   0.897
 1319SOL    HW2 4857   0.224   1.101   0.874
 1320SOL     OW 4858   5.781   4.465   6.267
 1320SOL    HW1 4859   5.750   4.370   6.255
 1320SOL    HW2 4860   5.792   4.484   6.364
 1321SOL     OW 4861   4.413   3.484   6.979
 1321SOL    HW1 4862   4.322   3.472   7.018
 1321SOL    HW2 4863   4.406   3.486   6.879
 1322SOL     OW 4864   6.081   0.750   3.522
 1322SOL    HW1 4865   6.118   0.792   3.605
 1322SOL    HW2 4866   6.136   0.777   3.443
 1323SOL     OW 4867   6.652   1.456   5.088
 1323SOL    HW1 4868   6.663   1.397   5.008
 1323SOL    HW2 4869   6.577   1.421   5.145
 1324SOL     OW 4870   1.604   2.629   1.407
 1324SOL    HW1 4871   1.527   2.565   1.407
 1324SOL    HW2 4872   1.623   2.658   1.313
 1325SOL     OW 4873   1.856   5.956   3.482
 1325SOL    HW1 4874   1.869   5.973   3.580
 1325SOL    HW2 4875   1.817   6.037   3.438
 1326SOL     OW 4876   5.082   2.500   4.727
 1326SOL    HW1 4877   5.147   2.533   4.796
 1326SOL    HW2 4878   5.132   2.467   4.647
 1327SOL     OW 4879   2.614   5.410   2.667
 1327SOL    HW1 4880   2.527   5.441   2.706
 1327SOL    HW2 4881   2.671   5.372   2.739
 1328SOL     OW 4882   1.803   2.275   6.085
 1328SOL    HW1 4883   1.865   2.255   6.160
 1328SOL    HW2 4884   1.731   2.338   6.116
 1329SOL     OW 4885   0.931   1.562   0.467
 1329SOL    HW1 4886   0.901   1.492   0.403
 1329SOL    HW2 4887   0.927   1.652   0.423
 1330SOL     OW 4888   6.588   0.746   0.970
 1330SOL    HW1 4889   6.676   0.785   0.994
 1330SOL    HW2 4890   6.594   0.700   0.882
 1331SOL     OW 4891   6.141   0.912   2.537
 1331SOL    HW1 4892   6.236   0.940   2.544
 1331SOL    HW2 4893   6.089   0.979   2.484
 1332SOL     OW 4894   4.363   2.104   1.581
 1332SOL    HW1 4895   4.271   2.088   1.547
 1332SOL    HW2 4896   4.384   2.038   1.653
 1333SOL     OW 4897   3.889   4.052   4.664
 1333SOL    HW1 4898   3.913   3.968   4.712
 1333SOL    HW2 4899   3.921   4.131   4.716
 1334SOL     OW 4900   1.722   3.957   4.860
 1334SOL    HW1 4901   1.745   3.875   4.806
 1334SOL    HW2 4902   1.801   3.985   4.914
 1335SOL     OW 4903   2.214   6.363   2.926
 1335SOL    HW1 4904   2.221   6.448   2.978
 1335SOL    HW2 4905   2.140   6.371   2.859
 1336SOL     OW 4906   1.378   1.799   6.661
 1336SOL    HW1 4907   1.309   1.845   6.605
 1336SOL    HW2 4908   1.335   1.763   6.744
 1337SOL     OW 4909   2.053   2.325   6.385
 1337SOL    HW1 4910   2.091   2.396   6.326
 1337SOL    HW2 4911   2.124   2.259   6.408
 1338SOL     OW 4912   4.339   4.397   6.463
 1338SOL    HW1 4913   4.292   4.309   6.455
 1338SOL    HW2 4914   4.433   4.382   6.492
 1339SOL     OW 4915   0.042   4.362   6.188
 1339SOL    HW1 4916   0.028   4.415   6.105
 1339SOL    HW2 4917   6.992   4.375   6.250
 1340SOL     OW 4918   1.257   2.423   0.183
 1340SOL    HW1 4919   1.294   2.388   0.097
 1340SOL    HW2 4920   1.331   2.459   0.240
 1341SOL     OW 4921   3.671   1.048   4.370
 1341SOL    HW1 4922   3.640   0.965   4.324
 1341SOL    HW2 4923   3.688   1.028   4.467
 1342SOL     OW 4924   0.596   6.304   6.148
 1342SOL    HW1 4925   0.617   6.329   6.053
 1342SOL    HW2 4926   0.528   6.367   6.185
 1343SOL     OW 4927   3.573   6.367   2.513
 1343SOL    HW1 4928   3.669   6.348   2.530
 1343SOL    HW2 4929   3.558   6.466   2.513
 1344SOL     OW 4930   6.358   1.517   2.594
 1344SOL    HW1 4931   6.450   1.548   2.569
 1344SOL    HW2 4932   6.326   1.569   2.674
 1345SOL     OW 4933   0.659   1.079   3.116
 1345SOL    HW1 4934   0.714   1.074   3.200
 1345SOL    HW2 4935   0.685   1.003   3.056
 1346SOL     OW 4936   0.093   6.944   3.565
 1346SOL    HW1 4937   0.111   6.854   3.604
 1346SOL    HW2 4938   0.137   6.952   3.476
 1347SOL     OW 4939   6.448   6.374   3.033
 1347SOL    HW1 4940   6.474   6.409   3.123
 1347SOL    HW2 4941   6.526   6.383   2.970
 1348SOL     OW 4942   5.745   4.693   4.284
 1348SOL    HW1 4943   5.821   4.649   4.237
 1348SOL    HW2 4944   5.700   4.627   4.343
 1349SOL     OW 4945   4.235   2.896   6.997
 1349SOL    HW1 4946   4.204   2.971   0.028
 1349SOL    HW2 4947   4.156   2.858   6.947
 1350SOL     OW 4948   3.062   5.776   6.785
 1350SOL    HW1 4949   2.998   5.789   6.861
 1350SOL    HW2 4950   3.138   5.718   6.814
 1351SOL     OW 4951   7.022   0.497   4.562
 1351SOL    HW1 4952   0.078   0.480   4.510
 1351SOL    HW2 4953   6.946   0.513   4.499
 1352SOL     OW 4954   6.537   0.716   3.339
 1352SOL    HW1 4955   6.515   0.687   3.246
 1352SOL    HW2 4956   6.520   0.814   3.349
 1353SOL     OW 4957   0.174   4.377   5.183
 1353SOL    HW1 4958   0.246   4.430   5.229
 1353SOL    HW2 4959   0.086   4.423   5.194
 1354SOL     OW 4960   0.251   0.530   1.352
 1354SOL    HW1 4961   0.286   0.605   1.296
 1354SOL    HW2 4962   0.202   0.567   1.431
 1355SOL     OW 4963   5.195   4.318   0.343
 1355SOL    HW1 4964   5.247   4.263   0.277
 1355SOL    HW2 4965   5.097   4.309   0.323
 1356SOL     OW 4966   3.330   4.133   2.726
 1356SOL    HW1 4967   3.274   4.076   2.787
 1356SOL    HW2 4968   3.318   4.229   2.749
 1357SOL     OW 4969   2.357   3.350   6.596
 1357SOL    HW1 4970   2.319   3.261   6.617
 1357SOL    HW2 4971   2.413   3.344   6.513
 1358SOL     OW 4972   2.206   2.905   6.463
 1358SOL    HW1 4973   2.207   2.984   6.525
 1358SOL    HW2 4974   2.227   2.822   6.514
 1359SOL     OW 4975   6.135   3.444   1.439
 1359SOL    HW1 4976   6.168   3.537   1.430
 1359SOL    HW2 4977   6.040   3.445   1.470
 1360SOL     OW 4978   3.635   3.649   3.366
 1360SOL    HW1 4979   3.623   3.657   3.267
 1360SOL    HW2 4980   3.730   3.627   3.387
 1361SOL     OW 4981   0.932   6.547   6.437
 1361SOL    HW1 4982   0.888   6.482   6.375
 1361SOL    HW2 4983   1.021   6.511   6.467
 1362SOL     OW 4984   2.982   3.283   5.991
 1362SOL    HW1 4985   2.888   3.297   6.023
 1362SOL    HW2 4986   2.998   3.337   5.908
 1363SOL     OW 4987   6.921   6.127   3.266
 1363SOL    HW1 4988   6.992   6.067   3.229
 1363SOL    HW2 4989   6.864   6.163   3.192
 1364SOL     OW 4990   6.955   3.324   0.866
 1364SOL    HW1 4991   6.928   3.264   0.942
 1364SOL    HW2 4992   6.977   3.268   0.786
 1365SOL     OW 4993   1.074   3.418   5.662
 1365SOL    HW1 4994   1.106   3.337   5.712
 1365SOL    HW2 4995   1.125   3.498   5.694
 1366SOL     OW 4996   0.104   2.583   0.982
 1366SOL    HW1 4997   0.136   2.488   0.970
 1366SOL    HW2 4998   0.111   2.631   0.894
 1367SOL     OW 4999   0.826   4.154   3.855
 1367SOL    HW1 5000   0.878   4.110   3.928
 1367SOL    HW2 5001   0.853   4.116   3.766
 1368SOL     OW 5002   6.763   0.060   4.495
 1368SOL    HW1 5003   6.778   0.158   4.509
 1368SOL    HW2 5004   6.687   0.047   4.432
 1369SOL     OW 5005   1.471   6.149   2.313
 1369SOL    HW1 5006   1.439   6.056   2.297
 1369SOL    HW2 5007   1.394   6.212   2.312
 1370SOL     OW 5008   6.714   2.283   4.020
 1370SOL    HW1 5009   6.743   2.263   3.926
 1370SOL    HW2 5010   6.792   2.321   4.071
 1371SOL     OW 5011   5.922   1.338   4.617
 1371SOL    HW1 5012   5.860   1.283   4.561
 1371SOL    HW2 5013   5.971   1.402   4.559
 1372SOL     OW 5014   6.452   3.016   0.286
 1372SOL    HW1 5015   6.442   2.926   0.243
 1372SOL    HW2 5016   6.415   3.013   0.379
 1373SOL     OW 5017   4.558   2.625   1.642
 1373SOL    HW1 5018   4.590   2.665   1.728
 1373SOL    HW2 5019   4.636   2.596   1.587
 1374SOL     OW 5020   4.850   3.493   1.027
 1374SOL    HW1 5021   4.887   3.583   1.006
 1374SOL    HW2 5022   4.755   3.502   1.057
 1375SOL     OW 5023   0.014   6.011   5.649
 1375SOL    HW1 5024   0.059   5.923   5.661
 1375SOL    HW2 5025   0.008   6.033   5.552
 1376SOL     OW 5026   2.874   5.134   6.259
 1376SOL    HW1 5027   2.964   5.102   6.229
 1376SOL    HW2 5028   2.861   5.110   6.356
 1377SOL     OW 5029   1.090   2.629   3.694
 1377SOL    HW1 5030   1.152   2.604   3.619
 1377SOL    HW2 5031   1.109   2.723   3.723
 1378SOL     OW 5032   3.985   2.203   4.744
 1378SOL    HW1 5033   3.998   2.301   4.729
 1378SOL    HW2 5034   3.926   2.166   4.673
 1379SOL     OW 5035   4.979   5.198   1.852
 1379SOL    HW1 5036   5.018   5.287   1.874
 1379SOL    HW2 5037   4.950   5.153   1.937
 1380SOL     OW 5038   6.671   6.333   1.522
 1380SOL    HW1 5039   6.745   6.322   1.456
 1380SOL    HW2 5040   6.687   6.270   1.599
 1381SOL     OW 5041   6.146   2.437   5.948
 1381SOL    HW1 5042   6.137   2.523   5.997
 1381SOL    HW2 5043   6.088   2.367   5.991
 1382SOL     OW 5044   4.630   2.822   1.368
 1382SOL    HW1 5045   4.639   2.829   1.268
 1382SOL    HW2 5046   4.535   2.836   1.394
 1383SOL     OW 5047   1.449   6.876   2.259
 1383SOL    HW1 5048   1.427   6.968   2.227
 1383SOL    HW2 5049   1.547   6.858   2.245
 1384SOL     OW 5050   4.956   0.545   0.310
 1384SOL    HW1 5051   4.917   0.458   0.279
 1384SOL    HW2 5052   4.882   0.605   0.341
 1385SOL     OW 5053   1.758   4.875   3.364
 1385SOL    HW1 5054   1.786   4.905   3.455
 1385SOL    HW2 5055   1.838   4.852   3.309
 1386SOL     OW 5056   2.936   6.341   3.964
 1386SOL    HW1 5057   3.032   6.369   3.973
 1386SOL    HW2 5058   2.878   6.422   3.962
 1387SOL     OW 5059   3.909   5.848   1.196
 1387SOL    HW1 5060   3.831   5.787   1.176
 1387SOL    HW2 5061   3.904   5.928   1.137
 1388SOL     OW 5062   5.751   0.563   1.838
 1388SOL    HW1 5063   5.700   0.574   1.753
 1388SOL    HW2 5064   5.774   0.467   1.851
 1389SOL     OW 5065   6.231   0.941   3.363
 1389SOL    HW1 5066   6.221   0.846   3.334
 1389SOL    HW2 5067   6.165   0.997   3.313
 1390SOL     OW 5068   1.173   3.378   6.601
 1390SOL    HW1 5069   1.092   3.387   6.659
 1390SOL    HW2 5070   1.170   3.290   6.553
 1391SOL     OW 5071   7.002   1.275   3.840
 1391SOL    HW1 5072   0.012   1.267   3.748
 1391SOL    HW2 5073   0.048   1.290   3.905
 1392SOL     OW 5074   5.491   5.048   6.268
 1392SOL    HW1 5075   5.507   4.987   6.190
 1392SOL    HW2 5076   5.564   5.033   6.336
 1393SOL     OW 5077   6.241   5.916   5.541
 1393SOL    HW1 5078   6.312   5.969   5.495
 1393SOL    HW2 5079   6.191   5.862   5.474
 1394SOL     OW 5080   3.006   5.829   5.562
 1394SOL    HW1 5081   2.990   5.927   5.563
 1394SOL    HW2 5082   2.977   5.791   5.474
 1395SOL     OW 5083   2.892   4.563   5.680
 1395SOL    HW1 5084   2.843   4.479   5.656
 1395SOL    HW2 5085   2.834   4.622   5.736
 1396SOL     OW 5086   1.008   0.378   3.814
 1396SOL    HW1 5087   1.077   0.385   3.886
 1396SOL    HW2 5088   1.047   0.406   3.727
 1397SOL     OW 5089   6.371   0.526   4.499
 1397SOL    HW1 5090   6.452   0.583   4.516
 1397SOL    HW2 5091   6.376   0.487   4.408
 1398SOL     OW 5092   1.558   0.928   5.148
 1398SOL    HW1 5093   1.476   0.946   5.203
 1398SOL    HW2 5094   1.568   1.000   5.079
 1399SOL     OW 5095   3.588   6.563   1.320
 1399SOL    HW1 5096   3.523   6.583   1.247
 1399SOL    HW2 5097   3.557   6.484   1.372
 1400SOL     OW 5098   0.232   2.022   2.965
 1400SOL    HW1 5099   0.266   1.960   3.035
 1400SOL    HW2 5100   0.177   1.972   2.899
 1401SOL     OW 5101   0.390   1.492   5.348
 1401SOL    HW1 5102   0.430   1.584   5.349
 1401SOL    HW2 5103   0.295   1.497   5.319
 1402SOL     OW 5104   0.159   3.825   6.893
 1402SOL    HW1 5105   0.146   3.804   6.990
 1402SOL    HW2 5106   0.122   3.916   6.874
 1403SOL     OW 5107   3.386   1.103   1.948
 1403SOL    HW1 5108   3.443   1.173   1.906
 1403SOL    HW2 5109   3.316   1.148   2.005
 1404SOL     OW 5110   5.876   0.205   0.468
 1404SOL    HW1 5111   5.859   0.165   0.378
 1404SOL    HW2 5112   5.791   0.246   0.502
 1405SOL     OW 5113   2.232   4.100   0.932
 1405SOL    HW1 5114   2.191   4.184   0.896
 1405SOL    HW2 5115   2.303   4.124   0.998
 1406SOL     OW 5116   1.711   5.150   1.763
 1406SOL    HW1 5117   1.739   5.056   1.742
 1406SOL    HW2 5118   1.625   5.148   1.815
 1407SOL     OW 5119   0.381   1.570   1.875
 1407SOL    HW1 5120   0.406   1.657   1.833
 1407SOL    HW2 5121   0.459   1.534   1.926
 1408SOL     OW 5122   5.295   0.710   5.844
 1408SOL    HW1 5123   5.304   0.614   5.815
 1408SOL    HW2 5124   5.348   0.724   5.927
 1409SOL     OW 5125   0.862   6.877   5.464
 1409SOL    HW1 5126   0.797   6.817   5.510
 1409SOL    HW2 5127   0.933   6.905   5.529
 1410SOL     OW 5128   1.899   3.631   6.411
 1410SOL    HW1 5129   1.887   3.680   6.325
 1410SOL    HW2 5130   1.987   3.583   6.410
 1411SOL     OW 5131   2.642   6.487   3.148
 1411SOL    HW1 5132   2.573   6.417   3.129
 1411SOL    HW2 5133   2.603   6.578   3.133
 1412SOL     OW 5134   0.437   2.007   0.008
 1412SOL    HW1 5135   0.407   2.080   6.975
 1412SOL    HW2 5136   0.496   1.944   6.985
 1413SOL     OW 5137   1.962   0.819   4.840
 1413SOL    HW1 5138   1.976   0.750   4.911
 1413SOL    HW2 5139   1.878   0.798   4.789
 1414SOL     OW 5140   2.661   0.801   1.668
 1414SOL    HW1 5141   2.713   0.716   1.661
 1414SOL    HW2 5142   2.719   0.878   1.643
 1415SOL     OW 5143   2.731   0.441   4.293
 1415SOL    HW1 5144   2.713   0.431   4.195
 1415SOL    HW2 5145   2.683   0.369   4.343
 1416SOL     OW 5146   4.640   4.621   3.380
 1416SOL    HW1 5147   4.606   4.542   3.330
 1416SOL    HW2 5148   4.573   4.648   3.450
 1417SOL     OW 5149   2.395   2.372   0.249
 1417SOL    HW1 5150   2.438   2.302   0.193
 1417SOL    HW2 5151   2.347   2.328   0.326
 1418SOL     OW 5152   2.979   3.170   3.334
 1418SOL    HW1 5153   2.948   3.106   3.405
 1418SOL    HW2 5154   3.077   3.187   3.345
 1419SOL     OW 5155   3.183   6.512   4.631
 1419SOL    HW1 5156   3.275   6.543   4.609
 1419SOL    HW2 5157   3.150   6.452   4.558
 1420SOL     OW 5158   1.912   6.251   1.838
 1420SOL    HW1 5159   1.852   6.239   1.917
 1420SOL    HW2 5160   1.862   6.297   1.765
 1421SOL     OW 5161   1.913   2.763   3.033
 1421SOL    HW1 5162   1.988   2.720   2.983
 1421SOL    HW2 5163   1.828   2.712   3.016
 1422SOL     OW 5164   2.667   4.623   1.720
 1422SOL    HW1 5165   2.600   4.560   1.759
 1422SOL    HW2 5166   2.743   4.635   1.784
 1423SOL     OW 5167   5.084   6.417   2.199
 1423SOL    HW1 5168   5.094   6.435   2.297
 1423SOL    HW2 5169   5.163   6.454   2.150
 1424SOL     OW 5170   6.709   4.156   4.831
 1424SOL    HW1 5171   6.683   4.147   4.928
 1424SOL    HW2 5172   6.797   4.203   4.824
 1425SOL     OW 5173   1.654   6.455   4.289
 1425SOL    HW1 5174   1.558   6.471   4.269
 1425SOL    HW2 5175   1.691   6.388   4.224
 1426SOL     OW 5176   1.042   2.689   5.508
 1426SOL    HW1 5177   0.957   2.725   5.547
 1426SOL    HW2 5178   1.120   2.724   5.560
 1427SOL     OW 5179   0.240   6.837   2.767
 1427SOL    HW1 5180   0.256   6.793   2.678
 1427SOL    HW2 5181   0.306   6.803   2.833
 1428SOL     OW 5182   5.787   2.550   0.965
 1428SOL    HW1 5183   5.838   2.619   0.913
 1428SOL    HW2 5184   5.726   2.596   1.030
 1429SOL     OW 5185   6.172   1.931   0.026
 1429SOL    HW1 5186   6.081   1.894   0.041
 1429SOL    HW2 5187   6.238   1.855   0.019
 1430SOL     OW 5188   1.828   4.592   3.574
 1430SOL    HW1 5189   1.749   4.619   3.520
 1430SOL    HW2 5190   1.798   4.557   3.663
 1431SOL     OW 5191   2.452   1.989   1.424
 1431SOL    HW1 5192   2.447   1.953   1.518
 1431SOL    HW2 5193   2.402   2.076   1.419
 1432SOL     OW 5194   2.753   1.676   3.182
 1432SOL    HW1 5195   2.758   1.698   3.085
 1432SOL    HW2 5196   2.712   1.585   3.194
 1433SOL     OW 5197   4.391   1.335   4.133
 1433SOL    HW1 5198   4.340   1.258   4.172
 1433SOL    HW2 5199   4.399   1.407   4.201
 1434SOL     OW 5200   6.656   0.731   5.546
 1434SOL    HW1 5201   6.668   0.825   5.577
 1434SOL    HW2 5202   6.745   0.687   5.534
 1435SOL     OW 5203   5.786   0.857   2.187
 1435SOL    HW1 5204   5.748   0.907   2.265
 1435SOL    HW2 5205   5.711   0.818   2.134
 1436SOL     OW 5206   5.113   4.004   0.429
 1436SOL    HW1 5207   5.211   4.010   0.449
 1436SOL    HW2 5208   5.078   4.095   0.406
 1437SOL     OW 5209   2.402   2.560   3.802
 1437SOL    HW1 5210   2.370   2.496   3.872
 1437SOL    HW2 5211   2.420   2.649   3.844
 1438SOL     OW 5212   3.202   6.324   1.361
 1438SOL    HW1 5213   3.144   6.273   1.424
 1438SOL    HW2 5214   3.224   6.413   1.401
 1439SOL     OW 5215   7.014   5.872   1.807
 1439SOL    HW1 5216   0.048   5.940   1.846
 1439SOL    HW2 5217   0.035   5.819   1.738
 1440SOL     OW 5218   3.238   3.707   1.252
 1440SOL    HW1 5219   3.244   3.705   1.352
 1440SOL    HW2 5220   3.142   3.696   1.225
 1441SOL     OW 5221   6.021   0.671   2.293
 1441SOL    HW1 5222   5.971   0.686   2.208
 1441SOL    HW2 5223   6.060   0.758   2.324
 1442SOL     OW 5224   6.475   5.741   0.038
 1442SOL    HW1 5225   6.389   5.713   0.081
 1442SOL    HW2 5226   6.528   5.796   0.102
 1443SOL     OW 5227   0.382   2.355   2.519
 1443SOL    HW1 5228   0.468   2.316   2.551
 1443SOL    HW2 5229   0.368   2.331   2.423
 1444SOL     OW 5230   5.662   0.375   0.577
 1444SOL    HW1 5231   5.618   0.315   0.643
 1444SOL    HW2 5232   5.595   0.403   0.508
 1445SOL     OW 5233   0.997   3.273   2.697
 1445SOL    HW1 5234   1.064   3.237   2.762
 1445SOL    HW2 5235   0.941   3.198   2.663
 1446SOL     OW 5236   0.207   0.307   6.403
 1446SOL    HW1 5237   0.107   0.306   6.402
 1446SOL    HW2 5238   0.238   0.397   6.435
 1447SOL     OW 5239   5.755   5.097   3.601
 1447SOL    HW1 5240   5.714   5.188   3.591
 1447SOL    HW2 5241   5.781   5.083   3.697
 1448SOL     OW 5242   6.683   2.618   4.906
 1448SOL    HW1 5243   6.626   2.550   4.951
 1448SOL    HW2 5244   6.698   2.591   4.811
 1449SOL     OW 5245   0.859   3.967   5.317
 1449SOL    HW1 5246   0.930   3.985   5.249
 1449SOL    HW2 5247   0.870   3.874   5.353
 1450SOL     OW 5248   1.035   2.985   5.990
 1450SOL    HW1 5249   1.011   2.890   5.970
 1450SOL    HW2 5250   0.956   3.044   5.971
 1451SOL     OW 5251   1.223   6.292   2.314
 1451SOL    HW1 5252   1.155   6.358   2.346
 1451SOL    HW2 5253   1.206   6.271   2.217
 1452SOL     OW 5254   4.312   2.691   5.379
 1452SOL    HW1 5255   4.244   2.652   5.316
 1452SOL    HW2 5256   4.312   2.638   5.464
 1453SOL     OW 5257   0.629   4.414   5.334
 1453SOL    HW1 5258   0.600   4.324   5.367
 1453SOL    HW2 5259   0.556   4.454   5.280
 1454SOL     OW 5260   2.103   2.105   3.016
 1454SOL    HW1 5261   2.153   2.134   2.934
 1454SOL    HW2 5262   2.063   2.186   3.060
 1455SOL     OW 5263   1.371   6.359   2.563
 1455SOL    HW1 5264   1.307   6.332   2.491
 1455SOL    HW2 5265   1.457   6.389   2.522
 1456SOL     OW 5266   6.231   6.179   6.008
 1456SOL    HW1 5267   6.295   6.155   5.935
 1456SOL    HW2 5268   6.150   6.121   6.002
 1457SOL     OW 5269   0.520   4.131   0.570
 1457SOL    HW1 5270   0.577   4.200   0.616
 1457SOL    HW2 5271   0.445   4.176   0.522
 1458SOL     OW 5272   5.296   5.120   5.216
 1458SOL    HW1 5273   5.201   5.092   5.220
 1458SOL    HW2 5274   5.350   5.050   5.168
 1459SOL     OW 5275   4.255   6.570   6.088
 1459SOL    HW1 5276   4.206   6.483   6.078
 1459SOL    HW2 5277   4.353   6.555   6.076
 1460SOL     OW 5278   1.900   6.878   4.839
 1460SOL    HW1 5279   1.914   6.958   4.780
 1460SOL    HW2 5280   1.988   6.846   4.874
 1461SOL     OW 5281   0.413   3.550   3.332
 1461SOL    HW1 5282   0.329   3.543   3.278
 1461SOL    HW2 5283   0.475   3.616   3.288
 1462SOL     OW 5284   1.250   0.726   6.764
 1462SOL    HW1 5285   1.151   0.722   6.757
 1462SOL    HW2 5286   1.281   0.818   6.739
 1463SOL     OW 5287   1.175   4.786   5.874
 1463SOL    HW1 5288   1.082   4.824   5.875
 1463SOL    HW2 5289   1.186   4.724   5.952
 1464SOL     OW 5290   6.861   4.421   3.335
 1464SOL    HW1 5291   6.936   4.445   3.397
 1464SOL    HW2 5292   6.834   4.501   3.283
 1465SOL     OW 5293   1.717   1.991   4.043
 1465SOL    HW1 5294   1.808   2.029   4.026
 1465SOL    HW2 5295   1.662   2.057   4.095
 1466SOL     OW 5296   4.114   2.142   2.241
 1466SOL    HW1 5297   4.091   2.188   2.156
 1466SOL    HW2 5298   4.035   2.145   2.303
 1467SOL     OW 5299   2.084   1.517   4.076
 1467SOL    HW1 5300   2.167   1.574   4.079
 1467SOL    HW2 5301   2.038   1.520   4.164
 1468SOL     OW 5302   2.032   5.259   1.935
 1468SOL    HW1 5303   2.005   5.237   1.841
 1468SOL    HW2 5304   1.954   5.296   1.985
 1469SOL     OW 5305   6.946   5.974   2.877
 1469SOL    HW1 5306   6.969   6.006   2.969
 1469SOL    HW2 5307   6.847   5.970   2.867
 1470SOL     OW 5308   0.197   2.304   1.215
 1470SOL    HW1 5309   0.119   2.280   1.158
 1470SOL    HW2 5310   0.167   2.360   1.292
 1471SOL     OW 5311   0.926   0.285   0.625
 1471SOL    HW1 5312   0.982   0.281   0.708
 1471SOL    HW2 5313   0.858   0.357   0.635
 1472SOL     OW 5314   2.518   6.387   6.631
 1472SOL    HW1 5315   2.462   6.352   6.556
 1472SOL    HW2 5316   2.602   6.334   6.639
 1473SOL     OW 5317   2.686   5.499   4.486
 1473SOL    HW1 5318   2.745   5.529   4.561
 1473SOL    HW2 5319   2.612   5.442   4.522
 1474SOL     OW 5320   4.091   4.882   1.652
 1474SOL    HW1 5321   4.138   4.963   1.688
 1474SOL    HW2 5322   4.159   4.818   1.616
 1475SOL     OW 5323   5.082   1.349   6.945
 1475SOL    HW1 5324   5.043   1.439   6.965
 1475SOL    HW2 5325   5.011   1.279   6.953
 1476SOL     OW 5326   2.986   1.157   1.571
 1476SOL    HW1 5327   3.060   1.220   1.548
 1476SOL    HW2 5328   2.915   1.161   1.501
 1477SOL     OW 5329   4.083   0.319   0.468
 1477SOL    HW1 5330   4.056   0.239   0.521
 1477SOL    HW2 5331   4.172   0.301   0.424
 1478SOL     OW 5332   5.298   6.423   5.819
 1478SOL    HW1 5333   5.219   6.391   5.767
 1478SOL    HW2 5334   5.382   6.402   5.769
 1479SOL     OW 5335   3.494   3.612   1.484
 1479SOL    HW1 5336   3.513   3.703   1.521
 1479SOL    HW2 5337   3.553   3.596   1.405
 1480SOL     OW 5338   2.238   7.027   6.404
 1480SOL    HW1 5339   2.203   0.038   6.489
 1480SOL    HW2 5340   2.331   0.033   6.389
 1481SOL     OW 5341   5.731   3.097   5.781
 1481SOL    HW1 5342   5.822   3.067   5.808
 1481SOL    HW2 5343   5.676   3.017   5.757
 1482SOL     OW 5344   4.392   0.789   0.887
 1482SOL    HW1 5345   4.355   0.858   0.825
 1482SOL    HW2 5346   4.372   0.698   0.851
 1483SOL     OW 5347   5.522   2.334   5.174
 1483SOL    HW1 5348   5.537   2.242   5.210
 1483SOL    HW2 5349   5.551   2.401   5.243
 1484SOL     OW 5350   4.306   5.373   3.761
 1484SOL    HW1 5351   4.208   5.391   3.769
 1484SOL    HW2 5352   4.324   5.277   3.783
 1485SOL     OW 5353   5.351   0.788   3.681
 1485SOL    HW1 5354   5.398   0.800   3.594
 1485SOL    HW2 5355   5.289   0.710   3.675
 1486SOL     OW 5356   4.987   6.871   3.598
 1486SOL    HW1 5357   4.975   6.776   3.567
 1486SOL    HW2 5358   5.001   6.872   3.697
 1487SOL     OW 5359   0.466   0.774   6.662
 1487SOL    HW1 5360   0.429   0.804   6.574
 1487SOL    HW2 5361   0.453   0.846   6.730
 1488SOL     OW 5362   5.908   0.374   3.210
 1488SOL    HW1 5363   5.907   0.339   3.304
 1488SOL    HW2 5364   5.896   0.298   3.147
 1489SOL     OW 5365   4.071   4.595   6.434
 1489SOL    HW1 5366   4.009   4.645   6.494
 1489SOL    HW2 5367   4.147   4.559   6.488
 1490SOL     OW 5368   0.359   3.082   1.117
 1490SOL    HW1 5369   0.410   3.132   1.048
 1490SOL    HW2 5370   0.266   3.064   1.084
 1491SOL     OW 5371   6.894   4.261   2.147
 1491SOL    HW1 5372   6.904   4.354   2.110
 1491SOL    HW2 5373   6.982   4.232   2.185
 1492SOL     OW 5374   6.646   0.175   2.024
 1492SOL    HW1 5375   6.614   0.164   2.118
 1492SOL    HW2 5376   6.575   0.219   1.969
 1493SOL     OW 5377   3.601   1.468   6.562
 1493SOL    HW1 5378   3.509   1.463   6.602
 1493SOL    HW2 5379   3.650   1.382   6.580
 1494SOL     OW 5380   5.434   2.857   6.726
 1494SOL    HW1 5381   5.407   2.761   6.724
 1494SOL    HW2 5382   5.401   2.899   6.811
 1495SOL     OW 5383   6.655   3.675   3.579
 1495SOL    HW1 5384   6.671   3.589   3.531
 1495SOL    HW2 5385   6.723   3.687   3.651
 1496SOL     OW 5386   6.938   0.142   0.065
 1496SOL    HW1 5387   6.846   0.155   0.029
 1496SOL    HW2 5388   6.933   0.113   0.160
 1497SOL     OW 5389   4.948   3.013   2.436
 1497SOL    HW1 5390   5.047   3.023   2.446
 1497SOL    HW2 5391   4.903   3.052   2.516
 1498SOL     OW 5392   2.864   4.560   1.095
 1498SOL    HW1 5393   2.815   4.617   1.162
 1498SOL    HW2 5394   2.961   4.583   1.097
 1499SOL     OW 5395   0.433   3.760   5.827
 1499SOL    HW1 5396   0.429   3.856   5.799
 1499SOL    HW2 5397   0.505   3.748   5.895
 1500SOL     OW 5398   1.270   6.100   6.692
 1500SOL    HW1 5399   1.333   6.047   6.748
 1500SOL    HW2 5400   1.261   6.056   6.602
 1501SOL     OW 5401   6.085   1.838   6.675
 1501SOL    HW1 5402   6.161   1.773   6.679
 1501SOL    HW2 5403   5.999   1.788   6.671
 1502SOL     OW 5404   5.759   1.614   6.336
 1502SOL    HW1 5405   5.715   1.674   6.269
 1502SOL    HW2 5406   5.859   1.624   6.328
 1503SOL     OW 5407   0.774   2.908   2.446
 1503SOL    HW1 5408   0.799   2.820   2.487
 1503SOL    HW2 5409   0.763   2.898   2.347
 1504SOL     OW 5410   0.646   0.209   3.481
 1504SOL    HW1 5411   0.609   0.281   3.541
 1504SOL    HW2 5412   0.571   0.151   3.450
 1505SOL     OW 5413   5.141   6.331   6.045
 1505SOL    HW1 5414   5.163   6.250   6.100
 1505SOL    HW2 5415   5.219   6.353   5.985
 1506SOL     OW 5416   1.360   0.451   0.793
 1506SOL    HW1 5417   1.417   0.513   0.847
 1506SOL    HW2 5418   1.265   0.459   0.823
 1507SOL     OW 5419   0.525   1.489   4.005
 1507SOL    HW1 5420   0.500   1.575   4.049
 1507SOL    HW2 5421   0.518   1.415   4.072
 1508SOL     OW 5422   0.491   1.599   0.866
 1508SOL    HW1 5423   0.403   1.552   0.868
 1508SOL    HW2 5424   0.537   1.588   0.954
 1509SOL     OW 5425   5.005   1.247   5.023
 1509SOL    HW1 5426   4.952   1.325   5.055
 1509SOL    HW2 5427   4.961   1.206   4.944
 1510SOL     OW 5428   4.386   0.054   4.209
 1510SOL    HW1 5429   4.479   0.044   4.245
 1510SOL    HW2 5430   4.359   6.996   4.164
 1511SOL     OW 5431   3.229   3.829   4.124
 1511SOL    HW1 5432   3.303   3.830   4.057
 1511SOL    HW2 5433   3.232   3.913   4.177
 1512SOL     OW 5434   5.964   5.554   1.399
 1512SOL    HW1 5435   6.032   5.527   1.467
 1512SOL    HW2 5436   5.931   5.473   1.351
 1513SOL     OW 5437   3.412   0.228   4.668
 1513SOL    HW1 5438   3.503   0.254   4.699
 1513SOL    HW2 5439   3.419   0.171   4.586
 1514SOL     OW 5440   3.453   2.424   5.664
 1514SOL    HW1 5441   3.522   2.372   5.613
 1514SOL    HW2 5442   3.362   2.401   5.631
 1515SOL     OW 5443   6.624   1.296   2.301
 1515SOL    HW1 5444   6.587   1.373   2.249
 1515SOL    HW2 5445   6.678   1.331   2.377
 1516SOL     OW 5446   5.952   5.799   5.144
 1516SOL    HW1 5447   5.888   5.723   5.135
 1516SOL    HW2 5448   5.904   5.878   5.182
 1517SOL     OW 5449   4.111   6.996   3.021
 1517SOL    HW1 5450   4.103   6.975   2.924
 1517SOL    HW2 5451   4.052   0.046   3.044
 1518SOL     OW 5452   6.302   3.134   0.712
 1518SOL    HW1 5453   6.296   3.148   0.811
 1518SOL    HW2 5454   6.375   3.193   0.675
 1519SOL     OW 5455   6.731   4.931   0.750
 1519SOL    HW1 5456   6.759   4.988   0.827
 1519SOL    HW2 5457   6.673   4.984   0.688
 1520SOL     OW 5458   0.936   4.609   1.774
 1520SOL    HW1 5459   0.843   4.617   1.738
 1520SOL    HW2 5460   0.965   4.514   1.771
 1521SOL     OW 5461   1.935   4.778   0.324
 1521SOL    HW1 5462   1.954   4.767   0.421
 1521SOL    HW2 5463   2.001   4.841   0.283
 1522SOL     OW 5464   5.422   5.251   4.226
 1522SOL    HW1 5465   5.454   5.289   4.313
 1522SOL    HW2 5466   5.428   5.152   4.228
 1523SOL     OW 5467   3.502   6.864   6.885
 1523SOL    HW1 5468   3.415   6.911   6.866
 1523SOL    HW2 5469   3.577   6.929   6.877
 1524SOL     OW 5470   2.897   1.969   2.238
 1524SOL    HW1 5471   2.827   1.997   2.172
 1524SOL    HW2 5472   2.955   2.048   2.260
 1525SOL     OW 5473   6.202   2.550   1.278
 1525SOL    HW1 5474   6.130   2.495   1.237
 1525SOL    HW2 5475   6.201   2.536   1.377
 1526SOL     OW 5476   0.287   1.271   6.498
 1526SOL    HW1 5477   0.211   1.274   6.434
 1526SOL    HW2 5478   0.286   1.352   6.556
 1527SOL     OW 5479   3.946   0.816   4.892
 1527SOL    HW1 5480   3.942   0.716   4.889
 1527SOL    HW2 5481   3.884   0.854   4.822
 1528SOL     OW 5482   4.221   4.831   1.060
 1528SOL    HW1 5483   4.165   4.896   1.009
 1528SOL    HW2 5484   4.295   4.880   1.106
 1529SOL     OW 5485   4.879   1.152   6.942
 1529SOL    HW1 5486   4.809   1.095   6.984
 1529SOL    HW2 5487   4.857   1.166   6.845
 1530SOL     OW 5488   3.261   0.633   1.513
 1530SOL    HW1 5489   3.358   0.642   1.492
 1530SOL    HW2 5490   3.247   0.557   1.576
 1531SOL     OW 5491   4.779   0.571   4.646
 1531SOL    HW1 5492   4.724   0.575   4.562
 1531SOL    HW2 5493   4.722   0.537   4.721
 1532SOL     OW 5494   3.467   4.389   5.681
 1532SOL    HW1 5495   3.436   4.461   5.743
 1532SOL    HW2 5496   3.497   4.430   5.595
 1533SOL     OW 5497   5.630   5.678   0.156
 1533SOL    HW1 5498   5.696   5.613   0.120
 1533SOL    HW2 5499   5.537   5.647   0.135
 1534SOL     OW 5500   3.836   5.549   6.793
 1534SOL    HW1 5501   3.914   5.514   6.846
 1534SOL    HW2 5502   3.867   5.576   6.702
 1535SOL     OW 5503   5.388   5.950   5.013
 1535SOL    HW1 5504   5.445   6.013   4.961
 1535SOL    HW2 5505   5.318   5.911   4.954
 1536SOL     OW 5506   3.814   5.114   0.183
 1536SOL    HW1 5507   3.870   5.179   0.132
 1536SOL    HW2 5508   3.754   5.163   0.246
 1537SOL     OW 5509   4.118   5.853   3.569
 1537SOL    HW1 5510   4.206   5.814   3.542
 1537SOL    HW2 5511   4.102   5.834   3.666
 1538SOL     OW 5512   3.149   0.843   0.165
 1538SOL    HW1 5513   3.228   0.869   0.110
 1538SOL    HW2 5514   3.074   0.814   0.105
 1539SOL     OW 5515   4.933   3.236   2.226
 1539SOL    HW1 5516   4.874   3.236   2.145
 1539SOL    HW2 5517   4.915   3.153   2.280
 1540SOL     OW 5518   1.114   6.771   5.227
 1540SOL    HW1 5519   1.144   6.866   5.239
 1540SOL    HW2 5520   1.184   6.709   5.262
 1541SOL     OW 5521   3.006   3.230   4.211
 1541SOL    HW1 5522   3.056   3.144   4.221
 1541SOL    HW2 5523   2.996   3.252   4.114
 1542SOL     OW 5524   6.243   6.825   1.651
 1542SOL    HW1 5525   6.182   6.865   1.720
 1542SOL    HW2 5526   6.336   6.858   1.666
 1543SOL     OW 5527   3.827   5.059   6.179
 1543SOL    HW1 5528   3.773   5.128   6.132
 1543SOL    HW2 5529   3.856   5.094   6.269
 1544SOL     OW 5530   3.108   4.045   3.855
 1544SOL    HW1 5531   3.177   4.112   3.882
 1544SOL    HW2 5532   3.025   4.059   3.909
 1545SOL     OW 5533   5.857   0.915   2.864
 1545SOL    HW1 5534   5.897   1.004   2.843
 1545SOL    HW2 5535   5.871   0.895   2.962
 1546SOL     OW 5536   5.375   5.928   5.973
 1546SOL    HW1 5537   5.329   5.865   6.035
 1546SOL    HW2 5538   5.445   5.879   5.921
 1547SOL     OW 5539   1.708   3.913   1.341
 1547SOL    HW1 5540   1.672   4.000   1.308
 1547SOL    HW2 5541   1.793   3.929   1.391
 1548SOL     OW 5542   5.490   3.754   0.093
 1548SOL    HW1 5543   5.409   3.756   0.151
 1548SOL    HW2 5544   5.554   3.685   0.126
 1549SOL     OW 5545   4.595   1.492   3.689
 1549SOL    HW1 5546   4.692   1.483   3.668
 1549SOL    HW2 5547   4.583   1.513   3.785
 1550SOL     OW 5548   3.122   3.418   1.330
 1550SOL    HW1 5549   3.141   3.501   1.384
 1550SOL    HW2 5550   3.030   3.385   1.351
 1551SOL     OW 5551   1.176   5.411   6.956
 1551SOL    HW1 5552   1.166   5.319   6.917
 1551SOL    HW2 5553   1.272   5.429   6.975
 1552SOL     OW 5554   1.658   5.341   0.508
 1552SOL    HW1 5555   1.750   5.358   0.543
 1552SOL    HW2 5556   1.611   5.428   0.495
 1553SOL     OW 5557   6.989   1.457   6.598
 1553SOL    HW1 5558   6.966   1.375   6.650
 1553SOL    HW2 5559   0.054   1.487   6.623
 1554SOL     OW 5560   2.863   2.159   3.495
 1554SOL    HW1 5561   2.901   2.095   3.427
 1554SOL    HW2 5562   2.881   2.253   3.465
 1555SOL     OW 5563   5.937   3.371   6.810
 1555SOL    HW1 5564   5.847   3.408   6.788
 1555SOL    HW2 5565   5.930   3.273   6.827
 1556SOL     OW 5566   1.981   1.420   5.802
 1556SOL    HW1 5567   1.926   1.338   5.793
 1556SOL    HW2 5568   2.050   1.423   5.730
 1557SOL     OW 5569   2.130   4.085   5.982
 1557SOL    HW1 5570   2.046   4.066   6.032
 1557SOL    HW2 5571   2.166   4.174   6.010
 1558SOL     OW 5572   6.442   0.540   4.235
 1558SOL    HW1 5573   6.445   0.633   4.198
 1558SOL    HW2 5574   6.448   0.474   4.160
 1559SOL     OW 5575   1.696   3.468   6.456
 1559SOL    HW1 5576   1.620   3.508   6.507
 1559SOL    HW2 5577   1.756   3.541   6.423
 1560SOL     OW 5578   0.346   0.538   6.479
 1560SOL    HW1 5579   0.399   0.512   6.398
 1560SOL    HW2 5580   0.407   0.582   6.545
 1561SOL     OW 5581   5.025   6.175   3.700
 1561SOL    HW1 5582   4.976   6.262   3.703
 1561SOL    HW2 5583   5.103   6.178   3.762
 1562SOL     OW 5584   4.728   6.163   2.676
 1562SOL    HW1 5585   4.675   6.094   2.726
 1562SOL    HW2 5586   4.666   6.231   2.638
 1563SOL     OW 5587   2.801   0.511   5.509
 1563SOL    HW1 5588   2.875   0.446   5.490
 1563SOL    HW2 5589   2.838   0.592   5.555
 1564SOL     OW 5590   1.188   0.476   3.171
 1564SOL    HW1 5591   1.122   0.485   3.246
 1564SOL    HW2 5592   1.280   0.491   3.206
 1565SOL     OW 5593   4.815   4.342   2.902
 1565SOL    HW1 5594   4.766   4.394   2.832
 1565SOL    HW2 5595   4.897   4.301   2.861
 1566SOL     OW 5596   5.791   3.689   3.134
 1566SOL    HW1 5597   5.841   3.604   3.116
 1566SOL    HW2 5598   5.853   3.755   3.176
 1567SOL     OW 5599   6.036   6.088   0.143
 1567SOL    HW1 5600   6.043   6.160   0.074
 1567SOL    HW2 5601   5.987   6.010   0.104
 1568SOL     OW 5602   1.628   0.043   0.571
 1568SOL    HW1 5603   1.561   0.103   0.615
 1568SOL    HW2 5604   1.582   6.988   0.539
 1569SOL     OW 5605   4.561   6.005   3.630
 1569SOL    HW1 5606   4.517   6.061   3.559
 1569SOL    HW2 5607   4.648   6.047   3.656
 1570SOL     OW 5608   2.515   1.005   0.933
 1570SOL    HW1 5609   2.535   1.004   1.031
 1570SOL    HW2 5610   2.569   0.934   0.887
 1571SOL     OW 5611   5.693   3.624   1.007
 1571SOL    HW1 5612   5.718   3.658   1.097
 1571SOL    HW2 5613   5.710   3.525   1.002
 1572SOL     OW 5614   0.281   0.631   2.682
 1572SOL    HW1 5615   0.242   0.563   2.744
 1572SOL    HW2 5616   0.362   0.672   2.724
 1573SOL     OW 5617   5.240   0.678   1.811
 1573SOL    HW1 5618   5.255   0.631   1.724
 1573SOL    HW2 5619   5.175   0.626   1.867
 1574SOL     OW 5620   0.597   2.087   1.309
 1574SOL    HW1 5621   0.634   2.177   1.334
 1574SOL    HW2 5622   0.498   2.089   1.319
 1575SOL     OW 5623   2.653   2.074   0.383
 1575SOL    HW1 5624   2.565   2.059   0.428
 1575SOL    HW2 5625   2.671   2.172   0.376
 1576SOL     OW 5626   6.198   6.282   4.287
 1576SOL    HW1 5627   6.286   6.275   4.239
 1576SOL    HW2 5628   6.189   6.204   4.350
 1577SOL     OW 5629   2.236   1.616   4.774
 1577SOL    HW1 5630   2.334   1.632   4.762
 1577SOL    HW2 5631   2.205   1.547   4.709
 1578SOL     OW 5632   5.787   3.528   5.519
 1578SOL    HW1 5633   5.809   3.432   5.536
 1578SOL    HW2 5634   5.770   3.542   5.421
 1579SOL     OW 5635   0.266   1.438   3.248
 1579SOL    HW1 5636   0.234   1.345   3.229
 1579SOL    HW2 5637   0.349   1.457   3.194
 1580SOL     OW 5638   2.688   3.872   5.267
 1580SOL    HW1 5639   2.760   3.871   5.197
 1580SOL    HW2 5640   2.601   3.898   5.225
 1581SOL     OW 5641   6.859   4.372   4.204
 1581SOL    HW1 5642   6.944   4.321   4.217
 1581SOL    HW2 5643   6.870   4.465   4.239
 1582SOL     OW 5644   0.849   5.176   4.331
 1582SOL    HW1 5645   0.798   5.105   4.282
 1582SOL    HW2 5646   0.944   5.176   4.299
 1583SOL     OW 5647   1.714   2.528   4.196
 1583SOL    HW1 5648   1.768   2.515   4.112
 1583SOL    HW2 5649   1.748   2.465   4.266
 1584SOL     OW 5650   2.113   6.898   5.288
 1584SOL    HW1 5651   2.020   6.900   5.323
 1584SOL    HW2 5652   2.136   6.988   5.249
 1585SOL     OW 5653   5.228   1.757   3.188
 1585SOL    HW1 5654   5.284   1.787   3.265
 1585SOL    HW2 5655   5.271   1.678   3.143
 1586SOL     OW 5656   4.103   3.759   2.008
 1586SOL    HW1 5657   4.103   3.751   1.908
 1586SOL    HW2 5658   4.036   3.827   2.036
 1587SOL     OW 5659   2.588   5.516   5.990
 1587SOL    HW1 5660   2.637   5.487   6.072
 1587SOL    HW2 5661   2.545   5.437   5.947
 1588SOL     OW 5662   4.807   1.938   3.160
 1588SOL    HW1 5663   4.875   1.943   3.232
 1588SOL    HW2 5664   4.716   1.926   3.200
 1589SOL     OW 5665   5.910   3.720   3.564
 1589SOL    HW1 5666   5.843   3.776   3.515
 1589SOL    HW2 5667   5.993   3.774   3.579
 1590SOL     OW 5668   1.440   6.491   6.850
 1590SOL    HW1 5669   1.360   6.452   6.895
 1590SOL    HW2 5670   1.522   6.471   6.904
 1591SOL     OW 5671   0.904   4.802   2.731
 1591SOL    HW1 5672   0.967   4.725   2.731
 1591SOL    HW2 5673   0.851   4.802   2.646
 1592SOL     OW 5674   2.961   3.675   1.272
 1592SOL    HW1 5675   2.939   3.698   1.367
 1592SOL    HW2 5676   2.942   3.578   1.257
 1593SOL     OW 5677   1.073   6.193   4.801
 1593SOL    HW1 5678   1.071   6.284   4.758
 1593SOL    HW2 5679   1.162   6.179   4.845
 1594SOL     OW 5680   0.087   5.499   3.061
 1594SOL    HW1 5681   0.147   5.485   2.983
 1594SOL    HW2 5682   0.073   5.412   3.109
 1595SOL     OW 5683   0.266   4.798   6.534
 1595SOL    HW1 5684   0.304   4.731   6.472
 1595SOL    HW2 5685   0.196   4.756   6.591
 1596SOL     OW 5686   1.454   4.254   5.054
 1596SOL    HW1 5687   1.532   4.271   4.993
 1596SOL    HW2 5688   1.405   4.340   5.070
 1597SOL     OW 5689   2.752   5.833   1.033
 1597SOL    HW1 5690   2.833   5.773   1.037
 1597SOL    HW2 5691   2.762   5.907   1.099
 1598SOL     OW 5692   0.619   3.869   0.550
 1598SOL    HW1 5693   0.544   3.829   0.497
 1598SOL    HW2 5694   0.587   3.952   0.595
 1599SOL     OW 5695   4.432   3.379   6.048
 1599SOL    HW1 5696   4.525   3.403   6.021
 1599SOL    HW2 5697   4.381   3.349   5.968
 1600SOL     OW 5698   5.277   1.354   4.874
 1600SOL    HW1 5699   5.204   1.418   4.897
 1600SOL    HW2 5700   5.267   1.271   4.929
 1601SOL     OW 5701   1.948   4.576   4.197
 1601SOL    HW1 5702   2.000   4.658   4.218
 1601SOL    HW2 5703   1.856   4.601   4.166
 1602SOL     OW 5704   1.732   5.787   3.319
 1602SOL    HW1 5705   1.716   5.698   3.362
 1602SOL    HW2 5706   1.789   5.843   3.379
 1603SOL     OW 5707   1.228   6.782   1.923
 1603SOL    HW1 5708   1.188   6.724   1.853
 1603SOL    HW2 5709   1.233   6.732   2.009
 1604SOL     OW 5710   5.951   5.231   6.643
 1604SOL    HW1 5711   5.884   5.288   6.596
 1604SOL    HW2 5712   5.930   5.134   6.626
 1605SOL     OW 5713   6.511   6.996   2.448
 1605SOL    HW1 5714   6.575   7.022   2.376
 1605SOL    HW2 5715   6.438   6.939   2.409
 1606SOL     OW 5716   4.506   0.759   5.474
 1606SOL    HW1 5717   4.429   0.698   5.493
 1606SOL    HW2 5718   4.591   0.715   5.503
 1607SOL     OW 5719   4.781   2.611   0.814
 1607SOL    HW1 5720   4.835   2.564   0.883
 1607SOL    HW2 5721   4.795   2.710   0.823
 1608SOL     OW 5722   1.462   0.341   6.372
 1608SOL    HW1 5723   1.492   0.426   6.329
 1608SOL    HW2 5724   1.478   0.346   6.470
 1609SOL     OW 5725   5.984   2.211   6.077
 1609SOL    HW1 5726   6.072   2.174   6.105
 1609SOL    HW2 5727   5.939   2.254   6.156
 1610SOL     OW 5728   5.730   4.370   4.945
 1610SOL    HW1 5729   5.771   4.316   4.871
 1610SOL    HW2 5730   5.692   4.308   5.014
 1611SOL     OW 5731   3.515   2.990   2.378
 1611SOL    HW1 5732   3.486   3.053   2.450
 1611SOL    HW2 5733   3.434   2.953   2.332
 1612SOL     OW 5734   2.169   1.611   5.388
 1612SOL    HW1 5735   2.225   1.580   5.312
 1612SOL    HW2 5736   2.174   1.545   5.463
 1613SOL     OW 5737   2.220   5.925   0.973
 1613SOL    HW1 5738   2.200   5.999   0.909
 1613SOL    HW2 5739   2.168   5.939   1.057
 1614SOL     OW 5740   6.837   3.502   0.285
 1614SOL    HW1 5741   6.862   3.487   0.380
 1614SOL    HW2 5742   6.821   3.600   0.269
 1615SOL     OW 5743   6.970   4.853   0.630
 1615SOL    HW1 5744   6.994   4.756   0.633
 1615SOL    HW2 5745   6.877   4.865   0.664
 1616SOL     OW 5746   4.281   2.243   6.614
 1616SOL    HW1 5747   4.322   2.332   6.629
 1616SOL    HW2 5748   4.308   2.180   6.686
 1617SOL     OW 5749   6.175   0.136   2.340
 1617SOL    HW1 5750   6.138   0.113   2.430
 1617SOL    HW2 5751   6.201   0.053   2.292
 1618SOL     OW 5752   0.168   3.571   1.590
 1618SOL    HW1 5753   0.249   3.615   1.631
 1618SOL    HW2 5754   0.192   3.479   1.561
 1619SOL     OW 5755   1.101   3.652   4.459
 1619SOL    HW1 5756   1.117   3.564   4.415
 1619SOL    HW2 5757   1.011   3.687   4.432
 1620SOL     OW 5758   2.128   5.865   0.489
 1620SOL    HW1 5759   2.105   5.962   0.498
 1620SOL    HW2 5760   2.160   5.846   0.397
 1621SOL     OW 5761   0.602   0.516   6.628
 1621SOL    HW1 5762   0.680   0.496   6.687
 1621SOL    HW2 5763   0.559   0.601   6.656
 1622SOL     OW 5764   1.231   2.145   4.588
 1622SOL    HW1 5765   1.195   2.187   4.671
 1622SOL    HW2 5766   1.174   2.171   4.510
 1623SOL     OW 5767   2.742   2.640   6.357
 1623SOL    HW1 5768   2.832   2.679   6.374
 1623SOL    HW2 5769   2.694   2.694   6.287
 1624SOL     OW 5770   2.530   0.850   6.657
 1624SOL    HW1 5771   2.474   0.858   6.575
 1624SOL    HW2 5772   2.582   0.934   6.671
 1625SOL     OW 5773   1.298   5.271   1.803
 1625SOL    HW1 5774   1.249   5.201   1.751
 1625SOL    HW2 5775   1.368   5.228   1.859
 1626SOL     OW 5776   2.237   2.262   6.951
 1626SOL    HW1 5777   2.173   2.185   6.942
 1626SOL    HW2 5778   2.329   2.231   6.931
 1627SOL     OW 5779   6.554   1.685   4.244
 1627SOL    HW1 5780   6.599   1.724   4.164
 1627SOL    HW2 5781   6.623   1.651   4.308
 1628SOL     OW 5782   3.430   4.922   0.291
 1628SOL    HW1 5783   3.445   4.991   0.221
 1628SOL    HW2 5784   3.484   4.840   0.269
 1629SOL     OW 5785   3.124   2.120   4.547
 1629SOL    HW1 5786   3.163   2.132   4.455
 1629SOL    HW2 5787   3.197   2.103   4.613
 1630SOL     OW 5788   0.736   5.741   5.098
 1630SOL    HW1 5789   0.741   5.811   5.170
 1630SOL    HW2 5790   0.765   5.653   5.135
 1631SOL     OW 5791   6.967   0.341   5.845
 1631SOL    HW1 5792   6.898   0.383   5.786
 1631SOL    HW2 5793   0.023   0.396   5.841
 1632SOL     OW 5794   0.601   1.027   6.838
 1632SOL    HW1 5795   0.516   1.063   6.802
 1632SOL    HW2 5796   0.642   1.094   6.901
 1633SOL     OW 5797   5.871   2.850   2.685
 1633SOL    HW1 5798   5.873   2.827   2.587
 1633SOL    HW2 5799   5.776   2.847   2.718
 1634SOL     OW 5800   4.323   5.320   6.212
 1634SOL    HW1 5801   4.312   5.225   6.184
 1634SOL    HW2 5802   4.309   5.380   6.134
 1635SOL     OW 5803   6.509   5.821   4.832
 1635SOL    HW1 5804   6.495   5.920   4.832
 1635SOL    HW2 5805   6.607   5.801   4.839
 1636SOL     OW 5806   2.624   5.018   1.446
 1636SOL    HW1 5807   2.715   4.975   1.436
 1636SOL    HW2 5808   2.564   4.956   1.497
 1637SOL     OW 5809   7.010   2.438   2.786
 1637SOL    HW1 5810   6.998   2.400   2.694
 1637SOL    HW2 5811   0.022   2.529   2.779
 1638SOL     OW 5812   6.879   2.777   3.924
 1638SOL    HW1 5813   6.804   2.715   3.904
 1638SOL    HW2 5814   6.877   2.855   3.860
 1639SOL     OW 5815   5.593   5.670   3.241
 1639SOL    HW1 5816   5.692   5.653   3.245
 1639SOL    HW2 5817   5.567   5.733   3.314
 1640SOL     OW 5818   6.029   1.991   0.499
 1640SOL    HW1 5819   5.938   1.953   0.481
 1640SOL    HW2 5820   6.069   2.026   0.415
 1641SOL     OW 5821   5.388   3.064   3.388
 1641SOL    HW1 5822   5.292   3.055   3.362
 1641SOL    HW2 5823   5.396   3.134   3.459
 1642SOL     OW 5824   0.025   3.315   0.198
 1642SOL    HW1 5825   7.024   3.229   0.154
 1642SOL    HW2 5826   6.972   3.362   0.234
 1643SOL     OW 5827   3.676   6.605   4.869
 1643SOL    HW1 5828   3.689   6.703   4.882
 1643SOL    HW2 5829   3.726   6.575   4.787
 1644SOL     OW 5830   3.063   2.258   1.523
 1644SOL    HW1 5831   3.029   2.165   1.506
 1644SOL    HW2 5832   3.009   2.323   1.470
 1645SOL     OW 5833   2.923   6.158   5.838
 1645SOL    HW1 5834   2.823   6.158   5.839
 1645SOL    HW2 5835   2.957   6.234   5.893
 1646SOL     OW 5836   2.916   5.177   1.251
 1646SOL    HW1 5837   2.932   5.235   1.331
 1646SOL    HW2 5838   2.878   5.232   1.177
 1647SOL     OW 5839   5.988   2.714   3.298
 1647SOL    HW1 5840   5.920   2.747   3.363
 1647SOL    HW2 5841   6.040   2.640   3.340
 1648SOL     OW 5842   5.502   6.719   2.236
 1648SOL    HW1 5843   5.573   6.706   2.306
 1648SOL    HW2 5844   5.520   6.659   2.158
 1649SOL     OW 5845   3.109   0.511   2.653
 1649SOL    HW1 5846   3.045   0.580   2.618
 1649SOL    HW2 5847   3.176   0.489   2.581
 1650SOL     OW 5848   2.995   6.822   4.012
 1650SOL    HW1 5849   2.956   6.810   3.921
 1650SOL    HW2 5850   2.941   6.889   4.063
 1651SOL     OW 5851   0.376   0.364   0.434
 1651SOL    HW1 5852   0.356   0.372   0.337
 1651SOL    HW2 5853   0.304   0.310   0.478
 1652SOL     OW 5854   2.757   1.897   1.045
 1652SOL    HW1 5855   2.670   1.886   1.092
 1652SOL    HW2 5856   2.752   1.977   0.985
 1653SOL     OW 5857   6.947   5.199   1.151
 1653SOL    HW1 5858   6.859   5.173   1.189
 1653SOL    HW2 5859   7.011   5.123   1.162
 1654SOL     OW 5860   6.729   3.110   2.425
 1654SOL    HW1 5861   6.649   3.143   2.476
 1654SOL    HW2 5862   6.699   3.041   2.358
 1655SOL     OW 5863   5.563   4.673   6.205
 1655SOL    HW1 5864   5.641   4.613   6.186
 1655SOL    HW2 5865   5.566   4.751   6.142
 1656SOL     OW 5866   1.779   4.229   3.566
 1656SOL    HW1 5867   1.762   4.215   3.469
 1656SOL    HW2 5868   1.795   4.326   3.584
 1657SOL     OW 5869   1.196   1.135   5.804
 1657SOL    HW1 5870   1.139   1.057   5.831
 1657SOL    HW2 5871   1.152   1.219   5.834
 1658SOL     OW 5872   6.176   6.414   3.084
 1658SOL    HW1 5873   6.104   6.346   3.090
 1658SOL    HW2 5874   6.263   6.369   3.064
 1659SOL     OW 5875   3.402   2.269   6.714
 1659SOL    HW1 5876   3.475   2.203   6.731
 1659SOL    HW2 5877   3.441   2.352   6.673
 1660SOL     OW 5878   0.445   5.268   3.567
 1660SOL    HW1 5879   0.512   5.220   3.623
 1660SOL    HW2 5880   0.492   5.313   3.491
 1661SOL     OW 5881   3.124   1.823   2.273
 1661SOL    HW1 5882   3.094   1.739   2.318
 1661SOL    HW2 5883   3.044   1.876   2.243
 1662SOL     OW 5884   6.287   1.791   3.179
 1662SOL    HW1 5885   6.349   1.838   3.116
 1662SOL    HW2 5886   6.193   1.817   3.158
 1663SOL     OW 5887   3.155   0.197   3.605
 1663SOL    HW1 5888   3.200   0.152   3.528
 1663SOL    HW2 5889   3.078   0.251   3.572
 1664SOL     OW 5890   1.848   0.283   4.161
 1664SOL    HW1 5891   1.825   0.381   4.162
 1664SOL    HW2 5892   1.869   0.255   4.067
 1665SOL     OW 5893   7.016   1.550   2.839
 1665SOL    HW1 5894   6.979   1.477   2.782
 1665SOL    HW2 5895   7.011   1.522   2.935
 1666SOL     OW 5896   5.962   3.091   6.761
 1666SOL    HW1 5897   6.012   3.139   6.688
 1666SOL    HW2 5898   5.865   3.086   6.737
 1667SOL     OW 5899   6.066   6.884   0.291
 1667SOL    HW1 5900   6.162   6.857   0.291
 1667SOL    HW2 5901   6.024   6.854   0.205
 1668SOL     OW 5902   4.794   6.782   4.722
 1668SOL    HW1 5903   4.744   6.734   4.794
 1668SOL    HW2 5904   4.799   6.880   4.744
 1669SOL     OW 5905   5.396   5.944   0.139
 1669SOL    HW1 5906   5.476   5.952   0.199
 1669SOL    HW2 5907   5.403   6.009   0.064
 1670SOL     OW 5908   6.549   5.575   5.926
 1670SOL    HW1 5909   6.487   5.583   6.004
 1670SOL    HW2 5910   6.590   5.483   5.925
 1671SOL     OW 5911   4.376   2.882   0.956
 1671SOL    HW1 5912   4.324   2.813   1.005
 1671SOL    HW2 5913   4.389   2.853   0.861
 1672SOL     OW 5914   2.018   4.542   2.728
 1672SOL    HW1 5915   2.111   4.565   2.698
 1672SOL    HW2 5916   1.990   4.456   2.686
 1673SOL     OW 5917   6.458   3.018   5.153
 1673SOL    HW1 5918   6.430   2.992   5.060
 1673SOL    HW2 5919   6.558   3.017   5.159
 1674SOL     OW 5920   1.380   4.325   0.993
 1674SOL    HW1 5921   1.475   4.295   0.989
 1674SOL    HW2 5922   1.357   4.351   1.087
 1675SOL     OW 5923   4.305   0.656   6.309
 1675SOL    HW1 5924   4.343   0.654   6.216
 1675SOL    HW2 5925   4.287   0.563   6.340
 1676SOL     OW 5926   2.209   1.499   2.173
 1676SOL    HW1 5927   2.289   1.441   2.186
 1676SOL    HW2 5928   2.126   1.443   2.181
 1677SOL     OW 5929   5.875   2.145   5.563
 1677SOL    HW1 5930   5.786   2.176   5.595
 1677SOL    HW2 5931   5.884   2.046   5.578
 1678SOL     OW 5932   5.377   5.504   3.240
 1678SOL    HW1 5933   5.366   5.421   3.185
 1678SOL    HW2 5934   5.472   5.535   3.236
 1679SOL     OW 5935   1.795   3.761   5.448
 1679SOL    HW1 5936   1.742   3.691   5.496
 1679SOL    HW2 5937   1.882   3.723   5.417
 1680SOL     OW 5938   0.935   1.571   3.937
 1680SOL    HW1 5939   0.911   1.522   4.021
 1680SOL    HW2 5940   0.911   1.515   3.858
 1681SOL     OW 5941   6.276   5.144   1.151
 1681SOL    HW1 5942   6.366   5.110   1.123
 1681SOL    HW2 5943   6.258   5.115   1.246
 1682SOL     OW 5944   0.295   3.203   4.863
 1682SOL    HW1 5945   0.352   3.131   4.902
 1682SOL    HW2 5946   0.292   3.194   4.764
 1683SOL     OW 5947   4.051   5.036   0.905
 1683SOL    HW1 5948   3.960   5.008   0.873
 1683SOL    HW2 5949   4.070   5.130   0.875
 1684SOL     OW 5950   0.694   6.524   4.940
 1684SOL    HW1 5951   0.705   6.434   4.897
 1684SOL    HW2 5952   0.767   6.538   5.007
 1685SOL     OW 5953   1.950   1.266   6.450
 1685SOL    HW1 5954   1.911   1.280   6.541
 1685SOL    HW2 5955   1.937   1.348   6.395
 1686SOL     OW 5956   1.419   5.570   5.624
 1686SOL    HW1 5957   1.517   5.553   5.612
 1686SOL    HW2 5958   1.402   5.607   5.716
 1687SOL     OW 5959   1.856   4.055   1.965
 1687SOL    HW1 5960   1.956   4.057   1.971
 1687SOL    HW2 5961   1.818   4.029   2.054
 1688SOL     OW 5962   1.424   1.751   3.066
 1688SOL    HW1 5963   1.384   1.691   2.997
 1688SOL    HW2 5964   1.385   1.730   3.156
 1689SOL     OW 5965   3.409   2.061   2.123
 1689SOL    HW1 5966   3.501   2.085   2.154
 1689SOL    HW2 5967   3.405   2.063   2.023
 1690SOL     OW 5968   1.675   1.960   2.812
 1690SOL    HW1 5969   1.764   1.990   2.779
 1690SOL    HW2 5970   1.665   1.861   2.797
 1691SOL     OW 5971   5.526   3.937   3.157
 1691SOL    HW1 5972   5.604   3.996   3.182
 1691SOL    HW2 5973   5.498   3.957   3.063
 1692SOL     OW 5974   6.865   0.217   1.317
 1692SOL    HW1 5975   6.817   0.234   1.403
 1692SOL    HW2 5976   6.919   0.133   1.326
 1693SOL     OW 5977   1.861   2.491   3.955
 1693SOL    HW1 5978   1.807   2.474   3.873
 1693SOL    HW2 5979   1.940   2.548   3.932
 1694SOL     OW 5980   4.215   6.112   4.646
 1694SOL    HW1 5981   4.125   6.104   4.687
 1694SOL    HW2 5982   4.285   6.112   4.718
 1695SOL     OW 5983   1.964   2.085   5.355
 1695SOL    HW1 5984   1.895   2.065   5.286
 1695SOL    HW2 5985   1.980   2.183   5.360
 1696SOL     OW 5986   4.977   5.423   0.105
 1696SOL    HW1 5987   5.002   5.329   0.129
 1696SOL    HW2 5988   5.038   5.487   0.153
 1697SOL     OW 5989   0.790   6.748   1.036
 1697SOL    HW1 5990   0.826   6.726   1.126
 1697SOL    HW2 5991   0.846   6.704   0.966
 1698SOL     OW 5992   4.843   1.851   1.158
 1698SOL    HW1 5993   4.867   1.754   1.156
 1698SOL    HW2 5994   4.821   1.883   1.066
 1699SOL     OW 5995   2.605   2.539   1.101
 1699SOL    HW1 5996   2.563   2.473   1.039
 1699SOL    HW2 5997   2.699   2.511   1.120
 1700SOL     OW 5998   6.594   2.457   3.461
 1700SOL    HW1 5999   6.576   2.370   3.505
 1700SOL    HW2 6000   6.661   2.445   3.387
 1701SOL     OW 6001   5.729   2.475   5.049
 1701SOL    HW1 6002   5.648   2.427   5.082
 1701SOL    HW2 6003   5.759   2.434   4.963
 1702SOL     OW 6004   6.549   3.603   1.559
 1702SOL    HW1 6005   6.503   3.670   1.616
 1702SOL    HW2 6006   6.632   3.571   1.605
 1703SOL     OW 6007   2.909   3.892   1.768
 1703SOL    HW1 6008   2.963   3.868   1.849
 1703SOL    HW2 6009   2.887   3.990   1.770
 1704SOL     OW 6010   0.779   1.350   0.610
 1704SOL    HW1 6011   0.821   1.296   0.537
 1704SOL    HW2 6012   0.827   1.333   0.696
 1705SOL     OW 6013   3.644   2.209   1.354
 1705SOL    HW1 6014   3.612   2.303   1.348
 1705SOL    HW2 6015   3.566   2.146   1.348
 1706SOL     OW 6016   4.225   0.344   1.246
 1706SOL    HW1 6017   4.192   0.439   1.252
 1706SOL    HW2 6018   4.284   0.324   1.323
 1707SOL     OW 6019   4.456   1.672   2.382
 1707SOL    HW1 6020   4.410   1.732   2.448
 1707SOL    HW2 6021   4.481   1.724   2.301
 1708SOL     OW 6022   6.741   6.169   3.058
 1708SOL    HW1 6023   6.731   6.085   3.006
 1708SOL    HW2 6024   6.761   6.245   2.996
 1709SOL     OW 6025   2.316   6.893   2.623
 1709SOL    HW1 6026   2.405   6.932   2.602
 1709SOL    HW2 6027   2.248   6.966   2.627
 1710SOL     OW 6028   0.275   3.993   3.549
 1710SOL    HW1 6029   0.332   3.967   3.627
 1710SOL    HW2 6030   0.324   3.971   3.464
 1711SOL     OW 6031   1.346   4.497   5.143
 1711SOL    HW1 6032   1.278   4.562   5.175
 1711SOL    HW2 6033   1.389   4.532   5.060
 1712SOL     OW 6034   0.742   4.304   0.029
 1712SOL    HW1 6035   0.819   4.322   6.995
 1712SOL    HW2 6036   0.773   4.307   0.124
 1713SOL     OW 6037   2.009   2.628   1.351
 1713SOL    HW1 6038   1.962   2.586   1.429
 1713SOL    HW2 6039   2.000   2.727   1.356
 1714SOL     OW 6040   3.714   2.036   7.011
 1714SOL    HW1 6041   3.654   1.963   0.015
 1714SOL    HW2 6042   3.704   2.116   0.043
 1715SOL     OW 6043   6.966   2.931   3.697
 1715SOL    HW1 6044   6.898   2.870   3.657
 1715SOL    HW2 6045   0.023   2.880   3.715
 1716SOL     OW 6046   5.983   0.125   1.272
 1716SOL    HW1 6047   5.900   0.177   1.287
 1716SOL    HW2 6048   6.062   0.186   1.278
 1717SOL     OW 6049   2.264   6.012   6.896
 1717SOL    HW1 6050   2.223   5.935   6.846
 1717SOL    HW2 6051   2.339   5.978   6.954
 1718SOL     OW 6052   2.212   3.297   0.296
 1718SOL    HW1 6053   2.129   3.267   0.343
 1718SOL    HW2 6054   2.213   3.261   0.203
 1719SOL     OW 6055   2.091   3.309   1.437
 1719SOL    HW1 6056   2.142   3.263   1.365
 1719SOL    HW2 6057   2.154   3.356   1.498
 1720SOL     OW 6058   6.574   1.962   1.027
 1720SOL    HW1 6059   6.538   2.055   1.035
 1720SOL    HW2 6060   6.521   1.912   0.958
 1721SOL     OW 6061   1.389   6.400   2.825
 1721SOL    HW1 6062   1.466   6.464   2.832
 1721SOL    HW2 6063   1.361   6.392   2.729
 1722SOL     OW 6064   5.841   0.132   2.723
 1722SOL    HW1 6065   5.749   0.110   2.690
 1722SOL    HW2 6066   5.844   0.228   2.752
 1723SOL     OW 6067   6.354   2.681   3.111
 1723SOL    HW1 6068   6.322   2.775   3.098
 1723SOL    HW2 6069   6.375   2.666   3.208
 1724SOL     OW 6070   5.865   0.826   0.177
 1724SOL    HW1 6071   5.917   0.900   0.220
 1724SOL    HW2 6072   5.769   0.833   0.203
 1725SOL     OW 6073   3.530   4.351   0.163
 1725SOL    HW1 6074   3.608   4.297   0.132
 1725SOL    HW2 6075   3.460   4.353   0.091
 1726SOL     OW 6076   6.835   4.539   4.925
 1726SOL    HW1 6077   6.806   4.586   4.841
 1726SOL    HW2 6078   6.794   4.585   5.004
 1727SOL     OW 6079   4.002   3.755   4.648
 1727SOL    HW1 6080   3.941   3.682   4.617
 1727SOL    HW2 6081   4.072   3.771   4.578
 1728SOL     OW 6082   4.857   4.576   4.450
 1728SOL    HW1 6083   4.950   4.562   4.417
 1728SOL    HW2 6084   4.792   4.547   4.380
 1729SOL     OW 6085   1.693   4.085   3.037
 1729SOL    HW1 6086   1.732   4.084   3.129
 1729SOL    HW2 6087   1.751   4.139   2.977
 1730SOL     OW 6088   6.688   1.260   4.827
 1730SOL    HW1 6089   6.663   1.271   4.731
 1730SOL    HW2 6090   6.783   1.288   4.841
 1731SOL     OW 6091   2.011   5.000   2.048
 1731SOL    HW1 6092   2.002   4.926   1.981
 1731SOL    HW2 6093   1.971   5.084   2.010
 1732SOL     OW 6094   2.258   4.644   0.043
 1732SOL    HW1 6095   2.303   4.579   7.009
 1732SOL    HW2 6096   2.271   4.616   0.138
 1733SOL     OW 6097   1.370   3.592   2.244
 1733SOL    HW1 6098   1.435   3.544   2.303
 1733SOL    HW2 6099   1.396   3.579   2.149
 1734SOL     OW 6100   4.629   2.889   1.090
 1734SOL    HW1 6101   4.721   2.904   1.053
 1734SOL    HW2 6102   4.562   2.898   1.017
 1735SOL     OW 6103   5.874   5.971   1.461
 1735SOL    HW1 6104   5.893   5.903   1.532
 1735SOL    HW2 6105   5.854   5.925   1.375
 1736SOL     OW 6106   4.997   2.699   6.904
 1736SOL    HW1 6107   4.988   2.779   6.844
 1736SOL    HW2 6108   4.938   2.626   6.870
 1737SOL     OW 6109   2.269   7.000   3.541
 1737SOL    HW1 6110   2.362   6.974   3.566
 1737SOL    HW2 6111   2.250   6.973   3.447
 1738SOL     OW 6112   1.882   2.876   3.420
 1738SOL    HW1 6113   1.931   2.807   3.366
 1738SOL    HW2 6114   1.794   2.839   3.450
 1739SOL     OW 6115   4.435   2.303   4.953
 1739SOL    HW1 6116   4.454   2.396   4.922
 1739SOL    HW2 6117   4.357   2.304   5.015
 1740SOL     OW 6118   6.831   1.084   6.513
 1740SOL    HW1 6119   6.808   1.150   6.585
 1740SOL    HW2 6120   6.930   1.081   6.501
 1741SOL     OW 6121   1.968   0.881   2.821
 1741SOL    HW1 6122   2.001   0.787   2.813
 1741SOL    HW2 6123   1.923   0.893   2.910
 1742SOL     OW 6124   4.813   6.699   6.168
 1742SOL    HW1 6125   4.856   6.785   6.137
 1742SOL    HW2 6126   4.744   6.671   6.101
 1743SOL     OW 6127   1.711   1.034   1.917
 1743SOL    HW1 6128   1.714   1.133   1.906
 1743SOL    HW2 6129   1.635   1.009   1.977
 1744SOL     OW 6130   2.062   0.512   1.721
 1744SOL    HW1 6131   2.091   0.587   1.780
 1744SOL    HW2 6132   1.990   0.543   1.659
 1745SOL     OW 6133   6.742   1.740   4.037
 1745SOL    HW1 6134   6.835   1.718   4.008
 1745SOL    HW2 6135   6.685   1.755   3.956
 1746SOL     OW 6136   2.715   6.162   6.157
 1746SOL    HW1 6137   2.810   6.132   6.146
 1746SOL    HW2 6138   2.713   6.257   6.189
 1747SOL     OW 6139   5.162   6.843   1.856
 1747SOL    HW1 6140   5.211   6.825   1.771
 1747SOL    HW2 6141   5.191   6.931   1.894
 1748SOL     OW 6142   6.285   1.718   3.907
 1748SOL    HW1 6143   6.251   1.647   3.845
 1748SOL    HW2 6144   6.216   1.790   3.916
 1749SOL     OW 6145   3.784   6.668   6.052
 1749SOL    HW1 6146   3.813   6.575   6.073
 1749SOL    HW2 6147   3.721   6.667   5.974
 1750SOL     OW 6148   5.249   1.235   2.883
 1750SOL    HW1 6149   5.326   1.250   2.945
 1750SOL    HW2 6150   5.184   1.172   2.924
 1751SOL     OW 6151   2.751   4.689   4.596
 1751SOL    HW1 6152   2.796   4.616   4.648
 1751SOL    HW2 6153   2.677   4.650   4.542
 1752SOL     OW 6154   6.596   2.298   0.712
 1752SOL    HW1 6155   6.652   2.236   0.656
 1752SOL    HW2 6156   6.647   2.326   0.792
 1753SOL     OW 6157   0.423   0.389   6.974
 1753SOL    HW1 6158   0.403   0.357   6.882
 1753SOL    HW2 6159   0.466   0.316   7.027
 1754SOL     OW 6160   3.567   3.645   0.855
 1754SOL    HW1 6161   3.497   3.671   0.922
 1754SOL    HW2 6162   3.548   3.691   0.768
 1755SOL     OW 6163   5.313   4.615   1.561
 1755SOL    HW1 6164   5.247   4.631   1.634
 1755SOL    HW2 6165   5.294   4.677   1.485
 1756SOL     OW 6166   6.053   5.023   4.807
 1756SOL    HW1 6167   5.977   5.064   4.757
 1756SOL    HW2 6168   6.019   4.948   4.863
 1757SOL     OW 6169   2.069   6.537   5.006
 1757SOL    HW1 6170   2.016   6.569   5.085
 1757SOL    HW2 6171   2.114   6.614   4.963
 1758SOL     OW 6172   2.914   1.197   3.360
 1758SOL    HW1 6173   2.983   1.144   3.410
 1758SOL    HW2 6174   2.960   1.256   3.293
 1759SOL     OW 6175   0.575   4.727   6.378
 1759SOL    HW1 6176   0.673   4.734   6.393
 1759SOL    HW2 6177   0.537   4.818   6.362
 1760SOL     OW 6178   6.190   1.711   1.461
 1760SOL    HW1 6179   6.106   1.765   1.473
 1760SOL    HW2 6180   6.260   1.768   1.417
 1761SOL     OW 6181   6.605   0.591   0.737
 1761SOL    HW1 6182   6.507   0.573   0.730
 1761SOL    HW2 6183   6.656   0.511   0.704
 1762SOL     OW 6184   6.283   1.931   5.426
 1762SOL    HW1 6185   6.270   2.005   5.493
 1762SOL    HW2 6186   6.324   1.968   5.343
 1763SOL     OW 6187   2.017   3.937   4.489
 1763SOL    HW1 6188   2.045   3.977   4.402
 1763SOL    HW2 6189   1.953   3.998   4.535
 1764SOL     OW 6190   1.899   3.933   2.483
 1764SOL    HW1 6191   1.931   4.021   2.448
 1764SOL    HW2 6192   1.978   3.877   2.508
 1765SOL     OW 6193   3.120   1.257   6.913
 1765SOL    HW1 6194   3.020   1.264   6.913
 1765SOL    HW2 6195   3.159   1.342   6.877
 1766SOL     OW 6196   5.565   2.525   4.654
 1766SOL    HW1 6197   5.485   2.468   4.634
 1766SOL    HW2 6198   5.633   2.472   4.705
 1767SOL     OW 6199   5.143   4.039   2.741
 1767SOL    HW1 6200   5.217   4.082   2.689
 1767SOL    HW2 6201   5.179   3.959   2.789
 1768SOL     OW 6202   4.442   0.078   4.772
 1768SOL    HW1 6203   4.506   0.069   4.695
 1768SOL    HW2 6204   4.353   0.110   4.739
 1769SOL     OW 6205   4.042   2.152   4.311
 1769SOL    HW1 6206   4.124   2.128   4.362
 1769SOL    HW2 6207   4.068   2.199   4.226
 1770SOL     OW 6208   1.518   5.703   4.517
 1770SOL    HW1 6209   1.526   5.793   4.560
 1770SOL    HW2 6210   1.437   5.701   4.459
 1771SOL     OW 6211   2.560   5.892   6.807
 1771SOL    HW1 6212   2.532   5.929   6.718
 1771SOL    HW2 6213   2.596   5.967   6.864
 1772SOL     OW 6214   3.640   0.467   4.042
 1772SOL    HW1 6215   3.740   0.468   4.054
 1772SOL    HW2 6216   3.618   0.480   3.946
 1773SOL     OW 6217   2.673   5.290   5.593
 1773SOL    HW1 6218   2.580   5.276   5.560
 1773SOL    HW2 6219   2.671   5.351   5.672
 1774SOL     OW 6220   4.476   5.721   1.779
 1774SOL    HW1 6221   4.569   5.686   1.791
 1774SOL    HW2 6222   4.472   5.779   1.698
 1775SOL     OW 6223   1.429   3.833   3.172
 1775SOL    HW1 6224   1.342   3.783   3.165
 1775SOL    HW2 6225   1.412   3.930   3.156
 1776SOL     OW 6226   3.739   6.163   4.540
 1776SOL    HW1 6227   3.737   6.076   4.492
 1776SOL    HW2 6228   3.810   6.222   4.501
 1777SOL     OW 6229   3.859   5.645   6.533
 1777SOL    HW1 6230   3.882   5.575   6.465
 1777SOL    HW2 6231   3.805   5.717   6.489
 1778SOL     OW 6232   4.349   3.629   5.788
 1778SOL    HW1 6233   4.413   3.668   5.722
 1778SOL    HW2 6234   4.330   3.534   5.765
 1779SOL     OW 6235   4.583   0.396   4.809
 1779SOL    HW1 6236   4.610   0.314   4.760
 1779SOL    HW2 6237   4.627   0.397   4.899
 1780SOL     OW 6238   3.701   3.088   6.919
 1780SOL    HW1 6239   3.774   3.024   6.942
 1780SOL    HW2 6240   3.615   3.055   6.958
 1781SOL     OW 6241   3.931   6.138   2.589
 1781SOL    HW1 6242   4.021   6.166   2.624
 1781SOL    HW2 6243   3.915   6.182   2.501
 1782SOL     OW 6244   2.964   1.522   2.975
 1782SOL    HW1 6245   2.986   1.463   2.898
 1782SOL    HW2 6246   2.889   1.583   2.950
 1783SOL     OW 6247   1.853   5.976   6.042
 1783SOL    HW1 6248   1.850   6.042   5.967
 1783SOL    HW2 6249   1.948   5.960   6.070
 1784SOL     OW 6250   3.934   1.378   6.228
 1784SOL    HW1 6251   4.016   1.425   6.260
 1784SOL    HW2 6252   3.893   1.326   6.303
 1785SOL     OW 6253   6.530   4.053   3.042
 1785SOL    HW1 6254   6.504   3.988   3.113
 1785SOL    HW2 6255   6.576   4.004   2.968
 1786SOL     OW 6256   2.274   2.920   0.104
 1786SOL    HW1 6257   2.263   3.012   0.065
 1786SOL    HW2 6258   2.194   2.897   0.159
 1787SOL     OW 6259   2.649   1.263   5.190
 1787SOL    HW1 6260   2.571   1.203   5.179
 1787SOL    HW2 6261   2.640   1.314   5.276
 1788SOL     OW 6262   2.938   3.595   6.736
 1788SOL    HW1 6263   2.856   3.569   6.684
 1788SOL    HW2 6264   2.979   3.513   6.776
 1789SOL     OW 6265   5.661   1.692   2.349
 1789SOL    HW1 6266   5.582   1.750   2.370
 1789SOL    HW2 6267   5.743   1.731   2.391
 1790SOL     OW 6268   4.111   6.566   3.909
 1790SOL    HW1 6269   4.015   6.587   3.890
 1790SOL    HW2 6270   4.155   6.646   3.949
 1791SOL     OW 6271   6.193   0.412   3.428
 1791SOL    HW1 6272   6.174   0.321   3.465
 1791SOL    HW2 6273   6.241   0.404   3.341
 1792SOL     OW 6274   6.140   3.354   5.437
 1792SOL    HW1 6275   6.178   3.401   5.517
 1792SOL    HW2 6276   6.215   3.324   5.377
 1793SOL     OW 6277   6.157   6.881   3.830
 1793SOL    HW1 6278   6.237   6.860   3.884
 1793SOL    HW2 6279   6.134   6.802   3.773
 1794SOL     OW 6280   5.031   6.401   5.624
 1794SOL    HW1 6281   5.023   6.311   5.666
 1794SOL    HW2 6282   4.942   6.428   5.587
 1795SOL     OW 6283   1.019   2.272   1.331
 1795SOL    HW1 6284   1.043   2.352   1.275
 1795SOL    HW2 6285   1.090   2.202   1.321
 1796SOL     OW 6286   2.654   0.894   5.297
 1796SOL    HW1 6287   2.585   0.942   5.352
 1796SOL    HW2 6288   2.639   0.916   5.200
 1797SOL     OW 6289   1.266   7.018   0.618
 1797SOL    HW1 6290   1.271   0.090   0.616
 1797SOL    HW2 6291   1.296   6.985   0.708
 1798SOL     OW 6292   4.693   2.282   3.697
 1798SOL    HW1 6293   4.777   2.325   3.730
 1798SOL    HW2 6294   4.615   2.339   3.720
 1799SOL     OW 6295   6.864   2.797   5.395
 1799SOL    HW1 6296   6.893   2.712   5.441
 1799SOL    HW2 6297   6.944   2.854   5.378
 1800SOL     OW 6298   3.972   4.509   1.701
 1800SOL    HW1 6299   3.893   4.449   1.690
 1800SOL    HW2 6300   3.949   4.586   1.759
 1801SOL     OW 6301   0.328   6.949   1.789
 1801SOL    HW1 6302   0.330   0.012   1.833
 1801SOL    HW2 6303   0.353   6.959   1.693
 1802SOL     OW 6304   5.143   5.295   4.168
 1802SOL    HW1 6305   5.235   5.262   4.190
 1802SOL    HW2 6306   5.092   5.313   4.253
 1803SOL     OW 6307   0.135   5.519   6.265
 1803SOL    HW1 6308   0.058   5.455   6.268
 1803SOL    HW2 6309   0.135   5.567   6.177
 1804SOL     OW 6310   2.460   3.715   5.435
 1804SOL    HW1 6311   2.486   3.752   5.524
 1804SOL    HW2 6312   2.519   3.754   5.364
 1805SOL     OW 6313   5.741   4.193   6.301
 1805SOL    HW1 6314   5.673   4.205   6.374
 1805SOL    HW2 6315   5.705   4.129   6.233
 1806SOL     OW 6316   0.367   0.037   6.815
 1806SOL    HW1 6317   0.305   0.042   6.893
 1806SOL    HW2 6318   0.421   0.121   6.809
 1807SOL     OW 6319   5.129   2.961   4.621
 1807SOL    HW1 6320   5.056   2.896   4.645
 1807SOL    HW2 6321   5.217   2.914   4.625
 1808SOL     OW 6322   0.407   4.307   5.499
 1808SOL    HW1 6323   0.467   4.361   5.557
 1808SOL    HW2 6324   0.313   4.341   5.506
 1809SOL     OW 6325   1.847   2.428   5.031
 1809SOL    HW1 6326   1.920   2.483   5.071
 1809SOL    HW2 6327   1.779   2.488   4.989
 1810SOL     OW 6328   2.844   6.764   3.758
 1810SOL    HW1 6329   2.863   6.863   3.755
 1810SOL    HW2 6330   2.821   6.732   3.666
 1811SOL     OW 6331   5.761   5.950   3.167
 1811SOL    HW1 6332   5.682   5.904   3.124
 1811SOL    HW2 6333   5.748   5.953   3.266
 1812SOL     OW 6334   4.253   5.955   4.861
 1812SOL    HW1 6335   4.296   6.038   4.896
 1812SOL    HW2 6336   4.158   5.952   4.890
 1813SOL     OW 6337   6.077   4.047   0.492
 1813SOL    HW1 6338   6.125   4.072   0.576
 1813SOL    HW2 6339   6.022   3.965   0.508
 1814SOL     OW 6340   5.475   6.944   2.131
 1814SOL    HW1 6341   5.499   6.860   2.179
 1814SOL    HW2 6342   5.376   6.948   2.117
 1815SOL     OW 6343   0.796   1.861   2.625
 1815SOL    HW1 6344   0.781   1.779   2.680
 1815SOL    HW2 6345   0.772   1.942   2.677
 1816SOL     OW 6346   2.833   3.422   1.164
 1816SOL    HW1 6347   2.889   3.458   1.089
 1816SOL    HW2 6348   2.818   3.324   1.151
 1817SOL     OW 6349   2.547   6.680   2.536
 1817SOL    HW1 6350   2.519   6.701   2.442
 1817SOL    HW2 6351   2.641   6.646   2.536
 1818SOL     OW 6352   1.200   0.005   3.286
 1818SOL    HW1 6353   1.263   0.056   3.344
 1818SOL    HW2 6354   1.232   0.010   3.191
 1819SOL     OW 6355   1.091   4.186   2.006
 1819SOL    HW1 6356   1.024   4.257   2.025
 1819SOL    HW2 6357   1.109   4.181   1.907
 1820SOL     OW 6358   3.683   1.120   2.796
 1820SOL    HW1 6359   3.741   1.199   2.818
 1820SOL    HW2 6360   3.741   1.042   2.774
 1821SOL     OW 6361   0.500   1.395   2.467
 1821SOL    HW1 6362   0.511   1.455   2.547
 1821SOL    HW2 6363   0.510   1.449   2.383
 1822SOL     OW 6364   3.226   2.273   1.176
 1822SOL    HW1 6365   3.136   2.229   1.184
 1822SOL    HW2 6366   3.236   2.343   1.246
 1823SOL     OW 6367   3.821   5.920   3.499
 1823SOL    HW1 6368   3.891   5.849   3.499
 1823SOL    HW2 6369   3.858   6.004   3.459
 1824SOL     OW 6370   3.963   2.288   0.922
 1824SOL    HW1 6371   3.895   2.350   0.962
 1824SOL    HW2 6372   4.043   2.284   0.982
 1825SOL     OW 6373   1.486   0.283   2.277
 1825SOL    HW1 6374   1.557   0.266   2.345
 1825SOL    HW2 6375   1.451   0.376   2.286
 1826SOL     OW 6376   3.170   1.233   1.336
 1826SOL    HW1 6377   3.237   1.189   1.277
 1826SOL    HW2 6378   3.156   1.327   1.306
 1827SOL     OW 6379   0.599   4.986   2.316
 1827SOL    HW1 6380   0.608   4.924   2.238
 1827SOL    HW2 6381   0.671   5.055   2.313
 1828SOL     OW 6382   0.376   2.221   6.825
 1828SOL    HW1 6383   0.384   2.166   6.741
 1828SOL    HW2 6384   0.288   2.268   6.825
 1829SOL     OW 6385   4.652   0.222   3.310
 1829SOL    HW1 6386   4.627   0.266   3.396
 1829SOL    HW2 6387   4.697   0.134   3.330
 1830SOL     OW 6388   5.356   5.841   3.764
 1830SOL    HW1 6389   5.414   5.858   3.684
 1830SOL    HW2 6390   5.393   5.764   3.816
 1831SOL     OW 6391   5.810   6.427   2.688
 1831SOL    HW1 6392   5.806   6.518   2.727
 1831SOL    HW2 6393   5.740   6.369   2.731
 1832SOL     OW 6394   5.249   2.081   0.840
 1832SOL    HW1 6395   5.208   2.164   0.803
 1832SOL    HW2 6396   5.248   2.085   0.940
 1833SOL     OW 6397   5.533   0.877   4.676
 1833SOL    HW1 6398   5.598   0.923   4.737
 1833SOL    HW2 6399   5.550   0.904   4.582
 1834SOL     OW 6400   2.937   4.104   0.209
 1834SOL    HW1 6401   2.944   4.203   0.191
 1834SOL    HW2 6402   2.951   4.087   0.307
 1835SOL     OW 6403   1.211   4.664   1.706
 1835SOL    HW1 6404   1.226   4.695   1.612
 1835SOL    HW2 6405   1.115   4.640   1.718
 1836SOL     OW 6406   6.856   2.057   1.309
 1836SOL    HW1 6407   6.892   2.122   1.376
 1836SOL    HW2 6408   6.930   1.996   1.279
 1837SOL     OW 6409   0.599   2.015   3.782
 1837SOL    HW1 6410   0.683   1.961   3.776
 1837SOL    HW2 6411   0.612   2.102   3.734
 1838SOL     OW 6412   0.305   1.645   3.438
 1838SOL    HW1 6413   0.291   1.554   3.399
 1838SOL    HW2 6414   0.230   1.705   3.410
 1839SOL     OW 6415   4.679   2.542   5.071
 1839SOL    HW1 6416   4.641   2.486   5.145
 1839SOL    HW2 6417   4.607   2.565   5.006
 1840SOL     OW 6418   3.275   6.141   1.594
 1840SOL    HW1 6419   3.372   6.132   1.571
 1840SOL    HW2 6420   3.265   6.167   1.690
 1841SOL     OW 6421   1.842   3.727   4.808
 1841SOL    HW1 6422   1.782   3.722   4.728
 1841SOL    HW2 6423   1.816   3.656   4.873
 1842SOL     OW 6424   0.529   5.580   0.617
 1842SOL    HW1 6425   0.572   5.612   0.533
 1842SOL    HW2 6426   0.472   5.652   0.656
 1843SOL     OW 6427   2.065   2.667   4.270
 1843SOL    HW1 6428   2.142   2.706   4.320
 1843SOL    HW2 6429   1.980   2.686   4.319
 1844SOL     OW 6430   3.550   1.455   5.178
 1844SOL    HW1 6431   3.597   1.531   5.132
 1844SOL    HW2 6432   3.451   1.469   5.173
 1845SOL     OW 6433   2.252   0.380   6.549
 1845SOL    HW1 6434   2.290   0.354   6.637
 1845SOL    HW2 6435   2.321   0.372   6.478
 1846SOL     OW 6436   4.049   1.920   6.789
 1846SOL    HW1 6437   4.021   1.864   6.867
 1846SOL    HW2 6438   4.009   1.883   6.705
 1847SOL     OW 6439   1.728   0.724   6.415
 1847SOL    HW1 6440   1.689   0.734   6.506
 1847SOL    HW2 6441   1.708   0.806   6.361
 1848SOL     OW 6442   1.856   6.088   2.688
 1848SOL    HW1 6443   1.936   6.103   2.632
 1848SOL    HW2 6444   1.776   6.131   2.645
 1849SOL     OW 6445   4.016   1.074   0.396
 1849SOL    HW1 6446   3.952   1.052   0.470
 1849SOL    HW2 6447   3.985   1.030   0.311
 1850SOL     OW 6448   6.245   1.660   2.812
 1850SOL    HW1 6449   6.189   1.580   2.836
 1850SOL    HW2 6450   6.191   1.725   2.759
 1851SOL     OW 6451   0.459   1.274   1.008
 1851SOL    HW1 6452   0.448   1.259   0.910
 1851SOL    HW2 6453   0.535   1.218   1.042
 1852SOL     OW 6454   4.638   3.731   1.099
 1852SOL    HW1 6455   4.614   3.705   1.192
 1852SOL    HW2 6456   4.555   3.736   1.043
 1853SOL     OW 6457   0.824   3.620   1.869
 1853SOL    HW1 6458   0.853   3.710   1.834
 1853SOL    HW2 6459   0.725   3.610   1.857
 1854SOL     OW 6460   2.942   5.872   4.186
 1854SOL    HW1 6461   2.847   5.881   4.218
 1854SOL    HW2 6462   2.953   5.785   4.139
 1855SOL     OW 6463   4.610   4.633   0.234
 1855SOL    HW1 6464   4.687   4.672   0.284
 1855SOL    HW2 6465   4.537   4.702   0.226
 1856SOL     OW 6466   6.124   3.203   5.723
 1856SOL    HW1 6467   6.143   3.285   5.778
 1856SOL    HW2 6468   6.068   3.140   5.776
 1857SOL     OW 6469   3.895   1.052   5.411
 1857SOL    HW1 6470   3.883   1.108   5.493
 1857SOL    HW2 6471   3.991   1.050   5.385
 1858SOL     OW 6472   5.835   2.869   3.506
 1858SOL    HW1 6473   5.930   2.873   3.537
 1858SOL    HW2 6474   5.786   2.797   3.555
 1859SOL     OW 6475   4.125   1.667   3.740
 1859SOL    HW1 6476   4.105   1.673   3.642
 1859SOL    HW2 6477   4.066   1.598   3.781
 1860SOL     OW 6478   6.813   1.086   3.386
 1860SOL    HW1 6479   6.728   1.138   3.376
 1860SOL    HW2 6480   6.793   0.998   3.428
 1861SOL     OW 6481   4.783   6.454   2.020
 1861SOL    HW1 6482   4.787   6.549   2.053
 1861SOL    HW2 6483   4.840   6.396   2.079
 1862SOL     OW 6484   2.176   6.843   0.066
 1862SOL    HW1 6485   2.180   6.806   0.158
 1862SOL    HW2 6486   2.134   6.776   0.005
 1863SOL     OW 6487   2.686   2.586   0.586
 1863SOL    HW1 6488   2.703   2.628   0.675
 1863SOL    HW2 6489   2.589   2.559   0.580
 1864SOL     OW 6490   0.978   0.257   5.645
 1864SOL    HW1 6491   0.979   0.346   5.691
 1864SOL    HW2 6492   0.918   0.261   5.565
 1865SOL     OW 6493   3.870   0.590   5.366
 1865SOL    HW1 6494   3.815   0.673   5.352
 1865SOL    HW2 6495   3.832   0.516   5.310
 1866SOL     OW 6496   4.536   4.516   2.383
 1866SOL    HW1 6497   4.594   4.441   2.413
 1866SOL    HW2 6498   4.495   4.493   2.295
 1867SOL     OW 6499   0.788   3.708   0.416
 1867SOL    HW1 6500   0.739   3.767   0.481
 1867SOL    HW2 6501   0.871   3.674   0.458
 1868SOL     OW 6502   5.419   4.848   0.066
 1868SOL    HW1 6503   5.399   4.862   6.997
 1868SOL    HW2 6504   5.386   4.927   0.119
 1869SOL     OW 6505   6.305   2.272   4.984
 1869SOL    HW1 6506   6.213   2.297   5.015
 1869SOL    HW2 6507   6.356   2.230   5.059
 1870SOL     OW 6508   1.923   4.469   5.506
 1870SOL    HW1 6509   2.019   4.467   5.480
 1870SOL    HW2 6510   1.906   4.546   5.567
 1871SOL     OW 6511   1.062   6.817   0.605
 1871SOL    HW1 6512   0.995   6.800   0.677
 1871SOL    HW2 6513   1.075   6.916   0.595
 1872SOL     OW 6514   3.530   4.233   6.827
 1872SOL    HW1 6515   3.557   4.231   6.731
 1872SOL    HW2 6516   3.606   4.204   6.884
 1873SOL     OW 6517   4.581   1.290   5.361
 1873SOL    HW1 6518   4.657   1.263   5.302
 1873SOL    HW2 6519   4.498   1.242   5.332
 1874SOL     OW 6520   2.660   1.432   1.404
 1874SOL    HW1 6521   2.572   1.463   1.369
 1874SOL    HW2 6522   2.722   1.510   1.414
 1875SOL     OW 6523   0.989   0.725   6.726
 1875SOL    HW1 6524   1.004   0.684   6.816
 1875SOL    HW2 6525   0.949   0.816   6.737
 1876SOL     OW 6526   3.475   0.330   5.648
 1876SOL    HW1 6527   3.427   0.333   5.735
 1876SOL    HW2 6528   3.550   0.396   5.648
 1877SOL     OW 6529   0.409   0.542   3.352
 1877SOL    HW1 6530   0.424   0.459   3.298
 1877SOL    HW2 6531   0.451   0.620   3.306
 1878SOL     OW 6532   6.878   1.864   3.796
 1878SOL    HW1 6533   6.805   1.921   3.832
 1878SOL    HW2 6534   6.940   1.838   3.870
 1879SOL     OW 6535   1.224   4.020   4.254
 1879SOL    HW1 6536   1.243   4.107   4.209
 1879SOL    HW2 6537   1.130   4.020   4.289
 1880SOL     OW 6538   0.287   0.857   5.018
 1880SOL    HW1 6539   0.217   0.902   4.963
 1880SOL    HW2 6540   0.374   0.858   4.968
 1881SOL     OW 6541   5.705   2.339   2.233
 1881SOL    HW1 6542   5.682   2.412   2.169
 1881SOL    HW2 6543   5.689   2.250   2.189
 1882SOL     OW 6544   1.213   4.389   6.526
 1882SOL    HW1 6545   1.309   4.415   6.536
 1882SOL    HW2 6546   1.157   4.471   6.516
 1883SOL     OW 6547   6.292   2.257   2.977
 1883SOL    HW1 6548   6.333   2.197   2.909
 1883SOL    HW2 6549   6.358   2.277   3.050
 1884SOL     OW 6550   1.486   1.866   1.184
 1884SOL    HW1 6551   1.511   1.775   1.149
 1884SOL    HW2 6552   1.395   1.861   1.225
 1885SOL     OW 6553   1.568   2.023   6.228
 1885SOL    HW1 6554   1.621   2.043   6.145
 1885SOL    HW2 6555   1.629   2.017   6.306
 1886SOL     OW 6556   1.999   0.021   1.738
 1886SOL    HW1 6557   2.096   7.026   1.748
 1886SOL    HW2 6558   1.946   6.964   1.732
 1887SOL     OW 6559   0.758   5.517   5.804
 1887SOL    HW1 6560   0.821   5.544   5.731
 1887SOL    HW2 6561   0.803   5.528   5.893
 1888SOL     OW 6562   3.215   2.056   6.813
 1888SOL    HW1 6563   3.273   2.134   6.789
 1888SOL    HW2 6564   3.156   2.081   6.890
 1889SOL     OW 6565   0.149   3.521   4.221
 1889SOL    HW1 6566   0.226   3.544   4.161
 1889SOL    HW2 6567   0.066   3.565   4.186
 1890SOL     OW 6568   0.836   5.881   3.718
 1890SOL    HW1 6569   0.921   5.931   3.704
 1890SOL    HW2 6570   0.799   5.904   3.809
 1891SOL     OW 6571   4.403   2.905   1.477
 1891SOL    HW1 6572   4.461   2.966   1.531
 1891SOL    HW2 6573   4.358   2.840   1.538
 1892SOL     OW 6574   0.262   0.236   1.896
 1892SOL    HW1 6575   0.172   0.214   1.933
 1892SOL    HW2 6576   0.284   0.332   1.914
 1893SOL     OW 6577   3.498   2.804   1.921
 1893SOL    HW1 6578   3.568   2.794   1.991
 1893SOL    HW2 6579   3.442   2.721   1.918
 1894SOL     OW 6580   3.431   3.798   3.869
 1894SOL    HW1 6581   3.505   3.743   3.907
 1894SOL    HW2 6582   3.469   3.882   3.831
 1895SOL     OW 6583   4.142   0.054   0.591
 1895SOL    HW1 6584   4.210   7.026   0.544
 1895SOL    HW2 6585   4.188   0.116   0.655
 1896SOL     OW 6586   6.229   1.372   0.655
 1896SOL    HW1 6587   6.229   1.469   0.680
 1896SOL    HW2 6588   6.321   1.344   0.626
 1897SOL     OW 6589   1.951   4.983   2.318
 1897SOL    HW1 6590   1.967   5.000   2.221
 1897SOL    HW2 6591   1.938   4.885   2.333
 1898SOL     OW 6592   2.260   4.507   2.587
 1898SOL    HW1 6593   2.284   4.602   2.567
 1898SOL    HW2 6594   2.337   4.462   2.632
 1899SOL     OW 6595   0.921   1.154   6.874
 1899SOL    HW1 6596   0.832   1.200   6.866
 1899SOL    HW2 6597   0.917   1.065   6.828
 1900SOL     OW 6598   2.379   0.872   6.907
 1900SOL    HW1 6599   2.443   0.884   6.983
 1900SOL    HW2 6600   2.430   0.850   6.824
 1901SOL     OW 6601   2.536   2.307   0.938
 1901SOL    HW1 6602   2.513   2.324   0.843
 1901SOL    HW2 6603   2.463   2.255   0.982
 1902SOL     OW 6604   2.764   0.615   4.546
 1902SOL    HW1 6605   2.726   0.570   4.465
 1902SOL    HW2 6606   2.799   0.705   4.520
 1903SOL     OW 6607   0.978   3.340   2.996
 1903SOL    HW1 6608   0.978   3.312   3.092
 1903SOL    HW2 6609   0.991   3.260   2.938
 1904SOL     OW 6610   5.376   5.249   3.134
 1904SOL    HW1 6611   5.311   5.176   3.115
 1904SOL    HW2 6612   5.469   5.213   3.131
 1905SOL     OW 6613   0.795   0.616   3.235
 1905SOL    HW1 6614   0.861   0.691   3.240
 1905SOL    HW2 6615   0.744   0.611   3.321
 1906SOL     OW 6616   2.853   0.857   5.985
 1906SOL    HW1 6617   2.933   0.902   5.946
 1906SOL    HW2 6618   2.830   0.776   5.932
 1907SOL     OW 6619   4.880   2.681   1.381
 1907SOL    HW1 6620   4.790   2.721   1.397
 1907SOL    HW2 6621   4.870   2.587   1.350
 1908SOL     OW 6622   3.928   6.414   6.214
 1908SOL    HW1 6623   3.990   6.431   6.136
 1908SOL    HW2 6624   3.952   6.326   6.256
 1909SOL     OW 6625   0.905   3.309   3.800
 1909SOL    HW1 6626   0.978   3.317   3.731
 1909SOL    HW2 6627   0.897   3.213   3.828
 1910SOL     OW 6628   6.658   6.197   5.424
 1910SOL    HW1 6629   6.662   6.253   5.506
 1910SOL    HW2 6630   6.574   6.143   5.424
 1911SOL     OW 6631   0.060   3.834   4.738
 1911SOL    HW1 6632   0.031   3.796   4.826
 1911SOL    HW2 6633   0.103   3.923   4.752
 1912SOL     OW 6634   2.723   5.556   2.450
 1912SOL    HW1 6635   2.670   5.519   2.526
 1912SOL    HW2 6636   2.734   5.655   2.463
 1913SOL     OW 6637   2.494   6.843   4.612
 1913SOL    HW1 6638   2.566   6.907   4.638
 1913SOL    HW2 6639   2.507   6.814   4.517
 1914SOL     OW 6640   4.158   3.810   0.051
 1914SOL    HW1 6641   4.198   3.769   0.133
 1914SOL    HW2 6642   4.217   3.884   0.018
 1915SOL     OW 6643   5.010   2.997   5.792
 1915SOL    HW1 6644   4.949   2.921   5.772
 1915SOL    HW2 6645   4.963   3.063   5.850
 1916SOL     OW 6646   4.508   6.676   1.207
 1916SOL    HW1 6647   4.431   6.687   1.269
 1916SOL    HW2 6648   4.489   6.724   1.121
 1917SOL     OW 6649   2.809   3.388   0.325
 1917SOL    HW1 6650   2.853   3.384   0.415
 1917SOL    HW2 6651   2.739   3.460   0.324
 1918SOL     OW 6652   1.082   1.042   4.567
 1918SOL    HW1 6653   1.106   1.053   4.470
 1918SOL    HW2 6654   1.130   1.112   4.620
 1919SOL     OW 6655   1.785   1.834   0.775
 1919SOL    HW1 6656   1.757   1.772   0.702
 1919SOL    HW2 6657   1.767   1.928   0.747
 1920SOL     OW 6658   6.116   3.059   2.542
 1920SOL    HW1 6659   6.018   3.078   2.547
 1920SOL    HW2 6660   6.161   3.096   2.623
 1921SOL     OW 6661   1.118   2.875   6.990
 1921SOL    HW1 6662   1.128   2.794   0.020
 1921SOL    HW2 6663   1.122   2.848   6.893
 1922SOL     OW 6664   3.169   3.285   1.931
 1922SOL    HW1 6665   3.249   3.241   1.890
 1922SOL    HW2 6666   3.089   3.226   1.920
 1923SOL     OW 6667   4.549   0.946   0.370
 1923SOL    HW1 6668   4.627   0.984   0.421
 1923SOL    HW2 6669   4.471   0.938   0.432
 1924SOL     OW 6670   4.675   0.074   0.662
 1924SOL    HW1 6671   4.616   0.059   0.740
 1924SOL    HW2 6672   4.762   0.113   0.693
 1925SOL     OW 6673   0.988   4.343   1.796
 1925SOL    HW1 6674   1.059   4.299   1.740
 1925SOL    HW2 6675   0.898   4.309   1.767
 1926SOL     OW 6676   3.344   0.135   1.819
 1926SOL    HW1 6677   3.418   0.192   1.785
 1926SOL    HW2 6678   3.269   0.193   1.852
 1927SOL     OW 6679   2.155   3.927   0.752
 1927SOL    HW1 6680   2.100   3.852   0.789
 1927SOL    HW2 6681   2.198   3.977   0.828
 1928SOL     OW 6682   4.907   4.775   4.040
 1928SOL    HW1 6683   4.875   4.853   4.094
 1928SOL    HW2 6684   4.831   4.737   3.988
 1929SOL     OW 6685   2.575   0.888   2.130
 1929SOL    HW1 6686   2.543   0.924   2.218
 1929SOL    HW2 6687   2.588   0.789   2.139
 1930SOL     OW 6688   5.257   3.370   6.565
 1930SOL    HW1 6689   5.315   3.342   6.641
 1930SOL    HW2 6690   5.180   3.307   6.556
 1931SOL     OW 6691   0.960   1.756   6.757
 1931SOL    HW1 6692   0.983   1.716   6.845
 1931SOL    HW2 6693   0.931   1.684   6.694
 1932SOL     OW 6694   4.563   2.566   3.373
 1932SOL    HW1 6695   4.498   2.551   3.447
 1932SOL    HW2 6696   4.538   2.509   3.294
 1933SOL     OW 6697   0.685   1.847   0.528
 1933SOL    HW1 6698   0.666   1.773   0.592
 1933SOL    HW2 6699   0.621   1.840   0.450
 1934SOL     OW 6700   0.536   0.204   5.792
 1934SOL    HW1 6701   0.624   0.169   5.762
 1934SOL    HW2 6702   0.494   0.140   5.856
 1935SOL     OW 6703   4.565   4.366   4.030
 1935SOL    HW1 6704   4.478   4.340   3.989
 1935SOL    HW2 6705   4.637   4.304   3.998
 1936SOL     OW 6706   5.260   3.888   3.637
 1936SOL    HW1 6707   5.327   3.840   3.693
 1936SOL    HW2 6708   5.269   3.987   3.651
 1937SOL     OW 6709   4.582   6.178   6.723
 1937SOL    HW1 6710   4.514   6.216   6.661
 1937SOL    HW2 6711   4.600   6.083   6.697
 1938SOL     OW 6712   1.436   2.762   7.018
 1938SOL    HW1 6713   1.359   2.750   0.053
 1938SOL    HW2 6714   1.403   2.771   6.924
 1939SOL     OW 6715   0.403   5.527   4.702
 1939SOL    HW1 6716   0.406   5.605   4.638
 1939SOL    HW2 6717   0.489   5.477   4.696
 1940SOL     OW 6718   5.790   4.476   2.027
 1940SOL    HW1 6719   5.786   4.477   1.927
 1940SOL    HW2 6720   5.734   4.551   2.063
 1941SOL     OW 6721   0.358   2.692   3.320
 1941SOL    HW1 6722   0.426   2.762   3.342
 1941SOL    HW2 6723   0.348   2.630   3.397
 1942SOL     OW 6724   5.445   3.730   2.807
 1942SOL    HW1 6725   5.496   3.816   2.810
 1942SOL    HW2 6726   5.473   3.672   2.884
 1943SOL     OW 6727   0.895   1.573   2.283
 1943SOL    HW1 6728   0.936   1.654   2.240
 1943SOL    HW2 6729   0.798   1.568   2.259
 1944SOL     OW 6730   6.748   3.519   0.862
 1944SOL    HW1 6731   6.658   3.477   0.876
 1944SOL    HW2 6732   6.819   3.449   0.867
 1945SOL     OW 6733   4.173   6.697   0.920
 1945SOL    HW1 6734   4.214   6.608   0.899
 1945SOL    HW2 6735   4.110   6.687   0.997
 1946SOL     OW 6736   6.038   6.318   1.141
 1946SOL    HW1 6737   6.016   6.243   1.079
 1946SOL    HW2 6738   6.010   6.294   1.234
 1947SOL     OW 6739   6.104   5.293   3.711
 1947SOL    HW1 6740   6.081   5.200   3.742
 1947SOL    HW2 6741   6.054   5.360   3.765
 1948SOL     OW 6742   6.259   3.945   2.818
 1948SOL    HW1 6743   6.175   3.892   2.811
 1948SOL    HW2 6744   6.310   3.915   2.899
 1949SOL     OW 6745   3.733   4.277   0.479
 1949SOL    HW1 6746   3.678   4.203   0.517
 1949SOL    HW2 6747   3.773   4.331   0.554
 1950SOL     OW 6748   3.829   3.520   3.958
 1950SOL    HW1 6749   3.763   3.447   3.978
 1950SOL    HW2 6750   3.915   3.501   4.007
 1951SOL     OW 6751   6.655   4.450   5.656
 1951SOL    HW1 6752   6.596   4.383   5.612
 1951SOL    HW2 6753   6.703   4.503   5.586
 1952SOL     OW 6754   5.134   3.971   1.242
 1952SOL    HW1 6755   5.121   4.038   1.169
 1952SOL    HW2 6756   5.104   3.881   1.210
 1953SOL     OW 6757   0.066   1.107   6.334
 1953SOL    HW1 6758   0.077   1.040   6.407
 1953SOL    HW2 6759   0.085   1.064   6.246
 1954SOL     OW 6760   5.259   0.942   1.784
 1954SOL    HW1 6761   5.352   0.974   1.766
 1954SOL    HW2 6762   5.257   0.842   1.786
 1955SOL     OW 6763   0.604   1.482   1.978
 1955SOL    HW1 6764   0.698   1.493   1.946
 1955SOL    HW2 6765   0.587   1.386   1.999
 1956SOL     OW 6766   5.556   0.810   2.939
 1956SOL    HW1 6767   5.643   0.860   2.929
 1956SOL    HW2 6768   5.496   0.833   2.863
 1957SOL     OW 6769   5.049   2.927   3.709
 1957SOL    HW1 6770   5.077   3.006   3.654
 1957SOL    HW2 6771   5.113   2.851   3.693
 1958SOL     OW 6772   4.442   1.542   0.816
 1958SOL    HW1 6773   4.357   1.563   0.865
 1958SOL    HW2 6774   4.420   1.523   0.720
 1959SOL     OW 6775   6.671   0.041   3.861
 1959SOL    HW1 6776   6.755   0.095   3.866
 1959SOL    HW2 6777   6.622   0.064   3.777
 1960SOL     OW 6778   6.256   2.938   2.982
 1960SOL    HW1 6779   6.161   2.958   2.959
 1960SOL    HW2 6780   6.300   2.894   2.904
 1961SOL     OW 6781   6.448   4.642   4.914
 1961SOL    HW1 6782   6.446   4.705   4.992
 1961SOL    HW2 6783   6.453   4.548   4.947
 1962SOL     OW 6784   1.572   6.048   3.091
 1962SOL    HW1 6785   1.529   5.993   3.163
 1962SOL    HW2 6786   1.571   6.144   3.118
 1963SOL     OW 6787   0.788   1.049   1.636
 1963SOL    HW1 6788   0.711   1.063   1.698
 1963SOL    HW2 6789   0.854   0.987   1.679
 1964SOL     OW 6790   5.555   4.668   1.698
 1964SOL    HW1 6791   5.476   4.624   1.655
 1964SOL    HW2 6792   5.528   4.707   1.786
 1965SOL     OW 6793   0.993   3.990   4.006
 1965SOL    HW1 6794   1.081   3.950   3.980
 1965SOL    HW2 6795   0.987   3.994   4.106
 1966SOL     OW 6796   1.459   5.070   0.997
 1966SOL    HW1 6797   1.400   5.128   0.941
 1966SOL    HW2 6798   1.405   4.998   1.040
 1967SOL     OW 6799   6.799   2.273   3.760
 1967SOL    HW1 6800   6.865   2.218   3.709
 1967SOL    HW2 6801   6.736   2.317   3.695
 1968SOL     OW 6802   2.504   1.006   5.489
 1968SOL    HW1 6803   2.438   0.948   5.537
 1968SOL    HW2 6804   2.495   1.101   5.521
 1969SOL     OW 6805   2.986   0.533   1.721
 1969SOL    HW1 6806   2.930   0.514   1.802
 1969SOL    HW2 6807   3.008   0.630   1.718
 1970SOL     OW 6808   6.319   6.665   5.242
 1970SOL    HW1 6809   6.309   6.592   5.174
 1970SOL    HW2 6810   6.403   6.716   5.223
 1971SOL     OW 6811   1.452   0.015   5.712
 1971SOL    HW1 6812   1.539   6.995   5.728
 1971SOL    HW2 6813   1.395   0.007   5.793
 1972SOL     OW 6814   5.896   2.486   1.411
 1972SOL    HW1 6815   5.943   2.567   1.445
 1972SOL    HW2 6816   5.797   2.502   1.413
 1973SOL     OW 6817   2.600   3.713   1.462
 1973SOL    HW1 6818   2.580   3.621   1.427
 1973SOL    HW2 6819   2.554   3.781   1.404
 1974SOL     OW 6820   3.948   6.311   4.405
 1974SOL    HW1 6821   3.891   6.341   4.329
 1974SOL    HW2 6822   4.025   6.373   4.417
 1975SOL     OW 6823   2.280   2.952   3.764
 1975SOL    HW1 6824   2.192   2.917   3.797
 1975SOL    HW2 6825   2.268   3.043   3.727
 1976SOL     OW 6826   6.366   0.320   6.641
 1976SOL    HW1 6827   6.418   0.385   6.696
 1976SOL    HW2 6828   6.428   0.253   6.600
 1977SOL     OW 6829   2.778   3.503   6.531
 1977SOL    HW1 6830   2.811   3.438   6.463
 1977SOL    HW2 6831   2.766   3.593   6.489
 1978SOL     OW 6832   2.557   6.374   2.789
 1978SOL    HW1 6833   2.547   6.467   2.824
 1978SOL    HW2 6834   2.518   6.309   2.854
 1979SOL     OW 6835   6.005   5.202   6.916
 1979SOL    HW1 6836   5.990   5.232   6.822
 1979SOL    HW2 6837   5.917   5.189   6.962
 1980SOL     OW 6838   2.527   0.508   2.057
 1980SOL    HW1 6839   2.506   0.593   2.009
 1980SOL    HW2 6840   2.478   0.432   2.014
 1981SOL     OW 6841   4.885   2.589   2.982
 1981SOL    HW1 6842   4.793   2.612   3.014
 1981SOL    HW2 6843   4.891   2.491   2.963
 1982SOL     OW 6844   6.471   3.452   3.930
 1982SOL    HW1 6845   6.562   3.417   3.952
 1982SOL    HW2 6846   6.479   3.527   3.866
 1983SOL     OW 6847   0.647   0.203   0.849
 1983SOL    HW1 6848   0.589   0.149   0.788
 1983SOL    HW2 6849   0.700   0.142   0.908
 1984SOL     OW 6850   5.075   2.606   5.173
 1984SOL    HW1 6851   5.013   2.677   5.207
 1984SOL    HW2 6852   5.164   2.615   5.219
 1985SOL     OW 6853   6.464   4.936   1.350
 1985SOL    HW1 6854   6.404   5.010   1.380
 1985SOL    HW2 6855   6.554   4.972   1.327
 1986SOL     OW 6856   3.099   0.926   6.265
 1986SOL    HW1 6857   3.086   1.011   6.214
 1986SOL    HW2 6858   3.179   0.877   6.230
 1987SOL     OW 6859   1.208   0.955   4.020
 1987SOL    HW1 6860   1.288   1.015   4.020
 1987SOL    HW2 6861   1.236   0.863   4.050
 1988SOL     OW 6862   0.475   1.692   1.256
 1988SOL    HW1 6863   0.379   1.685   1.228
 1988SOL    HW2 6864   0.481   1.745   1.340
 1989SOL     OW 6865   2.733   5.759   4.766
 1989SOL    HW1 6866   2.674   5.715   4.835
 1989SOL    HW2 6867   2.814   5.703   4.752
 1990SOL     OW 6868   4.008   0.748   0.162
 1990SOL    HW1 6869   4.059   0.756   0.248
 1990SOL    HW2 6870   4.069   0.772   0.086
 1991SOL     OW 6871   2.681   5.672   0.073
 1991SOL    HW1 6872   2.659   5.617   0.154
 1991SOL    HW2 6873   2.609   5.661   0.005
 1992SOL     OW 6874   6.693   6.483   7.010
 1992SOL    HW1 6875   6.636   6.495   0.063
 1992SOL    HW2 6876   6.765   6.417   0.002
 1993SOL     OW 6877   1.984   2.885   4.867
 1993SOL    HW1 6878   2.076   2.849   4.847
 1993SOL    HW2 6879   1.993   2.971   4.918
 1994SOL     OW 6880   4.213   3.292   0.648
 1994SOL    HW1 6881   4.117   3.273   0.669
 1994SOL    HW2 6882   4.227   3.287   0.549
 1995SOL     OW 6883   5.309   1.940   4.824
 1995SOL    HW1 6884   5.239   1.998   4.865
 1995SOL    HW2 6885   5.288   1.926   4.727
 1996SOL     OW 6886   3.438   2.083   1.238
 1996SOL    HW1 6887   3.385   2.161   1.204
 1996SOL    HW2 6888   3.375   2.014   1.273
 1997SOL     OW 6889   3.275   1.519   3.845
 1997SOL    HW1 6890   3.333   1.546   3.921
 1997SOL    HW2 6891   3.219   1.597   3.816
 1998SOL     OW 6892   1.289   3.138   1.491
 1998SOL    HW1 6893   1.376   3.161   1.446
 1998SOL    HW2 6894   1.292   3.167   1.587
 1999SOL     OW 6895   0.729   0.288   5.412
 1999SOL    HW1 6896   0.753   0.374   5.366
 1999SOL    HW2 6897   0.646   0.301   5.466
 2000SOL     OW 6898   3.929   3.489   6.298
 2000SOL    HW1 6899   3.847   3.433   6.311
 2000SOL    HW2 6900   3.911   3.557   6.227
 2001SOL     OW 6901   1.846   1.812   6.665
 2001SOL    HW1 6902   1.807   1.744   6.603
 2001SOL    HW2 6903   1.876   1.767   6.750
 2002SOL     OW 6904   0.303   5.507   0.913
 2002SOL    HW1 6905   0.236   5.491   0.841
 2002SOL    HW2 6906   0.371   5.574   0.881
 2003SOL     OW 6907   6.524   5.131   1.891
 2003SOL    HW1 6908   6.501   5.210   1.836
 2003SOL    HW2 6909   6.484   5.140   1.982
 2004SOL     OW 6910   3.696   0.314   3.580
 2004SOL    HW1 6911   3.643   0.264   3.512
 2004SOL    HW2 6912   3.793   0.296   3.566
 2005SOL     OW 6913   0.256   5.996   0.451
 2005SOL    HW1 6914   0.157   5.988   0.465
 2005SOL    HW2 6915   0.288   5.921   0.394
 2006SOL     OW 6916   5.243   0.450   3.948
 2006SOL    HW1 6917   5.194   0.437   4.035
 2006SOL    HW2 6918   5.328   0.500   3.965
 2007SOL     OW 6919   4.765   4.220   1.035
 2007SOL    HW1 6920   4.760   4.320   1.031
 2007SOL    HW2 6921   4.779   4.191   1.130
 2008SOL     OW 6922   2.135   3.812   3.817
 2008SOL    HW1 6923   2.164   3.725   3.856
 2008SOL    HW2 6924   2.180   3.825   3.728
 2009SOL     OW 6925   6.431   6.222   1.746
 2009SOL    HW1 6926   6.343   6.241   1.789
 2009SOL    HW2 6927   6.481   6.307   1.734
 2010SOL     OW 6928   1.442   2.433   1.299
 2010SOL    HW1 6929   1.345   2.434   1.272
 2010SOL    HW2 6930   1.496   2.398   1.222
 2011SOL     OW 6931   0.081   6.769   5.495
 2011SOL    HW1 6932   0.112   6.769   5.590
 2011SOL    HW2 6933   0.160   6.766   5.434
 2012SOL     OW 6934   1.436   3.286   2.217
 2012SOL    HW1 6935   1.510   3.234   2.174
 2012SOL    HW2 6936   1.474   3.358   2.275
 2013SOL     OW 6937   0.556   2.710   2.961
 2013SOL    HW1 6938   0.470   2.746   2.998
 2013SOL    HW2 6939   0.586   2.768   2.885
 2014SOL     OW 6940   2.990   0.431   3.738
 2014SOL    HW1 6941   2.901   0.394   3.708
 2014SOL    HW2 6942   3.034   0.365   3.799
 2015SOL     OW 6943   3.724   0.975   1.822
 2015SOL    HW1 6944   3.688   1.065   1.798
 2015SOL    HW2 6945   3.688   0.907   1.758
 2016SOL     OW 6946   1.710   6.063   5.352
 2016SOL    HW1 6947   1.656   6.015   5.283
 2016SOL    HW2 6948   1.659   6.143   5.384
 2017SOL     OW 6949   4.252   6.737   2.752
 2017SOL    HW1 6950   4.206   6.826   2.750
 2017SOL    HW2 6951   4.208   6.679   2.821
 2018SOL     OW 6952   0.205   2.258   3.242
 2018SOL    HW1 6953   0.134   2.231   3.177
 2018SOL    HW2 6954   0.258   2.334   3.203
 2019SOL     OW 6955   6.145   4.899   6.410
 2019SOL    HW1 6956   6.232   4.860   6.437
 2019SOL    HW2 6957   6.113   4.856   6.325
 2020SOL     OW 6958   1.545   6.322   5.724
 2020SOL    HW1 6959   1.572   6.345   5.818
 2020SOL    HW2 6960   1.446   6.309   5.721
 2021SOL     OW 6961   6.141   6.226   3.522
 2021SOL    HW1 6962   6.079   6.152   3.497
 2021SOL    HW2 6963   6.138   6.241   3.621
 2022SOL     OW 6964   2.200   4.245   5.063
 2022SOL    HW1 6965   2.249   4.167   5.100
 2022SOL    HW2 6966   2.141   4.284   5.135
 2023SOL     OW 6967   0.130   0.647   6.827
 2023SOL    HW1 6968   0.046   0.641   6.774
 2023SOL    HW2 6969   0.180   0.561   6.820
 2024SOL     OW 6970   0.377   5.690   4.347
 2024SOL    HW1 6971   0.403   5.596   4.370
 2024SOL    HW2 6972   0.411   5.712   4.255
 2025SOL     OW 6973   2.456   1.118   4.433
 2025SOL    HW1 6974   2.366   1.110   4.391
 2025SOL    HW2 6975   2.466   1.049   4.505
 2026SOL     OW 6976   5.610   0.894   6.469
 2026SOL    HW1 6977   5.526   0.897   6.415
 2026SOL    HW2 6978   5.603   0.959   6.545
 2027SOL     OW 6979   0.557   5.702   1.525
 2027SOL    HW1 6980   0.592   5.623   1.475
 2027SOL    HW2 6981   0.483   5.672   1.587
 2028SOL     OW 6982   3.713   6.007   2.680
 2028SOL    HW1 6983   3.724   5.916   2.641
 2028SOL    HW2 6984   3.794   6.062   2.658
 2029SOL     OW 6985   0.085   1.809   6.522
 2029SOL    HW1 6986   0.079   1.865   6.605
 2029SOL    HW2 6987   0.145   1.854   6.457
 2030SOL     OW 6988   3.253   6.198   3.350
 2030SOL    HW1 6989   3.192   6.124   3.377
 2030SOL    HW2 6990   3.201   6.284   3.347
 2031SOL     OW 6991   0.047   5.735   2.908
 2031SOL    HW1 6992   0.019   5.698   2.996
 2031SOL    HW2 6993   7.021   5.817   2.888
 2032SOL     OW 6994   3.346   1.471   6.680
 2032SOL    HW1 6995   3.355   1.480   6.779
 2032SOL    HW2 6996   3.253   1.441   6.657
 2033SOL     OW 6997   1.519   0.935   0.866
 2033SOL    HW1 6998   1.511   0.924   0.767
 2033SOL    HW2 6999   1.486   1.026   0.893
 2034SOL     OW 7000   1.232   5.385   5.523
 2034SOL    HW1 7001   1.306   5.442   5.559
 2034SOL    HW2 7002   1.212   5.312   5.589
 2035SOL     OW 7003   6.098   6.591   1.907
 2035SOL    HW1 7004   6.056   6.637   1.829
 2035SOL    HW2 7005   6.113   6.494   1.886
 2036SOL     OW 7006   1.295   3.495   2.641
 2036SOL    HW1 7007   1.305   3.491   2.740
 2036SOL    HW2 7008   1.265   3.586   2.613
 2037SOL     OW 7009   0.050   2.814   6.392
 2037SOL    HW1 7010   0.055   2.914   6.387
 2037SOL    HW2 7011   7.005   2.781   6.333
 2038SOL     OW 7012   2.486   1.549   0.035
 2038SOL    HW1 7013   2.502   1.545   0.133
 2038SOL    HW2 7014   2.515   1.638   7.027
 2039SOL     OW 7015   0.135   6.018   2.715
 2039SOL    HW1 7016   0.049   5.984   2.753
 2039SOL    HW2 7017   0.205   5.947   2.720
 2040SOL     OW 7018   2.481   2.755   0.132
 2040SOL    HW1 7019   2.410   2.825   0.128
 2040SOL    HW2 7020   2.454   2.676   0.077
 2041SOL     OW 7021   1.693   6.984   6.003
 2041SOL    HW1 7022   1.745   0.038   6.027
 2041SOL    HW2 7023   1.664   6.989   5.908
 2042SOL     OW 7024   4.744   0.458   6.404
 2042SOL    HW1 7025   4.742   0.374   6.457
 2042SOL    HW2 7026   4.738   0.436   6.306
 2043SOL     OW 7027   6.993   2.794   1.350
 2043SOL    HW1 7028   0.049   2.773   1.299
 2043SOL    HW2 7029   6.977   2.893   1.346
 2044SOL     OW 7030   5.078   1.319   0.622
 2044SOL    HW1 7031   4.979   1.321   0.634
 2044SOL    HW2 7032   5.103   1.368   0.539
 2045SOL     OW 7033   1.591   5.887   6.023
 2045SOL    HW1 7034   1.689   5.902   6.037
 2045SOL    HW2 7035   1.565   5.799   6.061
 2046SOL     OW 7036   0.932   1.335   5.491
 2046SOL    HW1 7037   0.898   1.320   5.584
 2046SOL    HW2 7038   0.876   1.405   5.446
 2047SOL     OW 7039   6.391   2.457   0.394
 2047SOL    HW1 7040   6.473   2.402   0.409
 2047SOL    HW2 7041   6.410   2.552   0.417
 2048SOL     OW 7042   1.016   1.221   4.285
 2048SOL    HW1 7043   1.106   1.178   4.289
 2048SOL    HW2 7044   0.964   1.198   4.368
 2049SOL     OW 7045   4.591   1.564   4.712
 2049SOL    HW1 7046   4.493   1.547   4.702
 2049SOL    HW2 7047   4.618   1.640   4.653
 2050SOL     OW 7048   0.841   1.406   4.172
 2050SOL    HW1 7049   0.803   1.446   4.255
 2050SOL    HW2 7050   0.918   1.348   4.195
 2051SOL     OW 7051   3.264   6.749   1.035
 2051SOL    HW1 7052   3.193   6.776   1.100
 2051SOL    HW2 7053   3.244   6.790   0.946
 2052SOL     OW 7054   1.895   4.256   6.992
 2052SOL    HW1 7055   1.801   4.286   7.013
 2052SOL    HW2 7056   1.905   4.160   7.016
 2053SOL     OW 7057   1.223   5.837   3.879
 2053SOL    HW1 7058   1.174   5.785   3.949
 2053SOL    HW2 7059   1.231   5.933   3.908
 2054SOL     OW 7060   3.155   3.575   3.127
 2054SOL    HW1 7061   3.098   3.518   3.186
 2054SOL    HW2 7062   3.101   3.652   3.094
 2055SOL     OW 7063   1.541   2.409   4.789
 2055SOL    HW1 7064   1.628   2.361   4.794
 2055SOL    HW2 7065   1.557   2.508   4.793
 2056SOL     OW 7066   3.818   4.816   1.113
 2056SOL    HW1 7067   3.849   4.849   1.024
 2056SOL    HW2 7068   3.856   4.725   1.130
 2057SOL     OW 7069   5.347   2.260   4.718
 2057SOL    HW1 7070   5.431   2.207   4.707
 2057SOL    HW2 7071   5.318   2.258   4.814
 2058SOL     OW 7072   0.951   6.885   3.315
 2058SOL    HW1 7073   1.025   6.938   3.274
 2058SOL    HW2 7074   0.915   6.934   3.395
 2059SOL     OW 7075   2.377   0.386   5.566
 2059SOL    HW1 7076   2.458   0.332   5.541
 2059SOL    HW2 7077   2.341   0.430   5.484
 2060SOL     OW 7078   1.349   3.333   0.115
 2060SOL    HW1 7079   1.263   3.371   0.149
 2060SOL    HW2 7080   1.346   3.328   0.015
 2061SOL     OW 7081   2.117   2.159   2.388
 2061SOL    HW1 7082   2.112   2.259   2.383
 2061SOL    HW2 7083   2.029   2.123   2.420
 2062SOL     OW 7084   6.327   5.658   5.198
 2062SOL    HW1 7085   6.306   5.630   5.104
 2062SOL    HW2 7086   6.412   5.615   5.227
 2063SOL     OW 7087   1.637   0.100   5.314
 2063SOL    HW1 7088   1.555   0.152   5.290
 2063SOL    HW2 7089   1.611   0.022   5.370
 2064SOL     OW 7090   0.548   2.988   4.071
 2064SOL    HW1 7091   0.500   3.071   4.042
 2064SOL    HW2 7092   0.541   2.979   4.170
 2065SOL     OW 7093   4.484   2.898   5.607
 2065SOL    HW1 7094   4.564   2.938   5.651
 2065SOL    HW2 7095   4.497   2.901   5.507
 2066SOL     OW 7096   5.575   3.394   5.868
 2066SOL    HW1 7097   5.613   3.347   5.948
 2066SOL    HW2 7098   5.607   3.350   5.785
 2067SOL     OW 7099   0.006   4.708   1.733
 2067SOL    HW1 7100   6.936   4.732   1.726
 2067SOL    HW2 7101   0.056   4.785   1.772
 2068SOL     OW 7102   3.815   0.926   3.700
 2068SOL    HW1 7103   3.867   1.012   3.691
 2068SOL    HW2 7104   3.865   0.852   3.655
 2069SOL     OW 7105   6.857   1.966   4.229
 2069SOL    HW1 7106   6.809   1.903   4.167
 2069SOL    HW2 7107   6.907   2.034   4.175
 2070SOL     OW 7108   1.173   3.557   1.669
 2070SOL    HW1 7109   1.272   3.554   1.663
 2070SOL    HW2 7110   1.146   3.565   1.765
 2071SOL     OW 7111   6.324   1.330   5.902
 2071SOL    HW1 7112   6.247   1.393   5.900
 2071SOL    HW2 7113   6.382   1.345   5.822
 2072SOL     OW 7114   3.951   4.554   5.303
 2072SOL    HW1 7115   3.916   4.463   5.327
 2072SOL    HW2 7116   4.048   4.559   5.327
 2073SOL     OW 7117   3.797   6.112   0.020
 2073SOL    HW1 7118   3.882   6.075   0.058
 2073SOL    HW2 7119   3.794   6.211   0.036
 2074SOL     OW 7120   2.204   3.541   5.674
 2074SOL    HW1 7121   2.290   3.491   5.669
 2074SOL    HW2 7122   2.128   3.478   5.661
 2075SOL     OW 7123   0.078   2.038   1.919
 2075SOL    HW1 7124   0.074   1.961   1.983
 2075SOL    HW2 7125   7.020   2.091   1.926
 2076SOL     OW 7126   5.298   6.232   4.792
 2076SOL    HW1 7127   5.358   6.310   4.774
 2076SOL    HW2 7128   5.325   6.155   4.734
 2077SOL     OW 7129   0.249   3.325   1.508
 2077SOL    HW1 7130   0.341   3.291   1.523
 2077SOL    HW2 7131   0.187   3.249   1.488
 2078SOL     OW 7132   2.268   4.656   5.768
 2078SOL    HW1 7133   2.283   4.639   5.670
 2078SOL    HW2 7134   2.178   4.622   5.794
 2079SOL     OW 7135   5.216   1.524   1.602
 2079SOL    HW1 7136   5.313   1.548   1.598
 2079SOL    HW2 7137   5.183   1.501   1.510
 2080SOL     OW 7138   2.652   2.427   5.314
 2080SOL    HW1 7139   2.735   2.477   5.290
 2080SOL    HW2 7140   2.675   2.333   5.338
 2081SOL     OW 7141   0.107   6.957   3.009
 2081SOL    HW1 7142   0.141   6.895   2.937
 2081SOL    HW2 7143   0.016   6.988   2.985
 2082SOL     OW 7144   0.391   6.072   2.312
 2082SOL    HW1 7145   0.441   5.989   2.339
 2082SOL    HW2 7146   0.424   6.150   2.365
 2083SOL     OW 7147   6.721   6.058   4.237
 2083SOL    HW1 7148   6.713   6.100   4.147
 2083SOL    HW2 7149   6.632   6.063   4.284
 2084SOL     OW 7150   0.616   1.558   2.225
 2084SOL    HW1 7151   0.597   1.540   2.129
 2084SOL    HW2 7152   0.566   1.640   2.255
 2085SOL     OW 7153   5.125   5.771   6.822
 2085SOL    HW1 7154   5.202   5.755   6.760
 2085SOL    HW2 7155   5.157   5.763   6.917
 2086SOL     OW 7156   4.602   0.367   6.814
 2086SOL    HW1 7157   4.576   0.407   6.726
 2086SOL    HW2 7158   4.621   0.270   6.803
 2087SOL     OW 7159   4.083   2.201   0.055
 2087SOL    HW1 7160   4.051   2.198   6.988
 2087SOL    HW2 7161   4.150   2.274   0.065
 2088SOL     OW 7162   0.217   5.735   5.209
 2088SOL    HW1 7163   0.132   5.758   5.257
 2088SOL    HW2 7164   0.205   5.750   5.111
 2089SOL     OW 7165   2.694   3.287   6.131
 2089SOL    HW1 7166   2.674   3.211   6.070
 2089SOL    HW2 7167   2.680   3.374   6.083
 2090SOL     OW 7168   4.615   3.537   5.423
 2090SOL    HW1 7169   4.645   3.572   5.335
 2090SOL    HW2 7170   4.610   3.437   5.420
 2091SOL     OW 7171   6.258   5.928   1.599
 2091SOL    HW1 7172   6.286   5.917   1.695
 2091SOL    HW2 7173   6.228   5.839   1.563
 2092SOL     OW 7174   4.470   3.590   1.295
 2092SOL    HW1 7175   4.508   3.582   1.388
 2092SOL    HW2 7176   4.398   3.522   1.283
 2093SOL     OW 7177   3.810   2.128   2.884
 2093SOL    HW1 7178   3.786   2.164   2.975
 2093SOL    HW2 7179   3.727   2.093   2.841
 2094SOL     OW 7180   5.609   2.956   0.051
 2094SOL    HW1 7181   5.709   2.954   0.056
 2094SOL    HW2 7182   5.570   2.906   0.128
 2095SOL     OW 7183   5.816   6.309   3.718
 2095SOL    HW1 7184   5.759   6.378   3.762
 2095SOL    HW2 7185   5.769   6.221   3.720
 2096SOL     OW 7186   4.480   6.496   1.898
 2096SOL    HW1 7187   4.450   6.505   1.803
 2096SOL    HW2 7188   4.522   6.407   1.912
 2097SOL     OW 7189   2.130   4.625   6.654
 2097SOL    HW1 7190   2.091   4.562   6.587
 2097SOL    HW2 7191   2.080   4.617   6.740
 2098SOL     OW 7192   3.854   6.149   3.290
 2098SOL    HW1 7193   3.856   6.099   3.203
 2098SOL    HW2 7194   3.788   6.223   3.284
 2099SOL     OW 7195   5.290   1.290   0.076
 2099SOL    HW1 7196   5.301   1.191   0.081
 2099SOL    HW2 7197   5.202   1.312   0.035
 2100SOL     OW 7198   5.625   1.008   0.561
 2100SOL    HW1 7199   5.704   1.005   0.622
 2100SOL    HW2 7200   5.635   1.084   0.498
 2101SOL     OW 7201   0.410   6.422   1.538
 2101SOL    HW1 7202   0.448   6.462   1.621
 2101SOL    HW2 7203   0.431   6.481   1.460
 2102SOL     OW 7204   4.260   3.509   0.815
 2102SOL    HW1 7205   4.251   3.434   0.750
 2102SOL    HW2 7206   4.218   3.484   0.902
 2103SOL     OW 7207   2.885   5.833   6.967
 2103SOL    HW1 7208   2.810   5.777   7.002
 2103SOL    HW2 7209   2.861   5.930   6.976
 2104SOL     OW 7210   0.818   4.808   2.994
 2104SOL    HW1 7211   0.881   4.866   3.046
 2104SOL    HW2 7212   0.850   4.801   2.900
 2105SOL     OW 7213   5.256   4.619   0.045
 2105SOL    HW1 7214   5.343   4.638   7.027
 2105SOL    HW2 7215   5.274   4.588   0.138
 2106SOL     OW 7216   4.863   3.708   2.240
 2106SOL    HW1 7217   4.771   3.727   2.206
 2106SOL    HW2 7218   4.866   3.615   2.276
 2107SOL     OW 7219   5.567   3.980   5.157
 2107SOL    HW1 7220   5.554   3.933   5.245
 2107SOL    HW2 7221   5.652   3.949   5.115
 2108SOL     OW 7222   6.085   6.722   6.052
 2108SOL    HW1 7223   6.029   6.805   6.043
 2108SOL    HW2 7224   6.036   6.644   6.014
 2109SOL     OW 7225   3.110   5.566   3.193
 2109SOL    HW1 7226   3.174   5.575   3.117
 2109SOL    HW2 7227   3.077   5.472   3.197
 2110SOL     OW 7228   3.465   0.507   6.683
 2110SOL    HW1 7229   3.539   0.555   6.731
 2110SOL    HW2 7230   3.418   0.570   6.622
 2111SOL     OW 7231   1.112   3.034   5.687
 2111SOL    HW1 7232   1.187   3.094   5.714
 2111SOL    HW2 7233   1.113   2.952   5.746
 2112SOL     OW 7234   0.465   1.856   0.782
 2112SOL    HW1 7235   0.478   1.769   0.830
 2112SOL    HW2 7236   0.526   1.925   0.820
 2113SOL     OW 7237   2.012   0.262   4.730
 2113SOL    HW1 7238   1.917   0.233   4.745
 2113SOL    HW2 7239   2.029   0.269   4.631
 2114SOL     OW 7240   1.858   2.799   7.000
 2114SOL    HW1 7241   1.811   2.710   7.002
 2114SOL    HW2 7242   1.926   2.798   6.927
 2115SOL     OW 7243   0.232   5.278   3.248
 2115SOL    HW1 7244   0.291   5.219   3.192
 2115SOL    HW2 7245   0.183   5.223   3.314
 2116SOL     OW 7246   0.803   2.105   0.010
 2116SOL    HW1 7247   0.873   2.076   0.075
 2116SOL    HW2 7248   0.791   2.034   6.968
 2117SOL     OW 7249   5.734   1.566   2.102
 2117SOL    HW1 7250   5.717   1.595   2.196
 2117SOL    HW2 7251   5.686   1.626   2.039
 2118SOL     OW 7252   6.349   3.369   2.294
 2118SOL    HW1 7253   6.429   3.356   2.235
 2118SOL    HW2 7254   6.284   3.295   2.279
 2119SOL     OW 7255   2.877   0.461   6.911
 2119SOL    HW1 7256   2.828   0.375   6.906
 2119SOL    HW2 7257   2.938   0.469   6.832
 2120SOL     OW 7258   5.949   1.507   0.798
 2120SOL    HW1 7259   6.007   1.556   0.734
 2120SOL    HW2 7260   5.975   1.531   0.892
 2121SOL     OW 7261   2.351   0.923   6.422
 2121SOL    HW1 7262   2.362   0.902   6.325
 2121SOL    HW2 7263   2.275   0.987   6.434
 2122SOL     OW 7264   6.013   0.535   5.343
 2122SOL    HW1 7265   5.986   0.609   5.404
 2122SOL    HW2 7266   6.073   0.472   5.392
 2123SOL     OW 7267   1.223   6.201   2.942
 2123SOL    HW1 7268   1.135   6.222   2.900
 2123SOL    HW2 7269   1.287   6.276   2.926
 2124SOL     OW 7270   3.272   2.772   5.601
 2124SOL    HW1 7271   3.352   2.830   5.617
 2124SOL    HW2 7272   3.194   2.807   5.653
 2125SOL     OW 7273   1.832   6.084   2.952
 2125SOL    HW1 7274   1.842   6.093   2.853
 2125SOL    HW2 7275   1.735   6.082   2.976
 2126SOL     OW 7276   3.769   3.697   6.908
 2126SOL    HW1 7277   3.841   3.678   6.841
 2126SOL    HW2 7278   3.723   3.782   6.884
 2127SOL     OW 7279   0.276   2.880   5.822
 2127SOL    HW1 7280   0.293   2.802   5.761
 2127SOL    HW2 7281   0.179   2.885   5.843
 2128SOL     OW 7282   5.232   3.226   1.804
 2128SOL    HW1 7283   5.223   3.130   1.778
 2128SOL    HW2 7284   5.285   3.275   1.735
 2129SOL     OW 7285   5.565   4.322   3.740
 2129SOL    HW1 7286   5.653   4.276   3.726
 2129SOL    HW2 7287   5.507   4.306   3.661
 2130SOL     OW 7288   1.804   0.950   2.614
 2130SOL    HW1 7289   1.790   0.862   2.569
 2130SOL    HW2 7290   1.881   0.944   2.677
 2131SOL     OW 7291   5.821   1.826   5.788
 2131SOL    HW1 7292   5.798   1.751   5.727
 2131SOL    HW2 7293   5.892   1.797   5.852
 2132SOL     OW 7294   2.645   1.949   6.704
 2132SOL    HW1 7295   2.664   2.045   6.681
 2132SOL    HW2 7296   2.731   1.901   6.718
 2133SOL     OW 7297   2.358   2.276   1.848
 2133SOL    HW1 7298   2.356   2.178   1.868
 2133SOL    HW2 7299   2.397   2.325   1.926
 2134SOL     OW 7300   0.784   6.308   4.819
 2134SOL    HW1 7301   0.869   6.271   4.780
 2134SOL    HW2 7302   0.735   6.235   4.867
 2135SOL     OW 7303   0.749   1.144   3.505
 2135SOL    HW1 7304   0.818   1.172   3.439
 2135SOL    HW2 7305   0.660   1.135   3.459
 2136SOL     OW 7306   0.697   3.227   4.486
 2136SOL    HW1 7307   0.713   3.156   4.555
 2136SOL    HW2 7308   0.720   3.316   4.524
 2137SOL     OW 7309   1.419   7.005   4.965
 2137SOL    HW1 7310   1.490   6.968   4.905
 2137SOL    HW2 7311   1.439   6.978   5.060
 2138SOL     OW 7312   0.124   2.569   0.463
 2138SOL    HW1 7313   0.129   2.470   0.476
 2138SOL    HW2 7314   0.205   2.601   0.414
 2139SOL     OW 7315   3.177   0.377   4.710
 2139SOL    HW1 7316   3.259   0.319   4.707
 2139SOL    HW2 7317   3.177   0.438   4.631
 2140SOL     OW 7318   2.330   6.103   3.845
 2140SOL    HW1 7319   2.370   6.011   3.851
 2140SOL    HW2 7320   2.391   6.168   3.890
 2141SOL     OW 7321   5.841   2.349   0.742
 2141SOL    HW1 7322   5.859   2.269   0.800
 2141SOL    HW2 7323   5.770   2.405   0.784
 2142SOL     OW 7324   1.958   1.963   3.675
 2142SOL    HW1 7325   1.886   1.894   3.677
 2142SOL    HW2 7326   2.042   1.925   3.712
 2143SOL     OW 7327   3.249   0.012   1.566
 2143SOL    HW1 7328   3.155   0.036   1.586
 2143SOL    HW2 7329   3.304   0.019   1.649
 2144SOL     OW 7330   0.972   0.846   3.305
 2144SOL    HW1 7331   0.990   0.943   3.287
 2144SOL    HW2 7332   1.056   0.802   3.336
 2145SOL     OW 7333   3.487   5.227   3.460
 2145SOL    HW1 7334   3.534   5.196   3.378
 2145SOL    HW2 7335   3.542   5.297   3.506
 2146SOL     OW 7336   3.223   2.961   1.942
 2146SOL    HW1 7337   3.256   3.023   1.871
 2146SOL    HW2 7338   3.199   2.873   1.902
 2147SOL     OW 7339   0.702   1.648   6.182
 2147SOL    HW1 7340   0.699   1.549   6.178
 2147SOL    HW2 7341   0.769   1.677   6.251
 2148SOL     OW 7342   4.989   3.789   3.387
 2148SOL    HW1 7343   4.937   3.765   3.305
 2148SOL    HW2 7344   5.067   3.846   3.362
 2149SOL     OW 7345   3.907   1.062   2.344
 2149SOL    HW1 7346   3.919   1.161   2.348
 2149SOL    HW2 7347   3.988   1.017   2.381
 2150SOL     OW 7348   3.259   2.153   3.529
 2150SOL    HW1 7349   3.228   2.151   3.434
 2150SOL    HW2 7350   3.189   2.194   3.586
 2151SOL     OW 7351   3.650   2.685   5.614
 2151SOL    HW1 7352   3.611   2.777   5.625
 2151SOL    HW2 7353   3.579   2.617   5.631
 2152SOL     OW 7354   6.195   6.367   2.185
 2152SOL    HW1 7355   6.239   6.455   2.205
 2152SOL    HW2 7356   6.129   6.346   2.257
 2153SOL     OW 7357   4.598   1.839   3.903
 2153SOL    HW1 7358   4.512   1.846   3.853
 2153SOL    HW2 7359   4.668   1.799   3.843
 2154SOL     OW 7360   2.510   5.988   4.542
 2154SOL    HW1 7361   2.476   5.898   4.568
 2154SOL    HW2 7362   2.610   5.989   4.546
 2155SOL     OW 7363   1.479   4.066   0.107
 2155SOL    HW1 7364   1.498   4.008   0.187
 2155SOL    HW2 7365   1.459   4.159   0.137
 2156SOL     OW 7366   1.675   0.490   2.493
 2156SOL    HW1 7367   1.711   0.414   2.439
 2156SOL    HW2 7368   1.666   0.461   2.588
 2157SOL     OW 7369   0.352   1.135   4.842
 2157SOL    HW1 7370   0.351   1.134   4.742
 2157SOL    HW2 7371   0.263   1.107   4.876
 2158SOL     OW 7372   3.949   0.012   1.019
 2158SOL    HW1 7373   3.893   6.998   1.090
 2158SOL    HW2 7374   3.935   0.111   1.018
 2159SOL     OW 7375   1.160   6.926   4.803
 2159SOL    HW1 7376   1.244   6.937   4.857
 2159SOL    HW2 7377   1.083   6.911   4.865
 2160SOL     OW 7378   3.130   4.654   1.126
 2160SOL    HW1 7379   3.146   4.735   1.183
 2160SOL    HW2 7380   3.216   4.606   1.111
 2161SOL     OW 7381   4.897   3.295   3.270
 2161SOL    HW1 7382   4.864   3.216   3.322
 2161SOL    HW2 7383   4.940   3.360   3.332
 2162SOL     OW 7384   1.925   1.091   6.845
 2162SOL    HW1 7385   1.888   1.050   6.762
 2162SOL    HW2 7386   2.003   1.036   6.877
 2163SOL     OW 7387   1.607   1.075   0.523
 2163SOL    HW1 7388   1.565   0.998   0.571
 2163SOL    HW2 7389   1.592   1.066   0.424
 2164SOL     OW 7390   1.820   0.964   6.638
 2164SOL    HW1 7391   1.899   0.911   6.607
 2164SOL    HW2 7392   1.783   1.016   6.561
 2165SOL     OW 7393   1.765   0.059   3.048
 2165SOL    HW1 7394   1.713   0.138   3.016
 2165SOL    HW2 7395   1.813   0.082   3.132
 2166SOL     OW 7396   1.402   2.606   5.228
 2166SOL    HW1 7397   1.339   2.565   5.162
 2166SOL    HW2 7398   1.437   2.535   5.290
 2167SOL     OW 7399   3.636   0.832   2.041
 2167SOL    HW1 7400   3.646   0.883   2.127
 2167SOL    HW2 7401   3.653   0.893   1.964
 2168SOL     OW 7402   5.916   3.710   4.188
 2168SOL    HW1 7403   5.905   3.775   4.263
 2168SOL    HW2 7404   5.826   3.687   4.150
 2169SOL     OW 7405   4.812   2.462   6.243
 2169SOL    HW1 7406   4.798   2.559   6.223
 2169SOL    HW2 7407   4.829   2.413   6.158
 2170SOL     OW 7408   4.766   4.945   4.984
 2170SOL    HW1 7409   4.687   4.966   5.043
 2170SOL    HW2 7410   4.771   4.847   4.970
 2171SOL     OW 7411   6.896   3.008   0.420
 2171SOL    HW1 7412   6.988   3.004   0.383
 2171SOL    HW2 7413   6.833   3.039   0.349
 2172SOL     OW 7414   2.944   0.861   0.956
 2172SOL    HW1 7415   2.910   0.829   1.044
 2172SOL    HW2 7416   3.013   0.931   0.969
 2173SOL     OW 7417   5.131   1.627   5.641
 2173SOL    HW1 7418   5.068   1.588   5.574
 2173SOL    HW2 7419   5.189   1.555   5.679
 2174SOL     OW 7420   6.797   4.929   5.092
 2174SOL    HW1 7421   6.788   4.949   4.994
 2174SOL    HW2 7422   6.894   4.936   5.118
 2175SOL     OW 7423   2.646   0.433   4.015
 2175SOL    HW1 7424   2.665   0.336   3.996
 2175SOL    HW2 7425   2.609   0.476   3.932
 2176SOL     OW 7426   2.178   2.539   3.272
 2176SOL    HW1 7427   2.253   2.603   3.255
 2176SOL    HW2 7428   2.165   2.529   3.371
 2177SOL     OW 7429   0.439   2.416   0.792
 2177SOL    HW1 7430   0.340   2.408   0.808
 2177SOL    HW2 7431   0.469   2.508   0.816
 2178SOL     OW 7432   0.927   4.185   0.227
 2178SOL    HW1 7433   0.883   4.261   0.276
 2178SOL    HW2 7434   0.970   4.123   0.293
 2179SOL     OW 7435   1.489   5.065   4.342
 2179SOL    HW1 7436   1.506   5.136   4.274
 2179SOL    HW2 7437   1.571   5.007   4.352
 2180SOL     OW 7438   3.127   3.963   2.580
 2180SOL    HW1 7439   3.154   4.054   2.548
 2180SOL    HW2 7440   3.208   3.912   2.608
 2181SOL     OW 7441   5.544   5.758   5.818
 2181SOL    HW1 7442   5.561   5.839   5.762
 2181SOL    HW2 7443   5.478   5.699   5.772
 2182SOL     OW 7444   0.061   3.091   6.393
 2182SOL    HW1 7445   0.052   3.138   6.481
 2182SOL    HW2 7446   0.049   3.157   6.319
 2183SOL     OW 7447   3.594   2.983   0.861
 2183SOL    HW1 7448   3.532   2.904   0.867
 2183SOL    HW2 7449   3.634   2.986   0.770
 2184SOL     OW 7450   3.963   2.365   6.190
 2184SOL    HW1 7451   3.985   2.456   6.225
 2184SOL    HW2 7452   4.037   2.333   6.131
 2185SOL     OW 7453   1.794   0.877   1.431
 2185SOL    HW1 7454   1.737   0.911   1.506
 2185SOL    HW2 7455   1.736   0.854   1.353
 2186SOL     OW 7456   0.456   5.781   3.256
 2186SOL    HW1 7457   0.441   5.689   3.219
 2186SOL    HW2 7458   0.520   5.831   3.197
 2187SOL     OW 7459   6.686   1.601   0.222
 2187SOL    HW1 7460   6.710   1.511   0.260
 2187SOL    HW2 7461   6.768   1.642   0.182
 2188SOL     OW 7462   5.701   6.832   3.519
 2188SOL    HW1 7463   5.604   6.824   3.495
 2188SOL    HW2 7464   5.716   6.918   3.567
 2189SOL     OW 7465   2.065   6.659   6.122
 2189SOL    HW1 7466   2.120   6.733   6.083
 2189SOL    HW2 7467   2.054   6.675   6.220
 2190SOL     OW 7468   5.618   2.076   1.532
 2190SOL    HW1 7469   5.554   2.070   1.608
 2190SOL    HW2 7470   5.684   2.150   1.549
 2191SOL     OW 7471   3.009   2.726   6.413
 2191SOL    HW1 7472   3.029   2.690   6.504
 2191SOL    HW2 7473   3.094   2.757   6.370
 2192SOL     OW 7474   4.617   5.467   5.251
 2192SOL    HW1 7475   4.704   5.503   5.217
 2192SOL    HW2 7476   4.547   5.537   5.242
 2193SOL     OW 7477   0.770   5.286   5.330
 2193SOL    HW1 7478   0.849   5.240   5.289
 2193SOL    HW2 7479   0.686   5.251   5.289
 2194SOL     OW 7480   2.219   6.442   0.641
 2194SOL    HW1 7481   2.269   6.364   0.679
 2194SOL    HW2 7482   2.198   6.507   0.714
 2195SOL     OW 7483   1.031   5.338   2.776
 2195SOL    HW1 7484   0.970   5.316   2.700
 2195SOL    HW2 7485   0.998   5.296   2.860
 2196SOL     OW 7486   3.660   2.169   6.032
 2196SOL    HW1 7487   3.700   2.189   6.121
 2196SOL    HW2 7488   3.701   2.230   5.963
 2197SOL     OW 7489   4.962   5.221   1.340
 2197SOL    HW1 7490   4.908   5.287   1.392
 2197SOL    HW2 7491   4.951   5.130   1.380
 2198SOL     OW 7492   6.755   3.496   0.558
 2198SOL    HW1 7493   6.664   3.462   0.537
 2198SOL    HW2 7494   6.782   3.465   0.649
 2199SOL     OW 7495   4.746   0.112   1.233
 2199SOL    HW1 7496   4.652   0.081   1.223
 2199SOL    HW2 7497   4.783   0.137   1.144
 2200SOL     OW 7498   3.637   0.765   4.291
 2200SOL    HW1 7499   3.578   0.708   4.347
 2200SOL    HW2 7500   3.700   0.707   4.238
 2201SOL     OW 7501   5.822   3.626   2.125
 2201SOL    HW1 7502   5.808   3.586   2.034
 2201SOL    HW2 7503   5.886   3.570   2.177
 2202SOL     OW 7504   4.364   5.878   3.793
 2202SOL    HW1 7505   4.394   5.783   3.782
 2202SOL    HW2 7506   4.421   5.938   3.737
 2203SOL     OW 7507   3.490   2.121   3.358
 2203SOL    HW1 7508   3.465   2.196   3.419
 2203SOL    HW2 7509   3.410   2.063   3.342
 2204SOL     OW 7510   3.108   2.349   0.635
 2204SOL    HW1 7511   3.075   2.421   0.574
 2204SOL    HW2 7512   3.181   2.298   0.590
 2205SOL     OW 7513   3.034   0.127   1.022
 2205SOL    HW1 7514   2.991   0.195   0.963
 2205SOL    HW2 7515   3.117   0.166   1.063
 2206SOL     OW 7516   2.522   3.121   6.934
 2206SOL    HW1 7517   2.488   3.172   7.013
 2206SOL    HW2 7518   2.464   3.040   6.920
 2207SOL     OW 7519   0.950   4.495   6.318
 2207SOL    HW1 7520   0.871   4.497   6.257
 2207SOL    HW2 7521   0.985   4.402   6.324
 2208SOL     OW 7522   0.080   3.457   2.105
 2208SOL    HW1 7523   0.081   3.410   2.016
 2208SOL    HW2 7524   0.115   3.395   2.175
 2209SOL     OW 7525   0.868   5.801   6.463
 2209SOL    HW1 7526   0.883   5.758   6.552
 2209SOL    HW2 7527   0.828   5.734   6.400
 2210SOL     OW 7528   0.983   6.293   4.139
 2210SOL    HW1 7529   0.970   6.389   4.164
 2210SOL    HW2 7530   0.969   6.283   4.041
 2211SOL     OW 7531   5.806   1.262   5.800
 2211SOL    HW1 7532   5.866   1.195   5.756
 2211SOL    HW2 7533   5.712   1.248   5.769
 2212SOL     OW 7534   1.577   0.555   6.232
 2212SOL    HW1 7535   1.637   0.608   6.292
 2212SOL    HW2 7536   1.631   0.518   6.156
 2213SOL     OW 7537   3.639   1.897   3.473
 2213SOL    HW1 7538   3.586   1.969   3.429
 2213SOL    HW2 7539   3.650   1.820   3.411
 2214SOL     OW 7540   5.254   6.961   4.763
 2214SOL    HW1 7541   5.318   6.993   4.693
 2214SOL    HW2 7542   5.257   7.022   4.842
 2215SOL     OW 7543   6.359   2.358   5.290
 2215SOL    HW1 7544   6.450   2.336   5.323
 2215SOL    HW2 7545   6.336   2.453   5.315
 2216SOL     OW 7546   1.419   6.321   1.517
 2216SOL    HW1 7547   1.465   6.316   1.606
 2216SOL    HW2 7548   1.357   6.243   1.508
 2217SOL     OW 7549   3.965   0.213   1.414
 2217SOL    HW1 7550   3.884   0.206   1.356
 2217SOL    HW2 7551   4.040   0.254   1.363
 2218SOL     OW 7552   0.567   5.762   6.636
 2218SOL    HW1 7553   0.496   5.720   6.580
 2218SOL    HW2 7554   0.531   5.779   6.728
 2219SOL     OW 7555   2.088   3.695   2.959
 2219SOL    HW1 7556   2.057   3.645   2.878
 2219SOL    HW2 7557   2.097   3.631   3.036
 2220SOL     OW 7558   0.394   1.311   6.207
 2220SOL    HW1 7559   0.385   1.211   6.216
 2220SOL    HW2 7560   0.331   1.356   6.271
 2221SOL     OW 7561   6.562   2.271   1.573
 2221SOL    HW1 7562   6.499   2.209   1.620
 2221SOL    HW2 7563   6.520   2.362   1.567
 2222SOL     OW 7564   4.988   0.031   2.600
 2222SOL    HW1 7565   5.004   7.010   2.686
 2222SOL    HW2 7566   4.891   0.054   2.593
 2223SOL     OW 7567   5.674   5.338   3.369
 2223SOL    HW1 7568   5.733   5.415   3.348
 2223SOL    HW2 7569   5.678   5.271   3.294
 2224SOL     OW 7570   1.422   4.731   1.397
 2224SOL    HW1 7571   1.328   4.758   1.420
 2224SOL    HW2 7572   1.419   4.661   1.326
 2225SOL     OW 7573   6.369   5.112   2.136
 2225SOL    HW1 7574   6.372   5.015   2.159
 2225SOL    HW2 7575   6.314   5.161   2.203
 2226SOL     OW 7576   3.642   4.206   0.910
 2226SOL    HW1 7577   3.580   4.264   0.857
 2226SOL    HW2 7578   3.610   4.200   1.004
 2227SOL     OW 7579   6.728   4.068   5.104
 2227SOL    HW1 7580   6.701   4.105   5.192
 2227SOL    HW2 7581   6.822   4.092   5.084
 2228SOL     OW 7582   3.573   4.672   6.144
 2228SOL    HW1 7583   3.643   4.710   6.205
 2228SOL    HW2 7584   3.538   4.744   6.085
 2229SOL     OW 7585   4.287   0.854   3.368
 2229SOL    HW1 7586   4.374   0.904   3.367
 2229SOL    HW2 7587   4.220   0.903   3.314
 2230SOL     OW 7588   1.268   6.649   6.030
 2230SOL    HW1 7589   1.172   6.646   6.002
 2230SOL    HW2 7590   1.278   6.709   6.110
 2231SOL     OW 7591   2.256   7.005   1.712
 2231SOL    HW1 7592   2.352   6.990   1.692
 2231SOL    HW2 7593   2.233   6.964   1.801
 2232SOL     OW 7594   6.393   2.584   2.508
 2232SOL    HW1 7595   6.327   2.656   2.486
 2232SOL    HW2 7596   6.345   2.497   2.520
 2233SOL     OW 7597   3.704   0.081   0.078
 2233SOL    HW1 7598   3.748   0.017   0.141
 2233SOL    HW2 7599   3.772   0.121   0.017
 2234SOL     OW 7600   3.919   1.373   0.667
 2234SOL    HW1 7601   3.915   1.422   0.580
 2234SOL    HW2 7602   3.956   1.433   0.738
 2235SOL     OW 7603   1.248   6.642   0.876
 2235SOL    HW1 7604   1.176   6.586   0.917
 2235SOL    HW2 7605   1.224   6.662   0.781
 2236SOL     OW 7606   0.717   4.128   1.331
 2236SOL    HW1 7607   0.657   4.064   1.283
 2236SOL    HW2 7608   0.806   4.131   1.285
 2237SOL     OW 7609   6.062   2.868   4.486
 2237SOL    HW1 7610   5.989   2.800   4.474
 2237SOL    HW2 7611   6.070   2.923   4.403
 2238SOL     OW 7612   0.907   5.636   1.914
 2238SOL    HW1 7613   0.850   5.636   1.832
 2238SOL    HW2 7614   0.854   5.603   1.992
 2239SOL     OW 7615   4.399   5.146   3.282
 2239SOL    HW1 7616   4.472   5.134   3.349
 2239SOL    HW2 7617   4.313   5.111   3.320
 2240SOL     OW 7618   5.685   5.032   2.480
 2240SOL    HW1 7619   5.597   5.058   2.520
 2240SOL    HW2 7620   5.682   5.049   2.381
 2241SOL     OW 7621   0.282   0.099   2.160
 2241SOL    HW1 7622   0.350   0.069   2.093
 2241SOL    HW2 7623   0.192   0.102   2.117
 2242SOL     OW 7624   4.992   2.041   2.791
 2242SOL    HW1 7625   4.912   2.007   2.841
 2242SOL    HW2 7626   5.061   2.070   2.857
 2243SOL     OW 7627   2.347   5.917   4.967
 2243SOL    HW1 7628   2.403   5.881   5.042
 2243SOL    HW2 7629   2.376   6.010   4.945
 2244SOL     OW 7630   2.851   0.847   4.436
 2244SOL    HW1 7631   2.811   0.937   4.417
 2244SOL    HW2 7632   2.928   0.831   4.375
 2245SOL     OW 7633   0.989   1.314   2.401
 2245SOL    HW1 7634   0.951   1.398   2.363
 2245SOL    HW2 7635   0.916   1.248   2.416
 2246SOL     OW 7636   0.896   4.186   5.998
 2246SOL    HW1 7637   0.971   4.151   6.054
 2246SOL    HW2 7638   0.891   4.134   5.913
 2247SOL     OW 7639   2.151   2.495   6.176
 2247SOL    HW1 7640   2.107   2.545   6.101
 2247SOL    HW2 7641   2.224   2.551   6.215
 2248SOL     OW 7642   4.963   3.408   5.481
 2248SOL    HW1 7643   5.058   3.430   5.457
 2248SOL    HW2 7644   4.908   3.404   5.397
 2249SOL     OW 7645   5.089   5.516   3.782
 2249SOL    HW1 7646   5.143   5.539   3.862
 2249SOL    HW2 7647   5.061   5.420   3.786
 2250SOL     OW 7648   0.154   4.452   0.494
 2250SOL    HW1 7649   0.185   4.375   0.438
 2250SOL    HW2 7650   0.188   4.537   0.455
 2251SOL     OW 7651   5.542   1.037   6.883
 2251SOL    HW1 7652   5.526   1.095   6.804
 2251SOL    HW2 7653   5.546   0.941   6.854
 2252SOL     OW 7654   4.666   2.599   5.567
 2252SOL    HW1 7655   4.609   2.519   5.588
 2252SOL    HW2 7656   4.637   2.639   5.480
 2253SOL     OW 7657   2.457   3.346   0.075
 2253SOL    HW1 7658   2.465   3.333   0.174
 2253SOL    HW2 7659   2.514   3.423   0.046
 2254SOL     OW 7660   2.615   4.002   6.121
 2254SOL    HW1 7661   2.681   3.946   6.070
 2254SOL    HW2 7662   2.633   4.099   6.102
 2255SOL     OW 7663   6.216   2.507   1.547
 2255SOL    HW1 7664   6.153   2.451   1.601
 2255SOL    HW2 7665   6.309   2.497   1.584
 2256SOL     OW 7666   4.306   4.717   1.599
 2256SOL    HW1 7667   4.303   4.657   1.679
 2256SOL    HW2 7668   4.392   4.704   1.550
 2257SOL     OW 7669   1.918   4.282   4.141
 2257SOL    HW1 7670   1.924   4.314   4.046
 2257SOL    HW2 7671   1.903   4.361   4.201
 2258SOL     OW 7672   1.335   5.352   4.221
 2258SOL    HW1 7673   1.299   5.396   4.138
 2258SOL    HW2 7674   1.402   5.412   4.264
 2259SOL     OW 7675   4.862   3.810   0.099
 2259SOL    HW1 7676   4.840   3.886   0.037
 2259SOL    HW2 7677   4.871   3.726   0.047
 2260SOL     OW 7678   5.398   5.323   1.560
 2260SOL    HW1 7679   5.488   5.343   1.523
 2260SOL    HW2 7680   5.329   5.336   1.489
 2261SOL     OW 7681   5.348   6.351   6.975
 2261SOL    HW1 7682   5.262   6.381   6.935
 2261SOL    HW2 7683   5.422   6.363   6.909
 2262SOL     OW 7684   4.552   2.200   3.405
 2262SOL    HW1 7685   4.546   2.277   3.469
 2262SOL    HW2 7686   4.635   2.208   3.351
 2263SOL     OW 7687   0.737   5.109   5.821
 2263SOL    HW1 7688   0.759   5.063   5.736
 2263SOL    HW2 7689   0.813   5.169   5.847
 2264SOL     OW 7690   3.888   3.320   4.374
 2264SOL    HW1 7691   3.792   3.291   4.381
 2264SOL    HW2 7692   3.917   3.314   4.278
 2265SOL     OW 7693   0.132   6.757   1.779
 2265SOL    HW1 7694   0.054   6.812   1.749
 2265SOL    HW2 7695   0.213   6.815   1.786
 2266SOL     OW 7696   5.878   0.557   0.750
 2266SOL    HW1 7697   5.786   0.518   0.760
 2266SOL    HW2 7698   5.944   0.498   0.796
 2267SOL     OW 7699   6.234   2.778   5.938
 2267SOL    HW1 7700   6.165   2.735   5.996
 2267SOL    HW2 7701   6.194   2.796   5.848
 2268SOL     OW 7702   7.006   5.884   6.538
 2268SOL    HW1 7703   0.032   5.815   6.489
 2268SOL    HW2 7704   6.912   5.885   6.502
 2269SOL     OW 7705   6.460   5.143   5.787
 2269SOL    HW1 7706   6.492   5.065   5.842
 2269SOL    HW2 7707   6.478   5.125   5.690
 2270SOL     OW 7708   4.048   3.252   1.756
 2270SOL    HW1 7709   4.098   3.333   1.787
 2270SOL    HW2 7710   3.952   3.276   1.741
 2271SOL     OW 7711   6.632   4.594   2.191
 2271SOL    HW1 7712   6.705   4.587   2.260
 2271SOL    HW2 7713   6.632   4.686   2.153
 2272SOL     OW 7714   6.078   1.762   6.018
 2272SOL    HW1 7715   6.126   1.783   6.103
 2272SOL    HW2 7716   5.998   1.705   6.039
 2273SOL     OW 7717   0.742   1.695   2.835
 2273SOL    HW1 7718   0.728   1.622   2.768
 2273SOL    HW2 7719   0.654   1.719   2.877
 2274SOL     OW 7720   0.874   3.253   4.151
 2274SOL    HW1 7721   0.889   3.182   4.219
 2274SOL    HW2 7722   0.846   3.211   4.064
 2275SOL     OW 7723   5.030   6.792   3.878
 2275SOL    HW1 7724   5.028   6.715   3.942
 2275SOL    HW2 7725   4.969   6.865   3.910
 2276SOL     OW 7726   4.140   4.977   1.935
 2276SOL    HW1 7727   4.230   4.938   1.917
 2276SOL    HW2 7728   4.131   4.995   2.033
 2277SOL     OW 7729   3.501   3.315   0.112
 2277SOL    HW1 7730   3.429   3.252   0.141
 2277SOL    HW2 7731   3.591   3.276   0.135
 2278SOL     OW 7732   5.383   6.024   1.378
 2278SOL    HW1 7733   5.410   6.039   1.283
 2278SOL    HW2 7734   5.459   6.047   1.439
 2279SOL     OW 7735   5.802   3.578   4.733
 2279SOL    HW1 7736   5.738   3.602   4.659
 2279SOL    HW2 7737   5.874   3.519   4.697
 2280SOL     OW 7738   5.974   6.577   6.765
 2280SOL    HW1 7739   5.961   6.543   6.858
 2280SOL    HW2 7740   5.907   6.533   6.704
 2281SOL     OW 7741   3.555   2.719   0.840
 2281SOL    HW1 7742   3.584   2.719   0.935
 2281SOL    HW2 7743   3.519   2.629   0.816
 2282SOL     OW 7744   4.456   5.841   2.748
 2282SOL    HW1 7745   4.483   5.853   2.652
 2282SOL    HW2 7746   4.538   5.829   2.804
 2283SOL     OW 7747   6.997   2.935   3.096
 2283SOL    HW1 7748   6.996   2.837   3.116
 2283SOL    HW2 7749   6.964   2.985   3.176
 2284SOL     OW 7750   2.063   2.787   1.881
 2284SOL    HW1 7751   2.118   2.856   1.929
 2284SOL    HW2 7752   2.031   2.825   1.794
 2285SOL     OW 7753   1.617   4.298   0.658
 2285SOL    HW1 7754   1.706   4.286   0.701
 2285SOL    HW2 7755   1.575   4.208   0.641
 2286SOL     OW 7756   6.580   6.211   4.764
 2286SOL    HW1 7757   6.647   6.182   4.833
 2286SOL    HW2 7758   6.628   6.239   4.681
 2287SOL     OW 7759   2.119   2.703   2.168
 2287SOL    HW1 7760   2.125   2.801   2.150
 2287SOL    HW2 7761   2.149   2.652   2.087
 2288SOL     OW 7762   0.042   6.191   3.543
 2288SOL    HW1 7763   6.992   6.135   3.571
 2288SOL    HW2 7764   0.085   6.150   3.463
 2289SOL     OW 7765   5.261   2.020   2.255
 2289SOL    HW1 7766   5.244   1.978   2.166
 2289SOL    HW2 7767   5.294   2.114   2.242
 2290SOL     OW 7768   3.040   3.299   2.710
 2290SOL    HW1 7769   2.971   3.330   2.776
 2290SOL    HW2 7770   3.019   3.337   2.620
 2291SOL     OW 7771   1.826   2.860   0.580
 2291SOL    HW1 7772   1.906   2.803   0.561
 2291SOL    HW2 7773   1.767   2.813   0.646
 2292SOL     OW 7774   4.294   2.277   3.312
 2292SOL    HW1 7775   4.235   2.280   3.393
 2292SOL    HW2 7776   4.378   2.228   3.334
 2293SOL     OW 7777   6.119   1.283   6.847
 2293SOL    HW1 7778   6.020   1.271   6.835
 2293SOL    HW2 7779   6.167   1.221   6.785
 2294SOL     OW 7780   0.609   2.385   6.044
 2294SOL    HW1 7781   0.697   2.387   5.996
 2294SOL    HW2 7782   0.546   2.449   6.001
 2295SOL     OW 7783   5.843   6.640   1.444
 2295SOL    HW1 7784   5.906   6.675   1.375
 2295SOL    HW2 7785   5.893   6.586   1.512
 2296SOL     OW 7786   3.025   5.629   4.065
 2296SOL    HW1 7787   3.098   5.621   3.997
 2296SOL    HW2 7788   3.043   5.567   4.141
 2297SOL     OW 7789   4.246   4.544   5.372
 2297SOL    HW1 7790   4.267   4.526   5.276
 2297SOL    HW2 7791   4.322   4.513   5.429
 2298SOL     OW 7792   3.604   3.913   4.780
 2298SOL    HW1 7793   3.572   3.832   4.830
 2298SOL    HW2 7794   3.687   3.947   4.824
 2299SOL     OW 7795   5.551   2.763   4.763
 2299SOL    HW1 7796   5.541   2.675   4.717
 2299SOL    HW2 7797   5.556   2.748   4.862
 2300SOL     OW 7798   3.774   6.384   2.138
 2300SOL    HW1 7799   3.720   6.359   2.058
 2300SOL    HW2 7800   3.806   6.478   2.129
 2301SOL     OW 7801   3.491   3.600   4.553
 2301SOL    HW1 7802   3.456   3.550   4.474
 2301SOL    HW2 7803   3.438   3.575   4.634
 2302SOL     OW 7804   4.854   2.048   0.296
 2302SOL    HW1 7805   4.773   2.057   0.238
 2302SOL    HW2 7806   4.911   1.973   0.263
 2303SOL     OW 7807   3.606   2.246   0.785
 2303SOL    HW1 7808   3.614   2.215   0.880
 2303SOL    HW2 7809   3.616   2.168   0.723
 2304SOL     OW 7810   6.040   6.023   1.960
 2304SOL    HW1 7811   5.962   5.975   1.920
 2304SOL    HW2 7812   6.125   5.989   1.918
 2305SOL     OW 7813   2.087   1.153   4.997
 2305SOL    HW1 7814   2.116   1.203   5.078
 2305SOL    HW2 7815   1.988   1.164   4.985
 2306SOL     OW 7816   1.933   5.447   3.434
 2306SOL    HW1 7817   1.969   5.540   3.429
 2306SOL    HW2 7818   1.896   5.421   3.344
 2307SOL     OW 7819   0.575   2.195   5.401
 2307SOL    HW1 7820   0.656   2.211   5.345
 2307SOL    HW2 7821   0.603   2.166   5.492
 2308SOL     OW 7822   2.576   4.659   1.394
 2308SOL    HW1 7823   2.593   4.563   1.372
 2308SOL    HW2 7824   2.602   4.677   1.489
 2309SOL     OW 7825   1.356   6.164   5.037
 2309SOL    HW1 7826   1.386   6.107   4.960
 2309SOL    HW2 7827   1.416   6.244   5.044
 2310SOL     OW 7828   5.000   6.839   1.632
 2310SOL    HW1 7829   5.081   6.855   1.576
 2310SOL    HW2 7830   5.026   6.834   1.728
 2311SOL     OW 7831   2.409   6.148   1.148
 2311SOL    HW1 7832   2.328   6.169   1.093
 2311SOL    HW2 7833   2.482   6.211   1.125
 2312SOL     OW 7834   3.481   5.083   2.756
 2312SOL    HW1 7835   3.571   5.078   2.713
 2312SOL    HW2 7836   3.415   5.033   2.700
 2313SOL     OW 7837   4.982   5.196   2.322
 2313SOL    HW1 7838   5.062   5.191   2.261
 2313SOL    HW2 7839   5.013   5.209   2.416
 2314SOL     OW 7840   2.920   5.722   3.816
 2314SOL    HW1 7841   2.938   5.686   3.907
 2314SOL    HW2 7842   2.825   5.706   3.791
 2315SOL     OW 7843   4.142   3.278   6.929
 2315SOL    HW1 7844   4.160   3.374   6.952
 2315SOL    HW2 7845   4.196   3.253   6.849
 2316SOL     OW 7846   5.548   2.990   3.181
 2316SOL    HW1 7847   5.631   3.046   3.176
 2316SOL    HW2 7848   5.487   3.028   3.251
 2317SOL     OW 7849   1.490   4.911   3.437
 2317SOL    HW1 7850   1.449   4.997   3.406
 2317SOL    HW2 7851   1.582   4.902   3.398
 2318SOL     OW 7852   0.176   0.989   3.425
 2318SOL    HW1 7853   0.258   0.960   3.473
 2318SOL    HW2 7854   0.191   0.982   3.326
 2319SOL     OW 7855   1.484   4.034   4.013
 2319SOL    HW1 7856   1.435   4.118   3.990
 2319SOL    HW2 7857   1.566   4.056   4.066
 2320SOL     OW 7858   6.882   3.137   4.613
 2320SOL    HW1 7859   6.917   3.060   4.560
 2320SOL    HW2 7860   6.783   3.128   4.623
 2321SOL     OW 7861   3.223   6.636   5.472
 2321SOL    HW1 7862   3.194   6.554   5.521
 2321SOL    HW2 7863   3.142   6.690   5.448
 2322SOL     OW 7864   2.162   0.327   5.297
 2322SOL    HW1 7865   2.198   0.417   5.323
 2322SOL    HW2 7866   2.095   0.298   5.365
 2323SOL     OW 7867   4.493   5.334   2.071
 2323SOL    HW1 7868   4.538   5.248   2.048
 2323SOL    HW2 7869   4.547   5.382   2.141
 2324SOL     OW 7870   6.838   5.246   3.420
 2324SOL    HW1 7871   6.822   5.327   3.477
 2324SOL    HW2 7872   6.764   5.181   3.433
 2325SOL     OW 7873   0.071   3.576   0.718
 2325SOL    HW1 7874   0.101   3.659   0.764
 2325SOL    HW2 7875   0.024   3.517   0.784
 2326SOL     OW 7876   1.460   5.479   6.970
 2326SOL    HW1 7877   1.512   5.558   6.937
 2326SOL    HW2 7878   1.515   5.429   0.009
 2327SOL     OW 7879   4.705   2.846   4.459
 2327SOL    HW1 7880   4.628   2.787   4.484
 2327SOL    HW2 7881   4.789   2.793   4.457
 2328SOL     OW 7882   4.712   0.277   3.579
 2328SOL    HW1 7883   4.796   0.245   3.534
 2328SOL    HW2 7884   4.730   0.361   3.629
 2329SOL     OW 7885   0.643   6.507   3.678
 2329SOL    HW1 7886   0.616   6.413   3.701
 2329SOL    HW2 7887   0.696   6.545   3.754
 2330SOL     OW 7888   0.580   4.141   3.048
 2330SOL    HW1 7889   0.566   4.181   3.138
 2330SOL    HW2 7890   0.514   4.179   2.984
 2331SOL     OW 7891   0.864   4.501   5.211
 2331SOL    HW1 7892   0.769   4.490   5.240
 2331SOL    HW2 7893   0.867   4.520   5.113
 2332SOL     OW 7894   5.585   2.485   5.623
 2332SOL    HW1 7895   5.570   2.387   5.620
 2332SOL    HW2 7896   5.507   2.530   5.667
 2333SOL     OW 7897   1.071   6.043   3.508
 2333SOL    HW1 7898   1.107   5.964   3.458
 2333SOL    HW2 7899   1.006   6.093   3.450
 2334SOL     OW 7900   3.211   6.995   0.137
 2334SOL    HW1 7901   3.288   0.018   0.098
 2334SOL    HW2 7902   3.133   0.029   0.150
 2335SOL     OW 7903   4.979   6.619   4.082
 2335SOL    HW1 7904   4.978   6.540   4.143
 2335SOL    HW2 7905   5.042   6.688   4.118
 2336SOL     OW 7906   5.482   1.822   5.741
 2336SOL    HW1 7907   5.563   1.877   5.721
 2336SOL    HW2 7908   5.419   1.826   5.663
 2337SOL     OW 7909   5.454   6.855   3.367
 2337SOL    HW1 7910   5.439   6.944   3.410
 2337SOL    HW2 7911   5.485   6.868   3.273
 2338SOL     OW 7912   0.898   6.637   6.820
 2338SOL    HW1 7913   0.825   6.612   6.757
 2338SOL    HW2 7914   0.925   6.558   6.874
 2339SOL     OW 7915   3.430   4.006   0.460
 2339SOL    HW1 7916   3.498   4.014   0.533
 2339SOL    HW2 7917   3.473   3.970   0.378
 2340SOL     OW 7918   3.112   5.232   4.343
 2340SOL    HW1 7919   3.119   5.168   4.420
 2340SOL    HW2 7920   3.079   5.183   4.262
 2341SOL     OW 7921   5.438   5.030   0.718
 2341SOL    HW1 7922   5.405   4.958   0.657
 2341SOL    HW2 7923   5.408   5.011   0.811
 2342SOL     OW 7924   6.070   0.290   5.513
 2342SOL    HW1 7925   6.060   0.192   5.494
 2342SOL    HW2 7926   6.029   0.311   5.602
 2343SOL     OW 7927   1.196   6.665   1.328
 2343SOL    HW1 7928   1.228   6.573   1.304
 2343SOL    HW2 7929   1.096   6.667   1.324
 2344SOL     OW 7930   2.241   2.282   2.859
 2344SOL    HW1 7931   2.276   2.347   2.926
 2344SOL    HW2 7932   2.204   2.332   2.780
 2345SOL     OW 7933   2.077   1.407   4.619
 2345SOL    HW1 7934   2.092   1.317   4.660
 2345SOL    HW2 7935   2.039   1.395   4.527
 2346SOL     OW 7936   5.461   3.959   5.961
 2346SOL    HW1 7937   5.397   4.036   5.970
 2346SOL    HW2 7938   5.442   3.910   5.877
 2347SOL     OW 7939   1.770   2.977   1.901
 2347SOL    HW1 7940   1.692   3.038   1.892
 2347SOL    HW2 7941   1.775   2.943   1.995
 2348SOL     OW 7942   2.553   6.730   2.248
 2348SOL    HW1 7943   2.539   6.813   2.195
 2348SOL    HW2 7944   2.539   6.650   2.189
 2349SOL     OW 7945   5.555   5.951   5.628
 2349SOL    HW1 7946   5.507   5.878   5.579
 2349SOL    HW2 7947   5.597   6.014   5.562
 2350SOL     OW 7948   2.438   6.886   5.938
 2350SOL    HW1 7949   2.488   6.882   5.851
 2350SOL    HW2 7950   2.501   6.873   6.014
 2351SOL     OW 7951   2.231   5.457   4.340
 2351SOL    HW1 7952   2.185   5.474   4.427
 2351SOL    HW2 7953   2.286   5.374   4.347
 2352SOL     OW 7954   0.645   2.874   2.767
 2352SOL    HW1 7955   0.694   2.936   2.829
 2352SOL    HW2 7956   0.635   2.917   2.678
 2353SOL     OW 7957   3.013   4.278   5.779
 2353SOL    HW1 7958   2.927   4.297   5.731
 2353SOL    HW2 7959   2.998   4.282   5.877
 2354SOL     OW 7960   3.936   2.172   0.667
 2354SOL    HW1 7961   3.916   2.241   0.598
 2354SOL    HW2 7962   3.946   2.216   0.756
 2355SOL     OW 7963   0.503   6.308   0.741
 2355SOL    HW1 7964   0.599   6.324   0.763
 2355SOL    HW2 7965   0.488   6.209   0.730
 2356SOL     OW 7966   2.761   5.088   3.700
 2356SOL    HW1 7967   2.828   5.018   3.726
 2356SOL    HW2 7968   2.707   5.055   3.623
 2357SOL     OW 7969   6.746   4.293   1.712
 2357SOL    HW1 7970   6.724   4.309   1.808
 2357SOL    HW2 7971   6.781   4.201   1.701
 2358SOL     OW 7972   3.863   2.413   5.864
 2358SOL    HW1 7973   3.908   2.501   5.868
 2358SOL    HW2 7974   3.929   2.340   5.885
 2359SOL     OW 7975   1.288   1.768   5.558
 2359SOL    HW1 7976   1.385   1.748   5.573
 2359SOL    HW2 7977   1.232   1.694   5.596
 2360SOL     OW 7978   3.818   4.453   0.654
 2360SOL    HW1 7979   3.762   4.510   0.714
 2360SOL    HW2 7980   3.914   4.460   0.681
 2361SOL     OW 7981   3.837   6.148   1.694
 2361SOL    HW1 7982   3.855   6.091   1.613
 2361SOL    HW2 7983   3.889   6.113   1.771
 2362SOL     OW 7984   3.990   6.108   4.043
 2362SOL    HW1 7985   4.016   6.069   3.955
 2362SOL    HW2 7986   3.971   6.035   4.109
 2363SOL     OW 7987   3.128   3.904   0.764
 2363SOL    HW1 7988   3.116   3.920   0.666
 2363SOL    HW2 7989   3.216   3.943   0.793
 2364SOL     OW 7990   4.755   1.735   2.049
 2364SOL    HW1 7991   4.736   1.676   2.126
 2364SOL    HW2 7992   4.785   1.680   1.971
 2365SOL     OW 7993   4.913   3.654   3.896
 2365SOL    HW1 7994   4.958   3.692   3.816
 2365SOL    HW2 7995   4.874   3.728   3.951
 2366SOL     OW 7996   2.630   4.526   5.170
 2366SOL    HW1 7997   2.695   4.578   5.114
 2366SOL    HW2 7998   2.662   4.524   5.265
 2367SOL     OW 7999   0.577   4.459   5.649
 2367SOL    HW1 8000   0.621   4.483   5.735
 2367SOL    HW2 8001   0.560   4.542   5.596
 2368SOL     OW 8002   5.575   6.095   4.377
 2368SOL    HW1 8003   5.654   6.156   4.385
 2368SOL    HW2 8004   5.498   6.146   4.338
 2369SOL     OW 8005   3.102   1.698   3.756
 2369SOL    HW1 8006   3.154   1.783   3.765
 2369SOL    HW2 8007   3.040   1.688   3.833
 2370SOL     OW 8008   5.472   2.335   1.733
 2370SOL    HW1 8009   5.571   2.351   1.737
 2370SOL    HW2 8010   5.434   2.345   1.825
 2371SOL     OW 8011   0.891   6.960   2.944
 2371SOL    HW1 8012   0.812   6.972   2.885
 2371SOL    HW2 8013   0.879   6.877   2.999
 2372SOL     OW 8014   6.341   1.238   6.155
 2372SOL    HW1 8015   6.337   1.285   6.067
 2372SOL    HW2 8016   6.436   1.231   6.185
 2373SOL     OW 8017   5.742   6.569   6.325
 2373SOL    HW1 8018   5.676   6.503   6.288
 2373SOL    HW2 8019   5.740   6.653   6.271
 2374SOL     OW 8020   5.767   5.905   2.613
 2374SOL    HW1 8021   5.800   5.838   2.547
 2374SOL    HW2 8022   5.829   5.984   2.614
 2375SOL     OW 8023   1.101   0.698   4.136
 2375SOL    HW1 8024   1.005   0.684   4.158
 2375SOL    HW2 8025   1.158   0.647   4.201
 2376SOL     OW 8026   5.729   1.484   3.082
 2376SOL    HW1 8027   5.731   1.528   2.992
 2376SOL    HW2 8028   5.699   1.550   3.151
 2377SOL     OW 8029   4.041   4.933   6.069
 2377SOL    HW1 8030   4.120   4.986   6.100
 2377SOL    HW2 8031   3.961   4.958   6.123
 2378SOL     OW 8032   0.370   1.080   0.183
 2378SOL    HW1 8033   0.344   1.142   0.258
 2378SOL    HW2 8034   0.427   1.006   0.220
 2379SOL     OW 8035   6.603   5.351   1.157
 2379SOL    HW1 8036   6.674   5.405   1.203
 2379SOL    HW2 8037   6.515   5.398   1.164
 2380SOL     OW 8038   4.997   4.678   5.022
 2380SOL    HW1 8039   4.999   4.692   5.121
 2380SOL    HW2 8040   5.072   4.728   4.979
 2381SOL     OW 8041   2.778   5.373   4.796
 2381SOL    HW1 8042   2.790   5.297   4.732
 2381SOL    HW2 8043   2.713   5.347   4.867
 2382SOL     OW 8044   0.939   6.060   1.465
 2382SOL    HW1 8045   0.901   6.112   1.388
 2382SOL    HW2 8046   0.872   5.992   1.495
 2383SOL     OW 8047   5.134   5.578   5.569
 2383SOL    HW1 8048   5.095   5.538   5.486
 2383SOL    HW2 8049   5.216   5.630   5.546
 2384SOL     OW 8050   0.610   1.919   1.906
 2384SOL    HW1 8051   0.674   1.978   1.857
 2384SOL    HW2 8052   0.550   1.873   1.841
 2385SOL     OW 8053   0.949   2.097   1.073
 2385SOL    HW1 8054   0.992   2.048   0.997
 2385SOL    HW2 8055   0.908   2.031   1.136
 2386SOL     OW 8056   4.523   5.956   4.490
 2386SOL    HW1 8057   4.443   5.906   4.521
 2386SOL    HW2 8058   4.499   6.012   4.410
 2387SOL     OW 8059   1.922   1.357   3.917
 2387SOL    HW1 8060   1.869   1.299   3.978
 2387SOL    HW2 8061   1.987   1.411   3.970
 2388SOL     OW 8062   6.373   1.552   5.252
 2388SOL    HW1 8063   6.346   1.527   5.159
 2388SOL    HW2 8064   6.437   1.483   5.287
 2389SOL     OW 8065   6.071   4.589   4.567
 2389SOL    HW1 8066   5.994   4.614   4.625
 2389SOL    HW2 8067   6.155   4.630   4.604
 2390SOL     OW 8068   4.832   4.176   5.810
 2390SOL    HW1 8069   4.772   4.256   5.819
 2390SOL    HW2 8070   4.796   4.101   5.865
 2391SOL     OW 8071   3.708   3.735   6.361
 2391SOL    HW1 8072   3.625   3.728   6.305
 2391SOL    HW2 8073   3.731   3.645   6.398
 2392SOL     OW 8074   3.183   5.502   4.640
 2392SOL    HW1 8075   3.200   5.426   4.703
 2392SOL    HW2 8076   3.171   5.467   4.547
 2393SOL     OW 8077   3.178   5.317   1.397
 2393SOL    HW1 8078   3.171   5.365   1.310
 2393SOL    HW2 8079   3.182   5.219   1.381
 2394SOL     OW 8080   0.942   2.508   2.992
 2394SOL    HW1 8081   0.928   2.568   2.914
 2394SOL    HW2 8082   0.914   2.415   2.969
 2395SOL     OW 8083   6.980   2.345   5.576
 2395SOL    HW1 8084   0.039   2.296   5.590
 2395SOL    HW2 8085   6.996   2.422   5.514
 2396SOL     OW 8086   6.515   1.340   5.339
 2396SOL    HW1 8087   6.600   1.291   5.356
 2396SOL    HW2 8088   6.437   1.280   5.361
 2397SOL     OW 8089   0.247   5.233   4.994
 2397SOL    HW1 8090   0.334   5.251   4.949
 2397SOL    HW2 8091   0.185   5.187   4.931
 2398SOL     OW 8092   3.080   5.953   3.719
 2398SOL    HW1 8093   3.015   5.885   3.754
 2398SOL    HW2 8094   3.173   5.921   3.735
 2399SOL     OW 8095   2.825   2.311   3.865
 2399SOL    HW1 8096   2.803   2.352   3.954
 2399SOL    HW2 8097   2.768   2.231   3.850
 2400SOL     OW 8098   1.221   3.973   0.525
 2400SOL    HW1 8099   1.305   4.023   0.548
 2400SOL    HW2 8100   1.197   3.912   0.600
 2401SOL     OW 8101   3.608   0.101   5.737
 2401SOL    HW1 8102   3.697   0.134   5.770
 2401SOL    HW2 8103   3.561   0.176   5.691
 2402SOL     OW 8104   0.742   3.263   2.121
 2402SOL    HW1 8105   0.696   3.351   2.129
 2402SOL    HW2 8106   0.840   3.277   2.104
 2403SOL     OW 8107   3.485   4.013   3.108
 2403SOL    HW1 8108   3.389   4.039   3.103
 2403SOL    HW2 8109   3.524   4.045   3.194
 2404SOL     OW 8110   6.789   1.577   1.095
 2404SOL    HW1 8111   6.847   1.517   1.041
 2404SOL    HW2 8112   6.786   1.668   1.052
 2405SOL     OW 8113   2.465   3.862   0.607
 2405SOL    HW1 8114   2.482   3.769   0.575
 2405SOL    HW2 8115   2.379   3.866   0.657
 2406SOL     OW 8116   2.716   6.694   5.284
 2406SOL    HW1 8117   2.723   6.705   5.185
 2406SOL    HW2 8118   2.621   6.702   5.312
 2407SOL     OW 8119   3.666   1.260   3.731
 2407SOL    HW1 8120   3.574   1.227   3.709
 2407SOL    HW2 8121   3.684   1.244   3.828
 2408SOL     OW 8122   2.472   6.287   4.828
 2408SOL    HW1 8123   2.450   6.287   4.925
 2408SOL    HW2 8124   2.418   6.357   4.781
 2409SOL     OW 8125   2.369   2.663   1.094
 2409SOL    HW1 8126   2.441   2.594   1.096
 2409SOL    HW2 8127   2.279   2.619   1.099
 2410SOL     OW 8128   6.906   3.953   5.942
 2410SOL    HW1 8129   6.826   4.010   5.922
 2410SOL    HW2 8130   6.981   3.978   5.880
 2411SOL     OW 8131   2.539   3.615   0.018
 2411SOL    HW1 8132   2.544   3.606   6.946
 2411SOL    HW2 8133   2.490   3.699   0.041
 2412SOL     OW 8134   3.249   1.795   6.732
 2412SOL    HW1 8135   3.251   1.891   6.760
 2412SOL    HW2 8136   3.267   1.787   6.634
 2413SOL     OW 8137   0.454   2.595   6.387
 2413SOL    HW1 8138   0.446   2.501   6.353
 2413SOL    HW2 8139   0.551   2.617   6.403
 2414SOL     OW 8140   6.003   2.570   4.777
 2414SOL    HW1 8141   6.023   2.642   4.844
 2414SOL    HW2 8142   6.075   2.567   4.708
 2415SOL     OW 8143   3.008   5.976   0.690
 2415SOL    HW1 8144   2.924   5.947   0.734
 2415SOL    HW2 8145   3.064   6.029   0.754
 2416SOL     OW 8146   6.847   3.308   3.003
 2416SOL    HW1 8147   6.926   3.274   2.952
 2416SOL    HW2 8148   6.772   3.242   2.995
 2417SOL     OW 8149   3.915   3.852   0.973
 2417SOL    HW1 8150   3.894   3.877   1.068
 2417SOL    HW2 8151   3.841   3.794   0.937
 2418SOL     OW 8152   4.937   4.052   5.593
 2418SOL    HW1 8153   4.926   4.101   5.680
 2418SOL    HW2 8154   4.930   4.116   5.517
 2419SOL     OW 8155   2.122   6.226   4.164
 2419SOL    HW1 8156   2.080   6.145   4.204
 2419SOL    HW2 8157   2.152   6.288   4.236
 2420SOL     OW 8158   2.573   4.610   2.678
 2420SOL    HW1 8159   2.603   4.640   2.769
 2420SOL    HW2 8160   2.536   4.517   2.684
 2421SOL     OW 8161   3.011   6.818   4.423
 2421SOL    HW1 8162   2.955   6.736   4.410
 2421SOL    HW2 8163   3.070   6.831   4.343
 2422SOL     OW 8164   4.206   6.540   1.356
 2422SOL    HW1 8165   4.178   6.561   1.449
 2422SOL    HW2 8166   4.204   6.623   1.300
 2423SOL     OW 8167   2.096   4.650   2.112
 2423SOL    HW1 8168   2.144   4.649   2.024
 2423SOL    HW2 8169   1.997   4.657   2.096
 2424SOL     OW 8170   5.190   1.337   6.001
 2424SOL    HW1 8171   5.235   1.418   6.037
 2424SOL    HW2 8172   5.138   1.292   6.074
 2425SOL     OW 8173   4.494   5.239   5.635
 2425SOL    HW1 8174   4.504   5.234   5.536
 2425SOL    HW2 8175   4.417   5.181   5.664
 2426SOL     OW 8176   1.294   4.901   5.387
 2426SOL    HW1 8177   1.379   4.937   5.349
 2426SOL    HW2 8178   1.314   4.845   5.467
 2427SOL     OW 8179   5.007   0.896   6.366
 2427SOL    HW1 8180   5.046   0.957   6.298
 2427SOL    HW2 8181   5.023   0.933   6.458
 2428SOL     OW 8182   0.525   0.751   3.229
 2428SOL    HW1 8183   0.489   0.791   3.144
 2428SOL    HW2 8184   0.619   0.721   3.215
 2429SOL     OW 8185   5.507   5.739   2.338
 2429SOL    HW1 8186   5.480   5.646   2.366
 2429SOL    HW2 8187   5.518   5.741   2.238
 2430SOL     OW 8188   6.232   2.957   0.037
 2430SOL    HW1 8189   6.206   2.887   0.103
 2430SOL    HW2 8190   6.152   3.011   0.011
 2431SOL     OW 8191   6.824   1.843   0.997
 2431SOL    HW1 8192   6.817   1.792   0.911
 2431SOL    HW2 8193   6.735   1.885   1.017
 2432SOL     OW 8194   3.925   5.104   2.134
 2432SOL    HW1 8195   3.837   5.151   2.144
 2432SOL    HW2 8196   3.930   5.063   2.043
 2433SOL     OW 8197   6.752   3.792   0.245
 2433SOL    HW1 8198   6.719   3.830   0.331
 2433SOL    HW2 8199   6.736   3.859   0.171
 2434SOL     OW 8200   3.647   1.764   2.900
 2434SOL    HW1 8201   3.740   1.747   2.867
 2434SOL    HW2 8202   3.615   1.852   2.866
 2435SOL     OW 8203   5.222   6.791   6.647
 2435SOL    HW1 8204   5.231   6.763   6.743
 2435SOL    HW2 8205   5.312   6.795   6.604
 2436SOL     OW 8206   2.211   1.675   0.949
 2436SOL    HW1 8207   2.142   1.649   1.017
 2436SOL    HW2 8208   2.166   1.719   0.871
 2437SOL     OW 8209   6.813   5.701   1.876
 2437SOL    HW1 8210   6.853   5.646   1.949
 2437SOL    HW2 8211   6.876   5.774   1.850
 2438SOL     OW 8212   3.078   1.430   4.909
 2438SOL    HW1 8213   3.094   1.467   4.817
 2438SOL    HW2 8214   2.979   1.418   4.923
 2439SOL     OW 8215   0.494   5.536   0.278
 2439SOL    HW1 8216   0.533   5.517   0.188
 2439SOL    HW2 8217   0.501   5.455   0.335
 2440SOL     OW 8218   4.526   1.198   5.002
 2440SOL    HW1 8219   4.620   1.164   5.010
 2440SOL    HW2 8220   4.527   1.298   5.002
 2441SOL     OW 8221   5.731   0.409   6.855
 2441SOL    HW1 8222   5.710   0.317   6.887
 2441SOL    HW2 8223   5.830   0.425   6.863
 2442SOL     OW 8224   4.925   4.090   2.012
 2442SOL    HW1 8225   4.938   4.119   1.917
 2442SOL    HW2 8226   5.014   4.068   2.053
 2443SOL     OW 8227   2.073   2.050   0.551
 2443SOL    HW1 8228   2.093   1.981   0.622
 2443SOL    HW2 8229   2.003   2.015   0.489
 2444SOL     OW 8230   3.337   5.623   0.640
 2444SOL    HW1 8231   3.387   5.539   0.662
 2444SOL    HW2 8232   3.286   5.653   0.721
 2445SOL     OW 8233   0.724   2.052   0.717
 2445SOL    HW1 8234   0.735   1.990   0.639
 2445SOL    HW2 8235   0.731   2.000   0.802
 2446SOL     OW 8236   1.591   3.783   1.535
 2446SOL    HW1 8237   1.558   3.859   1.592
 2446SOL    HW2 8238   1.633   3.820   1.452
 2447SOL     OW 8239   2.634   0.400   1.161
 2447SOL    HW1 8240   2.617   0.330   1.092
 2447SOL    HW2 8241   2.556   0.407   1.223
 2448SOL     OW 8242   6.315   1.594   4.157
 2448SOL    HW1 8243   6.309   1.634   4.066
 2448SOL    HW2 8244   6.406   1.610   4.194
 2449SOL     OW 8245   1.646   4.269   1.858
 2449SOL    HW1 8246   1.714   4.195   1.853
 2449SOL    HW2 8247   1.691   4.356   1.842
 2450SOL     OW 8248   2.016   5.563   6.619
 2450SOL    HW1 8249   2.087   5.614   6.572
 2450SOL    HW2 8250   1.931   5.566   6.567
 2451SOL     OW 8251   0.969   0.002   4.599
 2451SOL    HW1 8252   1.034   6.979   4.656
 2451SOL    HW2 8253   0.887   6.973   4.584
 2452SOL     OW 8254   2.559   2.415   3.438
 2452SOL    HW1 8255   2.544   2.325   3.398
 2452SOL    HW2 8256   2.609   2.405   3.524
 2453SOL     OW 8257   0.264   1.490   0.202
 2453SOL    HW1 8258   0.346   1.528   0.160
 2453SOL    HW2 8259   0.288   1.449   0.291
 2454SOL     OW 8260   3.896   5.150   1.126
 2454SOL    HW1 8261   3.808   5.128   1.085
 2454SOL    HW2 8262   3.970   5.118   1.066
 2455SOL     OW 8263   3.803   0.936   0.491
 2455SOL    HW1 8264   3.828   0.889   0.576
 2455SOL    HW2 8265   3.757   0.872   0.429
 2456SOL     OW 8266   1.356   4.650   0.041
 2456SOL    HW1 8267   1.301   4.568   0.022
 2456SOL    HW2 8268   1.367   4.702   6.984
 2457SOL     OW 8269   5.526   1.619   5.364
 2457SOL    HW1 8270   5.491   1.594   5.274
 2457SOL    HW2 8271   5.574   1.707   5.359
 2458SOL     OW 8272   0.788   0.277   2.888
 2458SOL    HW1 8273   0.737   0.201   2.847
 2458SOL    HW2 8274   0.885   0.255   2.890
 2459SOL     OW 8275   2.501   6.233   0.373
 2459SOL    HW1 8276   2.593   6.195   0.375
 2459SOL    HW2 8277   2.502   6.325   0.336
 2460SOL     OW 8278   1.511   1.334   6.891
 2460SOL    HW1 8279   1.464   1.245   6.890
 2460SOL    HW2 8280   1.600   1.324   6.936
 2461SOL     OW 8281   4.166   0.518   4.108
 2461SOL    HW1 8282   4.115   0.559   4.032
 2461SOL    HW2 8283   4.264   0.534   4.094
 2462SOL     OW 8284   0.561   5.355   1.047
 2462SOL    HW1 8285   0.639   5.306   1.006
 2462SOL    HW2 8286   0.506   5.291   1.100
 2463SOL     OW 8287   6.818   1.004   0.040
 2463SOL    HW1 8288   6.916   0.987   0.047
 2463SOL    HW2 8289   6.786   0.977   6.977
 2464SOL     OW 8290   6.735   2.173   2.561
 2464SOL    HW1 8291   6.701   2.247   2.503
 2464SOL    HW2 8292   6.782   2.212   2.641
 2465SOL     OW 8293   0.167   5.134   6.066
 2465SOL    HW1 8294   0.184   5.069   6.140
 2465SOL    HW2 8295   0.252   5.183   6.044
 2466SOL     OW 8296   1.456   1.804   1.983
 2466SOL    HW1 8297   1.515   1.735   1.943
 2466SOL    HW2 8298   1.360   1.783   1.961
 2467SOL     OW 8299   4.774   1.560   6.088
 2467SOL    HW1 8300   4.752   1.463   6.098
 2467SOL    HW2 8301   4.701   1.606   6.038
 2468SOL     OW 8302   3.789   0.477   6.293
 2468SOL    HW1 8303   3.863   0.541   6.315
 2468SOL    HW2 8304   3.745   0.505   6.208
 2469SOL     OW 8305   4.418   2.582   5.899
 2469SOL    HW1 8306   4.430   2.590   5.998
 2469SOL    HW2 8307   4.440   2.489   5.869
 2470SOL     OW 8308   3.916   4.830   6.794
 2470SOL    HW1 8309   3.971   4.802   6.874
 2470SOL    HW2 8310   3.907   4.753   6.732
 2471SOL     OW 8311   3.841   6.667   0.867
 2471SOL    HW1 8312   3.901   6.746   0.853
 2471SOL    HW2 8313   3.761   6.695   0.919
 2472SOL     OW 8314   4.523   2.568   4.077
 2472SOL    HW1 8315   4.622   2.557   4.069
 2472SOL    HW2 8316   4.502   2.663   4.099
 2473SOL     OW 8317   1.002   4.038   5.098
 2473SOL    HW1 8318   1.067   4.107   5.129
 2473SOL    HW2 8319   1.051   3.956   5.069
 2474SOL     OW 8320   1.033   5.476   0.686
 2474SOL    HW1 8321   1.082   5.499   0.770
 2474SOL    HW2 8322   0.938   5.505   0.694
 2475SOL     OW 8323   5.153   0.437   0.728
 2475SOL    HW1 8324   5.156   0.536   0.714
 2475SOL    HW2 8325   5.112   0.393   0.648
 2476SOL     OW 8326   5.633   0.592   2.364
 2476SOL    HW1 8327   5.619   0.625   2.270
 2476SOL    HW2 8328   5.688   0.658   2.414
 2477SOL     OW 8329   3.980   0.298   3.529
 2477SOL    HW1 8330   4.062   0.267   3.481
 2477SOL    HW2 8331   4.008   0.353   3.609
 2478SOL     OW 8332   4.012   1.284   2.750
 2478SOL    HW1 8333   4.105   1.314   2.774
 2478SOL    HW2 8334   3.945   1.350   2.783
 2479SOL     OW 8335   0.680   2.796   1.721
 2479SOL    HW1 8336   0.729   2.717   1.684
 2479SOL    HW2 8337   0.744   2.873   1.731
 2480SOL     OW 8338   3.562   2.696   1.120
 2480SOL    HW1 8339   3.463   2.692   1.135
 2480SOL    HW2 8340   3.600   2.773   1.171
 2481SOL     OW 8341   3.132   0.308   1.889
 2481SOL    HW1 8342   3.074   0.335   1.812
 2481SOL    HW2 8343   3.087   0.234   1.940
 2482SOL     OW 8344   4.977   3.775   0.336
 2482SOL    HW1 8345   5.021   3.859   0.367
 2482SOL    HW2 8346   4.937   3.791   0.245
 2483SOL     OW 8347   0.956   2.351   0.045
 2483SOL    HW1 8348   0.881   2.288   0.025
 2483SOL    HW2 8349   0.929   2.413   0.118
 2484SOL     OW 8350   3.883   0.921   1.481
 2484SOL    HW1 8351   3.870   1.020   1.483
 2484SOL    HW2 8352   3.823   0.878   1.549
 2485SOL     OW 8353   5.863   2.449   6.951
 2485SOL    HW1 8354   5.862   2.363   7.003
 2485SOL    HW2 8355   5.773   2.465   6.911
 2486SOL     OW 8356   0.561   5.197   5.208
 2486SOL    HW1 8357   0.478   5.164   5.253
 2486SOL    HW2 8358   0.540   5.220   5.113
 2487SOL     OW 8359   4.240   6.417   0.940
 2487SOL    HW1 8360   4.212   6.330   0.980
 2487SOL    HW2 8361   4.219   6.417   0.842
 2488SOL     OW 8362   0.342   3.849   1.976
 2488SOL    HW1 8363   0.439   3.845   1.998
 2488SOL    HW2 8364   0.329   3.903   1.893
 2489SOL     OW 8365   0.802   6.626   3.898
 2489SOL    HW1 8366   0.745   6.596   3.975
 2489SOL    HW2 8367   0.898   6.623   3.925
 2490SOL     OW 8368   0.800   5.712   0.856
 2490SOL    HW1 8369   0.718   5.658   0.876
 2490SOL    HW2 8370   0.809   5.723   0.757
 2491SOL     OW 8371   3.949   4.149   1.416
 2491SOL    HW1 8372   3.910   4.171   1.326
 2491SOL    HW2 8373   4.009   4.070   1.407
 2492SOL     OW 8374   5.156   3.626   1.598
 2492SOL    HW1 8375   5.068   3.672   1.611
 2492SOL    HW2 8376   5.161   3.548   1.660
 2493SOL     OW 8377   0.105   0.389   0.926
 2493SOL    HW1 8378   0.121   0.297   0.889
 2493SOL    HW2 8379   0.123   0.389   1.024
 2494SOL     OW 8380   6.175   3.872   1.914
 2494SOL    HW1 8381   6.184   3.925   1.999
 2494SOL    HW2 8382   6.222   3.920   1.840
 2495SOL     OW 8383   5.203   5.907   3.391
 2495SOL    HW1 8384   5.241   5.897   3.299
 2495SOL    HW2 8385   5.140   5.985   3.393
 2496SOL     OW 8386   0.535   3.573   6.977
 2496SOL    HW1 8387   0.463   3.555   0.015
 2496SOL    HW2 8388   0.581   3.488   6.953
 2497SOL     OW 8389   0.739   0.248   0.354
 2497SOL    HW1 8390   0.671   0.213   0.418
 2497SOL    HW2 8391   0.747   0.347   0.365
 2498SOL     OW 8392   3.186   2.391   5.513
 2498SOL    HW1 8393   3.110   2.335   5.480
 2498SOL    HW2 8394   3.234   2.430   5.436
 2499SOL     OW 8395   6.057   2.828   2.045
 2499SOL    HW1 8396   6.133   2.795   2.101
 2499SOL    HW2 8397   6.092   2.881   1.969
 2500SOL     OW 8398   3.787   3.391   6.657
 2500SOL    HW1 8399   3.835   3.304   6.644
 2500SOL    HW2 8400   3.728   3.385   6.737
 2501SOL     OW 8401   5.174   5.753   0.076
 2501SOL    HW1 8402   5.270   5.775   0.090
 2501SOL    HW2 8403   5.135   5.719   0.162
 2502SOL     OW 8404   2.132   6.827   4.930
 2502SOL    HW1 8405   2.188   6.843   4.849
 2502SOL    HW2 8406   2.188   6.837   5.012
 2503SOL     OW 8407   3.487   6.758   5.099
 2503SOL    HW1 8408   3.485   6.662   5.074
 2503SOL    HW2 8409   3.415   6.807   5.049
 2504SOL     OW 8410   3.734   5.327   2.415
 2504SOL    HW1 8411   3.638   5.331   2.388
 2504SOL    HW2 8412   3.744   5.275   2.499
 2505SOL     OW 8413   0.631   5.980   3.157
 2505SOL    HW1 8414   0.727   6.001   3.173
 2505SOL    HW2 8415   0.575   6.060   3.179
 2506SOL     OW 8416   6.566   3.741   6.132
 2506SOL    HW1 8417   6.514   3.683   6.070
 2506SOL    HW2 8418   6.609   3.684   6.203
 2507SOL     OW 8419   0.389   3.454   0.367
 2507SOL    HW1 8420   0.363   3.424   0.459
 2507SOL    HW2 8421   0.395   3.375   0.306
 2508SOL     OW 8422   2.682   1.836   4.509
 2508SOL    HW1 8423   2.753   1.796   4.568
 2508SOL    HW2 8424   2.612   1.878   4.566
 2509SOL     OW 8425   6.645   4.458   0.265
 2509SOL    HW1 8426   6.743   4.438   0.266
 2509SOL    HW2 8427   6.617   4.492   0.355
 2510SOL     OW 8428   3.684   4.595   0.850
 2510SOL    HW1 8429   3.585   4.603   0.839
 2510SOL    HW2 8430   3.711   4.634   0.938
 2511SOL     OW 8431   2.068   1.163   4.704
 2511SOL    HW1 8432   2.111   1.124   4.786
 2511SOL    HW2 8433   2.003   1.097   4.666
 2512SOL     OW 8434   4.388   4.089   5.306
 2512SOL    HW1 8435   4.381   3.990   5.291
 2512SOL    HW2 8436   4.302   4.133   5.280
 2513SOL     OW 8437   2.059   5.440   4.926
 2513SOL    HW1 8438   2.024   5.367   4.867
 2513SOL    HW2 8439   2.100   5.400   5.007
 2514SOL     OW 8440   0.781   3.548   4.176
 2514SOL    HW1 8441   0.839   3.466   4.180
 2514SOL    HW2 8442   0.812   3.608   4.103
 2515SOL     OW 8443   1.799   6.714   1.258
 2515SOL    HW1 8444   1.809   6.749   1.165
 2515SOL    HW2 8445   1.887   6.679   1.290
 2516SOL     OW 8446   4.902   1.309   2.053
 2516SOL    HW1 8447   4.984   1.323   2.109
 2516SOL    HW2 8448   4.926   1.319   1.957
 2517SOL     OW 8449   1.645   0.412   6.006
 2517SOL    HW1 8450   1.631   0.392   5.909
 2517SOL    HW2 8451   1.584   0.354   6.061
 2518SOL     OW 8452   1.459   5.521   0.611
 2518SOL    HW1 8453   1.445   5.493   0.706
 2518SOL    HW2 8454   1.371   5.543   0.570
 2519SOL     OW 8455   3.592   1.221   1.757
 2519SOL    HW1 8456   3.602   1.259   1.849
 2519SOL    HW2 8457   3.595   1.294   1.690
 2520SOL     OW 8458   3.316   1.520   7.003
 2520SOL    HW1 8459   3.415   1.531   6.990
 2520SOL    HW2 8460   3.294   1.534   0.073
 2521SOL     OW 8461   3.121   1.728   5.422
 2521SOL    HW1 8462   3.094   1.689   5.510
 2521SOL    HW2 8463   3.130   1.827   5.431
 2522SOL     OW 8464   1.880   1.566   5.523
 2522SOL    HW1 8465   1.972   1.594   5.550
 2522SOL    HW2 8466   1.886   1.495   5.453
 2523SOL     OW 8467   1.564   3.348   1.321
 2523SOL    HW1 8468   1.652   3.393   1.340
 2523SOL    HW2 8469   1.489   3.408   1.351
 2524SOL     OW 8470   0.135   6.788   4.246
 2524SOL    HW1 8471   0.102   6.857   4.310
 2524SOL    HW2 8472   0.111   6.815   4.152
 2525SOL     OW 8473   1.610   3.210   4.676
 2525SOL    HW1 8474   1.677   3.220   4.602
 2525SOL    HW2 8475   1.584   3.300   4.710
 2526SOL     OW 8476   1.820   4.405   6.340
 2526SOL    HW1 8477   1.827   4.452   6.252
 2526SOL    HW2 8478   1.740   4.346   6.340
 2527SOL     OW 8479   5.600   6.176   5.437
 2527SOL    HW1 8480   5.612   6.271   5.465
 2527SOL    HW2 8481   5.513   6.165   5.389
 2528SOL     OW 8482   5.684   4.438   5.909
 2528SOL    HW1 8483   5.610   4.449   5.843
 2528SOL    HW2 8484   5.753   4.508   5.894
 2529SOL     OW 8485   0.306   6.637   6.981
 2529SOL    HW1 8486   0.392   6.622   6.932
 2529SOL    HW2 8487   0.325   6.686   0.039
 2530SOL     OW 8488   2.535   6.170   5.231
 2530SOL    HW1 8489   2.464   6.211   5.174
 2530SOL    HW2 8490   2.510   6.179   5.327
 2531SOL     OW 8491   5.988   6.257   5.374
 2531SOL    HW1 8492   6.086   6.250   5.394
 2531SOL    HW2 8493   5.949   6.334   5.425
 2532SOL     OW 8494   0.088   6.279   0.907
 2532SOL    HW1 8495   0.067   6.367   0.866
 2532SOL    HW2 8496   0.160   6.233   0.854
 2533SOL     OW 8497   4.770   0.500   3.724
 2533SOL    HW1 8498   4.841   0.462   3.784
 2533SOL    HW2 8499   4.811   0.560   3.656
 2534SOL     OW 8500   3.558   1.336   1.506
 2534SOL    HW1 8501   3.458   1.344   1.503
 2534SOL    HW2 8502   3.594   1.341   1.413
 2535SOL     OW 8503   3.573   2.485   6.651
 2535SOL    HW1 8504   3.643   2.419   6.680
 2535SOL    HW2 8505   3.587   2.571   6.700
 2536SOL     OW 8506   1.582   0.717   6.675
 2536SOL    HW1 8507   1.503   0.658   6.695
 2536SOL    HW2 8508   1.640   0.724   6.756
 2537SOL     OW 8509   3.345   6.913   6.532
 2537SOL    HW1 8510   3.266   6.947   6.481
 2537SOL    HW2 8511   3.368   6.977   6.605
 2538SOL     OW 8512   0.256   3.471   3.794
 2538SOL    HW1 8513   0.295   3.515   3.875
 2538SOL    HW2 8514   0.304   3.502   3.712
 2539SOL     OW 8515   5.122   1.066   4.122
 2539SOL    HW1 8516   5.033   1.023   4.108
 2539SOL    HW2 8517   5.150   1.055   4.218
 2540SOL     OW 8518   4.069   1.841   2.701
 2540SOL    HW1 8519   4.019   1.758   2.726
 2540SOL    HW2 8520   4.008   1.903   2.653
 2541SOL     OW 8521   3.202   0.004   5.341
 2541SOL    HW1 8522   3.216   0.089   5.290
 2541SOL    HW2 8523   3.112   6.994   5.319
 2542SOL     OW 8524   3.671   3.397   6.295
 2542SOL    HW1 8525   3.604   3.366   6.228
 2542SOL    HW2 8526   3.661   3.345   6.379
 2543SOL     OW 8527   0.352   0.755   4.379
 2543SOL    HW1 8528   0.334   0.658   4.392
 2543SOL    HW2 8529   0.356   0.800   4.468
 2544SOL     OW 8530   0.331   5.774   0.285
 2544SOL    HW1 8531   0.398   5.700   0.288
 2544SOL    HW2 8532   0.297   5.785   0.192
 2545SOL     OW 8533   1.645   6.492   2.017
 2545SOL    HW1 8534   1.666   6.545   1.934
 2545SOL    HW2 8535   1.730   6.472   2.066
 2546SOL     OW 8536   0.010   1.921   1.178
 2546SOL    HW1 8537   0.052   1.843   1.223
 2546SOL    HW2 8538   6.955   1.891   1.130
 2547SOL     OW 8539   0.656   4.084   0.277
 2547SOL    HW1 8540   0.640   4.061   0.373
 2547SOL    HW2 8541   0.753   4.103   0.263
 2548SOL     OW 8542   0.911   6.745   4.641
 2548SOL    HW1 8543   0.864   6.756   4.728
 2548SOL    HW2 8544   1.006   6.719   4.658
 2549SOL     OW 8545   0.960   0.351   1.658
 2549SOL    HW1 8546   0.880   0.405   1.631
 2549SOL    HW2 8547   1.041   0.385   1.610
 2550SOL     OW 8548   6.436   7.025   0.345
 2550SOL    HW1 8549   6.453   0.091   0.376
 2550SOL    HW2 8550   6.389   7.026   0.257
 2551SOL     OW 8551   3.156   4.539   0.423
 2551SOL    HW1 8552   3.185   4.574   0.334
 2551SOL    HW2 8553   3.189   4.599   0.495
 2552SOL     OW 8554   2.033   5.938   4.249
 2552SOL    HW1 8555   1.951   5.952   4.193
 2552SOL    HW2 8556   2.032   5.845   4.286
 2553SOL     OW 8557   3.880   3.616   6.075
 2553SOL    HW1 8558   3.917   3.569   5.995
 2553SOL    HW2 8559   3.877   3.715   6.058
 2554SOL     OW 8560   2.505   0.705   0.632
 2554SOL    HW1 8561   2.445   0.667   0.561
 2554SOL    HW2 8562   2.464   0.692   0.722
 2555SOL     OW 8563   5.844   1.517   4.299
 2555SOL    HW1 8564   5.937   1.552   4.290
 2555SOL    HW2 8565   5.820   1.463   4.219
 2556SOL     OW 8566   4.366   6.196   0.366
 2556SOL    HW1 8567   4.404   6.285   0.389
 2556SOL    HW2 8568   4.290   6.175   0.427
 2557SOL     OW 8569   1.642   3.620   0.781
 2557SOL    HW1 8570   1.738   3.600   0.800
 2557SOL    HW2 8571   1.624   3.610   0.684
 2558SOL     OW 8572   4.814   1.399   5.198
 2558SOL    HW1 8573   4.774   1.483   5.235
 2558SOL    HW2 8574   4.842   1.339   5.273
 2559SOL     OW 8575   1.176   4.274   5.538
 2559SOL    HW1 8576   1.090   4.291   5.492
 2559SOL    HW2 8577   1.249   4.327   5.494
 2560SOL     OW 8578   6.024   2.738   5.697
 2560SOL    HW1 8579   6.040   2.733   5.599
 2560SOL    HW2 8580   5.930   2.708   5.717
 2561SOL     OW 8581   2.767   4.877   5.003
 2561SOL    HW1 8582   2.794   4.931   5.082
 2561SOL    HW2 8583   2.777   4.779   5.023
 2562SOL     OW 8584   2.162   4.835   0.938
 2562SOL    HW1 8585   2.211   4.758   0.896
 2562SOL    HW2 8586   2.228   4.897   0.981
 2563SOL     OW 8587   3.880   1.406   1.040
 2563SOL    HW1 8588   3.863   1.325   0.983
 2563SOL    HW2 8589   3.948   1.465   0.996
 2564SOL     OW 8590   1.878   5.786   6.874
 2564SOL    HW1 8591   1.795   5.731   6.859
 2564SOL    HW2 8592   1.955   5.725   6.889
 2565SOL     OW 8593   1.530   0.762   7.020
 2565SOL    HW1 8594   1.608   0.795   6.967
 2565SOL    HW2 8595   1.550   0.672   0.030
 2566SOL     OW 8596   2.523   6.719   1.791
 2566SOL    HW1 8597   2.530   6.789   1.720
 2566SOL    HW2 8598   2.463   6.751   1.864
 2567SOL     OW 8599   1.095   0.389   0.858
 2567SOL    HW1 8600   0.999   0.403   0.881
 2567SOL    HW2 8601   1.123   0.298   0.888
 2568SOL     OW 8602   4.689   1.861   6.792
 2568SOL    HW1 8603   4.781   1.853   6.829
 2568SOL    HW2 8604   4.686   1.822   6.700
 2569SOL     OW 8605   3.309   0.837   2.903
 2569SOL    HW1 8606   3.277   0.828   2.997
 2569SOL    HW2 8607   3.325   0.934   2.882
 2570SOL     OW 8608   5.741   0.688   5.570
 2570SOL    HW1 8609   5.841   0.694   5.576
 2570SOL    HW2 8610   5.707   0.758   5.506
 2571SOL     OW 8611   1.522   4.762   3.716
 2571SOL    HW1 8612   1.556   4.822   3.643
 2571SOL    HW2 8613   1.466   4.816   3.779
 2572SOL     OW 8614   3.007   5.517   2.374
 2572SOL    HW1 8615   2.913   5.512   2.407
 2572SOL    HW2 8616   3.050   5.427   2.380
 2573SOL     OW 8617   0.687   1.944   0.973
 2573SOL    HW1 8618   0.737   1.902   1.049
 2573SOL    HW2 8619   0.617   2.005   1.009
 2574SOL     OW 8620   5.102   3.571   1.291
 2574SOL    HW1 8621   5.118   3.473   1.275
 2574SOL    HW2 8622   5.091   3.587   1.389
 2575SOL     OW 8623   5.704   5.665   6.793
 2575SOL    HW1 8624   5.762   5.728   6.741
 2575SOL    HW2 8625   5.646   5.718   6.855
 2576SOL     OW 8626   4.248   6.353   4.516
 2576SOL    HW1 8627   4.342   6.368   4.486
 2576SOL    HW2 8628   4.237   6.257   4.542
 2577SOL     OW 8629   3.232   5.323   1.923
 2577SOL    HW1 8630   3.238   5.396   1.855
 2577SOL    HW2 8631   3.197   5.240   1.879
 2578SOL     OW 8632   3.733   1.577   3.817
 2578SOL    HW1 8633   3.823   1.533   3.819
 2578SOL    HW2 8634   3.667   1.516   3.773
 2579SOL     OW 8635   1.291   6.331   4.043
 2579SOL    HW1 8636   1.253   6.298   4.130
 2579SOL    HW2 8637   1.347   6.259   4.001
 2580SOL     OW 8638   2.765   4.723   6.880
 2580SOL    HW1 8639   2.844   4.668   6.854
 2580SOL    HW2 8640   2.755   4.722   6.980
 2581SOL     OW 8641   1.892   5.544   0.834
 2581SOL    HW1 8642   1.953   5.616   0.800
 2581SOL    HW2 8643   1.860   5.569   0.926
 2582SOL     OW 8644   0.056   4.154   1.812
 2582SOL    HW1 8645   0.056   4.254   1.806
 2582SOL    HW2 8646   0.146   4.119   1.787
 2583SOL     OW 8647   0.842   0.949   6.722
 2583SOL    HW1 8648   0.837   1.001   6.637
 2583SOL    HW2 8649   0.750   0.941   6.762
 2584SOL     OW 8650   4.246   4.676   5.654
 2584SOL    HW1 8651   4.184   4.675   5.575
 2584SOL    HW2 8652   4.193   4.668   5.738
 2585SOL     OW 8653   2.672   4.219   0.209
 2585SOL    HW1 8654   2.744   4.153   0.230
 2585SOL    HW2 8655   2.704   4.311   0.232
 2586SOL     OW 8656   3.029   1.586   5.636
 2586SOL    HW1 8657   2.968   1.531   5.578
 2586SOL    HW2 8658   3.104   1.528   5.670
 2587SOL     OW 8659   6.200   1.324   3.411
 2587SOL    HW1 8660   6.107   1.295   3.391
 2587SOL    HW2 8661   6.262   1.283   3.343
 2588SOL     OW 8662   4.103   2.435   5.581
 2588SOL    HW1 8663   4.005   2.449   5.567
 2588SOL    HW2 8664   4.151   2.443   5.493
 2589SOL     OW 8665   1.116   6.789   6.813
 2589SOL    HW1 8666   1.191   6.728   6.787
 2589SOL    HW2 8667   1.028   6.745   6.792
 2590SOL     OW 8668   2.962   4.918   0.169
 2590SOL    HW1 8669   2.886   4.859   0.142
 2590SOL    HW2 8670   3.019   4.871   0.237
 2591SOL     OW 8671   6.955   5.204   3.176
 2591SOL    HW1 8672   6.927   5.217   3.271
 2591SOL    HW2 8673   6.924   5.115   3.143
 2592SOL     OW 8674   2.938   4.191   6.543
 2592SOL    HW1 8675   2.894   4.200   6.633
 2592SOL    HW2 8676   2.905   4.265   6.483
 2593SOL     OW 8677   3.006   5.554   0.479
 2593SOL    HW1 8678   3.081   5.498   0.513
 2593SOL    HW2 8679   2.949   5.500   0.418
 2594SOL     OW 8680   2.946   4.301   6.033
 2594SOL    HW1 8681   2.848   4.286   6.042
 2594SOL    HW2 8682   2.980   4.351   6.113
 2595SOL     OW 8683   0.452   1.789   4.046
 2595SOL    HW1 8684   0.439   1.778   4.144
 2595SOL    HW2 8685   0.389   1.729   3.996
 2596SOL     OW 8686   2.287   2.906   1.022
 2596SOL    HW1 8687   2.231   2.891   0.941
 2596SOL    HW2 8688   2.328   2.820   1.051
 2597SOL     OW 8689   7.000   5.331   6.573
 2597SOL    HW1 8690   6.996   5.430   6.586
 2597SOL    HW2 8691   0.065   5.304   6.548
 2598SOL     OW 8692   6.557   1.455   1.744
 2598SOL    HW1 8693   6.537   1.548   1.714
 2598SOL    HW2 8694   6.643   1.425   1.703
 2599SOL     OW 8695   1.492   6.137   0.866
 2599SOL    HW1 8696   1.584   6.152   0.832
 2599SOL    HW2 8697   1.461   6.046   0.841
 2600SOL     OW 8698   5.829   2.799   3.975
 2600SOL    HW1 8699   5.734   2.831   3.968
 2600SOL    HW2 8700   5.842   2.752   4.063
 2601SOL     OW 8701   1.679   2.377   1.726
 2601SOL    HW1 8702   1.731   2.309   1.778
 2601SOL    HW2 8703   1.585   2.379   1.759
 2602SOL     OW 8704   1.833   5.083   4.519
 2602SOL    HW1 8705   1.769   5.155   4.545
 2602SOL    HW2 8706   1.790   4.994   4.535
 2603SOL     OW 8707   2.330   0.804   2.538
 2603SOL    HW1 8708   2.337   0.895   2.580
 2603SOL    HW2 8709   2.234   0.775   2.538
 2604SOL     OW 8710   5.427   1.833   2.377
 2604SOL    HW1 8711   5.383   1.903   2.321
 2604SOL    HW2 8712   5.358   1.768   2.410
 2605SOL     OW 8713   1.542   3.647   2.671
 2605SOL    HW1 8714   1.541   3.732   2.723
 2605SOL    HW2 8715   1.555   3.667   2.574
 2606SOL     OW 8716   5.808   5.141   1.535
 2606SOL    HW1 8717   5.757   5.212   1.584
 2606SOL    HW2 8718   5.779   5.051   1.568
 2607SOL     OW 8719   1.759   1.888   1.301
 2607SOL    HW1 8720   1.806   1.864   1.216
 2607SOL    HW2 8721   1.660   1.876   1.290
 2608SOL     OW 8722   2.553   5.551   6.476
 2608SOL    HW1 8723   2.637   5.596   6.507
 2608SOL    HW2 8724   2.576   5.482   6.407
 2609SOL     OW 8725   0.242   1.201   1.339
 2609SOL    HW1 8726   0.254   1.102   1.328
 2609SOL    HW2 8727   0.228   1.222   1.436
 2610SOL     OW 8728   1.261   4.577   3.758
 2610SOL    HW1 8729   1.312   4.625   3.686
 2610SOL    HW2 8730   1.182   4.633   3.785
 2611SOL     OW 8731   4.329   6.348   0.095
 2611SOL    HW1 8732   4.246   6.400   0.114
 2611SOL    HW2 8733   4.343   6.280   0.167
 2612SOL     OW 8734   5.447   6.981   4.499
 2612SOL    HW1 8735   5.462   6.943   4.407
 2612SOL    HW2 8736   5.429   0.052   4.491
 2613SOL     OW 8737   1.777   5.214   6.413
 2613SOL    HW1 8738   1.849   5.277   6.441
 2613SOL    HW2 8739   1.818   5.125   6.390
 2614SOL     OW 8740   5.789   0.790   6.256
 2614SOL    HW1 8741   5.747   0.874   6.223
 2614SOL    HW2 8742   5.765   0.775   6.351
 2615SOL     OW 8743   1.280   3.173   1.787
 2615SOL    HW1 8744   1.221   3.102   1.827
 2615SOL    HW2 8745   1.281   3.253   1.847
 2616SOL     OW 8746   0.899   1.235   5.124
 2616SOL    HW1 8747   0.942   1.197   5.207
 2616SOL    HW2 8748   0.914   1.334   5.122
 2617SOL     OW 8749   5.025   0.803   0.826
 2617SOL    HW1 8750   5.084   0.781   0.748
 2617SOL    HW2 8751   5.073   0.863   0.889
 2618SOL     OW 8752   1.082   5.535   4.694
 2618SOL    HW1 8753   1.147   5.516   4.621
 2618SOL    HW2 8754   1.127   5.524   4.783
 2619SOL     OW 8755   4.536   1.662   1.740
 2619SOL    HW1 8756   4.594   1.597   1.692
 2619SOL    HW2 8757   4.452   1.616   1.769
 2620SOL     OW 8758   6.213   6.307   1.903
 2620SOL    HW1 8759   6.137   6.244   1.889
 2620SOL    HW2 8760   6.216   6.336   1.999
 2621SOL     OW 8761   0.738   5.485   2.717
 2621SOL    HW1 8762   0.788   5.436   2.645
 2621SOL    HW2 8763   0.766   5.581   2.718
 2622SOL     OW 8764   2.872   2.913   6.057
 2622SOL    HW1 8765   2.890   2.918   6.156
 2622SOL    HW2 8766   2.891   2.820   6.025
 2623SOL     OW 8767   0.458   6.954   3.674
 2623SOL    HW1 8768   0.539   6.959   3.732
 2623SOL    HW2 8769   0.470   6.882   3.606
 2624SOL     OW 8770   6.527   2.490   4.618
 2624SOL    HW1 8771   6.470   2.441   4.552
 2624SOL    HW2 8772   6.474   2.509   4.700
 2625SOL     OW 8773   2.171   4.909   5.479
 2625SOL    HW1 8774   2.114   4.980   5.436
 2625SOL    HW2 8775   2.223   4.949   5.554
 2626SOL     OW 8776   6.429   0.081   5.492
 2626SOL    HW1 8777   6.521   0.074   5.530
 2626SOL    HW2 8778   6.432   0.060   5.394
 2627SOL     OW 8779   0.899   0.378   6.493
 2627SOL    HW1 8780   0.997   0.398   6.491
 2627SOL    HW2 8781   0.866   0.386   6.587
 2628SOL     OW 8782   1.666   3.445   3.694
 2628SOL    HW1 8783   1.609   3.523   3.670
 2628SOL    HW2 8784   1.762   3.474   3.700
 2629SOL     OW 8785   3.219   4.023   3.215
 2629SOL    HW1 8786   3.133   4.013   3.265
 2629SOL    HW2 8787   3.291   3.971   3.262
 2630SOL     OW 8788   3.334   0.747   3.182
 2630SOL    HW1 8789   3.388   0.667   3.154
 2630SOL    HW2 8790   3.393   0.815   3.224
 2631SOL     OW 8791   5.325   0.490   6.248
 2631SOL    HW1 8792   5.384   0.466   6.324
 2631SOL    HW2 8793   5.249   0.546   6.281
 2632SOL     OW 8794   5.431   4.958   1.590
 2632SOL    HW1 8795   5.397   5.017   1.663
 2632SOL    HW2 8796   5.526   4.934   1.608
 2633SOL     OW 8797   6.603   2.872   5.527
 2633SOL    HW1 8798   6.588   2.785   5.573
 2633SOL    HW2 8799   6.696   2.874   5.488
 2634SOL     OW 8800   6.975   5.889   4.652
 2634SOL    HW1 8801   6.976   5.949   4.572
 2634SOL    HW2 8802   0.036   5.895   4.698
 2635SOL     OW 8803   5.473   5.504   4.085
 2635SOL    HW1 8804   5.504   5.409   4.084
 2635SOL    HW2 8805   5.521   5.555   4.014
 2636SOL     OW 8806   3.648   0.896   6.159
 2636SOL    HW1 8807   3.674   0.909   6.063
 2636SOL    HW2 8808   3.713   0.943   6.218
 2637SOL     OW 8809   0.161   1.856   3.402
 2637SOL    HW1 8810   0.227   1.924   3.434
 2637SOL    HW2 8811   0.074   1.870   3.448
 2638SOL     OW 8812   0.816   0.246   4.423
 2638SOL    HW1 8813   0.855   0.307   4.492
 2638SOL    HW2 8814   0.779   0.164   4.467
 2639SOL     OW 8815   5.036   4.982   5.006
 2639SOL    HW1 8816   4.945   4.941   4.997
 2639SOL    HW2 8817   5.058   4.992   5.103
 2640SOL     OW 8818   0.810   0.041   5.231
 2640SOL    HW1 8819   0.879   7.016   5.279
 2640SOL    HW2 8820   0.797   0.129   5.276
 2641SOL     OW 8821   5.490   2.558   0.303
 2641SOL    HW1 8822   5.522   2.514   0.386
 2641SOL    HW2 8823   5.540   2.643   0.288
 2642SOL     OW 8824   0.018   1.068   4.086
 2642SOL    HW1 8825   0.100   1.019   4.058
 2642SOL    HW2 8826   6.965   1.020   4.051
 2643SOL     OW 8827   0.809   3.053   3.973
 2643SOL    HW1 8828   0.717   3.013   3.983
 2643SOL    HW2 8829   0.877   2.989   4.009
 2644SOL     OW 8830   4.490   5.467   4.937
 2644SOL    HW1 8831   4.457   5.507   4.851
 2644SOL    HW2 8832   4.562   5.525   4.975
 2645SOL     OW 8833   4.893   5.178   3.449
 2645SOL    HW1 8834   4.962   5.213   3.386
 2645SOL    HW2 8835   4.938   5.125   3.521
 2646SOL     OW 8836   0.524   3.802   6.240
 2646SOL    HW1 8837   0.444   3.862   6.235
 2646SOL    HW2 8838   0.579   3.828   6.320
 2647SOL     OW 8839   5.271   0.233   1.683
 2647SOL    HW1 8840   5.225   0.258   1.598
 2647SOL    HW2 8841   5.318   0.313   1.720
 2648SOL     OW 8842   0.658   0.300   3.906
 2648SOL    HW1 8843   0.719   0.241   3.853
 2648SOL    HW2 8844   0.678   0.290   4.003
 2649SOL     OW 8845   5.244   2.877   1.873
 2649SOL    HW1 8846   5.154   2.915   1.895
 2649SOL    HW2 8847   5.275   2.913   1.785
 2650SOL     OW 8848   2.940   5.987   4.800
 2650SOL    HW1 8849   2.844   5.964   4.786
 2650SOL    HW2 8850   2.969   5.956   4.891
 2651SOL     OW 8851   3.677   1.856   6.214
 2651SOL    HW1 8852   3.755   1.837   6.274
 2651SOL    HW2 8853   3.593   1.854   6.266
 2652SOL     OW 8854   4.491   3.740   5.608
 2652SOL    HW1 8855   4.572   3.799   5.601
 2652SOL    HW2 8856   4.510   3.653   5.563
 2653SOL     OW 8857   3.322   5.829   6.080
 2653SOL    HW1 8858   3.328   5.882   6.164
 2653SOL    HW2 8859   3.359   5.737   6.095
 2654SOL     OW 8860   5.180   6.872   0.585
 2654SOL    HW1 8861   5.190   6.849   0.489
 2654SOL    HW2 8862   5.084   6.864   0.612
 2655SOL     OW 8863   4.968   6.052   3.461
 2655SOL    HW1 8864   4.952   5.954   3.465
 2655SOL    HW2 8865   5.002   6.084   3.550
 2656SOL     OW 8866   3.679   6.048   3.978
 2656SOL    HW1 8867   3.738   6.020   4.054
 2656SOL    HW2 8868   3.735   6.089   3.906
 2657SOL     OW 8869   1.764   3.901   0.721
 2657SOL    HW1 8870   1.834   3.958   0.679
 2657SOL    HW2 8871   1.794   3.873   0.812
 2658SOL     OW 8872   4.043   4.058   6.312
 2658SOL    HW1 8873   4.107   4.112   6.367
 2658SOL    HW2 8874   4.083   3.967   6.296
 2659SOL     OW 8875   5.297   2.312   4.974
 2659SOL    HW1 8876   5.384   2.296   5.021
 2659SOL    HW2 8877   5.280   2.411   4.968
 2660SOL     OW 8878   0.850   1.350   0.869
 2660SOL    HW1 8879   0.920   1.414   0.836
 2660SOL    HW2 8880   0.834   1.365   0.966
 2661SOL     OW 8881   1.415   0.719   1.595
 2661SOL    HW1 8882   1.422   0.779   1.675
 2661SOL    HW2 8883   1.343   0.651   1.612
 2662SOL     OW 8884   3.304   0.810   3.512
 2662SOL    HW1 8885   3.312   0.724   3.461
 2662SOL    HW2 8886   3.394   0.854   3.518
 2663SOL     OW 8887   3.268   6.718   5.922
 2663SOL    HW1 8888   3.349   6.745   5.974
 2663SOL    HW2 8889   3.244   6.791   5.858
 2664SOL     OW 8890   3.687   2.593   5.337
 2664SOL    HW1 8891   3.785   2.611   5.329
 2664SOL    HW2 8892   3.656   2.618   5.429
 2665SOL     OW 8893   2.280   3.529   5.384
 2665SOL    HW1 8894   2.315   3.442   5.348
 2665SOL    HW2 8895   2.356   3.584   5.419
 2666SOL     OW 8896   1.714   3.507   2.834
 2666SOL    HW1 8897   1.713   3.567   2.914
 2666SOL    HW2 8898   1.662   3.549   2.760
 2667SOL     OW 8899   6.473   4.151   3.863
 2667SOL    HW1 8900   6.507   4.058   3.846
 2667SOL    HW2 8901   6.417   4.180   3.786
 2668SOL     OW 8902   5.467   1.758   4.939
 2668SOL    HW1 8903   5.546   1.746   4.879
 2668SOL    HW2 8904   5.396   1.810   4.891
 2669SOL     OW 8905   2.321   6.430   0.038
 2669SOL    HW1 8906   2.402   6.380   0.009
 2669SOL    HW2 8907   2.328   6.525   0.007
 2670SOL     OW 8908   6.555   1.766   5.368
 2670SOL    HW1 8909   6.506   1.686   5.333
 2670SOL    HW2 8910   6.585   1.748   5.462
 2671SOL     OW 8911   3.870   5.685   6.100
 2671SOL    HW1 8912   3.950   5.742   6.115
 2671SOL    HW2 8913   3.896   5.589   6.100
 2672SOL     OW 8914   3.601   1.418   2.009
 2672SOL    HW1 8915   3.677   1.455   2.063
 2672SOL    HW2 8916   3.518   1.421   2.064
 2673SOL     OW 8917   5.049   6.918   2.834
 2673SOL    HW1 8918   5.144   6.927   2.863
 2673SOL    HW2 8919   5.027   6.821   2.822
 2674SOL     OW 8920   1.368   5.533   3.429
 2674SOL    HW1 8921   1.347   5.568   3.338
 2674SOL    HW2 8922   1.467   5.532   3.443
 2675SOL     OW 8923   6.932   6.287   4.009
 2675SOL    HW1 8924   6.953   6.385   4.006
 2675SOL    HW2 8925   7.000   6.237   3.956
 2676SOL     OW 8926   3.311   3.764   2.618
 2676SOL    HW1 8927   3.347   3.697   2.682
 2676SOL    HW2 8928   3.276   3.717   2.536
 2677SOL     OW 8929   2.361   4.342   1.199
 2677SOL    HW1 8930   2.443   4.382   1.159
 2677SOL    HW2 8931   2.370   4.338   1.299
 2678SOL     OW 8932   6.307   2.121   2.626
 2678SOL    HW1 8933   6.280   2.096   2.533
 2678SOL    HW2 8934   6.397   2.080   2.646
 2679SOL     OW 8935   1.547   5.625   2.052
 2679SOL    HW1 8936   1.479   5.558   2.080
 2679SOL    HW2 8937   1.626   5.620   2.113
 2680SOL     OW 8938   1.131   2.274   6.870
 2680SOL    HW1 8939   1.211   2.227   6.906
 2680SOL    HW2 8940   1.068   2.296   6.944
 2681SOL     OW 8941   0.994   2.972   5.253
 2681SOL    HW1 8942   0.974   2.875   5.239
 2681SOL    HW2 8943   0.952   3.002   5.338
 2682SOL     OW 8944   4.754   4.199   2.202
 2682SOL    HW1 8945   4.816   4.143   2.149
 2682SOL    HW2 8946   4.710   4.267   2.143
 2683SOL     OW 8947   2.346   4.386   3.321
 2683SOL    HW1 8948   2.262   4.389   3.268
 2683SOL    HW2 8949   2.386   4.295   3.315
 2684SOL     OW 8950   5.493   6.226   2.370
 2684SOL    HW1 8951   5.574   6.227   2.312
 2684SOL    HW2 8952   5.516   6.181   2.457
 2685SOL     OW 8953   6.805   5.256   4.840
 2685SOL    HW1 8954   6.708   5.231   4.833
 2685SOL    HW2 8955   6.821   5.339   4.788
 2686SOL     OW 8956   1.653   1.241   4.226
 2686SOL    HW1 8957   1.745   1.224   4.191
 2686SOL    HW2 8958   1.652   1.328   4.275
 2687SOL     OW 8959   4.279   1.566   1.833
 2687SOL    HW1 8960   4.207   1.553   1.765
 2687SOL    HW2 8961   4.261   1.506   1.911
 2688SOL     OW 8962   3.424   2.220   0.077
 2688SOL    HW1 8963   3.355   2.273   0.027
 2688SOL    HW2 8964   3.494   2.282   0.112
 2689SOL     OW 8965   0.707   3.947   2.691
 2689SOL    HW1 8966   0.624   3.920   2.739
 2689SOL    HW2 8967   0.767   3.998   2.752
 2690SOL     OW 8968   3.109   2.053   6.198
 2690SOL    HW1 8969   3.096   2.127   6.133
 2690SOL    HW2 8970   3.168   2.083   6.273
 2691SOL     OW 8971   0.318   4.357   4.573
 2691SOL    HW1 8972   0.318   4.258   4.560
 2691SOL    HW2 8973   0.364   4.379   4.659
 2692SOL     OW 8974   2.498   6.000   2.796
 2692SOL    HW1 8975   2.577   5.982   2.737
 2692SOL    HW2 8976   2.529   6.005   2.891
 2693SOL     OW 8977   1.826   5.595   3.724
 2693SOL    HW1 8978   1.858   5.681   3.763
 2693SOL    HW2 8979   1.901   5.552   3.673
 2694SOL     OW 8980   3.853   6.469   3.121
 2694SOL    HW1 8981   3.781   6.438   3.182
 2694SOL    HW2 8982   3.814   6.490   3.031
 2695SOL     OW 8983   6.707   6.889   2.591
 2695SOL    HW1 8984   6.667   6.831   2.662
 2695SOL    HW2 8985   6.635   6.922   2.531
 2696SOL     OW 8986   4.404   3.953   6.568
 2696SOL    HW1 8987   4.496   3.979   6.596
 2696SOL    HW2 8988   4.370   3.880   6.628
 2697SOL     OW 8989   4.276   1.356   1.078
 2697SOL    HW1 8990   4.198   1.295   1.069
 2697SOL    HW2 8991   4.361   1.304   1.073
 2698SOL     OW 8992   1.147   4.599   6.058
 2698SOL    HW1 8993   1.077   4.533   6.084
 2698SOL    HW2 8994   1.237   4.568   6.090
 2699SOL     OW 8995   2.986   5.957   2.237
 2699SOL    HW1 8996   2.992   5.860   2.215
 2699SOL    HW2 8997   3.068   5.987   2.285
 2700SOL     OW 8998   2.799   2.001   1.368
 2700SOL    HW1 8999   2.889   1.975   1.403
 2700SOL    HW2 9000   2.753   1.920   1.331
 2701SOL     OW 9001   5.345   2.805   4.571
 2701SOL    HW1 9002   5.367   2.744   4.495
 2701SOL    HW2 9003   5.393   2.776   4.653
 2702SOL     OW 9004   2.542   1.796   4.235
 2702SOL    HW1 9005   2.531   1.883   4.188
 2702SOL    HW2 9006   2.544   1.811   4.334
 2703SOL     OW 9007   1.762   5.490   1.462
 2703SOL    HW1 9008   1.715   5.566   1.416
 2703SOL    HW2 9009   1.696   5.439   1.517
 2704SOL     OW 9010   6.500   5.270   3.468
 2704SOL    HW1 9011   6.544   5.336   3.407
 2704SOL    HW2 9012   6.401   5.287   3.469
 2705SOL     OW 9013   0.653   0.919   5.101
 2705SOL    HW1 9014   0.614   1.011   5.097
 2705SOL    HW2 9015   0.733   0.914   5.040
 2706SOL     OW 9016   6.609   4.268   4.578
 2706SOL    HW1 9017   6.656   4.345   4.535
 2706SOL    HW2 9018   6.652   4.248   4.666
 2707SOL     OW 9019   3.818   6.804   2.906
 2707SOL    HW1 9020   3.810   6.894   2.862
 2707SOL    HW2 9021   3.859   6.739   2.842
 2708SOL     OW 9022   5.908   2.799   0.452
 2708SOL    HW1 9023   5.950   2.878   0.497
 2708SOL    HW2 9024   5.824   2.774   0.501
 2709SOL     OW 9025   5.186   0.173   6.404
 2709SOL    HW1 9026   5.133   0.102   6.450
 2709SOL    HW2 9027   5.284   0.155   6.418
 2710SOL     OW 9028   1.350   3.426   4.206
 2710SOL    HW1 9029   1.372   3.388   4.116
 2710SOL    HW2 9030   1.434   3.430   4.261
 2711SOL     OW 9031   3.552   1.866   3.731
 2711SOL    HW1 9032   3.569   1.870   3.632
 2711SOL    HW2 9033   3.620   1.806   3.773
 2712SOL     OW 9034   3.949   5.415   2.310
 2712SOL    HW1 9035   4.018   5.409   2.382
 2712SOL    HW2 9036   3.864   5.372   2.343
 2713SOL     OW 9037   4.882   4.353   6.507
 2713SOL    HW1 9038   4.905   4.430   6.567
 2713SOL    HW2 9039   4.936   4.357   6.424
 2714SOL     OW 9040   3.384   3.587   6.514
 2714SOL    HW1 9041   3.419   3.584   6.607
 2714SOL    HW2 9042   3.304   3.646   6.510
 2715SOL     OW 9043   5.311   1.666   1.221
 2715SOL    HW1 9044   5.243   1.708   1.160
 2715SOL    HW2 9045   5.360   1.595   1.171
 2716SOL     OW 9046   4.124   2.077   2.837
 2716SOL    HW1 9047   4.026   2.096   2.842
 2716SOL    HW2 9048   4.139   1.980   2.814
 2717SOL     OW 9049   0.918   1.015   2.065
 2717SOL    HW1 9050   0.980   0.996   2.141
 2717SOL    HW2 9051   0.962   1.079   2.002
 2718SOL     OW 9052   0.644   0.765   6.239
 2718SOL    HW1 9053   0.689   0.852   6.220
 2718SOL    HW2 9054   0.693   0.717   6.313
 2719SOL     OW 9055   1.776   4.691   2.614
 2719SOL    HW1 9056   1.831   4.613   2.644
 2719SOL    HW2 9057   1.799   4.714   2.519
 2720SOL     OW 9058   1.280   0.185   5.086
 2720SOL    HW1 9059   1.206   0.139   5.135
 2720SOL    HW2 9060   1.328   0.120   5.028
 2721SOL     OW 9061   2.974   6.042   1.521
 2721SOL    HW1 9062   3.072   6.063   1.530
 2721SOL    HW2 9063   2.926   6.072   1.603
 2722SOL     OW 9064   4.645   5.907   6.703
 2722SOL    HW1 9065   4.688   5.850   6.632
 2722SOL    HW2 9066   4.692   5.893   6.790
 2723SOL     OW 9067   3.192   6.555   6.911
 2723SOL    HW1 9068   3.127   6.630   6.922
 2723SOL    HW2 9069   3.280   6.592   6.880
 2724SOL     OW 9070   1.302   6.148   0.013
 2724SOL    HW1 9071   1.351   6.090   6.975
 2724SOL    HW2 9072   1.347   6.141   0.103
 2725SOL     OW 9073   5.151   3.798   4.075
 2725SOL    HW1 9074   5.053   3.815   4.090
 2725SOL    HW2 9075   5.203   3.880   4.097
 2726SOL     OW 9076   0.883   1.902   1.496
 2726SOL    HW1 9077   0.964   1.933   1.447
 2726SOL    HW2 9078   0.842   1.980   1.545
 2727SOL     OW 9079   2.069   4.044   4.248
 2727SOL    HW1 9080   2.128   4.050   4.168
 2727SOL    HW2 9081   2.018   4.129   4.259
 2728SOL     OW 9082   5.385   5.639   6.386
 2728SOL    HW1 9083   5.477   5.667   6.413
 2728SOL    HW2 9084   5.390   5.558   6.327
 2729SOL     OW 9085   5.242   6.354   6.513
 2729SOL    HW1 9086   5.158   6.406   6.530
 2729SOL    HW2 9087   5.321   6.404   6.547
 2730SOL     OW 9088   0.544   5.476   1.882
 2730SOL    HW1 9089   0.489   5.549   1.922
 2730SOL    HW2 9090   0.540   5.395   1.941
 2731SOL     OW 9091   3.191   3.148   3.538
 2731SOL    HW1 9092   3.172   3.162   3.635
 2731SOL    HW2 9093   3.258   3.215   3.507
 2732SOL     OW 9094   4.594   1.164   0.975
 2732SOL    HW1 9095   4.676   1.106   0.974
 2732SOL    HW2 9096   4.521   1.118   1.027
 2733SOL     OW 9097   6.827   0.951   5.707
 2733SOL    HW1 9098   6.820   1.050   5.721
 2733SOL    HW2 9099   6.810   0.904   5.794
 2734SOL     OW 9100   3.541   6.124   1.593
 2734SOL    HW1 9101   3.535   6.025   1.581
 2734SOL    HW2 9102   3.617   6.146   1.654
 2735SOL     OW 9103   1.053   2.241   0.578
 2735SOL    HW1 9104   1.058   2.246   0.478
 2735SOL    HW2 9105   0.963   2.208   0.605
 2736SOL     OW 9106   5.421   6.105   3.751
 2736SOL    HW1 9107   5.369   6.021   3.765
 2736SOL    HW2 9108   5.513   6.083   3.719
 2737SOL     OW 9109   2.966   1.908   6.391
 2737SOL    HW1 9110   3.009   1.962   6.319
 2737SOL    HW2 9111   2.980   1.953   6.479
 2738SOL     OW 9112   5.971   0.880   1.698
 2738SOL    HW1 9113   5.956   0.976   1.724
 2738SOL    HW2 9114   5.952   0.821   1.777
 2739SOL     OW 9115   1.093   5.563   1.476
 2739SOL    HW1 9116   1.077   5.530   1.569
 2739SOL    HW2 9117   1.005   5.572   1.429
 2740SOL     OW 9118   0.282   5.608   2.332
 2740SOL    HW1 9119   0.313   5.572   2.420
 2740SOL    HW2 9120   0.274   5.534   2.266
 2741SOL     OW 9121   1.027   2.412   4.199
 2741SOL    HW1 9122   0.956   2.468   4.155
 2741SOL    HW2 9123   1.068   2.351   4.131
 2742SOL     OW 9124   3.407   4.691   1.621
 2742SOL    HW1 9125   3.350   4.609   1.625
 2742SOL    HW2 9126   3.462   4.697   1.704
 2743SOL     OW 9127   0.041   4.747   2.123
 2743SOL    HW1 9128   6.973   4.754   2.095
 2743SOL    HW2 9129   0.091   4.689   2.059
 2744SOL     OW 9130   3.299   3.518   2.436
 2744SOL    HW1 9131   3.375   3.459   2.465
 2744SOL    HW2 9132   3.308   3.537   2.338
 2745SOL     OW 9133   6.766   1.441   5.811
 2745SOL    HW1 9134   6.729   1.466   5.901
 2745SOL    HW2 9135   6.791   1.524   5.762
 2746SOL     OW 9136   0.767   0.830   4.074
 2746SOL    HW1 9137   0.810   0.748   4.036
 2746SOL    HW2 9138   0.831   0.906   4.071
 2747SOL     OW 9139   3.709   5.575   0.097
 2747SOL    HW1 9140   3.712   5.645   0.026
 2747SOL    HW2 9141   3.667   5.613   0.180
 2748SOL     OW 9142   4.384   0.438   1.026
 2748SOL    HW1 9143   4.322   0.455   1.103
 2748SOL    HW2 9144   4.334   0.446   0.940
 2749SOL     OW 9145   1.100   3.534   0.265
 2749SOL    HW1 9146   1.132   3.508   0.356
 2749SOL    HW2 9147   1.084   3.632   0.261
 2750SOL     OW 9148   2.669   5.325   2.296
 2750SOL    HW1 9149   2.710   5.333   2.387
 2750SOL    HW2 9150   2.740   5.304   2.229
 2751SOL     OW 9151   2.079   2.106   1.550
 2751SOL    HW1 9152   2.135   2.184   1.523
 2751SOL    HW2 9153   1.994   2.107   1.498
 2752SOL     OW 9154   4.031   4.470   5.612
 2752SOL    HW1 9155   3.977   4.428   5.539
 2752SOL    HW2 9156   4.126   4.438   5.604
 2753SOL     OW 9157   5.949   6.224   4.849
 2753SOL    HW1 9158   5.995   6.293   4.904
 2753SOL    HW2 9159   5.864   6.197   4.894
 2754SOL     OW 9160   0.296   6.225   6.946
 2754SOL    HW1 9161   0.204   6.263   6.957
 2754SOL    HW2 9162   0.348   6.282   6.883
 2755SOL     OW 9163   2.815   6.625   2.825
 2755SOL    HW1 9164   2.861   6.634   2.737
 2755SOL    HW2 9165   2.716   6.630   2.811
 2756SOL     OW 9166   4.834   6.552   0.554
 2756SOL    HW1 9167   4.878   6.617   0.616
 2756SOL    HW2 9168   4.761   6.504   0.602
 2757SOL     OW 9169   1.396   5.208   0.363
 2757SOL    HW1 9170   1.297   5.213   0.347
 2757SOL    HW2 9171   1.413   5.187   0.459
 2758SOL     OW 9172   5.467   6.897   4.929
 2758SOL    HW1 9173   5.439   6.990   4.906
 2758SOL    HW2 9174   5.473   6.888   5.029
 2759SOL     OW 9175   5.031   6.407   4.249
 2759SOL    HW1 9176   4.988   6.331   4.296
 2759SOL    HW2 9177   5.093   6.455   4.311
 2760SOL     OW 9178   1.723   5.510   2.282
 2760SOL    HW1 9179   1.814   5.522   2.323
 2760SOL    HW2 9180   1.659   5.477   2.351
 2761SOL     OW 9181   1.423   5.165   3.746
 2761SOL    HW1 9182   1.378   5.164   3.835
 2761SOL    HW2 9183   1.373   5.106   3.683
 2762SOL     OW 9184   0.948   0.436   5.846
 2762SOL    HW1 9185   1.008   0.369   5.888
 2762SOL    HW2 9186   0.853   0.409   5.858
 2763SOL     OW 9187   5.503   2.101   3.841
 2763SOL    HW1 9188   5.491   2.131   3.746
 2763SOL    HW2 9189   5.589   2.137   3.877
 2764SOL     OW 9190   5.628   0.317   1.526
 2764SOL    HW1 9191   5.618   0.389   1.594
 2764SOL    HW2 9192   5.723   0.313   1.496
 2765SOL     OW 9193   5.112   1.142   1.669
 2765SOL    HW1 9194   5.155   1.052   1.678
 2765SOL    HW2 9195   5.179   1.213   1.691
 2766SOL     OW 9196   5.986   1.249   0.696
 2766SOL    HW1 9197   5.926   1.321   0.732
 2766SOL    HW2 9198   6.081   1.278   0.702
 2767SOL     OW 9199   6.652   4.853   6.721
 2767SOL    HW1 9200   6.576   4.859   6.786
 2767SOL    HW2 9201   6.732   4.814   6.767
 2768SOL     OW 9202   5.916   1.049   0.361
 2768SOL    HW1 9203   6.013   1.072   0.369
 2768SOL    HW2 9204   5.863   1.132   0.342
 2769SOL     OW 9205   6.290   4.292   3.376
 2769SOL    HW1 9206   6.372   4.290   3.434
 2769SOL    HW2 9207   6.316   4.284   3.280
 2770SOL     OW 9208   1.411   5.531   0.273
 2770SOL    HW1 9209   1.474   5.454   0.283
 2770SOL    HW2 9210   1.325   5.509   0.320
 2771SOL     OW 9211   5.129   1.421   1.008
 2771SOL    HW1 9212   5.147   1.517   0.989
 2771SOL    HW2 9213   5.163   1.365   0.932
 2772SOL     OW 9214   4.646   2.464   0.047
 2772SOL    HW1 9215   4.600   2.485   0.133
 2772SOL    HW2 9216   4.652   2.546   7.019
 2773SOL     OW 9217   3.919   3.298   6.105
 2773SOL    HW1 9218   3.951   3.341   6.189
 2773SOL    HW2 9219   3.853   3.359   6.060
 2774SOL     OW 9220   6.135   2.687   2.761
 2774SOL    HW1 9221   6.051   2.740   2.755
 2774SOL    HW2 9222   6.121   2.609   2.821
 2775SOL     OW 9223   6.816   5.768   0.826
 2775SOL    HW1 9224   6.760   5.749   0.907
 2775SOL    HW2 9225   6.769   5.834   0.768
 2776SOL     OW 9226   4.182   5.403   5.458
 2776SOL    HW1 9227   4.225   5.490   5.434
 2776SOL    HW2 9228   4.214   5.373   5.547
 2777SOL     OW 9229   3.433   1.079   2.741
 2777SOL    HW1 9230   3.533   1.084   2.751
 2777SOL    HW2 9231   3.390   1.131   2.815
 2778SOL     OW 9232   1.888   1.363   5.287
 2778SOL    HW1 9233   1.859   1.404   5.200
 2778SOL    HW2 9234   1.830   1.283   5.307
 2779SOL     OW 9235   4.558   0.218   0.405
 2779SOL    HW1 9236   4.615   0.176   0.334
 2779SOL    HW2 9237   4.586   0.186   0.495
 2780SOL     OW 9238   5.994   5.587   5.970
 2780SOL    HW1 9239   5.974   5.573   6.067
 2780SOL    HW2 9240   5.930   5.534   5.915
 2781SOL     OW 9241   6.266   5.318   1.938
 2781SOL    HW1 9242   6.290   5.377   2.015
 2781SOL    HW2 9243   6.338   5.325   1.868
 2782SOL     OW 9244   3.090   2.720   6.691
 2782SOL    HW1 9245   3.111   2.817   6.677
 2782SOL    HW2 9246   3.159   2.664   6.645
 2783SOL     OW 9247   5.990   3.397   4.606
 2783SOL    HW1 9248   6.086   3.373   4.592
 2783SOL    HW2 9249   5.938   3.313   4.626
 2784SOL     OW 9250   2.437   2.211   1.200
 2784SOL    HW1 9251   2.395   2.132   1.155
 2784SOL    HW2 9252   2.376   2.246   1.271
 2785SOL     OW 9253   6.293   1.154   6.696
 2785SOL    HW1 9254   6.393   1.145   6.695
 2785SOL    HW2 9255   6.253   1.093   6.628
 2786SOL     OW 9256   3.549   0.050   1.333
 2786SOL    HW1 9257   3.613   0.027   1.407
 2786SOL    HW2 9258   3.467   0.092   1.371
 2787SOL     OW 9259   2.528   3.808   6.769
 2787SOL    HW1 9260   2.624   3.833   6.781
 2787SOL    HW2 9261   2.522   3.717   6.729
 2788SOL     OW 9262   2.596   4.477   0.567
 2788SOL    HW1 9263   2.517   4.463   0.628
 2788SOL    HW2 9264   2.652   4.551   0.603
 2789SOL     OW 9265   1.403   1.962   4.047
 2789SOL    HW1 9266   1.442   2.051   4.073
 2789SOL    HW2 9267   1.330   1.937   4.110
 2790SOL     OW 9268   3.868   5.524   2.748
 2790SOL    HW1 9269   3.774   5.490   2.739
 2790SOL    HW2 9270   3.872   5.589   2.824
 2791SOL     OW 9271   1.954   4.495   4.919
 2791SOL    HW1 9272   1.945   4.440   5.002
 2791SOL    HW2 9273   1.966   4.435   4.840
 2792SOL     OW 9274   1.459   0.303   5.247
 2792SOL    HW1 9275   1.397   0.254   5.184
 2792SOL    HW2 9276   1.532   0.346   5.194
 2793SOL     OW 9277   5.028   1.799   2.227
 2793SOL    HW1 9278   4.989   1.811   2.318
 2793SOL    HW2 9279   5.092   1.722   2.227
 2794SOL     OW 9280   0.345   2.533   0.279
 2794SOL    HW1 9281   0.370   2.630   0.274
 2794SOL    HW2 9282   0.397   2.489   0.352
 2795SOL     OW 9283   3.182   4.144   1.312
 2795SOL    HW1 9284   3.144   4.175   1.400
 2795SOL    HW2 9285   3.153   4.207   1.240
 2796SOL     OW 9286   6.648   4.250   2.308
 2796SOL    HW1 9287   6.695   4.241   2.395
 2796SOL    HW2 9288   6.711   4.233   2.233
 2797SOL     OW 9289   5.149   5.577   4.751
 2797SOL    HW1 9290   5.197   5.576   4.663
 2797SOL    HW2 9291   5.171   5.493   4.801
 2798SOL     OW 9292   0.838   4.075   2.885
 2798SOL    HW1 9293   0.770   4.121   2.942
 2798SOL    HW2 9294   0.930   4.102   2.913
 2799SOL     OW 9295   0.387   5.461   6.345
 2799SOL    HW1 9296   0.440   5.546   6.344
 2799SOL    HW2 9297   0.296   5.478   6.307
 2800SOL     OW 9298   4.597   4.363   6.549
 2800SOL    HW1 9299   4.693   4.392   6.558
 2800SOL    HW2 9300   4.592   4.263   6.555
 2801SOL     OW 9301   4.401   6.217   3.178
 2801SOL    HW1 9302   4.373   6.217   3.082
 2801SOL    HW2 9303   4.397   6.310   3.215
 2802SOL     OW 9304   4.173   2.562   6.351
 2802SOL    HW1 9305   4.170   2.573   6.252
 2802SOL    HW2 9306   4.086   2.593   6.390
 2803SOL     OW 9307   2.097   6.229   5.855
 2803SOL    HW1 9308   2.015   6.200   5.805
 2803SOL    HW2 9309   2.085   6.323   5.887
 2804SOL     OW 9310   0.052   4.428   3.514
 2804SOL    HW1 9311   0.090   4.502   3.570
 2804SOL    HW2 9312   0.045   4.345   3.570
 2805SOL     OW 9313   4.555   3.490   1.574
 2805SOL    HW1 9314   4.478   3.553   1.583
 2805SOL    HW2 9315   4.641   3.542   1.571
 2806SOL     OW 9316   5.890   5.560   3.285
 2806SOL    HW1 9317   5.956   5.487   3.302
 2806SOL    HW2 9318   5.892   5.584   3.188
 2807SOL     OW 9319   5.610   4.576   3.829
 2807SOL    HW1 9320   5.531   4.635   3.846
 2807SOL    HW2 9321   5.578   4.481   3.820
 2808SOL     OW 9322   4.478   1.336   2.966
 2808SOL    HW1 9323   4.396   1.359   2.912
 2808SOL    HW2 9324   4.534   1.418   2.977
 2809SOL     OW 9325   6.795   2.630   1.818
 2809SOL    HW1 9326   6.834   2.571   1.748
 2809SOL    HW2 9327   6.696   2.635   1.807
 2810SOL     OW 9328   3.452   6.664   4.673
 2810SOL    HW1 9329   3.530   6.672   4.611
 2810SOL    HW2 9330   3.484   6.658   4.767
 2811SOL     OW 9331   0.776   0.884   2.441
 2811SOL    HW1 9332   0.730   0.877   2.529
 2811SOL    HW2 9333   0.760   0.975   2.402
 2812SOL     OW 9334   4.866   3.574   1.926
 2812SOL    HW1 9335   4.964   3.565   1.944
 2812SOL    HW2 9336   4.825   3.484   1.916
 2813SOL     OW 9337   5.957   6.974   6.038
 2813SOL    HW1 9338   5.944   6.974   6.137
 2813SOL    HW2 9339   6.011   0.025   6.011
 2814SOL     OW 9340   4.362   3.310   6.674
 2814SOL    HW1 9341   4.462   3.308   6.674
 2814SOL    HW2 9342   4.329   3.401   6.651
 2815SOL     OW 9343   6.789   0.793   4.582
 2815SOL    HW1 9344   6.885   0.801   4.611
 2815SOL    HW2 9345   6.755   0.702   4.604
 2816SOL     OW 9346   6.285   6.495   3.714
 2816SOL    HW1 9347   6.350   6.512   3.788
 2816SOL    HW2 9348   6.203   6.452   3.752
 2817SOL     OW 9349   1.699   0.296   0.902
 2817SOL    HW1 9350   1.710   0.297   1.002
 2817SOL    HW2 9351   1.776   0.345   0.860
 2818SOL     OW 9352   6.864   5.043   6.715
 2818SOL    HW1 9353   6.811   5.127   6.704
 2818SOL    HW2 9354   6.805   4.964   6.703
 2819SOL     OW 9355   0.201   1.897   0.757
 2819SOL    HW1 9356   0.300   1.908   0.765
 2819SOL    HW2 9357   0.160   1.984   0.730
 2820SOL     OW 9358   0.299   2.557   2.705
 2820SOL    HW1 9359   0.260   2.633   2.652
 2820SOL    HW2 9360   0.333   2.487   2.642
 2821SOL     OW 9361   2.918   4.598   6.569
 2821SOL    HW1 9362   2.844   4.611   6.636
 2821SOL    HW2 9363   3.005   4.585   6.618
 2822SOL     OW 9364   4.131   2.718   0.530
 2822SOL    HW1 9365   4.049   2.736   0.476
 2822SOL    HW2 9366   4.107   2.660   0.608
 2823SOL     OW 9367   2.049   6.652   1.416
 2823SOL    HW1 9368   2.034   6.741   1.459
 2823SOL    HW2 9369   2.144   6.624   1.430
 2824SOL     OW 9370   2.481   1.084   4.859
 2824SOL    HW1 9371   2.473   1.138   4.776
 2824SOL    HW2 9372   2.422   1.003   4.852
 2825SOL     OW 9373   6.643   6.923   0.493
 2825SOL    HW1 9374   6.688   6.834   0.489
 2825SOL    HW2 9375   6.617   6.952   0.401
 2826SOL     OW 9376   5.674   1.852   6.143
 2826SOL    HW1 9377   5.586   1.873   6.100
 2826SOL    HW2 9378   5.701   1.930   6.201
 2827SOL     OW 9379   6.719   1.194   5.350
 2827SOL    HW1 9380   6.655   1.118   5.341
 2827SOL    HW2 9381   6.808   1.160   5.382
 2828SOL     OW 9382   3.452   1.075   6.093
 2828SOL    HW1 9383   3.522   1.017   6.135
 2828SOL    HW2 9384   3.457   1.068   5.994
 2829SOL     OW 9385   4.067   4.424   6.223
 2829SOL    HW1 9386   4.064   4.492   6.295
 2829SOL    HW2 9387   3.990   4.438   6.161
 2830SOL     OW 9388   6.533   4.492   6.475
 2830SOL    HW1 9389   6.482   4.433   6.538
 2830SOL    HW2 9390   6.619   4.448   6.450
 2831SOL     OW 9391   6.650   5.968   4.576
 2831SOL    HW1 9392   6.721   5.918   4.625
 2831SOL    HW2 9393   6.663   6.066   4.589
 2832SOL     OW 9394   0.729   1.701   1.617
 2832SOL    HW1 9395   0.790   1.627   1.586
 2832SOL    HW2 9396   0.766   1.789   1.586
 2833SOL     OW 9397   5.458   1.583   2.047
 2833SOL    HW1 9398   5.477   1.669   2.093
 2833SOL    HW2 9399   5.484   1.590   1.951
 2834SOL     OW 9400   2.956   1.164   6.580
 2834SOL    HW1 9401   2.917   1.224   6.511
 2834SOL    HW2 9402   2.939   1.069   6.556
 2835SOL     OW 9403   0.472   6.757   1.907
 2835SOL    HW1 9404   0.423   6.723   1.987
 2835SOL    HW2 9405   0.427   6.840   1.874
 2836SOL     OW 9406   7.008   0.177   1.660
 2836SOL    HW1 9407   6.973   0.224   1.741
 2836SOL    HW2 9408   0.061   0.226   1.625
 2837SOL     OW 9409   5.280   3.501   2.985
 2837SOL    HW1 9410   5.372   3.529   3.010
 2837SOL    HW2 9411   5.254   3.420   3.037
 2838SOL     OW 9412   2.196   4.323   1.716
 2838SOL    HW1 9413   2.234   4.306   1.807
 2838SOL    HW2 9414   2.255   4.282   1.647
 2839SOL     OW 9415   6.040   1.346   1.994
 2839SOL    HW1 9416   6.067   1.427   2.046
 2839SOL    HW2 9417   6.001   1.278   2.056
 2840SOL     OW 9418   0.330   0.860   4.650
 2840SOL    HW1 9419   0.378   0.818   4.728
 2840SOL    HW2 9420   0.348   0.959   4.649
 2841SOL     OW 9421   0.301   0.059   6.534
 2841SOL    HW1 9422   0.261   0.136   6.485
 2841SOL    HW2 9423   0.309   0.081   6.631
 2842SOL     OW 9424   0.070   2.437   3.690
 2842SOL    HW1 9425   0.120   2.378   3.754
 2842SOL    HW2 9426   6.999   2.424   3.703
 2843SOL     OW 9427   3.284   1.745   4.212
 2843SOL    HW1 9428   3.206   1.808   4.211
 2843SOL    HW2 9429   3.254   1.656   4.244
 2844SOL     OW 9430   1.094   3.806   0.297
 2844SOL    HW1 9431   1.012   3.840   0.342
 2844SOL    HW2 9432   1.174   3.852   0.335
 2845SOL     OW 9433   1.012   3.531   0.997
 2845SOL    HW1 9434   1.084   3.582   1.045
 2845SOL    HW2 9435   1.030   3.433   1.003
 2846SOL     OW 9436   4.530   1.396   0.034
 2846SOL    HW1 9437   4.549   1.349   0.120
 2846SOL    HW2 9438   4.610   1.450   0.007
 2847SOL     OW 9439   5.509   3.307   3.220
 2847SOL    HW1 9440   5.413   3.299   3.247
 2847SOL    HW2 9441   5.526   3.250   3.140
 2848SOL     OW 9442   0.481   4.585   5.943
 2848SOL    HW1 9443   0.556   4.649   5.924
 2848SOL    HW2 9444   0.482   4.560   6.040
 2849SOL     OW 9445   3.394   0.396   0.948
 2849SOL    HW1 9446   3.349   0.331   1.009
 2849SOL    HW2 9447   3.382   0.489   0.983
 2850SOL     OW 9448   3.410   0.738   1.860
 2850SOL    HW1 9449   3.464   0.786   1.929
 2850SOL    HW2 9450   3.368   0.805   1.799
 2851SOL     OW 9451   0.941   4.285   5.401
 2851SOL    HW1 9452   0.873   4.223   5.439
 2851SOL    HW2 9453   0.911   4.318   5.312
 2852SOL     OW 9454   5.706   4.158   6.739
 2852SOL    HW1 9455   5.685   4.197   6.828
 2852SOL    HW2 9456   5.788   4.201   6.702
 2853SOL     OW 9457   2.749   2.408   6.992
 2853SOL    HW1 9458   2.799   2.470   6.931
 2853SOL    HW2 9459   2.753   2.443   0.058
 2854SOL     OW 9460   2.999   1.394   4.109
 2854SOL    HW1 9461   3.045   1.318   4.063
 2854SOL    HW2 9462   3.038   1.481   4.075
 2855SOL     OW 9463   1.761   0.706   5.844
 2855SOL    HW1 9464   1.683   0.720   5.905
 2855SOL    HW2 9465   1.752   0.618   5.798
 2856SOL     OW 9466   2.434   2.947   5.953
 2856SOL    HW1 9467   2.344   2.944   5.996
 2856SOL    HW2 9468   2.424   2.969   5.856
 2857SOL     OW 9469   2.922   1.548   1.748
 2857SOL    HW1 9470   2.996   1.523   1.685
 2857SOL    HW2 9471   2.900   1.644   1.737
 2858SOL     OW 9472   6.064   3.375   1.866
 2858SOL    HW1 9473   6.111   3.356   1.780
 2858SOL    HW2 9474   6.125   3.428   1.926
 2859SOL     OW 9475   5.376   1.903   0.234
 2859SOL    HW1 9476   5.427   1.838   0.291
 2859SOL    HW2 9477   5.390   1.995   0.269
 2860SOL     OW 9478   4.365   1.854   1.094
 2860SOL    HW1 9479   4.409   1.916   1.159
 2860SOL    HW2 9480   4.420   1.849   1.011
 2861SOL     OW 9481   4.717   5.410   5.592
 2861SOL    HW1 9482   4.667   5.329   5.622
 2861SOL    HW2 9483   4.667   5.493   5.618
 2862SOL     OW 9484   5.642   1.585   3.326
 2862SOL    HW1 9485   5.631   1.684   3.338
 2862SOL    HW2 9486   5.566   1.538   3.372
 2863SOL     OW 9487   5.849   1.232   6.826
 2863SOL    HW1 9488   5.801   1.229   6.913
 2863SOL    HW2 9489   5.804   1.171   6.761
 2864SOL     OW 9490   3.963   6.937   0.775
 2864SOL    HW1 9491   4.022   7.001   0.726
 2864SOL    HW2 9492   3.962   6.959   0.872
 2865SOL     OW 9493   4.938   4.176   4.959
 2865SOL    HW1 9494   4.971   4.241   4.891
 2865SOL    HW2 9495   4.932   4.085   4.918
 2866SOL     OW 9496   6.664   0.006   0.131
 2866SOL    HW1 9497   6.637   0.040   0.042
 2866SOL    HW2 9498   6.704   6.942   0.122
 2867SOL     OW 9499   5.910   4.244   2.303
 2867SOL    HW1 9500   5.881   4.340   2.293
 2867SOL    HW2 9501   5.979   4.238   2.375
 2868SOL     OW 9502   0.772   3.490   5.307
 2868SOL    HW1 9503   0.768   3.404   5.256
 2868SOL    HW2 9504   0.719   3.560   5.259
 2869SOL     OW 9505   6.059   1.117   3.242
 2869SOL    HW1 9506   5.982   1.108   3.305
 2869SOL    HW2 9507   6.026   1.150   3.154
 2870SOL     OW 9508   6.875   1.515   4.449
 2870SOL    HW1 9509   6.840   1.503   4.356
 2870SOL    HW2 9510   6.823   1.587   4.495
 2871SOL     OW 9511   2.057   1.645   6.477
 2871SOL    HW1 9512   2.124   1.682   6.412
 2871SOL    HW2 9513   1.989   1.590   6.428
 2872SOL     OW 9514   2.998   1.443   3.817
 2872SOL    HW1 9515   3.074   1.507   3.804
 2872SOL    HW2 9516   3.034   1.354   3.843
 2873SOL     OW 9517   0.595   5.410   3.391
 2873SOL    HW1 9518   0.558   5.464   3.315
 2873SOL    HW2 9519   0.667   5.463   3.437
 2874SOL     OW 9520   5.196   5.359   1.957
 2874SOL    HW1 9521   5.198   5.326   2.051
 2874SOL    HW2 9522   5.284   5.402   1.935
 2875SOL     OW 9523   4.138   6.398   6.511
 2875SOL    HW1 9524   4.092   6.350   6.437
 2875SOL    HW2 9525   4.132   6.344   6.595
 2876SOL     OW 9526   0.604   0.499   2.174
 2876SOL    HW1 9527   0.505   0.502   2.191
 2876SOL    HW2 9528   0.623   0.535   2.083
 2877SOL     OW 9529   3.519   2.768   5.237
 2877SOL    HW1 9530   3.424   2.741   5.254
 2877SOL    HW2 9531   3.580   2.692   5.260
 2878SOL     OW 9532   3.408   5.078   4.381
 2878SOL    HW1 9533   3.355   5.033   4.309
 2878SOL    HW2 9534   3.389   5.033   4.469
 2879SOL     OW 9535   4.992   5.144   0.151
 2879SOL    HW1 9536   4.913   5.112   0.098
 2879SOL    HW2 9537   4.983   5.112   0.246
 2880SOL     OW 9538   6.435   6.720   0.341
 2880SOL    HW1 9539   6.451   6.809   0.297
 2880SOL    HW2 9540   6.377   6.732   0.421
 2881SOL     OW 9541   5.740   6.305   0.780
 2881SOL    HW1 9542   5.748   6.243   0.857
 2881SOL    HW2 9543   5.655   6.359   0.789
 2882SOL     OW 9544   0.797   3.461   2.683
 2882SOL    HW1 9545   0.889   3.425   2.691
 2882SOL    HW2 9546   0.799   3.560   2.697
 2883SOL     OW 9547   4.236   6.697   3.514
 2883SOL    HW1 9548   4.231   6.615   3.571
 2883SOL    HW2 9549   4.157   6.756   3.533
 2884SOL     OW 9550   0.592   6.243   3.046
 2884SOL    HW1 9551   0.626   6.333   3.021
 2884SOL    HW2 9552   0.667   6.178   3.049
 2885SOL     OW 9553   0.232   2.700   2.940
 2885SOL    HW1 9554   0.261   2.615   2.896
 2885SOL    HW2 9555   0.150   2.734   2.894
 2886SOL     OW 9556   2.250   3.094   6.661
 2886SOL    HW1 9557   2.292   3.045   6.738
 2886SOL    HW2 9558   2.151   3.102   6.677
 2887SOL     OW 9559   2.348   6.822   5.194
 2887SOL    HW1 9560   2.345   6.746   5.129
 2887SOL    HW2 9561   2.255   6.841   5.227
 2888SOL     OW 9562   6.952   4.875   6.288
 2888SOL    HW1 9563   6.979   4.857   6.194
 2888SOL    HW2 9564   6.892   4.803   6.321
 2889SOL     OW 9565   1.133   1.113   2.295
 2889SOL    HW1 9566   1.074   1.177   2.346
 2889SOL    HW2 9567   1.224   1.152   2.287
 2890SOL     OW 9568   2.932   0.333   1.348
 2890SOL    HW1 9569   2.836   0.305   1.361
 2890SOL    HW2 9570   2.935   0.410   1.284
 2891SOL     OW 9571   2.727   4.682   3.509
 2891SOL    HW1 9572   2.671   4.639   3.580
 2891SOL    HW2 9573   2.802   4.733   3.553
 2892SOL     OW 9574   4.752   4.286   0.040
 2892SOL    HW1 9575   4.852   4.284   0.028
 2892SOL    HW2 9576   4.730   4.281   0.137
 2893SOL     OW 9577   1.951   6.385   5.643
 2893SOL    HW1 9578   2.014   6.391   5.720
 2893SOL    HW2 9579   1.927   6.290   5.627
 2894SOL     OW 9580   2.931   2.520   6.819
 2894SOL    HW1 9581   3.020   2.474   6.825
 2894SOL    HW2 9582   2.940   2.603   6.763
 2895SOL     OW 9583   3.927   3.163   6.613
 2895SOL    HW1 9584   3.853   3.096   6.623
 2895SOL    HW2 9585   4.015   3.118   6.628
 2896SOL     OW 9586   2.643   5.392   6.266
 2896SOL    HW1 9587   2.587   5.317   6.301
 2896SOL    HW2 9588   2.740   5.366   6.273
 2897SOL     OW 9589   2.404   6.488   3.786
 2897SOL    HW1 9590   2.472   6.441   3.730
 2897SOL    HW2 9591   2.384   6.434   3.868
 2898SOL     OW 9592   4.716   4.704   2.961
 2898SOL    HW1 9593   4.777   4.661   3.028
 2898SOL    HW2 9594   4.767   4.775   2.912
 2899SOL     OW 9595   0.065   0.889   6.496
 2899SOL    HW1 9596   0.097   0.858   6.586
 2899SOL    HW2 9597   0.099   0.827   6.425
 2900SOL     OW 9598   1.331   4.729   5.623
 2900SOL    HW1 9599   1.330   4.633   5.597
 2900SOL    HW2 9600   1.247   4.750   5.674
 2901SOL     OW 9601   1.480   0.353   2.935
 2901SOL    HW1 9602   1.402   0.414   2.919
 2901SOL    HW2 9603   1.452   0.258   2.923
 2902SOL     OW 9604   5.603   6.612   0.503
 2902SOL    HW1 9605   5.588   6.600   0.601
 2902SOL    HW2 9606   5.675   6.679   0.488
 2903SOL     OW 9607   2.895   7.004   2.525
 2903SOL    HW1 9608   2.854   6.941   2.458
 2903SOL    HW2 9609   2.987   6.973   2.548
 2904SOL     OW 9610   2.408   3.286   5.341
 2904SOL    HW1 9611   2.425   3.208   5.281
 2904SOL    HW2 9612   2.489   3.305   5.395
 2905SOL     OW 9613   1.387   1.449   2.730
 2905SOL    HW1 9614   1.351   1.410   2.646
 2905SOL    HW2 9615   1.438   1.379   2.780
 2906SOL     OW 9616   5.207   5.109   2.170
 2906SOL    HW1 9617   5.236   5.092   2.264
 2906SOL    HW2 9618   5.261   5.052   2.108
 2907SOL     OW 9619   6.362   1.210   5.092
 2907SOL    HW1 9620   6.332   1.294   5.048
 2907SOL    HW2 9621   6.288   1.174   5.149
 2908SOL     OW 9622   3.967   6.617   4.245
 2908SOL    HW1 9623   3.873   6.622   4.279
 2908SOL    HW2 9624   3.969   6.647   4.150
 2909SOL     OW 9625   0.654   4.720   4.519
 2909SOL    HW1 9626   0.617   4.689   4.606
 2909SOL    HW2 9627   0.697   4.810   4.531
 2910SOL     OW 9628   3.375   6.400   4.822
 2910SOL    HW1 9629   3.457   6.377   4.770
 2910SOL    HW2 9630   3.295   6.396   4.762
 2911SOL     OW 9631   2.435   5.482   3.774
 2911SOL    HW1 9632   2.431   5.410   3.706
 2911SOL    HW2 9633   2.529   5.515   3.782
 2912SOL     OW 9634   2.671   5.710   0.386
 2912SOL    HW1 9635   2.759   5.734   0.426
 2912SOL    HW2 9636   2.598   5.730   0.452
 2913SOL     OW 9637   1.918   4.700   2.348
 2913SOL    HW1 9638   2.018   4.695   2.350
 2913SOL    HW2 9639   1.885   4.673   2.258
 2914SOL     OW 9640   5.998   5.188   5.954
 2914SOL    HW1 9641   5.993   5.142   6.043
 2914SOL    HW2 9642   5.926   5.257   5.949
 2915SOL     OW 9643   4.535   1.728   4.147
 2915SOL    HW1 9644   4.583   1.750   4.062
 2915SOL    HW2 9645   4.487   1.809   4.180
 2916SOL     OW 9646   6.237   4.807   5.910
 2916SOL    HW1 9647   6.296   4.754   5.850
 2916SOL    HW2 9648   6.233   4.902   5.879
 2917SOL     OW 9649   3.710   0.511   1.277
 2917SOL    HW1 9650   3.785   0.577   1.284
 2917SOL    HW2 9651   3.745   0.419   1.291
 2918SOL     OW 9652   6.948   3.292   3.296
 2918SOL    HW1 9653   6.906   3.206   3.326
 2918SOL    HW2 9654   6.948   3.296   3.196
 2919SOL     OW 9655   6.268   0.005   0.581
 2919SOL    HW1 9656   6.340   7.009   0.515
 2919SOL    HW2 9657   6.255   0.104   0.582
 2920SOL     OW 9658   3.516   2.100   2.526
 2920SOL    HW1 9659   3.430   2.086   2.477
 2920SOL    HW2 9660   3.592   2.101   2.461
 2921SOL     OW 9661   0.007   1.248   2.924
 2921SOL    HW1 9662   0.072   1.216   2.855
 2921SOL    HW2 9663   6.942   1.223   2.896
 2922SOL     OW 9664   5.746   6.310   7.002
 2922SOL    HW1 9665   5.713   6.308   0.069
 2922SOL    HW2 9666   5.845   6.324   7.001
 2923SOL     OW 9667   0.037   5.426   2.523
 2923SOL    HW1 9668   7.019   5.463   2.603
 2923SOL    HW2 9669   0.131   5.402   2.546
 2924SOL     OW 9670   0.227   1.535   6.260
 2924SOL    HW1 9671   0.143   1.485   6.279
 2924SOL    HW2 9672   0.234   1.553   6.162
 2925SOL     OW 9673   5.731   1.054   3.106
 2925SOL    HW1 9674   5.807   1.108   3.069
 2925SOL    HW2 9675   5.766   0.966   3.138
 2926SOL     OW 9676   0.068   1.624   4.938
 2926SOL    HW1 9677   0.139   1.553   4.946
 2926SOL    HW2 9678   0.100   1.707   4.983
 2927SOL     OW 9679   1.213   2.096   2.148
 2927SOL    HW1 9680   1.213   2.039   2.230
 2927SOL    HW2 9681   1.303   2.140   2.139
 2928SOL     OW 9682   6.525   1.744   6.675
 2928SOL    HW1 9683   6.562   1.775   6.763
 2928SOL    HW2 9684   6.438   1.697   6.690
 2929SOL     OW 9685   0.774   1.012   6.181
 2929SOL    HW1 9686   0.747   1.039   6.089
 2929SOL    HW2 9687   0.871   0.988   6.182
 2930SOL     OW 9688   4.816   6.412   4.894
 2930SOL    HW1 9689   4.774   6.464   4.820
 2930SOL    HW2 9690   4.747   6.395   4.965
 2931SOL     OW 9691   4.984   5.963   6.650
 2931SOL    HW1 9692   4.911   5.902   6.619
 2931SOL    HW2 9693   5.035   5.920   6.724
 2932SOL     OW 9694   1.836   4.646   2.093
 2932SOL    HW1 9695   1.744   4.663   2.129
 2932SOL    HW2 9696   1.830   4.617   1.998
 2933SOL     OW 9697   5.300   2.477   3.933
 2933SOL    HW1 9698   5.296   2.571   3.966
 2933SOL    HW2 9699   5.394   2.444   3.939
 2934SOL     OW 9700   3.640   0.712   1.112
 2934SOL    HW1 9701   3.646   0.656   1.029
 2934SOL    HW2 9702   3.661   0.655   1.191
 2935SOL     OW 9703   6.621   2.799   1.555
 2935SOL    HW1 9704   6.689   2.855   1.602
 2935SOL    HW2 9705   6.571   2.856   1.490
 2936SOL     OW 9706   4.842   5.678   1.373
 2936SOL    HW1 9707   4.884   5.754   1.322
 2936SOL    HW2 9708   4.886   5.668   1.461
 2937SOL     OW 9709   2.873   5.090   0.434
 2937SOL    HW1 9710   2.852   5.087   0.336
 2937SOL    HW2 9711   2.788   5.096   0.486
 2938SOL     OW 9712   4.862   4.720   5.498
 2938SOL    HW1 9713   4.912   4.786   5.554
 2938SOL    HW2 9714   4.879   4.628   5.533
 2939SOL     OW 9715   0.175   6.499   4.844
 2939SOL    HW1 9716   0.203   6.577   4.788
 2939SOL    HW2 9717   0.091   6.460   4.807
 2940SOL     OW 9718   5.471   6.879   5.216
 2940SOL    HW1 9719   5.552   6.869   5.274
 2940SOL    HW2 9720   5.408   6.803   5.234
 2941SOL     OW 9721   1.768   2.773   5.783
 2941SOL    HW1 9722   1.747   2.751   5.688
 2941SOL    HW2 9723   1.847   2.835   5.786
 2942SOL     OW 9724   2.600   0.631   2.282
 2942SOL    HW1 9725   2.560   0.562   2.222
 2942SOL    HW2 9726   2.668   0.587   2.342
 2943SOL     OW 9727   5.179   3.422   2.474
 2943SOL    HW1 9728   5.272   3.452   2.453
 2943SOL    HW2 9729   5.162   3.431   2.572
 2944SOL     OW 9730   3.430   5.155   5.815
 2944SOL    HW1 9731   3.347   5.100   5.815
 2944SOL    HW2 9732   3.408   5.249   5.843
 2945SOL     OW 9733   4.045   3.872   2.689
 2945SOL    HW1 9734   4.005   3.951   2.736
 2945SOL    HW2 9735   4.010   3.788   2.730
 2946SOL     OW 9736   6.898   5.708   5.668
 2946SOL    HW1 9737   6.838   5.720   5.748
 2946SOL    HW2 9738   6.991   5.733   5.694
 2947SOL     OW 9739   0.537   3.863   0.169
 2947SOL    HW1 9740   0.588   3.941   0.205
 2947SOL    HW2 9741   0.538   3.865   0.069
 2948SOL     OW 9742   6.235   3.769   5.544
 2948SOL    HW1 9743   6.306   3.802   5.482
 2948SOL    HW2 9744   6.207   3.844   5.604
 2949SOL     OW 9745   1.620   6.208   1.256
 2949SOL    HW1 9746   1.672   6.166   1.331
 2949SOL    HW2 9747   1.657   6.177   1.169
 2950SOL     OW 9748   5.629   3.586   4.528
 2950SOL    HW1 9749   5.530   3.593   4.532
 2950SOL    HW2 9750   5.657   3.551   4.439
 2951SOL     OW 9751   0.187   2.368   0.098
 2951SOL    HW1 9752   0.245   2.434   0.147
 2951SOL    HW2 9753   0.135   2.314   0.165
 2952SOL     OW 9754   1.039   4.924   3.490
 2952SOL    HW1 9755   1.097   4.990   3.537
 2952SOL    HW2 9756   0.986   4.872   3.556
 2953SOL     OW 9757   5.399   2.538   2.442
 2953SOL    HW1 9758   5.343   2.584   2.374
 2953SOL    HW2 9759   5.368   2.563   2.534
 2954SOL     OW 9760   1.316   5.917   2.338
 2954SOL    HW1 9761   1.321   5.833   2.285
 2954SOL    HW2 9762   1.228   5.962   2.322
 2955SOL     OW 9763   0.544   2.874   0.464
 2955SOL    HW1 9764   0.492   2.863   0.379
 2955SOL    HW2 9765   0.553   2.971   0.485
 2956SOL     OW 9766   0.285   5.669   2.861
 2956SOL    HW1 9767   0.189   5.695   2.876
 2956SOL    HW2 9768   0.298   5.574   2.890
 2957SOL     OW 9769   6.920   3.468   1.260
 2957SOL    HW1 9770   6.903   3.562   1.233
 2957SOL    HW2 9771   6.838   3.413   1.243
 2958SOL     OW 9772   2.445   4.601   4.985
 2958SOL    HW1 9773   2.465   4.698   4.971
 2958SOL    HW2 9774   2.518   4.560   5.039
 2959SOL     OW 9775   5.495   4.610   6.886
 2959SOL    HW1 9776   5.428   4.622   6.813
 2959SOL    HW2 9777   5.536   4.699   6.908
 2960SOL     OW 9778   2.881   1.334   0.229
 2960SOL    HW1 9779   2.934   1.409   0.268
 2960SOL    HW2 9780   2.873   1.347   0.130
 2961SOL     OW 9781   5.366   3.162   4.453
 2961SOL    HW1 9782   5.457   3.204   4.445
 2961SOL    HW2 9783   5.376   3.071   4.495
 2962SOL     OW 9784   4.626   0.880   3.627
 2962SOL    HW1 9785   4.672   0.949   3.683
 2962SOL    HW2 9786   4.693   0.830   3.572
 2963SOL     OW 9787   1.760   1.788   5.837
 2963SOL    HW1 9788   1.775   1.854   5.762
 2963SOL    HW2 9789   1.842   1.731   5.847
 2964SOL     OW 9790   1.803   0.061   1.958
 2964SOL    HW1 9791   1.853   0.036   1.875
 2964SOL    HW2 9792   1.864   0.054   2.037
 2965SOL     OW 9793   0.455   0.696   5.219
 2965SOL    HW1 9794   0.540   0.748   5.216
 2965SOL    HW2 9795   0.381   0.751   5.180
 2966SOL     OW 9796   5.882   4.496   3.866
 2966SOL    HW1 9797   5.885   4.399   3.889
 2966SOL    HW2 9798   5.787   4.527   3.863
 2967SOL     OW 9799   5.706   2.626   3.633
 2967SOL    HW1 9800   5.706   2.581   3.722
 2967SOL    HW2 9801   5.631   2.590   3.578
 2968SOL     OW 9802   0.824   4.004   5.805
 2968SOL    HW1 9803   0.733   4.029   5.773
 2968SOL    HW2 9804   0.885   3.994   5.727
 2969SOL     OW 9805   5.658   1.851   5.279
 2969SOL    HW1 9806   5.625   1.940   5.312
 2969SOL    HW2 9807   5.681   1.858   5.182
 2970SOL     OW 9808   1.068   4.203   6.633
 2970SOL    HW1 9809   1.122   4.130   6.675
 2970SOL    HW2 9810   1.129   4.270   6.591
 2971SOL     OW 9811   5.681   2.935   4.234
 2971SOL    HW1 9812   5.682   2.985   4.148
 2971SOL    HW2 9813   5.687   3.000   4.310
 2972SOL     OW 9814   6.327   4.220   0.073
 2972SOL    HW1 9815   6.258   4.290   0.056
 2972SOL    HW2 9816   6.283   4.141   0.117
 2973SOL     OW 9817   5.489   0.583   3.932
 2973SOL    HW1 9818   5.558   0.517   3.960
 2973SOL    HW2 9819   5.516   0.626   3.846
 2974SOL     OW 9820   5.764   3.923   3.444
 2974SOL    HW1 9821   5.719   3.884   3.364
 2974SOL    HW2 9822   5.700   3.985   3.491
 2975SOL     OW 9823   0.245   1.954   5.313
 2975SOL    HW1 9824   0.228   1.968   5.411
 2975SOL    HW2 9825   0.202   2.027   5.261
 2976SOL     OW 9826   3.746   1.389   2.851
 2976SOL    HW1 9827   3.688   1.384   2.933
 2976SOL    HW2 9828   3.689   1.401   2.770
 2977SOL     OW 9829   2.794   7.005   4.157
 2977SOL    HW1 9830   2.753   6.952   4.232
 2977SOL    HW2 9831   2.886   0.006   4.183
 2978SOL     OW 9832   4.358   4.783   0.190
 2978SOL    HW1 9833   4.399   4.844   0.259
 2978SOL    HW2 9834   4.398   4.803   0.101
 2979SOL     OW 9835   3.912   0.361   3.910
 2979SOL    HW1 9836   3.914   0.403   4.001
 2979SOL    HW2 9837   3.975   0.410   3.849
 2980SOL     OW 9838   1.371   5.967   4.201
 2980SOL    HW1 9839   1.318   5.926   4.276
 2980SOL    HW2 9840   1.460   5.997   4.236
 2981SOL     OW 9841   0.574   0.273   6.153
 2981SOL    HW1 9842   0.669   0.292   6.175
 2981SOL    HW2 9843   0.564   0.178   6.125
 2982SOL     OW 9844   4.519   6.637   3.305
 2982SOL    HW1 9845   4.440   6.587   3.270
 2982SOL    HW2 9846   4.489   6.726   3.341
 2983SOL     OW 9847   0.606   0.547   4.008
 2983SOL    HW1 9848   0.543   0.598   3.950
 2983SOL    HW2 9849   0.622   0.456   3.968
 2984SOL     OW 9850   5.475   6.123   1.146
 2984SOL    HW1 9851   5.569   6.154   1.158
 2984SOL    HW2 9852   5.419   6.199   1.114
 2985SOL     OW 9853   0.646   2.229   4.284
 2985SOL    HW1 9854   0.549   2.255   4.283
 2985SOL    HW2 9855   0.676   2.219   4.379
 2986SOL     OW 9856   2.552   4.200   5.775
 2986SOL    HW1 9857   2.464   4.183   5.732
 2986SOL    HW2 9858   2.606   4.262   5.718
 2987SOL     OW 9859   4.688   1.201   4.066
 2987SOL    HW1 9860   4.599   1.161   4.085
 2987SOL    HW2 9861   4.704   1.203   3.967
 2988SOL     OW 9862   0.731   0.257   2.208
 2988SOL    HW1 9863   0.690   0.166   2.198
 2988SOL    HW2 9864   0.665   0.327   2.182
 2989SOL     OW 9865   6.055   5.257   0.802
 2989SOL    HW1 9866   5.983   5.308   0.753
 2989SOL    HW2 9867   6.073   5.301   0.890
 2990SOL     OW 9868   3.981   1.110   2.989
 2990SOL    HW1 9869   3.998   1.125   2.891
 2990SOL    HW2 9870   3.964   1.197   3.034
 2991SOL     OW 9871   0.208   3.789   0.837
 2991SOL    HW1 9872   0.278   3.841   0.788
 2991SOL    HW2 9873   0.120   3.836   0.829
 2992SOL     OW 9874   2.487   5.631   5.643
 2992SOL    HW1 9875   2.577   5.602   5.676
 2992SOL    HW2 9876   2.464   5.720   5.682
 2993SOL     OW 9877   1.317   4.894   1.996
 2993SOL    HW1 9878   1.314   4.794   2.002
 2993SOL    HW2 9879   1.265   4.924   1.917
 2994SOL     OW 9880   4.659   0.682   7.020
 2994SOL    HW1 9881   4.732   0.620   6.993
 2994SOL    HW2 9882   4.693   0.746   0.061
 2995SOL     OW 9883   1.068   2.756   6.740
 2995SOL    HW1 9884   1.031   2.822   6.675
 2995SOL    HW2 9885   1.080   2.667   6.696
 2996SOL     OW 9886   3.131   6.365   4.947
 2996SOL    HW1 9887   3.086   6.320   4.870
 2996SOL    HW2 9888   3.229   6.371   4.930
 2997SOL     OW 9889   4.970   6.248   1.873
 2997SOL    HW1 9890   5.009   6.340   1.871
 2997SOL    HW2 9891   4.947   6.224   1.968
 2998SOL     OW 9892   4.866   5.597   4.765
 2998SOL    HW1 9893   4.964   5.578   4.766
 2998SOL    HW2 9894   4.821   5.538   4.699
 2999SOL     OW 9895   3.834   6.130   3.769
 2999SOL    HW1 9896   3.821   6.228   3.749
 2999SOL    HW2 9897   3.922   6.100   3.732
 3000SOL     OW 9898   1.724   3.864   5.939
 3000SOL    HW1 9899   1.759   3.952   5.907
 3000SOL    HW2 9900   1.749   3.792   5.873
 3001SOL     OW 9901   4.907   7.005   6.854
 3001SOL    HW1 9902   4.948   0.047   6.913
 3001SOL    HW2 9903   4.979   6.954   6.808
 3002SOL     OW 9904   3.628   0.141   5.237
 3002SOL    HW1 9905   3.556   0.072   5.247
 3002SOL    HW2 9906   3.715   0.103   5.269
 3003SOL     OW 9907   2.926   6.390   6.268
 3003SOL    HW1 9908   2.830   6.417   6.283
 3003SOL    HW2 9909   2.944   6.305   6.317
 3004SOL     OW 9910   6.751   4.032   3.758
 3004SOL    HW1 9911   6.841   4.001   3.789
 3004SOL    HW2 9912   6.757   4.125   3.722
 3005SOL     OW 9913   3.307   3.199   1.334
 3005SOL    HW1 9914   3.242   3.273   1.354
 3005SOL    HW2 9915   3.398   3.238   1.318
 3006SOL     OW 9916   6.457   1.557   0.526
 3006SOL    HW1 9917   6.388   1.594   0.464
 3006SOL    HW2 9918   6.489   1.469   0.491
 3007SOL     OW 9919   5.780   5.266   2.664
 3007SOL    HW1 9920   5.773   5.365   2.667
 3007SOL    HW2 9921   5.740   5.232   2.579
 3008SOL     OW 9922   3.574   0.337   6.422
 3008SOL    HW1 9923   3.574   0.337   6.522
 3008SOL    HW2 9924   3.655   0.383   6.388
 3009SOL     OW 9925   0.568   6.806   2.630
 3009SOL    HW1 9926   0.566   6.707   2.638
 3009SOL    HW2 9927   0.560   6.832   2.534
 3010SOL     OW 9928   4.136   6.235   3.318
 3010SOL    HW1 9929   4.205   6.195   3.258
 3010SOL    HW2 9930   4.049   6.187   3.305
 3011SOL     OW 9931   5.690   0.608   6.672
 3011SOL    HW1 9932   5.694   0.529   6.734
 3011SOL    HW2 9933   5.718   0.580   6.580
 3012SOL     OW 9934   0.606   3.357   4.278
 3012SOL    HW1 9935   0.647   3.288   4.337
 3012SOL    HW2 9936   0.663   3.440   4.279
 3013SOL     OW 9937   5.342   6.145   3.470
 3013SOL    HW1 9938   5.317   6.054   3.503
 3013SOL    HW2 9939   5.418   6.181   3.523
 3014SOL     OW 9940   5.414   2.139   4.308
 3014SOL    HW1 9941   5.418   2.088   4.222
 3014SOL    HW2 9942   5.482   2.212   4.307
 3015SOL     OW 9943   3.241   2.418   0.005
 3015SOL    HW1 9944   3.256   2.514   7.013
 3015SOL    HW2 9945   3.203   2.373   6.951
 3016SOL     OW 9946   3.123   5.906   4.614
 3016SOL    HW1 9947   3.059   5.951   4.677
 3016SOL    HW2 9948   3.190   5.854   4.667
 3017SOL     OW 9949   1.323   5.743   0.989
 3017SOL    HW1 9950   1.305   5.653   0.949
 3017SOL    HW2 9951   1.279   5.750   1.078
 3018SOL     OW 9952   3.252   0.627   6.397
 3018SOL    HW1 9953   3.298   0.671   6.320
 3018SOL    HW2 9954   3.244   0.693   6.473
 3019SOL     OW 9955   3.307   6.269   1.071
 3019SOL    HW1 9956   3.261   6.297   1.155
 3019SOL    HW2 9957   3.406   6.264   1.087
 3020SOL     OW 9958   3.897   3.569   1.163
 3020SOL    HW1 9959   3.799   3.569   1.180
 3020SOL    HW2 9960   3.940   3.494   1.214
 3021SOL     OW 9961   2.052   2.062   6.925
 3021SOL    HW1 9962   2.006   2.122   6.859
 3021SOL    HW2 9963   2.105   1.993   6.875
 3022SOL     OW 9964   4.174   6.347   2.288
 3022SOL    HW1 9965   4.192   6.412   2.214
 3022SOL    HW2 9966   4.077   6.351   2.313
 3023SOL     OW 9967   3.542   6.031   3.229
 3023SOL    HW1 9968   3.596   6.032   3.144
 3023SOL    HW2 9969   3.501   6.121   3.244
 3024SOL     OW 9970   2.720   0.870   6.263
 3024SOL    HW1 9971   2.664   0.950   6.286
 3024SOL    HW2 9972   2.767   0.886   6.176
 3025SOL     OW 9973   3.435   2.461   0.371
 3025SOL    HW1 9974   3.342   2.428   0.354
 3025SOL    HW2 9975   3.482   2.399   0.433
 3026SOL     OW 9976   1.397   3.465   0.598
 3026SOL    HW1 9977   1.391   3.421   0.687
 3026SOL    HW2 9978   1.424   3.397   0.529
 3027SOL     OW 9979   4.345   1.154   2.000
 3027SOL    HW1 9980   4.270   1.145   2.065
 3027SOL    HW2 9981   4.347   1.074   1.940
 3028SOL     OW 9982   1.248   4.717   6.691
 3028SOL    HW1 9983   1.347   4.726   6.699
 3028SOL    HW2 9984   1.222   4.714   6.595
 3029SOL     OW 9985   6.515   5.409   4.952
 3029SOL    HW1 9986   6.538   5.339   4.885
 3029SOL    HW2 9987   6.486   5.366   5.037
 3030SOL     OW 9988   0.758   1.551   5.370
 3030SOL    HW1 9989   0.684   1.484   5.377
 3030SOL    HW2 9990   0.721   1.643   5.378
 3031SOL     OW 9991   0.827   3.434   0.768
 3031SOL    HW1 9992   0.865   3.386   0.847
 3031SOL    HW2 9993   0.775   3.514   0.801
 3032SOL     OW 9994   5.327   0.460   0.310
 3032SOL    HW1 9995   5.256   0.526   0.333
 3032SOL    HW2 9996   5.409   0.478   0.364
 3033SOL     OW 9997   0.482   2.448   6.954
 3033SOL    HW1 9998   0.406   2.383   6.942
 3033SOL    HW2 9999   0.539   2.418   0.003
 3034SOL     OW10000   1.833   6.067   3.788
 3034SOL    HW110001   1.753   6.126   3.777
 3034SOL    HW210002   1.904   6.118   3.837
 3035SOL     OW10003   6.583   1.902   0.489
 3035SOL    HW110004   6.536   1.897   0.401
 3035SOL    HW210005   6.666   1.847   0.486
 3036SOL     OW10006   1.868   3.638   7.001
 3036SOL    HW110007   1.965   3.620   6.989
 3036SOL    HW210008   1.854   3.734   7.027
 3037SOL     OW10009   5.947   6.029   4.201
 3037SOL    HW110010   6.008   5.985   4.268
 3037SOL    HW210011   5.895   5.959   4.152
 3038SOL     OW10012   5.977   0.213   6.480
 3038SOL    HW110013   6.054   0.254   6.528
 3038SOL    HW210014   5.928   0.152   6.542
 3039SOL     OW10015   6.896   4.698   2.692
 3039SOL    HW110016   6.957   4.755   2.638
 3039SOL    HW210017   6.949   4.646   2.759
 3040SOL     OW10018   4.882   3.868   6.286
 3040SOL    HW110019   4.874   3.855   6.385
 3040SOL    HW210020   4.798   3.910   6.252
 3041SOL     OW10021   1.602   2.566   5.893
 3041SOL    HW110022   1.584   2.495   5.824
 3041SOL    HW210023   1.673   2.627   5.859
 3042SOL     OW10024   5.229   0.078   1.937
 3042SOL    HW110025   5.255   0.118   1.849
 3042SOL    HW210026   5.205   0.151   2.001
 3043SOL     OW10027   0.047   5.440   0.755
 3043SOL    HW110028   7.019   5.461   0.675
 3043SOL    HW210029   0.058   5.341   0.763
 3044SOL     OW10030   3.404   4.141   5.424
 3044SOL    HW110031   3.500   4.125   5.445
 3044SOL    HW210032   3.363   4.200   5.494
 3045SOL     OW10033   4.769   0.590   2.560
 3045SOL    HW110034   4.855   0.578   2.510
 3045SOL    HW210035   4.779   0.551   2.652
 3046SOL     OW10036   1.559   3.591   5.645
 3046SOL    HW110037   1.587   3.562   5.554
 3046SOL    HW210038   1.627   3.562   5.712
 3047SOL     OW10039   5.441   5.514   1.948
 3047SOL    HW110040   5.469   5.608   1.927
 3047SOL    HW210041   5.484   5.451   1.883
 3048SOL     OW10042   4.132   3.187   1.354
 3048SOL    HW110043   4.153   3.197   1.451
 3048SOL    HW210044   4.033   3.194   1.341
 3049SOL     OW10045   0.809   5.795   1.154
 3049SOL    HW110046   0.758   5.880   1.138
 3049SOL    HW210047   0.792   5.731   1.080
 3050SOL     OW10048   3.586   0.128   3.406
 3050SOL    HW110049   3.671   0.080   3.385
 3050SOL    HW210050   3.518   0.062   3.437
 3051SOL     OW10051   2.856   3.933   7.006
 3051SOL    HW110052   2.886   3.999   0.047
 3051SOL    HW210053   2.894   3.843   7.027
 3052SOL     OW10054   4.062   0.676   2.856
 3052SOL    HW110055   4.155   0.672   2.893
 3052SOL    HW210056   4.005   0.734   2.915
 3053SOL     OW10057   6.001   0.426   6.900
 3053SOL    HW110058   6.032   0.517   6.926
 3053SOL    HW210059   6.038   0.359   6.965
 3054SOL     OW10060   0.170   2.423   6.807
 3054SOL    HW110061   0.182   2.515   6.770
 3054SOL    HW210062   0.160   2.429   6.907
 3055SOL     OW10063   5.144   0.568   3.694
 3055SOL    HW110064   5.212   0.518   3.640
 3055SOL    HW210065   5.130   0.521   3.781
 3056SOL     OW10066   6.747   0.374   0.039
 3056SOL    HW110067   6.786   0.461   0.009
 3056SOL    HW210068   6.692   0.389   0.122
 3057SOL     OW10069   4.283   5.598   2.761
 3057SOL    HW110070   4.287   5.553   2.672
 3057SOL    HW210071   4.334   5.684   2.758
 3058SOL     OW10072   6.182   5.755   1.341
 3058SOL    HW110073   6.198   5.698   1.421
 3058SOL    HW210074   6.121   5.707   1.278
 3059SOL     OW10075   1.782   3.257   5.058
 3059SOL    HW110076   1.793   3.169   5.013
 3059SOL    HW210077   1.845   3.262   5.136
 3060SOL     OW10078   0.153   6.386   0.322
 3060SOL    HW110079   0.222   6.389   0.394
 3060SOL    HW210080   0.134   6.478   0.289
 3061SOL     OW10081   0.089   0.707   5.132
 3061SOL    HW110082   0.014   0.738   5.074
 3061SOL    HW210083   0.172   0.759   5.109
 3062SOL     OW10084   1.639   6.945   1.309
 3062SOL    HW110085   1.694   6.862   1.304
 3062SOL    HW210086   1.574   6.937   1.384
 3063SOL     OW10087   2.566   5.169   2.535
 3063SOL    HW110088   2.504   5.098   2.569
 3063SOL    HW210089   2.572   5.243   2.601
 3064SOL     OW10090   5.718   3.089   3.745
 3064SOL    HW110091   5.762   3.012   3.700
 3064SOL    HW210092   5.655   3.133   3.681
 3065SOL     OW10093   2.271   0.672   6.604
 3065SOL    HW110094   2.245   0.589   6.556
 3065SOL    HW210095   2.371   0.677   6.609
 3066SOL     OW10096   5.757   4.359   0.323
 3066SOL    HW110097   5.720   4.452   0.319
 3066SOL    HW210098   5.857   4.363   0.329
 3067SOL     OW10099   3.042   1.129   4.547
 3067SOL    HW110100   3.056   1.083   4.634
 3067SOL    HW210101   3.121   1.187   4.527
 3068SOL     OW10102   5.565   6.127   0.548
 3068SOL    HW110103   5.540   6.204   0.606
 3068SOL    HW210104   5.651   6.088   0.579
 3069SOL     OW10105   6.610   5.547   1.574
 3069SOL    HW110106   6.638   5.639   1.545
 3069SOL    HW210107   6.661   5.523   1.657
 3070SOL     OW10108   1.983   1.360   2.163
 3070SOL    HW110109   1.947   1.433   2.104
 3070SOL    HW210110   1.907   1.307   2.200
 3071SOL     OW10111   6.705   6.687   3.339
 3071SOL    HW110112   6.792   6.684   3.388
 3071SOL    HW210113   6.641   6.622   3.379
 3072SOL     OW10114   0.803   6.226   0.969
 3072SOL    HW110115   0.838   6.269   1.052
 3072SOL    HW210116   0.856   6.143   0.950
 3073SOL     OW10117   0.893   3.643   4.931
 3073SOL    HW110118   0.811   3.686   4.968
 3073SOL    HW210119   0.931   3.579   4.997
 3074SOL     OW10120   5.403   3.023   0.835
 3074SOL    HW110121   5.303   3.017   0.836
 3074SOL    HW210122   5.441   2.931   0.838
 3075SOL     OW10123   1.765   6.099   1.461
 3075SOL    HW110124   1.700   6.105   1.536
 3075SOL    HW210125   1.850   6.145   1.486
 3076SOL     OW10126   6.189   0.724   4.360
 3076SOL    HW110127   6.175   0.809   4.412
 3076SOL    HW210128   6.189   0.646   4.422
 3077SOL     OW10129   5.360   4.684   2.726
 3077SOL    HW110130   5.283   4.692   2.663
 3077SOL    HW210131   5.431   4.750   2.700
 3078SOL     OW10132   2.251   3.777   1.466
 3078SOL    HW110133   2.218   3.771   1.561
 3078SOL    HW210134   2.268   3.685   1.431
 3079SOL     OW10135   1.826   2.643   4.821
 3079SOL    HW110136   1.736   2.669   4.787
 3079SOL    HW210137   1.875   2.725   4.853
 3080SOL     OW10138   5.439   5.006   1.962
 3080SOL    HW110139   5.389   5.029   1.878
 3080SOL    HW210140   5.445   4.907   1.970
 3081SOL     OW10141   0.793   4.452   5.868
 3081SOL    HW110142   0.813   4.365   5.913
 3081SOL    HW210143   0.825   4.449   5.773
 3082SOL     OW10144   3.761   6.827   3.684
 3082SOL    HW110145   3.722   6.807   3.594
 3082SOL    HW210146   3.705   6.896   3.730
 3083SOL     OW10147   4.152   6.733   2.301
 3083SOL    HW110148   4.181   6.689   2.216
 3083SOL    HW210149   4.217   6.710   2.374
 3084SOL     OW10150   5.106   4.281   4.541
 3084SOL    HW110151   5.091   4.365   4.490
 3084SOL    HW210152   5.190   4.237   4.508
 3085SOL     OW10153   0.208   4.231   3.339
 3085SOL    HW110154   0.138   4.279   3.390
 3085SOL    HW210155   0.269   4.183   3.402
 3086SOL     OW10156   4.440   1.389   2.269
 3086SOL    HW110157   4.493   1.375   2.185
 3086SOL    HW210158   4.457   1.480   2.304
 3087SOL     OW10159   0.124   4.722   4.065
 3087SOL    HW110160   0.139   4.638   4.013
 3087SOL    HW210161   0.212   4.755   4.100
 3088SOL     OW10162   2.854   5.134   5.335
 3088SOL    HW110163   2.869   5.052   5.390
 3088SOL    HW210164   2.942   5.167   5.301
 3089SOL     OW10165   1.242   3.170   6.863
 3089SOL    HW110166   1.166   3.185   6.927
 3089SOL    HW210167   1.279   3.259   6.835
 3090SOL     OW10168   1.623   1.708   1.515
 3090SOL    HW110169   1.661   1.618   1.494
 3090SOL    HW210170   1.691   1.778   1.491
 3091SOL     OW10171   3.000   6.498   0.213
 3091SOL    HW110172   2.968   6.417   0.165
 3091SOL    HW210173   2.954   6.579   0.177
 3092SOL     OW10174   5.124   0.290   0.154
 3092SOL    HW110175   5.180   0.220   0.199
 3092SOL    HW210176   5.179   0.372   0.140
 3093SOL     OW10177   5.803   5.414   5.933
 3093SOL    HW110178   5.770   5.430   6.026
 3093SOL    HW210179   5.736   5.359   5.883
 3094SOL     OW10180   3.267   6.856   4.976
 3094SOL    HW110181   3.255   6.856   4.877
 3094SOL    HW210182   3.188   6.813   5.019
 3095SOL     OW10183   2.555   4.521   4.487
 3095SOL    HW110184   2.501   4.457   4.539
 3095SOL    HW210185   2.532   4.514   4.390
 3096SOL     OW10186   6.666   0.500   4.620
 3096SOL    HW110187   6.710   0.419   4.659
 3096SOL    HW210188   6.707   0.520   4.531
 3097SOL     OW10189   0.768   2.360   0.403
 3097SOL    HW110190   0.747   2.355   0.501
 3097SOL    HW210191   0.774   2.456   0.375
 3098SOL     OW10192   2.377   3.500   1.253
 3098SOL    HW110193   2.391   3.528   1.158
 3098SOL    HW210194   2.462   3.463   1.289
 3099SOL     OW10195   0.211   5.806   4.947
 3099SOL    HW110196   0.214   5.712   4.914
 3099SOL    HW210197   0.303   5.844   4.948
 3100SOL     OW10198   6.649   0.115   4.885
 3100SOL    HW110199   6.591   0.034   4.876
 3100SOL    HW210200   6.681   0.123   4.979
 3101SOL     OW10201   4.316   6.129   5.556
 3101SOL    HW110202   4.358   6.180   5.631
 3101SOL    HW210203   4.217   6.123   5.571
 3102SOL     OW10204   0.772   4.963   1.631
 3102SOL    HW110205   0.860   4.957   1.677
 3102SOL    HW210206   0.735   4.871   1.617
 3103SOL     OW10207   3.507   1.231   0.595
 3103SOL    HW110208   3.584   1.168   0.584
 3103SOL    HW210209   3.421   1.181   0.591
 3104SOL     OW10210   5.788   6.277   4.369
 3104SOL    HW110211   5.857   6.216   4.331
 3104SOL    HW210212   5.817   6.372   4.358
 3105SOL     OW10213   6.288   5.675   3.456
 3105SOL    HW110214   6.366   5.723   3.417
 3105SOL    HW210215   6.295   5.578   3.434
 3106SOL     OW10216   6.540   1.981   2.667
 3106SOL    HW110217   6.604   2.057   2.679
 3106SOL    HW210218   6.588   1.903   2.629
 3107SOL     OW10219   3.820   0.426   4.381
 3107SOL    HW110220   3.875   0.405   4.461
 3107SOL    HW210221   3.742   0.363   4.376
 3108SOL     OW10222   2.190   1.041   4.411
 3108SOL    HW110223   2.205   1.011   4.505
 3108SOL    HW210224   2.099   1.012   4.382
 3109SOL     OW10225   5.443   5.763   2.603
 3109SOL    HW110226   5.348   5.733   2.608
 3109SOL    HW210227   5.470   5.771   2.507
 3110SOL     OW10228   0.324   2.028   3.640
 3110SOL    HW110229   0.299   2.119   3.607
 3110SOL    HW210230   0.423   2.026   3.658
 3111SOL     OW10231   5.899   5.767   3.694
 3111SOL    HW110232   5.908   5.846   3.755
 3111SOL    HW210233   5.918   5.683   3.745
 3112SOL     OW10234   4.879   2.746   5.681
 3112SOL    HW110235   4.880   2.692   5.765
 3112SOL    HW210236   4.822   2.701   5.613
 3113SOL     OW10237   2.563   0.131   3.846
 3113SOL    HW110238   2.660   0.156   3.858
 3113SOL    HW210239   2.542   0.052   3.903
 3114SOL     OW10240   5.312   4.159   0.126
 3114SOL    HW110241   5.344   4.200   0.040
 3114SOL    HW210242   5.250   4.083   0.105
 3115SOL     OW10243   4.600   3.652   0.064
 3115SOL    HW110244   4.621   3.636   0.160
 3115SOL    HW210245   4.555   3.572   0.025
 3116SOL     OW10246   0.069   3.037   0.081
 3116SOL    HW110247   0.143   3.007   0.020
 3116SOL    HW210248   7.008   3.023   0.036
 3117SOL     OW10249   4.643   3.894   5.295
 3117SOL    HW110250   4.568   3.829   5.280
 3117SOL    HW210251   4.614   3.964   5.360
 3118SOL     OW10252   6.859   4.484   6.497
 3118SOL    HW110253   6.802   4.484   6.578
 3118SOL    HW210254   6.939   4.425   6.512
 3119SOL     OW10255   1.933   4.356   5.184
 3119SOL    HW110256   1.948   4.401   5.272
 3119SOL    HW210257   1.885   4.270   5.198
 3120SOL     OW10258   2.310   6.442   4.681
 3120SOL    HW110259   2.211   6.454   4.683
 3120SOL    HW210260   2.334   6.371   4.616
 3121SOL     OW10261   0.221   1.178   2.488
 3121SOL    HW110262   0.186   1.229   2.409
 3121SOL    HW210263   0.321   1.175   2.484
 3122SOL     OW10264   3.528   5.479   6.043
 3122SOL    HW110265   3.451   5.459   5.983
 3122SOL    HW210266   3.605   5.512   5.989
 3123SOL     OW10267   3.086   6.664   3.626
 3123SOL    HW110268   3.008   6.715   3.663
 3123SOL    HW210269   3.052   6.591   3.567
 3124SOL     OW10270   3.988   0.497   4.902
 3124SOL    HW110271   4.082   0.524   4.923
 3124SOL    HW210272   3.979   0.479   4.804
 3125SOL     OW10273   6.360   2.068   5.975
 3125SOL    HW110274   6.306   2.013   5.911
 3125SOL    HW210275   6.393   2.150   5.929
 3126SOL     OW10276   4.822   4.556   6.691
 3126SOL    HW110277   4.843   4.583   6.785
 3126SOL    HW210278   4.777   4.631   6.643
 3127SOL     OW10279   0.970   2.157   3.273
 3127SOL    HW110280   0.896   2.217   3.240
 3127SOL    HW210281   1.016   2.202   3.349
 3128SOL     OW10282   1.647   0.553   0.578
 3128SOL    HW110283   1.630   0.462   0.616
 3128SOL    HW210284   1.718   0.547   0.508
 3129SOL     OW10285   0.747   4.588   6.114
 3129SOL    HW110286   0.752   4.567   6.016
 3129SOL    HW210287   0.664   4.548   6.152
 3130SOL     OW10288   2.411   4.768   2.125
 3130SOL    HW110289   2.455   4.837   2.068
 3130SOL    HW210290   2.349   4.813   2.190
 3131SOL     OW10291   1.334   2.964   3.149
 3131SOL    HW110292   1.434   2.968   3.152
 3131SOL    HW210293   1.297   3.055   3.166
 3132SOL     OW10294   5.368   6.137   5.321
 3132SOL    HW110295   5.325   6.200   5.257
 3132SOL    HW210296   5.297   6.083   5.366
 3133SOL     OW10297   2.171   2.158   4.125
 3133SOL    HW110298   2.118   2.242   4.112
 3133SOL    HW210299   2.157   2.124   4.218
 3134SOL     OW10300   5.151   3.480   1.875
 3134SOL    HW110301   5.155   3.380   1.867
 3134SOL    HW210302   5.239   3.519   1.850
 3135SOL     OW10303   3.957   1.687   4.874
 3135SOL    HW110304   4.040   1.701   4.927
 3135SOL    HW210305   3.929   1.773   4.832
 3136SOL     OW10306   6.149   6.420   6.101
 3136SOL    HW110307   6.196   6.338   6.069
 3136SOL    HW210308   6.210   6.499   6.093
 3137SOL     OW10309   4.851   1.412   3.703
 3137SOL    HW110310   4.927   1.369   3.752
 3137SOL    HW210311   4.883   1.496   3.659
 3138SOL     OW10312   6.087   1.901   4.315
 3138SOL    HW110313   6.065   1.805   4.293
 3138SOL    HW210314   6.186   1.911   4.322
 3139SOL     OW10315   5.320   6.616   6.351
 3139SOL    HW110316   5.346   6.567   6.267
 3139SOL    HW210317   5.222   6.638   6.348
 3140SOL     OW10318   6.527   6.283   6.508
 3140SOL    HW110319   6.487   6.345   6.575
 3140SOL    HW210320   6.547   6.333   6.424
 3141SOL     OW10321   0.727   6.616   6.595
 3141SOL    HW110322   0.650   6.662   6.551
 3141SOL    HW210323   0.788   6.579   6.524
 3142SOL     OW10324   5.059   6.220   0.212
 3142SOL    HW110325   5.112   6.150   0.261
 3142SOL    HW210326   5.026   6.288   0.277
 3143SOL     OW10327   6.876   2.024   6.310
 3143SOL    HW110328   6.823   2.040   6.393
 3143SOL    HW210329   6.932   2.104   6.289
 3144SOL     OW10330   2.168   3.788   1.134
 3144SOL    HW110331   2.243   3.761   1.074
 3144SOL    HW210332   2.165   3.726   1.213
 3145SOL     OW10333   3.030   5.845   2.792
 3145SOL    HW110334   3.096   5.887   2.729
 3145SOL    HW210335   3.059   5.752   2.812
 3146SOL     OW10336   1.332   6.745   3.057
 3146SOL    HW110337   1.322   6.715   3.152
 3146SOL    HW210338   1.402   6.815   3.051
 3147SOL     OW10339   4.034   5.381   0.450
 3147SOL    HW110340   3.961   5.341   0.506
 3147SOL    HW210341   4.061   5.315   0.379
 3148SOL     OW10342   4.192   5.264   4.122
 3148SOL    HW110343   4.214   5.344   4.177
 3148SOL    HW210344   4.151   5.194   4.181
 3149SOL     OW10345   3.363   0.757   5.537
 3149SOL    HW110346   3.292   0.706   5.584
 3149SOL    HW210347   3.351   0.749   5.438
 3150SOL     OW10348   5.239   5.880   4.372
 3150SOL    HW110349   5.177   5.802   4.380
 3150SOL    HW210350   5.317   5.855   4.314
 3151SOL     OW10351   4.528   1.289   6.584
 3151SOL    HW110352   4.498   1.225   6.655
 3151SOL    HW210353   4.469   1.280   6.504
 3152SOL     OW10354   0.405   5.218   1.789
 3152SOL    HW110355   0.333   5.287   1.796
 3152SOL    HW210356   0.486   5.259   1.747
 3153SOL     OW10357   6.018   3.915   1.540
 3153SOL    HW110358   6.035   3.984   1.610
 3153SOL    HW210359   6.010   3.959   1.451
 3154SOL     OW10360   6.412   2.269   0.166
 3154SOL    HW110361   6.350   2.318   0.228
 3154SOL    HW210362   6.379   2.176   0.153
 3155SOL     OW10363   0.270   4.630   1.405
 3155SOL    HW110364   0.272   4.592   1.313
 3155SOL    HW210365   0.184   4.679   1.419
 3156SOL     OW10366   4.013   3.500   3.570
 3156SOL    HW110367   3.916   3.475   3.572
 3156SOL    HW210368   4.060   3.457   3.647
 3157SOL     OW10369   2.182   3.494   4.665
 3157SOL    HW110370   2.183   3.592   4.686
 3157SOL    HW210371   2.155   3.480   4.569
 3158SOL     OW10372   5.251   6.937   1.517
 3158SOL    HW110373   5.211   7.025   1.491
 3158SOL    HW210374   5.328   6.953   1.579
 3159SOL     OW10375   4.766   6.036   6.185
 3159SOL    HW110376   4.857   6.070   6.207
 3159SOL    HW210377   4.773   5.946   6.143
 3160SOL     OW10378   6.178   4.175   6.334
 3160SOL    HW110379   6.103   4.139   6.388
 3160SOL    HW210380   6.236   4.100   6.303
 3161SOL     OW10381   1.466   1.015   2.965
 3161SOL    HW110382   1.533   1.055   3.028
 3161SOL    HW210383   1.499   1.022   2.871
 3162SOL     OW10384   6.931   5.266   0.014
 3162SOL    HW110385   6.888   5.322   0.085
 3162SOL    HW210386   6.891   5.288   6.952
 3163SOL     OW10387   3.930   2.863   6.942
 3163SOL    HW110388   3.914   2.780   6.889
 3163SOL    HW210389   3.899   2.849   0.008
 3164SOL     OW10390   5.268   4.368   1.463
 3164SOL    HW110391   5.262   4.455   1.512
 3164SOL    HW210392   5.246   4.293   1.525
 3165SOL     OW10393   0.919   0.001   1.817
 3165SOL    HW110394   0.924   6.928   1.818
 3165SOL    HW210395   0.832   0.029   1.777
 3166SOL     OW10396   4.712   2.720   6.193
 3166SOL    HW110397   4.674   2.789   6.132
 3166SOL    HW210398   4.789   2.759   6.244
 3167SOL     OW10399   0.276   4.420   1.976
 3167SOL    HW110400   0.292   4.519   1.972
 3167SOL    HW210401   0.209   4.393   1.908
 3168SOL     OW10402   5.702   3.097   0.821
 3168SOL    HW110403   5.738   3.008   0.794
 3168SOL    HW210404   5.608   3.086   0.854
 3169SOL     OW10405   0.784   3.373   5.560
 3169SOL    HW110406   0.867   3.411   5.600
 3169SOL    HW210407   0.765   3.417   5.472
 3170SOL     OW10408   4.333   0.393   0.165
 3170SOL    HW110409   4.293   0.338   0.238
 3170SOL    HW210410   4.260   0.427   0.105
 3171SOL     OW10411   6.488   6.929   1.717
 3171SOL    HW110412   6.501   7.019   1.676
 3171SOL    HW210413   6.566   6.908   1.775
 3172SOL     OW10414   6.416   6.308   5.154
 3172SOL    HW110415   6.404   6.230   5.093
 3172SOL    HW210416   6.513   6.319   5.176
 3173SOL     OW10417   2.003   6.964   2.480
 3173SOL    HW110418   1.909   6.945   2.510
 3173SOL    HW210419   2.054   7.006   2.555
 3174SOL     OW10420   3.076   2.848   5.791
 3174SOL    HW110421   3.056   2.840   5.888
 3174SOL    HW210422   2.998   2.815   5.738
 3175SOL     OW10423   0.914   6.073   6.914
 3175SOL    HW110424   0.961   6.151   6.872
 3175SOL    HW210425   0.815   6.084   6.903
 3176SOL     OW10426   1.417   4.710   6.164
 3176SOL    HW110427   1.491   4.707   6.098
 3176SOL    HW210428   1.439   4.651   6.242
 3177SOL     OW10429   5.631   4.505   5.463
 3177SOL    HW110430   5.708   4.565   5.487
 3177SOL    HW210431   5.611   4.513   5.365
 3178SOL     OW10432   0.699   4.012   1.839
 3178SOL    HW110433   0.686   4.097   1.788
 3178SOL    HW210434   0.768   3.956   1.793
 3179SOL     OW10435   2.009   2.445   2.420
 3179SOL    HW110436   1.925   2.460   2.473
 3179SOL    HW210437   1.986   2.434   2.323
 3180SOL     OW10438   4.869   0.957   5.500
 3180SOL    HW110439   4.948   0.911   5.540
 3180SOL    HW210440   4.861   0.932   5.403
 3181SOL     OW10441   0.456   0.926   3.483
 3181SOL    HW110442   0.470   0.855   3.414
 3181SOL    HW210443   0.493   1.013   3.449
 3182SOL     OW10444   0.159   0.532   5.848
 3182SOL    HW110445   0.230   0.494   5.907
 3182SOL    HW210446   0.166   0.632   5.847
 3183SOL     OW10447   4.251   5.250   1.474
 3183SOL    HW110448   4.248   5.217   1.568
 3183SOL    HW210449   4.183   5.322   1.461
 3184SOL     OW10450   2.328   1.788   2.486
 3184SOL    HW110451   2.244   1.746   2.453
 3184SOL    HW210452   2.322   1.803   2.584
 3185SOL     OW10453   0.300   6.732   5.312
 3185SOL    HW110454   0.241   6.699   5.239
 3185SOL    HW210455   0.396   6.716   5.287
 3186SOL     OW10456   3.627   1.263   2.391
 3186SOL    HW110457   3.625   1.164   2.374
 3186SOL    HW210458   3.687   1.306   2.324
 3187SOL     OW10459   3.743   4.162   6.989
 3187SOL    HW110460   3.813   4.109   6.942
 3187SOL    HW210461   3.766   4.170   0.058
 3188SOL     OW10462   3.494   5.714   2.919
 3188SOL    HW110463   3.594   5.719   2.923
 3188SOL    HW210464   3.466   5.679   2.830
 3189SOL     OW10465   1.196   0.771   3.419
 3189SOL    HW110466   1.143   0.799   3.499
 3189SOL    HW210467   1.169   0.679   3.392
 3190SOL     OW10468   1.351   6.029   1.739
 3190SOL    HW110469   1.345   6.048   1.837
 3190SOL    HW210470   1.438   6.061   1.704
 3191SOL     OW10471   3.941   0.707   1.322
 3191SOL    HW110472   3.897   0.796   1.332
 3191SOL    HW210473   3.978   0.678   1.410
 3192SOL     OW10474   0.745   2.418   1.651
 3192SOL    HW110475   0.710   2.350   1.716
 3192SOL    HW210476   0.767   2.373   1.564
 3193SOL     OW10477   4.623   2.088   6.567
 3193SOL    HW110478   4.697   2.026   6.542
 3193SOL    HW210479   4.594   2.069   6.661
 3194SOL     OW10480   1.692   3.849   6.467
 3194SOL    HW110481   1.765   3.912   6.491
 3194SOL    HW210482   1.697   3.826   6.370
 3195SOL     OW10483   1.207   3.145   3.839
 3195SOL    HW110484   1.184   3.095   3.922
 3195SOL    HW210485   1.241   3.236   3.864
 3196SOL     OW10486   0.003   0.160   4.742
 3196SOL    HW110487   0.042   0.071   4.718
 3196SOL    HW210488   0.054   0.199   4.819
 3197SOL     OW10489   1.260   5.905   3.325
 3197SOL    HW110490   1.230   5.997   3.299
 3197SOL    HW210491   1.335   5.911   3.391
 3198SOL     OW10492   6.949   1.771   5.964
 3198SOL    HW110493   6.895   1.764   6.048
 3198SOL    HW210494   6.971   1.866   5.946
 3199SOL     OW10495   4.865   1.565   1.797
 3199SOL    HW110496   4.830   1.472   1.811
 3199SOL    HW210497   4.915   1.569   1.710
 3200SOL     OW10498   0.220   2.162   0.658
 3200SOL    HW110499   0.307   2.131   0.620
 3200SOL    HW210500   0.180   2.231   0.597
 3201SOL     OW10501   5.633   3.901   3.695
 3201SOL    HW110502   5.613   3.884   3.598
 3201SOL    HW210503   5.592   3.829   3.751
 3202SOL     OW10504   1.786   4.885   1.680
 3202SOL    HW110505   1.867   4.864   1.735
 3202SOL    HW210506   1.813   4.902   1.585
 3203SOL     OW10507   0.041   1.002   1.162
 3203SOL    HW110508   0.096   1.018   1.079
 3203SOL    HW210509   0.048   1.081   1.222
 3204SOL     OW10510   6.326   5.886   1.857
 3204SOL    HW110511   6.386   5.966   1.867
 3204SOL    HW210512   6.365   5.809   1.907
 3205SOL     OW10513   6.618   3.882   5.801
 3205SOL    HW110514   6.546   3.903   5.867
 3205SOL    HW210515   6.661   3.795   5.824
 3206SOL     OW10516   0.671   6.658   5.565
 3206SOL    HW110517   0.743   6.626   5.626
 3206SOL    HW210518   0.625   6.579   5.523
 3207SOL     OW10519   0.868   1.027   4.954
 3207SOL    HW110520   0.795   1.057   4.893
 3207SOL    HW210521   0.894   1.103   5.014
 3208SOL     OW10522   4.476   5.571   4.677
 3208SOL    HW110523   4.434   5.496   4.626
 3208SOL    HW210524   4.447   5.658   4.639
 3209SOL     OW10525   2.769   0.240   3.609
 3209SOL    HW110526   2.736   0.301   3.537
 3209SOL    HW210527   2.723   0.262   3.695
 3210SOL     OW10528   0.374   4.197   2.866
 3210SOL    HW110529   0.425   4.112   2.855
 3210SOL    HW210530   0.306   4.186   2.939
 3211SOL     OW10531   2.042   4.481   1.370
 3211SOL    HW110532   2.014   4.557   1.311
 3211SOL    HW210533   2.119   4.433   1.328
 3212SOL     OW10534   4.433   2.443   6.721
 3212SOL    HW110535   4.415   2.499   6.801
 3212SOL    HW210536   4.531   2.438   6.704
 3213SOL     OW10537   6.011   5.889   3.065
 3213SOL    HW110538   5.931   5.939   3.098
 3213SOL    HW210539   5.985   5.795   3.041
 3214SOL     OW10540   4.321   6.120   6.825
 3214SOL    HW110541   4.350   6.038   6.775
 3214SOL    HW210542   4.246   6.165   6.776
 3215SOL     OW10543   6.600   2.843   6.943
 3215SOL    HW110544   6.507   2.866   6.916
 3215SOL    HW210545   6.605   2.837   0.015
 3216SOL     OW10546   5.399   6.647   3.939
 3216SOL    HW110547   5.443   6.604   4.017
 3216SOL    HW210548   5.390   6.579   3.865
 3217SOL     OW10549   0.463   4.320   2.625
 3217SOL    HW110550   0.435   4.303   2.719
 3217SOL    HW210551   0.414   4.257   2.564
 3218SOL     OW10552   3.796   0.054   2.773
 3218SOL    HW110553   3.758   0.072   2.863
 3218SOL    HW210554   3.868   0.121   2.753
 3219SOL     OW10555   0.132   0.153   3.132
 3219SOL    HW110556   0.123   0.066   3.083
 3219SOL    HW210557   0.047   0.205   3.124
 3220SOL     OW10558   0.032   4.982   5.136
 3220SOL    HW110559   0.069   4.890   5.120
 3220SOL    HW210560   0.100   5.038   5.183
 3221SOL     OW10561   2.528   6.997   3.607
 3221SOL    HW110562   2.503   0.049   3.662
 3221SOL    HW210563   2.506   6.913   3.658
 3222SOL     OW10564   4.988   1.591   2.810
 3222SOL    HW110565   5.068   1.650   2.819
 3222SOL    HW210566   4.981   1.531   2.890
 3223SOL     OW10567   2.510   4.999   5.980
 3223SOL    HW110568   2.598   5.029   6.016
 3223SOL    HW210569   2.446   4.984   6.056
 3224SOL     OW10570   4.078   5.579   0.038
 3224SOL    HW110571   4.139   5.606   0.113
 3224SOL    HW210572   4.013   5.510   0.071
 3225SOL     OW10573   3.343   3.165   0.462
 3225SOL    HW110574   3.271   3.213   0.512
 3225SOL    HW210575   3.423   3.153   0.521
 3226SOL     OW10576   1.959   0.898   4.337
 3226SOL    HW110577   1.904   0.918   4.256
 3226SOL    HW210578   1.974   0.799   4.343
 3227SOL     OW10579   3.930   1.811   6.056
 3227SOL    HW110580   3.971   1.734   6.105
 3227SOL    HW210581   3.832   1.815   6.077
 3228SOL     OW10582   5.335   3.624   3.988
 3228SOL    HW110583   5.245   3.668   3.997
 3228SOL    HW210584   5.382   3.627   4.076
 3229SOL     OW10585   4.248   1.831   5.751
 3229SOL    HW110586   4.247   1.756   5.817
 3229SOL    HW210587   4.169   1.890   5.768
 3230SOL     OW10588   0.475   0.653   2.868
 3230SOL    HW110589   0.507   0.586   2.935
 3230SOL    HW210590   0.554   0.700   2.828
 3231SOL     OW10591   5.758   5.989   0.721
 3231SOL    HW110592   5.857   5.998   0.735
 3231SOL    HW210593   5.737   5.897   0.688
 3232SOL     OW10594   2.813   5.186   4.605
 3232SOL    HW110595   2.850   5.094   4.617
 3232SOL    HW210596   2.774   5.195   4.513
 3233SOL     OW10597   0.523   3.750   1.453
 3233SOL    HW110598   0.474   3.689   1.390
 3233SOL    HW210599   0.622   3.739   1.439
 3234SOL     OW10600   0.096   1.992   6.725
 3234SOL    HW110601   0.193   1.970   6.713
 3234SOL    HW210602   0.075   2.078   6.678
 3235SOL     OW10603   5.774   6.823   3.044
 3235SOL    HW110604   5.762   6.919   3.066
 3235SOL    HW210605   5.831   6.780   3.113
 3236SOL     OW10606   1.085   2.812   2.847
 3236SOL    HW110607   1.017   2.774   2.784
 3236SOL    HW210608   1.176   2.780   2.822
 3237SOL     OW10609   3.887   6.442   4.698
 3237SOL    HW110610   3.915   6.405   4.787
 3237SOL    HW210611   3.927   6.386   4.625
 3238SOL     OW10612   0.123   5.916   6.209
 3238SOL    HW110613   0.210   5.959   6.184
 3238SOL    HW210614   0.053   5.986   6.220
 3239SOL     OW10615   6.389   0.377   5.761
 3239SOL    HW110616   6.415   0.294   5.811
 3239SOL    HW210617   6.459   0.398   5.693
 3240SOL     OW10618   1.138   0.249   4.481
 3240SOL    HW110619   1.079   0.172   4.507
 3240SOL    HW210620   1.188   0.282   4.561
 3241SOL     OW10621   4.843   0.938   4.094
 3241SOL    HW110622   4.796   1.025   4.105
 3241SOL    HW210623   4.799   0.885   4.021
 3242SOL     OW10624   3.877   6.110   6.605
 3242SOL    HW110625   3.853   6.017   6.634
 3242SOL    HW210626   3.831   6.131   6.518
 3243SOL     OW10627   4.381   5.270   0.090
 3243SOL    HW110628   4.433   5.356   0.086
 3243SOL    HW210629   4.330   5.258   0.004
 3244SOL     OW10630   3.551   5.865   5.927
 3244SOL    HW110631   3.460   5.853   5.968
 3244SOL    HW210632   3.620   5.862   6.000
 3245SOL     OW10633   3.928   2.546   6.486
 3245SOL    HW110634   3.926   2.598   6.571
 3245SOL    HW210635   3.939   2.449   6.507
 3246SOL     OW10636   5.174   6.558   2.937
 3246SOL    HW110637   5.080   6.591   2.928
 3246SOL    HW210638   5.190   6.526   3.030
 3247SOL     OW10639   6.801   2.746   3.570
 3247SOL    HW110640   6.742   2.675   3.607
 3247SOL    HW210641   6.827   2.723   3.476
 3248SOL     OW10642   6.296   3.049   1.950
 3248SOL    HW110643   6.355   2.977   1.914
 3248SOL    HW210644   6.269   3.111   1.877
 3249SOL     OW10645   3.012   5.051   4.918
 3249SOL    HW110646   2.978   5.010   4.833
 3249SOL    HW210647   3.009   4.983   4.991
 3250SOL     OW10648   4.593   6.775   2.434
 3250SOL    HW110649   4.627   6.755   2.342
 3250SOL    HW210650   4.643   6.720   2.500
 3251SOL     OW10651   3.586   2.001   2.766
 3251SOL    HW110652   3.553   2.034   2.678
 3251SOL    HW210653   3.527   2.037   2.839
 3252SOL     OW10654   2.790   1.075   2.553
 3252SOL    HW110655   2.695   1.047   2.535
 3252SOL    HW210656   2.842   1.068   2.468
 3253SOL     OW10657   5.267   3.002   1.614
 3253SOL    HW110658   5.209   3.066   1.563
 3253SOL    HW210659   5.284   2.921   1.558
 3254SOL     OW10660   4.157   4.734   3.418
 3254SOL    HW110661   4.115   4.739   3.509
 3254SOL    HW210662   4.101   4.785   3.353
 3255SOL     OW10663   4.188   5.703   0.284
 3255SOL    HW110664   4.248   5.655   0.349
 3255SOL    HW210665   4.166   5.793   0.321
 3256SOL     OW10666   5.191   6.877   5.863
 3256SOL    HW110667   5.200   6.968   5.823
 3256SOL    HW210668   5.267   6.861   5.927
 3257SOL     OW10669   1.429   2.081   1.027
 3257SOL    HW110670   1.512   2.081   0.972
 3257SOL    HW210671   1.426   1.999   1.084
 3258SOL     OW10672   5.391   6.605   1.681
 3258SOL    HW110673   5.426   6.523   1.728
 3258SOL    HW210674   5.311   6.580   1.627
 3259SOL     OW10675   4.371   6.094   4.289
 3259SOL    HW110676   4.335   6.153   4.216
 3259SOL    HW210677   4.297   6.066   4.349
 3260SOL     OW10678   2.157   1.720   0.080
 3260SOL    HW110679   2.106   1.635   0.070
 3260SOL    HW210680   2.219   1.732   0.003
 3261SOL     OW10681   4.781   6.638   0.874
 3261SOL    HW110682   4.846   6.708   0.905
 3261SOL    HW210683   4.688   6.666   0.898
 3262SOL     OW10684   3.803   1.914   2.596
 3262SOL    HW110685   3.769   1.828   2.557
 3262SOL    HW210686   3.739   1.947   2.666
 3263SOL     OW10687   4.726   6.952   1.725
 3263SOL    HW110688   4.776   6.950   1.639
 3263SOL    HW210689   4.702   0.019   1.748
 3264SOL     OW10690   6.835   5.007   6.994
 3264SOL    HW110691   6.884   4.993   6.908
 3264SOL    HW210692   6.833   5.105   7.015
 3265SOL     OW10693   5.069   1.294   6.486
 3265SOL    HW110694   5.053   1.393   6.485
 3265SOL    HW210695   5.048   1.256   6.396
 3266SOL     OW10696   0.645   2.123   6.437
 3266SOL    HW110697   0.743   2.104   6.442
 3266SOL    HW210698   0.600   2.050   6.385
 3267SOL     OW10699   3.272   1.706   1.058
 3267SOL    HW110700   3.198   1.708   0.992
 3267SOL    HW210701   3.360   1.706   1.010
 3268SOL     OW10702   0.787   4.168   6.577
 3268SOL    HW110703   0.748   4.109   6.506
 3268SOL    HW210704   0.877   4.134   6.605
 3269SOL     OW10705   4.179   4.381   1.093
 3269SOL    HW110706   4.271   4.389   1.054
 3269SOL    HW210707   4.157   4.284   1.107
 3270SOL     OW10708   0.725   5.721   4.027
 3270SOL    HW110709   0.791   5.683   4.092
 3270SOL    HW210710   0.744   5.683   3.936
 3271SOL     OW10711   6.551   2.320   1.050
 3271SOL    HW110712   6.581   2.269   1.130
 3271SOL    HW210713   6.631   2.358   1.003
 3272SOL     OW10714   3.747   0.589   0.626
 3272SOL    HW110715   3.659   0.594   0.580
 3272SOL    HW210716   3.739   0.531   0.707
 3273SOL     OW10717   0.606   6.746   2.359
 3273SOL    HW110718   0.613   6.661   2.306
 3273SOL    HW210719   0.604   6.824   2.297
 3274SOL     OW10720   2.325   2.228   5.659
 3274SOL    HW110721   2.389   2.182   5.722
 3274SOL    HW210722   2.375   2.290   5.600
 3275SOL     OW10723   2.019   0.477   7.018
 3275SOL    HW110724   2.049   0.446   0.081
 3275SOL    HW210725   2.097   0.476   6.955
 3276SOL     OW10726   3.146   5.967   6.282
 3276SOL    HW110727   3.244   5.988   6.285
 3276SOL    HW210728   3.123   5.906   6.358
 3277SOL     OW10729   6.949   6.282   5.069
 3277SOL    HW110730   6.986   6.326   5.151
 3277SOL    HW210731   7.002   6.200   5.048
 3278SOL     OW10732   1.379   0.913   6.122
 3278SOL    HW110733   1.363   1.007   6.153
 3278SOL    HW210734   1.295   0.875   6.086
 3279SOL     OW10735   0.535   6.789   0.960
 3279SOL    HW110736   0.494   6.701   0.935
 3279SOL    HW210737   0.630   6.776   0.987
 3280SOL     OW10738   2.106   4.929   5.958
 3280SOL    HW110739   2.127   5.020   5.923
 3280SOL    HW210740   2.172   4.905   6.029
 3281SOL     OW10741   2.475   5.575   6.930
 3281SOL    HW110742   2.461   5.589   6.832
 3281SOL    HW210743   2.502   5.481   6.947
 3282SOL     OW10744   2.755   5.373   3.655
 3282SOL    HW110745   2.793   5.280   3.657
 3282SOL    HW210746   2.660   5.370   3.624
 3283SOL     OW10747   2.683   0.936   3.468
 3283SOL    HW110748   2.691   0.846   3.425
 3283SOL    HW210749   2.696   1.007   3.399
 3284SOL     OW10750   6.792   5.371   6.836
 3284SOL    HW110751   6.747   5.312   6.769
 3284SOL    HW210752   6.733   5.449   6.857
 3285SOL     OW10753   0.776   1.947   3.283
 3285SOL    HW110754   0.781   1.907   3.375
 3285SOL    HW210755   0.850   2.013   3.272
 3286SOL     OW10756   3.282   3.647   4.760
 3286SOL    HW110757   3.340   3.665   4.840
 3286SOL    HW210758   3.268   3.732   4.710
 3287SOL     OW10759   1.817   5.648   0.257
 3287SOL    HW110760   1.775   5.711   0.192
 3287SOL    HW210761   1.813   5.555   0.220
 3288SOL     OW10762   0.737   5.793   6.098
 3288SOL    HW110763   0.828   5.827   6.073
 3288SOL    HW210764   0.669   5.831   6.035
 3289SOL     OW10765   0.973   6.534   5.404
 3289SOL    HW110766   0.951   6.466   5.334
 3289SOL    HW210767   0.991   6.622   5.361
 3290SOL     OW10768   6.310   5.150   1.410
 3290SOL    HW110769   6.321   5.247   1.428
 3290SOL    HW210770   6.247   5.111   1.477
 3291SOL     OW10771   1.445   5.997   6.865
 3291SOL    HW110772   1.458   5.898   6.866
 3291SOL    HW210773   1.529   6.043   6.838
 3292SOL     OW10774   6.908   6.818   5.888
 3292SOL    HW110775   6.903   6.916   5.872
 3292SOL    HW210776   6.872   6.796   5.979
 3293SOL     OW10777   6.757   1.167   2.922
 3293SOL    HW110778   6.715   1.083   2.955
 3293SOL    HW210779   6.732   1.243   2.983
 3294SOL     OW10780   0.039   0.522   6.120
 3294SOL    HW110781   0.054   0.469   6.037
 3294SOL    HW210782   6.979   0.497   6.161
 3295SOL     OW10783   1.875   3.079   1.014
 3295SOL    HW110784   1.781   3.114   1.018
 3295SOL    HW210785   1.903   3.071   0.918
 3296SOL     OW10786   2.327   6.374   2.598
 3296SOL    HW110787   2.365   6.328   2.678
 3296SOL    HW210788   2.229   6.389   2.612
 3297SOL     OW10789   2.964   2.656   6.002
 3297SOL    HW110790   3.014   2.614   5.926
 3297SOL    HW210791   2.901   2.588   6.042
 3298SOL     OW10792   6.684   3.328   2.666
 3298SOL    HW110793   6.599   3.309   2.615
 3298SOL    HW210794   6.662   3.344   2.762
 3299SOL     OW10795   1.714   0.084   5.006
 3299SOL    HW110796   1.746   7.023   4.974
 3299SOL    HW210797   1.751   0.102   5.097
 3300SOL     OW10798   6.367   6.468   4.847
 3300SOL    HW110799   6.404   6.417   4.924
 3300SOL    HW210800   6.283   6.515   4.874
 3301SOL     OW10801   0.577   3.342   3.338
 3301SOL    HW110802   0.511   3.418   3.337
 3301SOL    HW210803   0.556   3.280   3.262
 3302SOL     OW10804   1.276   4.735   3.532
 3302SOL    HW110805   1.227   4.677   3.467
 3302SOL    HW210806   1.359   4.771   3.488
 3303SOL     OW10807   3.850   4.057   3.850
 3303SOL    HW110808   3.866   4.020   3.941
 3303SOL    HW210809   3.853   4.157   3.853
 3304SOL     OW10810   0.959   6.542   4.232
 3304SOL    HW110811   1.028   6.599   4.187
 3304SOL    HW210812   0.887   6.600   4.271
 3305SOL     OW10813   1.806   1.154   2.244
 3305SOL    HW110814   1.753   1.146   2.329
 3305SOL    HW210815   1.776   1.085   2.179
 3306SOL     OW10816   2.234   4.042   3.476
 3306SOL    HW110817   2.260   4.130   3.515
 3306SOL    HW210818   2.211   4.054   3.379
 3307SOL     OW10819   6.346   5.896   0.593
 3307SOL    HW110820   6.297   5.908   0.507
 3307SOL    HW210821   6.369   5.800   0.606
 3308SOL     OW10822   4.820   6.131   0.677
 3308SOL    HW110823   4.897   6.068   0.678
 3308SOL    HW210824   4.804   6.165   0.770
 3309SOL     OW10825   0.441   5.048   3.172
 3309SOL    HW110826   0.504   4.975   3.197
 3309SOL    HW210827   0.491   5.120   3.123
 3310SOL     OW10828   0.612   5.103   2.669
 3310SOL    HW110829   0.582   5.011   2.644
 3310SOL    HW210830   0.710   5.101   2.692
 3311SOL     OW10831   4.482   0.011   1.236
 3311SOL    HW110832   4.495   6.944   1.268
 3311SOL    HW210833   4.384   0.030   1.230
 3312SOL     OW10834   3.388   3.570   6.055
 3312SOL    HW110835   3.306   3.609   6.013
 3312SOL    HW210836   3.424   3.633   6.124
 3313SOL     OW10837   0.138   4.954   3.750
 3313SOL    HW110838   0.162   5.048   3.725
 3313SOL    HW210839   0.216   4.910   3.793
 3314SOL     OW10840   1.883   3.514   5.290
 3314SOL    HW110841   1.959   3.577   5.302
 3314SOL    HW210842   1.918   3.420   5.292
 3315SOL     OW10843   0.265   1.621   3.906
 3315SOL    HW110844   0.254   1.673   3.821
 3315SOL    HW210845   0.293   1.527   3.883
 3316SOL     OW10846   4.857   1.904   6.526
 3316SOL    HW110847   4.838   1.880   6.431
 3316SOL    HW210848   4.936   1.965   6.531
 3317SOL     OW10849   4.394   2.431   1.062
 3317SOL    HW110850   4.344   2.503   1.110
 3317SOL    HW210851   4.441   2.470   0.983
 3318SOL     OW10852   2.486   5.768   5.158
 3318SOL    HW110853   2.540   5.748   5.240
 3318SOL    HW210854   2.393   5.734   5.171
 3319SOL     OW10855   0.755   6.152   4.402
 3319SOL    HW110856   0.776   6.100   4.484
 3319SOL    HW210857   0.805   6.239   4.404
 3320SOL     OW10858   6.068   1.037   5.395
 3320SOL    HW110859   6.103   1.035   5.302
 3320SOL    HW210860   6.085   0.949   5.440
 3321SOL     OW10861   3.327   3.274   3.280
 3321SOL    HW110862   3.354   3.179   3.270
 3321SOL    HW210863   3.367   3.329   3.206
 3322SOL     OW10864   4.004   1.895   0.648
 3322SOL    HW110865   3.978   1.991   0.636
 3322SOL    HW210866   4.102   1.888   0.666
 3323SOL     OW10867   2.387   4.921   0.045
 3323SOL    HW110868   2.343   4.955   0.128
 3323SOL    HW210869   2.364   4.824   0.032
 3324SOL     OW10870   0.879   3.390   0.204
 3324SOL    HW110871   0.956   3.452   0.221
 3324SOL    HW210872   0.803   3.414   0.264
 3325SOL     OW10873   1.497   2.618   1.006
 3325SOL    HW110874   1.520   2.522   1.020
 3325SOL    HW210875   1.531   2.649   0.917
 3326SOL     OW10876   6.592   1.583   0.758
 3326SOL    HW110877   6.535   1.544   0.830
 3326SOL    HW210878   6.549   1.566   0.669
 3327SOL     OW10879   3.077   6.631   2.435
 3327SOL    HW110880   3.123   6.719   2.426
 3327SOL    HW210881   3.109   6.585   2.518
 3328SOL     OW10882   4.928   0.810   2.151
 3328SOL    HW110883   4.856   0.754   2.192
 3328SOL    HW210884   4.887   0.890   2.107
 3329SOL     OW10885   4.788   0.834   5.224
 3329SOL    HW110886   4.723   0.759   5.213
 3329SOL    HW210887   4.881   0.800   5.209
 3330SOL     OW10888   5.968   6.254   2.370
 3330SOL    HW110889   6.006   6.190   2.302
 3330SOL    HW210890   5.992   6.223   2.462
 3331SOL     OW10891   1.975   3.525   2.475
 3331SOL    HW110892   2.006   3.525   2.380
 3331SOL    HW210893   1.896   3.463   2.484
 3332SOL     OW10894   4.163   5.503   0.643
 3332SOL    HW110895   4.110   5.457   0.571
 3332SOL    HW210896   4.228   5.566   0.601
 3333SOL     OW10897   3.979   3.646   1.628
 3333SOL    HW110898   3.885   3.672   1.651
 3333SOL    HW210899   3.999   3.675   1.535
 3334SOL     OW10900   1.887   2.327   2.936
 3334SOL    HW110901   1.959   2.341   3.004
 3334SOL    HW210902   1.830   2.249   2.962
 3335SOL     OW10903   3.895   4.178   5.084
 3335SOL    HW110904   3.876   4.099   5.025
 3335SOL    HW210905   3.809   4.219   5.114
 3336SOL     OW10906   3.951   6.453   3.582
 3336SOL    HW110907   3.952   6.498   3.492
 3336SOL    HW210908   4.043   6.421   3.603
 3337SOL     OW10909   3.178   4.044   2.946
 3337SOL    HW110910   3.091   4.003   2.919
 3337SOL    HW210911   3.198   4.019   3.041
 3338SOL     OW10912   2.042   1.296   1.828
 3338SOL    HW110913   2.094   1.337   1.903
 3338SOL    HW210914   2.103   1.283   1.749
 3339SOL     OW10915   2.445   0.682   5.937
 3339SOL    HW110916   2.441   0.643   5.844
 3339SOL    HW210917   2.455   0.608   6.003
 3340SOL     OW10918   4.237   1.123   4.264
 3340SOL    HW110919   4.160   1.063   4.288
 3340SOL    HW210920   4.315   1.066   4.234
 3341SOL     OW10921   2.598   4.651   3.004
 3341SOL    HW110922   2.499   4.653   2.989
 3341SOL    HW210923   2.617   4.610   3.093
 3342SOL     OW10924   6.505   0.255   2.974
 3342SOL    HW110925   6.475   0.192   3.046
 3342SOL    HW210926   6.527   0.203   2.892
 3343SOL     OW10927   4.963   5.439   6.471
 3343SOL    HW110928   4.920   5.497   6.402
 3343SOL    HW210929   4.892   5.393   6.524
 3344SOL     OW10930   0.053   2.807   1.839
 3344SOL    HW110931   7.011   2.877   1.822
 3344SOL    HW210932   0.106   2.832   1.920
 3345SOL     OW10933   6.892   5.113   0.494
 3345SOL    HW110934   6.890   5.066   0.581
 3345SOL    HW210935   6.875   5.048   0.420
 3346SOL     OW10936   1.786   1.220   0.035
 3346SOL    HW110937   1.831   1.153   7.003
 3346SOL    HW210938   1.828   1.310   0.021
 3347SOL     OW10939   0.676   3.244   6.091
 3347SOL    HW110940   0.775   3.260   6.100
 3347SOL    HW210941   0.652   3.156   6.132
 3348SOL     OW10942   3.945   3.876   6.035
 3348SOL    HW110943   3.985   3.912   6.119
 3348SOL    HW210944   4.017   3.862   5.967
 3349SOL     OW10945   2.929   4.831   3.601
 3349SOL    HW110946   2.994   4.812   3.674
 3349SOL    HW210947   2.977   4.873   3.523
 3350SOL     OW10948   0.109   4.083   5.347
 3350SOL    HW110949   0.044   4.042   5.410
 3350SOL    HW210950   0.099   4.042   5.256
 3351SOL     OW10951   5.430   1.502   1.032
 3351SOL    HW110952   5.448   1.424   0.972
 3351SOL    HW210953   5.385   1.575   0.981
 3352SOL     OW10954   4.924   2.851   6.286
 3352SOL    HW110955   5.016   2.811   6.283
 3352SOL    HW210956   4.928   2.941   6.330
 3353SOL     OW10957   2.897   0.937   1.680
 3353SOL    HW110958   2.906   1.026   1.636
 3353SOL    HW210959   2.978   0.882   1.661
 3354SOL     OW10960   3.561   2.938   5.936
 3354SOL    HW110961   3.599   2.850   5.963
 3354SOL    HW210962   3.500   2.971   6.009
 3355SOL     OW10963   2.277   0.593   4.988
 3355SOL    HW110964   2.372   0.618   5.008
 3355SOL    HW210965   2.275   0.501   4.947
 3356SOL     OW10966   1.581   6.898   5.474
 3356SOL    HW110967   1.592   6.801   5.493
 3356SOL    HW210968   1.544   6.944   5.555
 3357SOL     OW10969   3.510   3.361   1.655
 3357SOL    HW110970   3.559   3.381   1.740
 3357SOL    HW210971   3.494   3.446   1.605
 3358SOL     OW10972   6.257   0.592   2.690
 3358SOL    HW110973   6.175   0.540   2.716
 3358SOL    HW210974   6.232   0.659   2.619
 3359SOL     OW10975   6.321   5.445   4.040
 3359SOL    HW110976   6.388   5.407   3.976
 3359SOL    HW210977   6.343   5.414   4.133
 3360SOL     OW10978   0.087   2.918   5.360
 3360SOL    HW110979   0.184   2.895   5.369
 3360SOL    HW210980   0.075   3.016   5.372
 3361SOL     OW10981   0.203   0.445   4.749
 3361SOL    HW110982   0.187   0.405   4.840
 3361SOL    HW210983   0.115   0.470   4.709
 3362SOL     OW10984   3.679   1.690   4.061
 3362SOL    HW110985   3.704   1.652   3.971
 3362SOL    HW210986   3.755   1.744   4.096
 3363SOL     OW10987   5.737   3.211   1.469
 3363SOL    HW110988   5.784   3.132   1.507
 3363SOL    HW210989   5.645   3.217   1.508
 3364SOL     OW10990   1.784   4.620   3.158
 3364SOL    HW110991   1.831   4.667   3.083
 3364SOL    HW210992   1.848   4.604   3.233
 3365SOL     OW10993   2.150   3.577   3.948
 3365SOL    HW110994   2.080   3.626   4.001
 3365SOL    HW210995   2.171   3.490   3.993
 3366SOL     OW10996   6.096   3.696   4.000
 3366SOL    HW110997   6.154   3.615   4.006
 3366SOL    HW210998   6.032   3.698   4.077
 3367SOL     OW10999   3.988   3.097   4.491
 3367SOL    HW111000   3.969   3.190   4.462
 3367SOL    HW211001   4.012   3.096   4.588
 3368SOL     OW11002   1.712   6.073   0.231
 3368SOL    HW111003   1.782   6.095   0.164
 3368SOL    HW211004   1.695   5.974   0.231
 3369SOL     OW11005   3.942   2.633   1.035
 3369SOL    HW111006   3.959   2.629   0.937
 3369SOL    HW211007   4.026   2.613   1.084
 3370SOL     OW11008   0.751   5.540   2.137
 3370SOL    HW111009   0.724   5.445   2.119
 3370SOL    HW211010   0.772   5.551   2.234
 3371SOL     OW11011   2.544   2.528   3.199
 3371SOL    HW111012   2.494   2.613   3.215
 3371SOL    HW211013   2.565   2.485   3.287
 3372SOL     OW11014   6.586   3.283   1.527
 3372SOL    HW111015   6.563   3.379   1.545
 3372SOL    HW211016   6.503   3.232   1.505
 3373SOL     OW11017   0.390   2.490   1.119
 3373SOL    HW111018   0.461   2.502   1.189
 3373SOL    HW211019   0.316   2.435   1.157
 3374SOL     OW11020   0.473   0.375   3.675
 3374SOL    HW111021   0.411   0.297   3.674
 3374SOL    HW211022   0.529   0.372   3.758
 3375SOL     OW11023   6.669   4.898   6.458
 3375SOL    HW111024   6.661   4.864   6.552
 3375SOL    HW211025   6.705   4.825   6.399
 3376SOL     OW11026   2.724   3.564   5.710
 3376SOL    HW111027   2.778   3.562   5.626
 3376SOL    HW211028   2.685   3.656   5.722
 3377SOL     OW11029   5.741   4.804   2.913
 3377SOL    HW111030   5.818   4.740   2.904
 3377SOL    HW211031   5.769   4.893   2.878
 3378SOL     OW11032   1.233   6.374   6.948
 3378SOL    HW111033   1.135   6.380   6.969
 3378SOL    HW211034   1.267   6.284   6.976
 3379SOL     OW11035   0.532   3.927   3.687
 3379SOL    HW111036   0.554   3.996   3.756
 3379SOL    HW211037   0.516   3.839   3.732
 3380SOL     OW11038   3.910   4.294   5.791
 3380SOL    HW111039   3.952   4.358   5.725
 3380SOL    HW211040   3.819   4.269   5.759
 3381SOL     OW11041   1.622   3.660   1.249
 3381SOL    HW111042   1.680   3.586   1.213
 3381SOL    HW211043   1.679   3.741   1.266
 3382SOL     OW11044   7.022   2.188   1.059
 3382SOL    HW111045   7.009   2.122   1.133
 3382SOL    HW211046   6.984   2.152   0.975
 3383SOL     OW11047   5.265   5.066   0.199
 3383SOL    HW111048   5.193   5.127   0.167
 3383SOL    HW211049   5.289   5.090   0.294
 3384SOL     OW11050   2.180   4.578   0.332
 3384SOL    HW111051   2.132   4.503   0.287
 3384SOL    HW211052   2.116   4.626   0.393
 3385SOL     OW11053   0.753   1.817   3.510
 3385SOL    HW111054   0.669   1.765   3.528
 3385SOL    HW211055   0.793   1.847   3.596
 3386SOL     OW11056   6.405   5.055   6.499
 3386SOL    HW111057   6.319   5.106   6.506
 3386SOL    HW211058   6.390   4.960   6.527
 3387SOL     OW11059   6.550   0.150   3.624
 3387SOL    HW111060   6.495   0.068   3.639
 3387SOL    HW211061   6.514   0.201   3.546
 3388SOL     OW11062   6.417   2.921   1.399
 3388SOL    HW111063   6.400   3.019   1.395
 3388SOL    HW211064   6.330   2.872   1.406
 3389SOL     OW11065   6.287   6.046   0.800
 3389SOL    HW111066   6.337   6.041   0.886
 3389SOL    HW211067   6.328   5.983   0.734
 3390SOL     OW11068   4.002   6.412   5.908
 3390SOL    HW111069   3.951   6.451   5.830
 3390SOL    HW211070   4.038   6.322   5.882
 3391SOL     OW11071   5.428   2.806   3.489
 3391SOL    HW111072   5.468   2.730   3.437
 3391SOL    HW211073   5.438   2.891   3.438
 3392SOL     OW11074   4.338   6.917   5.795
 3392SOL    HW111075   4.274   6.987   5.763
 3392SOL    HW211076   4.430   6.937   5.759
 3393SOL     OW11077   5.367   6.596   1.166
 3393SOL    HW111078   5.389   6.680   1.116
 3393SOL    HW211079   5.443   6.571   1.225
 3394SOL     OW11080   3.082   5.641   1.666
 3394SOL    HW111081   3.147   5.709   1.699
 3394SOL    HW211082   2.993   5.684   1.651
 3395SOL     OW11083   3.927   0.390   2.947
 3395SOL    HW111084   3.967   0.479   2.971
 3395SOL    HW211085   3.955   0.322   3.016
 3396SOL     OW11086   4.131   1.829   4.120
 3396SOL    HW111087   4.187   1.897   4.167
 3396SOL    HW211088   4.188   1.752   4.090
 3397SOL     OW11089   2.203   5.830   6.696
 3397SOL    HW111090   2.269   5.755   6.688
 3397SOL    HW211091   2.130   5.818   6.629
 3398SOL     OW11092   7.003   1.706   4.681
 3398SOL    HW111093   0.008   1.680   4.772
 3398SOL    HW211094   6.903   1.713   4.682
 3399SOL     OW11095   0.055   4.870   2.571
 3399SOL    HW111096   0.072   4.966   2.592
 3399SOL    HW211097   0.121   4.838   2.503
 3400SOL     OW11098   5.774   2.293   5.935
 3400SOL    HW111099   5.784   2.389   5.908
 3400SOL    HW211100   5.857   2.261   5.980
 3401SOL     OW11101   6.923   3.524   5.288
 3401SOL    HW111102   7.003   3.519   5.347
 3401SOL    HW211103   6.899   3.620   5.271
 3402SOL     OW11104   6.802   4.404   1.267
 3402SOL    HW111105   6.706   4.414   1.295
 3402SOL    HW211106   6.845   4.331   1.320
 3403SOL     OW11107   4.020   6.811   6.812
 3403SOL    HW111108   3.966   6.804   6.896
 3403SOL    HW211109   3.978   6.754   6.741
 3404SOL     OW11110   5.394   3.647   4.985
 3404SOL    HW111111   5.432   3.557   4.966
 3404SOL    HW211112   5.361   3.650   5.080
 3405SOL     OW11113   5.973   6.085   6.079
 3405SOL    HW111114   5.937   6.096   6.172
 3405SOL    HW211115   5.934   6.002   6.038
 3406SOL     OW11116   1.902   3.876   1.739
 3406SOL    HW111117   1.883   3.948   1.806
 3406SOL    HW211118   1.866   3.789   1.773
 3407SOL     OW11119   1.842   3.805   0.480
 3407SOL    HW111120   1.936   3.771   0.487
 3407SOL    HW211121   1.807   3.824   0.572
 3408SOL     OW11122   4.778   2.562   4.029
 3408SOL    HW111123   4.808   2.653   4.057
 3408SOL    HW211124   4.855   2.515   3.984
 3409SOL     OW11125   5.108   1.047   0.632
 3409SOL    HW111126   5.159   1.032   0.716
 3409SOL    HW211127   5.106   1.145   0.611
 3410SOL     OW11128   5.154   0.282   2.114
 3410SOL    HW111129   5.084   0.249   2.176
 3410SOL    HW211130   5.198   0.364   2.152
 3411SOL     OW11131   0.112   2.301   0.449
 3411SOL    HW111132   0.021   2.284   0.413
 3411SOL    HW211133   0.177   2.239   0.405
 3412SOL     OW11134   5.652   3.322   1.829
 3412SOL    HW111135   5.622   3.254   1.762
 3412SOL    HW211136   5.671   3.278   1.916
 3413SOL     OW11137   0.346   2.061   5.962
 3413SOL    HW111138   0.291   2.048   6.044
 3413SOL    HW211139   0.356   1.973   5.915
 3414SOL     OW11140   3.728   3.321   0.812
 3414SOL    HW111141   3.724   3.421   0.805
 3414SOL    HW211142   3.718   3.294   0.908
 3415SOL     OW11143   2.054   2.569   5.168
 3415SOL    HW111144   2.102   2.508   5.231
 3415SOL    HW211145   2.111   2.649   5.149
 3416SOL     OW11146   5.857   7.004   6.602
 3416SOL    HW111147   5.926   6.973   6.668
 3416SOL    HW211148   5.789   6.933   6.589
 3417SOL     OW11149   6.696   6.440   2.912
 3417SOL    HW111150   6.733   6.457   3.003
 3417SOL    HW211151   6.754   6.484   2.844
 3418SOL     OW11152   4.942   4.990   1.498
 3418SOL    HW111153   4.911   5.001   1.592
 3418SOL    HW211154   4.873   4.940   1.446
 3419SOL     OW11155   3.229   6.045   5.960
 3419SOL    HW111156   3.247   6.066   5.864
 3419SOL    HW211157   3.270   5.956   5.982
 3420SOL     OW11158   4.162   2.271   3.557
 3420SOL    HW111159   4.223   2.222   3.620
 3420SOL    HW211160   4.067   2.250   3.580
 3421SOL     OW11161   5.405   2.228   3.487
 3421SOL    HW111162   5.416   2.266   3.395
 3421SOL    HW211163   5.488   2.244   3.539
 3422SOL     OW11164   1.988   6.795   1.046
 3422SOL    HW111165   2.010   6.698   1.060
 3422SOL    HW211166   2.052   6.851   1.098
 3423SOL     OW11167   1.045   4.680   5.524
 3423SOL    HW111168   1.024   4.777   5.512
 3423SOL    HW211169   0.960   4.628   5.533
 3424SOL     OW11170   4.919   0.337   1.695
 3424SOL    HW111171   4.935   0.401   1.770
 3424SOL    HW211172   4.908   0.389   1.610
 3425SOL     OW11173   5.717   3.870   1.510
 3425SOL    HW111174   5.670   3.951   1.476
 3425SOL    HW211175   5.799   3.897   1.560
 3426SOL     OW11176   5.509   3.440   6.923
 3426SOL    HW111177   5.567   3.448   6.842
 3426SOL    HW211178   5.566   3.426   7.004
 3427SOL     OW11179   0.992   2.726   0.342
 3427SOL    HW111180   1.050   2.758   0.417
 3427SOL    HW211181   1.047   2.714   0.260
 3428SOL     OW11182   5.468   6.160   5.778
 3428SOL    HW111183   5.373   6.146   5.809
 3428SOL    HW211184   5.500   6.079   5.730
 3429SOL     OW11185   6.967   0.488   1.249
 3429SOL    HW111186   6.929   0.519   1.163
 3429SOL    HW211187   6.961   0.388   1.254
 3430SOL     OW11188   1.795   4.654   5.684
 3430SOL    HW111189   1.725   4.721   5.660
 3430SOL    HW211190   1.876   4.700   5.719
 3431SOL     OW11191   2.235   6.056   2.811
 3431SOL    HW111192   2.332   6.036   2.795
 3431SOL    HW211193   2.227   6.143   2.859
 3432SOL     OW11194   2.081   4.281   1.110
 3432SOL    HW111195   2.179   4.304   1.117
 3432SOL    HW211196   2.065   4.193   1.154
 3433SOL     OW11197   2.599   1.058   6.400
 3433SOL    HW111198   2.641   1.088   6.486
 3433SOL    HW211199   2.500   1.051   6.412
 3434SOL     OW11200   2.747   1.999   1.644
 3434SOL    HW111201   2.770   2.095   1.654
 3434SOL    HW211202   2.719   1.981   1.550
 3435SOL     OW11203   2.129   0.918   6.963
 3435SOL    HW111204   2.059   0.855   6.997
 3435SOL    HW211205   2.205   0.866   6.925
 3436SOL     OW11206   3.192   5.711   0.307
 3436SOL    HW111207   3.122   5.659   0.357
 3436SOL    HW211208   3.237   5.774   0.370
 3437SOL     OW11209   1.300   6.512   6.437
 3437SOL    HW111210   1.236   6.473   6.504
 3437SOL    HW211211   1.355   6.439   6.397
 3438SOL     OW11212   1.276   4.287   1.417
 3438SOL    HW111213   1.324   4.361   1.369
 3438SOL    HW211214   1.340   4.213   1.436
 3439SOL     OW11215   2.265   5.590   2.052
 3439SOL    HW111216   2.193   5.655   2.075
 3439SOL    HW211217   2.294   5.542   2.135
 3440SOL     OW11218   4.099   3.754   4.363
 3440SOL    HW111219   4.135   3.662   4.377
 3440SOL    HW211220   4.095   3.775   4.265
 3441SOL     OW11221   5.361   5.540   5.731
 3441SOL    HW111222   5.294   5.475   5.695
 3441SOL    HW211223   5.446   5.491   5.754
 3442SOL     OW11224   3.891   3.223   1.217
 3442SOL    HW111225   3.967   3.221   1.153
 3442SOL    HW211226   3.804   3.218   1.167
 3443SOL     OW11227   2.082   6.355   2.030
 3443SOL    HW111228   2.032   6.316   1.953
 3443SOL    HW211229   2.017   6.387   2.099
 3444SOL     OW11230   5.744   3.789   1.238
 3444SOL    HW111231   5.766   3.787   1.336
 3444SOL    HW211232   5.650   3.759   1.224
 3445SOL     OW11233   6.131   4.405   3.114
 3445SOL    HW111234   6.228   4.383   3.118
 3445SOL    HW211235   6.079   4.337   3.165
 3446SOL     OW11236   4.813   1.038   1.278
 3446SOL    HW111237   4.806   1.134   1.303
 3446SOL    HW211238   4.791   1.028   1.181
 3447SOL     OW11239   5.048   0.864   6.969
 3447SOL    HW111240   5.044   0.767   6.992
 3447SOL    HW211241   4.986   0.882   6.892
 3448SOL     OW11242   1.410   6.037   4.813
 3448SOL    HW111243   1.370   6.089   4.738
 3448SOL    HW211244   1.468   5.965   4.777
 3449SOL     OW11245   6.233   4.127   5.457
 3449SOL    HW111246   6.259   4.066   5.532
 3449SOL    HW211247   6.162   4.084   5.401
 3450SOL     OW11248   1.259   6.066   0.610
 3450SOL    HW111249   1.315   6.034   0.687
 3450SOL    HW211250   1.278   6.010   0.530
 3451SOL     OW11251   2.190   6.940   1.164
 3451SOL    HW111252   2.266   6.877   1.180
 3451SOL    HW211253   2.145   6.961   1.251
 3452SOL     OW11254   5.115   0.553   5.575
 3452SOL    HW111255   5.191   0.507   5.530
 3452SOL    HW211256   5.117   0.651   5.554
 3453SOL     OW11257   4.866   6.438   5.974
 3453SOL    HW111258   4.956   6.407   6.005
 3453SOL    HW211259   4.877   6.522   5.919
 3454SOL     OW11260   1.261   2.665   1.893
 3454SOL    HW111261   1.355   2.676   1.924
 3454SOL    HW211262   1.199   2.702   1.961
 3455SOL     OW11263   0.990   3.591   6.138
 3455SOL    HW111264   0.989   3.680   6.092
 3455SOL    HW211265   1.018   3.602   6.233
 3456SOL     OW11266   5.263   4.027   2.317
 3456SOL    HW111267   5.272   3.945   2.373
 3456SOL    HW211268   5.168   4.055   2.314
 3457SOL     OW11269   3.913   5.486   5.428
 3457SOL    HW111270   4.005   5.456   5.456
 3457SOL    HW211271   3.914   5.512   5.332
 3458SOL     OW11272   4.414   1.853   2.831
 3458SOL    HW111273   4.373   1.825   2.744
 3458SOL    HW211274   4.512   1.829   2.830
 3459SOL     OW11275   4.172   0.111   3.354
 3459SOL    HW111276   4.234   0.141   3.282
 3459SOL    HW211277   4.217   0.043   3.411
 3460SOL     OW11278   4.236   1.674   5.464
 3460SOL    HW111279   4.166   1.643   5.528
 3460SOL    HW211280   4.206   1.656   5.371
 3461SOL     OW11281   5.970   5.127   6.224
 3461SOL    HW111282   5.974   5.224   6.246
 3461SOL    HW211283   6.015   5.074   6.296
 3462SOL     OW11284   2.341   3.927   6.895
 3462SOL    HW111285   2.410   3.888   6.834
 3462SOL    HW211286   2.358   3.896   6.988
 3463SOL     OW11287   6.279   4.237   1.335
 3463SOL    HW111288   6.184   4.212   1.316
 3463SOL    HW211289   6.304   4.205   1.426
 3464SOL     OW11290   0.213   4.578   6.343
 3464SOL    HW111291   0.189   4.644   6.272
 3464SOL    HW211292   0.297   4.530   6.317
 3465SOL     OW11293   1.837   0.285   1.426
 3465SOL    HW111294   1.820   0.358   1.493
 3465SOL    HW211295   1.806   0.198   1.464
 3466SOL     OW11296   6.438   3.832   5.309
 3466SOL    HW111297   6.532   3.824   5.275
 3466SOL    HW211298   6.383   3.882   5.242
 3467SOL     OW11299   1.732   2.011   6.462
 3467SOL    HW111300   1.792   2.002   6.541
 3467SOL    HW211301   1.714   1.920   6.424
 3468SOL     OW11302   3.369   0.460   3.992
 3468SOL    HW111303   3.459   0.430   4.026
 3468SOL    HW211304   3.337   0.536   4.048
 3469SOL     OW11305   5.898   2.456   3.079
 3469SOL    HW111306   5.994   2.456   3.052
 3469SOL    HW211307   5.854   2.539   3.046
 3470SOL     OW11308   0.020   5.747   0.978
 3470SOL    HW111309   0.039   5.655   1.013
 3470SOL    HW211310   7.007   5.740   0.887
 3471SOL     OW11311   3.905   6.262   4.939
 3471SOL    HW111312   3.811   6.288   4.961
 3471SOL    HW211313   3.963   6.273   5.020
 3472SOL     OW11314   2.907   1.319   5.493
 3472SOL    HW111315   2.902   1.226   5.530
 3472SOL    HW211316   2.915   1.315   5.393
 3473SOL     OW11317   5.149   0.901   6.107
 3473SOL    HW111318   5.162   0.821   6.049
 3473SOL    HW211319   5.115   0.977   6.053
 3474SOL     OW11320   4.624   5.323   1.209
 3474SOL    HW111321   4.707   5.350   1.160
 3474SOL    HW211322   4.546   5.322   1.145
 3475SOL     OW11323   1.630   6.056   4.281
 3475SOL    HW111324   1.707   6.064   4.345
 3475SOL    HW211325   1.663   6.024   4.192
 3476SOL     OW11326   4.763   1.038   4.481
 3476SOL    HW111327   4.839   0.982   4.515
 3476SOL    HW211328   4.702   1.062   4.556
 3477SOL     OW11329   3.852   6.101   1.091
 3477SOL    HW111330   3.800   6.129   1.171
 3477SOL    HW211331   3.817   6.147   1.009
 3478SOL     OW11332   3.570   5.236   0.317
 3478SOL    HW111333   3.588   5.178   0.396
 3478SOL    HW211334   3.499   5.303   0.340
 3479SOL     OW11335   0.935   0.437   1.932
 3479SOL    HW111336   0.972   0.399   1.847
 3479SOL    HW211337   0.971   0.387   2.010
 3480SOL     OW11338   0.506   1.295   3.125
 3480SOL    HW111339   0.567   1.217   3.112
 3480SOL    HW211340   0.557   1.371   3.164
 3481SOL     OW11341   2.377   6.692   6.984
 3481SOL    HW111342   2.474   6.718   6.988
 3481SOL    HW211343   2.320   6.773   6.988
 3482SOL     OW11344   0.605   2.329   0.138
 3482SOL    HW111345   0.624   2.348   0.235
 3482SOL    HW211346   0.633   2.236   0.116
 3483SOL     OW11347   2.807   0.005   1.145
 3483SOL    HW111348   2.893   0.025   1.100
 3483SOL    HW211349   2.739   0.074   1.120
 3484SOL     OW11350   4.088   3.775   3.507
 3484SOL    HW111351   4.082   3.675   3.516
 3484SOL    HW211352   4.088   3.799   3.410
 3485SOL     OW11353   1.245   2.628   4.811
 3485SOL    HW111354   1.227   2.724   4.790
 3485SOL    HW211355   1.343   2.610   4.799
 3486SOL     OW11356   4.333   2.061   1.971
 3486SOL    HW111357   4.247   2.009   1.963
 3486SOL    HW211358   4.312   2.157   1.989
 3487SOL     OW11359   6.330   1.357   6.513
 3487SOL    HW111360   6.304   1.315   6.600
 3487SOL    HW211361   6.282   1.312   6.438
 3488SOL     OW11362   5.400   3.238   3.607
 3488SOL    HW111363   5.430   3.333   3.615
 3488SOL    HW211364   5.379   3.202   3.698
 3489SOL     OW11365   3.507   0.622   1.396
 3489SOL    HW111366   3.498   0.693   1.326
 3489SOL    HW211367   3.589   0.567   1.377
 3490SOL     OW11368   4.428   4.066   0.238
 3490SOL    HW111369   4.478   4.014   0.168
 3490SOL    HW211370   4.423   4.012   0.322
 3491SOL     OW11371   0.206   2.787   4.847
 3491SOL    HW111372   0.261   2.871   4.856
 3491SOL    HW211373   0.109   2.809   4.859
 3492SOL     OW11374   6.612   4.472   6.875
 3492SOL    HW111375   6.644   4.377   6.872
 3492SOL    HW211376   6.561   4.487   6.960
 3493SOL     OW11377   6.449   4.375   0.954
 3493SOL    HW111378   6.508   4.454   0.968
 3493SOL    HW211379   6.378   4.398   0.887
 3494SOL     OW11380   3.259   0.240   1.151
 3494SOL    HW111381   3.210   0.323   1.177
 3494SOL    HW211382   3.321   0.213   1.225
 3495SOL     OW11383   4.668   4.871   1.080
 3495SOL    HW111384   4.640   4.878   0.985
 3495SOL    HW211385   4.768   4.873   1.087
 3496SOL     OW11386   2.146   2.846   0.798
 3496SOL    HW111387   2.167   2.765   0.744
 3496SOL    HW211388   2.153   2.928   0.741
 3497SOL     OW11389   4.482   0.634   3.666
 3497SOL    HW111390   4.505   0.597   3.576
 3497SOL    HW211391   4.541   0.713   3.686
 3498SOL     OW11392   2.327   1.780   1.845
 3498SOL    HW111393   2.390   1.735   1.908
 3498SOL    HW211394   2.309   1.873   1.877
 3499SOL     OW11395   6.453   2.832   4.413
 3499SOL    HW111396   6.478   2.889   4.334
 3499SOL    HW211397   6.505   2.747   4.411
 3500SOL     OW11398   6.034   3.822   6.717
 3500SOL    HW111399   6.062   3.905   6.765
 3500SOL    HW211400   6.089   3.745   6.749
 3501SOL     OW11401   1.960   4.802   4.378
 3501SOL    HW111402   2.043   4.792   4.434
 3501SOL    HW211403   1.961   4.891   4.333
 3502SOL     OW11404   1.134   2.675   1.642
 3502SOL    HW111405   1.165   2.664   1.737
 3502SOL    HW211406   1.185   2.749   1.599
 3503SOL     OW11407   4.873   5.974   4.794
 3503SOL    HW111408   4.901   6.059   4.748
 3503SOL    HW211409   4.775   5.977   4.812
 3504SOL     OW11410   2.437   3.209   1.729
 3504SOL    HW111411   2.410   3.287   1.786
 3504SOL    HW211412   2.521   3.232   1.679
 3505SOL     OW11413   5.226   5.293   5.676
 3505SOL    HW111414   5.145   5.238   5.698
 3505SOL    HW211415   5.253   5.274   5.581
 3506SOL     OW11416   4.710   5.801   3.293
 3506SOL    HW111417   4.767   5.781   3.373
 3506SOL    HW211418   4.653   5.881   3.312
 3507SOL     OW11419   0.713   6.982   6.582
 3507SOL    HW111420   0.642   6.913   6.574
 3507SOL    HW211421   0.679   0.042   6.546
 3508SOL     OW11422   5.685   3.961   0.036
 3508SOL    HW111423   5.602   3.906   0.031
 3508SOL    HW211424   5.745   3.925   0.107
 3509SOL     OW11425   6.611   6.520   0.224
 3509SOL    HW111426   6.546   6.581   0.270
 3509SOL    HW211427   6.622   6.436   0.278
 3510SOL     OW11428   2.477   2.289   2.095
 3510SOL    HW111429   2.483   2.348   2.176
 3510SOL    HW211430   2.462   2.194   2.125
 3511SOL     OW11431   0.585   1.815   6.896
 3511SOL    HW111432   0.654   1.872   6.851
 3511SOL    HW211433   0.628   1.760   6.967
 3512SOL     OW11434   2.490   3.050   0.864
 3512SOL    HW111435   2.406   3.097   0.838
 3512SOL    HW211436   2.543   3.029   0.782
 3513SOL     OW11437   6.462   4.713   1.216
 3513SOL    HW111438   6.427   4.728   1.123
 3513SOL    HW211439   6.469   4.801   1.263
 3514SOL     OW11440   0.613   6.024   1.244
 3514SOL    HW111441   0.574   5.939   1.207
 3514SOL    HW211442   0.589   6.032   1.340
 3515SOL     OW11443   3.243   6.506   3.335
 3515SOL    HW111444   3.314   6.514   3.404
 3515SOL    HW211445   3.265   6.566   3.258
 3516SOL     OW11446   3.462   1.257   0.999
 3516SOL    HW111447   3.530   1.305   1.055
 3516SOL    HW211448   3.413   1.324   0.942
 3517SOL     OW11449   1.373   1.346   6.432
 3517SOL    HW111450   1.318   1.269   6.465
 3517SOL    HW211451   1.457   1.352   6.486
 3518SOL     OW11452   3.955   3.065   5.964
 3518SOL    HW111453   4.046   3.070   5.923
 3518SOL    HW211454   3.935   3.150   6.012
 3519SOL     OW11455   2.063   6.511   6.646
 3519SOL    HW111456   2.152   6.517   6.692
 3519SOL    HW211457   2.000   6.576   6.689
 3520SOL     OW11458   3.498   5.659   0.966
 3520SOL    HW111459   3.552   5.695   0.890
 3520SOL    HW211460   3.402   5.684   0.953
 3521SOL     OW11461   6.215   2.384   0.935
 3521SOL    HW111462   6.288   2.451   0.928
 3521SOL    HW211463   6.253   2.297   0.968
 3522SOL     OW11464   3.493   4.993   2.348
 3522SOL    HW111465   3.590   4.968   2.350
 3522SOL    HW211466   3.461   4.996   2.253
 3523SOL     OW11467   2.134   4.732   4.907
 3523SOL    HW111468   2.212   4.729   4.969
 3523SOL    HW211469   2.081   4.648   4.916
 3524SOL     OW11470   2.590   0.116   1.007
 3524SOL    HW111471   2.500   0.073   1.016
 3524SOL    HW211472   2.604   0.146   0.912
 3525SOL     OW11473   0.777   3.125   2.608
 3525SOL    HW111474   0.755   3.082   2.521
 3525SOL    HW211475   0.723   3.208   2.619
 3526SOL     OW11476   1.794   0.732   2.448
 3526SOL    HW111477   1.764   0.754   2.356
 3526SOL    HW211478   1.772   0.637   2.469
 3527SOL     OW11479   5.128   3.456   5.892
 3527SOL    HW111480   5.029   3.449   5.909
 3527SOL    HW211481   5.174   3.486   5.976
 3528SOL     OW11482   0.315   6.645   4.405
 3528SOL    HW111483   0.288   6.692   4.321
 3528SOL    HW211484   0.401   6.598   4.391
 3529SOL     OW11485   4.100   6.150   5.887
 3529SOL    HW111486   4.048   6.064   5.885
 3529SOL    HW211487   4.193   6.133   5.856
 3530SOL     OW11488   2.545   5.297   3.077
 3530SOL    HW111489   2.611   5.364   3.043
 3530SOL    HW211490   2.454   5.320   3.041
 3531SOL     OW11491   5.632   4.221   7.014
 3531SOL    HW111492   5.605   4.271   0.069
 3531SOL    HW211493   5.678   4.136   0.013
 3532SOL     OW11494   1.792   0.072   6.890
 3532SOL    HW111495   1.728   0.053   6.815
 3532SOL    HW211496   1.786   0.168   6.916
 3533SOL     OW11497   0.943   1.505   3.061
 3533SOL    HW111498   0.985   1.426   3.106
 3533SOL    HW211499   0.975   1.589   3.105
 3534SOL     OW11500   4.933   1.065   4.777
 3534SOL    HW111501   4.835   1.050   4.760
 3534SOL    HW211502   4.973   1.113   4.699
 3535SOL     OW11503   5.113   4.908   6.321
 3535SOL    HW111504   5.161   4.960   6.250
 3535SOL    HW211505   5.065   4.972   6.381
 3536SOL     OW11506   1.614   3.895   2.864
 3536SOL    HW111507   1.639   3.822   2.927
 3536SOL    HW211508   1.617   3.983   2.912
 3537SOL     OW11509   2.148   5.199   1.105
 3537SOL    HW111510   2.217   5.133   1.075
 3537SOL    HW211511   2.175   5.291   1.076
 3538SOL     OW11512   2.631   0.493   3.750
 3538SOL    HW111513   2.598   0.468   3.659
 3538SOL    HW211514   2.700   0.564   3.742
 3539SOL     OW11515   4.660   5.081   5.804
 3539SOL    HW111516   4.743   5.065   5.857
 3539SOL    HW211517   4.681   5.074   5.706
 3540SOL     OW11518   2.710   3.307   6.870
 3540SOL    HW111519   2.660   3.220   6.867
 3540SOL    HW211520   2.804   3.289   6.898
 3541SOL     OW11521   3.358   2.097   0.933
 3541SOL    HW111522   3.359   2.081   1.032
 3541SOL    HW211523   3.335   2.193   0.915
 3542SOL     OW11524   5.505   2.451   5.952
 3542SOL    HW111525   5.577   2.387   5.924
 3542SOL    HW211526   5.439   2.461   5.877
 3543SOL     OW11527   1.318   2.641   3.486
 3543SOL    HW111528   1.321   2.739   3.468
 3543SOL    HW211529   1.335   2.590   3.401
 3544SOL     OW11530   2.848   4.721   6.117
 3544SOL    HW111531   2.834   4.814   6.083
 3544SOL    HW211532   2.761   4.672   6.115
 3545SOL     OW11533   3.778   6.926   1.211
 3545SOL    HW111534   3.737   6.972   1.290
 3545SOL    HW211535   3.750   6.830   1.210
 3546SOL     OW11536   0.173   3.282   3.374
 3546SOL    HW111537   0.084   3.326   3.358
 3546SOL    HW211538   0.244   3.329   3.322
 3547SOL     OW11539   0.173   3.459   5.745
 3547SOL    HW111540   0.168   3.460   5.845
 3547SOL    HW211541   0.268   3.447   5.716
 3548SOL     OW11542   5.907   0.479   5.077
 3548SOL    HW111543   5.967   0.423   5.019
 3548SOL    HW211544   5.953   0.498   5.164
 3549SOL     OW11545   2.519   5.995   6.548
 3549SOL    HW111546   2.502   5.923   6.482
 3549SOL    HW211547   2.447   6.064   6.543
 3550SOL     OW11548   5.190   1.197   5.320
 3550SOL    HW111549   5.221   1.292   5.322
 3550SOL    HW211550   5.182   1.166   5.226
 3551SOL     OW11551   4.200   1.995   4.678
 3551SOL    HW111552   4.138   2.063   4.716
 3551SOL    HW211553   4.259   1.959   4.751
 3552SOL     OW11554   0.251   6.247   2.774
 3552SOL    HW111555   0.285   6.246   2.868
 3552SOL    HW211556   0.199   6.164   2.756
 3553SOL     OW11557   4.232   5.398   6.696
 3553SOL    HW111558   4.302   5.339   6.736
 3553SOL    HW211559   4.199   5.358   6.610
 3554SOL     OW11560   4.945   3.365   1.607
 3554SOL    HW111561   4.936   3.324   1.697
 3554SOL    HW211562   4.923   3.463   1.612
 3555SOL     OW11563   2.327   1.999   4.703
 3555SOL    HW111564   2.346   2.094   4.726
 3555SOL    HW211565   2.373   1.939   4.768
 3556SOL     OW11566   4.715   0.636   5.638
 3556SOL    HW111567   4.756   0.704   5.699
 3556SOL    HW211568   4.780   0.563   5.621
 3557SOL     OW11569   6.421   1.086   1.332
 3557SOL    HW111570   6.338   1.106   1.280
 3557SOL    HW211571   6.488   1.159   1.319
 3558SOL     OW11572   3.265   6.570   1.514
 3558SOL    HW111573   3.187   6.597   1.570
 3558SOL    HW211574   3.301   6.650   1.466
 3559SOL     OW11575   3.652   6.003   4.736
 3559SOL    HW111576   3.559   6.000   4.698
 3559SOL    HW211577   3.704   6.076   4.693
 3560SOL     OW11578   2.235   6.024   4.419
 3560SOL    HW111579   2.163   5.988   4.360
 3560SOL    HW211580   2.272   5.950   4.475
 3561SOL     OW11581   4.686   4.116   5.149
 3561SOL    HW111582   4.782   4.104   5.123
 3561SOL    HW211583   4.650   4.030   5.185
 3562SOL     OW11584   2.165   1.419   5.566
 3562SOL    HW111585   2.222   1.391   5.644
 3562SOL    HW211586   2.141   1.338   5.511
 3563SOL     OW11587   5.968   2.571   5.097
 3563SOL    HW111588   5.874   2.541   5.079
 3563SOL    HW211589   6.026   2.492   5.113
 3564SOL     OW11590   6.554   4.435   1.948
 3564SOL    HW111591   6.574   4.480   2.035
 3564SOL    HW211592   6.576   4.337   1.955
 3565SOL     OW11593   3.957   5.594   3.323
 3565SOL    HW111594   4.006   5.678   3.301
 3565SOL    HW211595   4.018   5.515   3.315
 3566SOL     OW11596   0.733   1.297   5.688
 3566SOL    HW111597   0.690   1.268   5.773
 3566SOL    HW211598   0.672   1.359   5.639
 3567SOL     OW11599   0.668   4.360   6.394
 3567SOL    HW111600   0.684   4.303   6.314
 3567SOL    HW211601   0.695   4.310   6.477
 3568SOL     OW11602   6.236   3.713   5.885
 3568SOL    HW111603   6.275   3.805   5.884
 3568SOL    HW211604   6.156   3.711   5.824
 3569SOL     OW11605   1.784   2.434   5.388
 3569SOL    HW111606   1.757   2.377   5.310
 3569SOL    HW211607   1.793   2.529   5.358
 3570SOL     OW11608   6.176   1.346   4.093
 3570SOL    HW111609   6.191   1.442   4.118
 3570SOL    HW211610   6.078   1.331   4.078
 3571SOL     OW11611   6.122   5.651   6.467
 3571SOL    HW111612   6.115   5.691   6.558
 3571SOL    HW211613   6.105   5.721   6.398
 3572SOL     OW11614   5.869   4.220   4.765
 3572SOL    HW111615   5.965   4.244   4.754
 3572SOL    HW211616   5.827   4.208   4.674
 3573SOL     OW11617   1.362   2.916   3.486
 3573SOL    HW111618   1.410   2.962   3.560
 3573SOL    HW211619   1.401   2.945   3.398
 3574SOL     OW11620   0.327   4.237   0.422
 3574SOL    HW111621   0.236   4.196   0.419
 3574SOL    HW211622   0.361   4.250   0.329
 3575SOL     OW11623   6.142   5.027   2.508
 3575SOL    HW111624   6.120   4.948   2.452
 3575SOL    HW211625   6.065   5.049   2.568
 3576SOL     OW11626   0.686   1.371   6.178
 3576SOL    HW111627   0.746   1.347   6.254
 3576SOL    HW211628   0.599   1.322   6.187
 3577SOL     OW11629   0.556   2.614   6.704
 3577SOL    HW111630   0.565   2.543   6.774
 3577SOL    HW211631   0.612   2.692   6.729
 3578SOL     OW11632   3.014   4.844   0.591
 3578SOL    HW111633   2.949   4.917   0.575
 3578SOL    HW211634   3.014   4.819   0.688
 3579SOL     OW11635   6.629   3.728   4.828
 3579SOL    HW111636   6.601   3.805   4.770
 3579SOL    HW211637   6.565   3.653   4.816
 3580SOL     OW11638   6.358   1.687   2.190
 3580SOL    HW111639   6.362   1.742   2.274
 3580SOL    HW211640   6.430   1.619   2.191
 3581SOL     OW11641   0.267   0.293   2.357
 3581SOL    HW111642   0.294   0.215   2.300
 3581SOL    HW211643   0.252   0.262   2.451
 3582SOL     OW11644   1.326   0.563   6.036
 3582SOL    HW111645   1.409   0.544   6.089
 3582SOL    HW211646   1.271   0.479   6.030
 3583SOL     OW11647   0.957   5.168   6.974
 3583SOL    HW111648   0.891   5.095   6.960
 3583SOL    HW211649   1.023   5.169   6.898
 3584SOL     OW11650   5.091   6.388   6.855
 3584SOL    HW111651   5.041   6.450   6.916
 3584SOL    HW211652   5.095   6.427   6.763
 3585SOL     OW11653   3.730   5.021   4.293
 3585SOL    HW111654   3.772   5.097   4.243
 3585SOL    HW211655   3.631   5.031   4.291
 3586SOL     OW11656   6.451   3.541   5.951
 3586SOL    HW111657   6.371   3.594   5.920
 3586SOL    HW211658   6.533   3.575   5.905
 3587SOL     OW11659   3.449   6.615   0.334
 3587SOL    HW111660   3.438   6.627   0.433
 3587SOL    HW211661   3.428   6.521   0.310
 3588SOL     OW11662   1.165   2.506   6.135
 3588SOL    HW111663   1.190   2.560   6.215
 3588SOL    HW211664   1.079   2.458   6.153
 3589SOL     OW11665   2.931   0.748   5.581
 3589SOL    HW111666   2.993   0.807   5.633
 3589SOL    HW211667   2.932   0.775   5.485
 3590SOL     OW11668   1.558   5.371   5.980
 3590SOL    HW111669   1.644   5.346   5.935
 3590SOL    HW211670   1.520   5.291   6.027
 3591SOL     OW11671   5.255   2.327   5.747
 3591SOL    HW111672   5.264   2.421   5.717
 3591SOL    HW211673   5.267   2.265   5.669
 3592SOL     OW11674   5.122   2.646   3.048
 3592SOL    HW111675   5.030   2.622   3.016
 3592SOL    HW211676   5.158   2.721   2.993
 3593SOL     OW11677   1.568   6.451   3.901
 3593SOL    HW111678   1.591   6.541   3.863
 3593SOL    HW211679   1.513   6.463   3.984
 3594SOL     OW11680   2.423   1.282   3.657
 3594SOL    HW111681   2.470   1.367   3.681
 3594SOL    HW211682   2.481   1.204   3.680
 3595SOL     OW11683   2.672   6.441   6.316
 3595SOL    HW111684   2.613   6.364   6.339
 3595SOL    HW211685   2.616   6.522   6.298
 3596SOL     OW11686   6.586   0.856   2.122
 3596SOL    HW111687   6.532   0.786   2.075
 3596SOL    HW211688   6.530   0.937   2.139
 3597SOL     OW11689   3.729   5.864   4.486
 3597SOL    HW111690   3.776   5.781   4.456
 3597SOL    HW211691   3.733   5.872   4.585
 3598SOL     OW11692   1.104   6.778   5.698
 3598SOL    HW111693   1.082   6.871   5.670
 3598SOL    HW211694   1.083   6.766   5.795
 3599SOL     OW11695   6.698   2.202   5.248
 3599SOL    HW111696   6.771   2.214   5.180
 3599SOL    HW211697   6.739   2.189   5.338
 3600SOL     OW11698   6.089   2.758   1.111
 3600SOL    HW111699   6.026   2.829   1.140
 3600SOL    HW211700   6.111   2.699   1.189
 3601SOL     OW11701   0.442   3.722   0.401
 3601SOL    HW111702   0.425   3.623   0.395
 3601SOL    HW211703   0.499   3.751   0.324
 3602SOL     OW11704   2.268   1.244   0.043
 3602SOL    HW111705   2.254   1.184   0.123
 3602SOL    HW211706   2.263   1.189   6.987
 3603SOL     OW11707   4.083   4.995   3.948
 3603SOL    HW111708   4.093   5.041   4.036
 3603SOL    HW211709   4.172   4.957   3.920
 3604SOL     OW11710   0.214   2.283   2.887
 3604SOL    HW111711   0.199   2.186   2.903
 3604SOL    HW211712   0.131   2.324   2.849
 3605SOL     OW11713   5.869   3.783   6.490
 3605SOL    HW111714   5.935   3.779   6.565
 3605SOL    HW211715   5.776   3.784   6.527
 3606SOL     OW11716   6.778   4.611   5.438
 3606SOL    HW111717   6.870   4.588   5.469
 3606SOL    HW211718   6.741   4.684   5.495
 3607SOL     OW11719   5.337   0.301   0.874
 3607SOL    HW111720   5.299   0.223   0.923
 3607SOL    HW211721   5.263   0.350   0.827
 3608SOL     OW11722   0.751   2.063   1.664
 3608SOL    HW111723   0.812   2.109   1.729
 3608SOL    HW211724   0.659   2.099   1.675
 3609SOL     OW11725   6.784   0.865   5.028
 3609SOL    HW111726   6.728   0.809   5.090
 3609SOL    HW211727   6.743   0.956   5.019
 3610SOL     OW11728   1.255   6.410   5.653
 3610SOL    HW111729   1.322   6.482   5.664
 3610SOL    HW211730   1.265   6.369   5.562
 3611SOL     OW11731   3.448   5.260   5.042
 3611SOL    HW111732   3.447   5.292   5.137
 3611SOL    HW211733   3.532   5.290   4.998
 3612SOL     OW11734   1.036   6.494   0.256
 3612SOL    HW111735   0.996   6.582   0.283
 3612SOL    HW211736   1.106   6.467   0.323
 3613SOL     OW11737   5.367   4.813   0.607
 3613SOL    HW111738   5.433   4.749   0.568
 3613SOL    HW211739   5.340   4.783   0.698
 3614SOL     OW11740   4.053   3.803   3.234
 3614SOL    HW111741   4.142   3.787   3.190
 3614SOL    HW211742   3.986   3.739   3.198
 3615SOL     OW11743   5.863   5.776   5.519
 3615SOL    HW111744   5.888   5.773   5.616
 3615SOL    HW211745   5.946   5.777   5.463
 3616SOL     OW11746   6.734   2.296   5.813
 3616SOL    HW111747   6.714   2.243   5.896
 3616SOL    HW211748   6.831   2.317   5.810
 3617SOL     OW11749   6.207   2.113   6.189
 3617SOL    HW111750   6.237   2.051   6.261
 3617SOL    HW211751   6.268   2.104   6.110
 3618SOL     OW11752   1.774   2.050   5.706
 3618SOL    HW111753   1.706   2.074   5.636
 3618SOL    HW211754   1.862   2.090   5.681
 3619SOL     OW11755   5.836   2.142   3.974
 3619SOL    HW111756   5.884   2.141   4.062
 3619SOL    HW211757   5.853   2.055   3.927
 3620SOL     OW11758   5.710   0.464   5.410
 3620SOL    HW111759   5.809   0.451   5.413
 3620SOL    HW211760   5.684   0.540   5.469
 3621SOL     OW11761   2.841   2.758   5.669
 3621SOL    HW111762   2.817   2.662   5.682
 3621SOL    HW211763   2.759   2.809   5.642
 3622SOL     OW11764   0.633   1.362   2.880
 3622SOL    HW111765   0.641   1.440   2.942
 3622SOL    HW211766   0.538   1.334   2.873
 3623SOL     OW11767   5.404   5.206   3.811
 3623SOL    HW111768   5.406   5.235   3.715
 3623SOL    HW211769   5.495   5.174   3.837
 3624SOL     OW11770   2.255   6.918   3.271
 3624SOL    HW111771   2.170   6.888   3.227
 3624SOL    HW211772   2.306   6.976   3.207
 3625SOL     OW11773   6.156   3.400   5.907
 3625SOL    HW111774   6.091   3.465   5.868
 3625SOL    HW211775   6.172   3.422   6.003
 3626SOL     OW11776   2.132   3.528   5.121
 3626SOL    HW111777   2.189   3.507   5.201
 3626SOL    HW211778   2.177   3.598   5.065
 3627SOL     OW11779   3.781   3.956   3.327
 3627SOL    HW111780   3.820   3.973   3.418
 3627SOL    HW211781   3.811   3.867   3.294
 3628SOL     OW11782   2.173   5.905   1.903
 3628SOL    HW111783   2.198   5.838   1.833
 3628SOL    HW211784   2.128   5.858   1.979
 3629SOL     OW11785   6.145   1.712   5.314
 3629SOL    HW111786   6.220   1.659   5.274
 3629SOL    HW211787   6.181   1.796   5.355
 3630SOL     OW11788   5.829   2.160   4.823
 3630SOL    HW111789   5.774   2.080   4.847
 3630SOL    HW211790   5.913   2.160   4.877
 3631SOL     OW11791   2.535   0.283   4.416
 3631SOL    HW111792   2.483   0.201   4.393
 3631SOL    HW211793   2.599   0.263   4.490
 3632SOL     OW11794   5.111   1.067   1.284
 3632SOL    HW111795   5.030   1.085   1.340
 3632SOL    HW211796   5.175   1.143   1.291
 3633SOL     OW11797   2.517   2.485   5.708
 3633SOL    HW111798   2.457   2.464   5.631
 3633SOL    HW211799   2.492   2.573   5.747
 3634SOL     OW11800   1.537   6.468   4.675
 3634SOL    HW111801   1.553   6.404   4.750
 3634SOL    HW211802   1.622   6.517   4.654
 3635SOL     OW11803   2.568   1.850   4.793
 3635SOL    HW111804   2.655   1.802   4.783
 3635SOL    HW211805   2.517   1.811   4.870
 3636SOL     OW11806   0.083   5.693   6.013
 3636SOL    HW111807   0.026   5.705   5.931
 3636SOL    HW211808   0.095   5.781   6.058
 3637SOL     OW11809   5.613   1.810   1.448
 3637SOL    HW111810   5.645   1.903   1.463
 3637SOL    HW211811   5.633   1.781   1.355
 3638SOL     OW11812   6.658   4.173   4.318
 3638SOL    HW111813   6.730   4.234   4.283
 3638SOL    HW211814   6.634   4.200   4.411
 3639SOL     OW11815   3.347   4.487   1.071
 3639SOL    HW111816   3.370   4.451   1.162
 3639SOL    HW211817   3.311   4.413   1.014
 3640SOL     OW11818   3.449   6.137   0.471
 3640SOL    HW111819   3.499   6.108   0.388
 3640SOL    HW211820   3.409   6.056   0.514
 3641SOL     OW11821   3.486   1.366   4.567
 3641SOL    HW111822   3.586   1.366   4.563
 3641SOL    HW211823   3.454   1.273   4.583
 3642SOL     OW11824   4.750   1.031   5.742
 3642SOL    HW111825   4.778   0.994   5.654
 3642SOL    HW211826   4.694   1.112   5.728
 3643SOL     OW11827   2.888   5.561   4.645
 3643SOL    HW111828   2.987   5.553   4.633
 3643SOL    HW211829   2.856   5.490   4.707
 3644SOL     OW11830   6.864   2.502   1.163
 3644SOL    HW111831   6.812   2.525   1.245
 3644SOL    HW211832   6.962   2.506   1.185
 3645SOL     OW11833   5.152   1.763   3.830
 3645SOL    HW111834   5.187   1.684   3.780
 3645SOL    HW211835   5.075   1.736   3.887
 3646SOL     OW11836   0.296   4.863   5.318
 3646SOL    HW111837   0.261   4.825   5.233
 3646SOL    HW211838   0.302   4.962   5.311
 3647SOL     OW11839   1.012   3.206   7.020
 3647SOL    HW111840   0.973   3.274   0.054
 3647SOL    HW211841   1.036   3.123   0.044
 3648SOL     OW11842   4.273   5.472   2.487
 3648SOL    HW111843   4.342   5.402   2.470
 3648SOL    HW211844   4.192   5.429   2.529
 3649SOL     OW11845   4.566   3.813   0.699
 3649SOL    HW111846   4.641   3.747   0.696
 3649SOL    HW211847   4.503   3.788   0.773
 3650SOL     OW11848   6.687   6.389   1.020
 3650SOL    HW111849   6.645   6.337   1.094
 3650SOL    HW211850   6.618   6.410   0.951
 3651SOL     OW11851   0.822   5.808   2.308
 3651SOL    HW111852   0.890   5.833   2.377
 3651SOL    HW211853   0.867   5.804   2.218
 3652SOL     OW11854   4.953   6.446   3.685
 3652SOL    HW111855   4.888   6.459   3.610
 3652SOL    HW211856   5.035   6.500   3.668
 3653SOL     OW11857   5.869   1.252   3.408
 3653SOL    HW111858   5.773   1.241   3.433
 3653SOL    HW211859   5.885   1.346   3.380
 3654SOL     OW11860   2.402   6.658   0.582
 3654SOL    HW111861   2.424   6.706   0.667
 3654SOL    HW211862   2.329   6.592   0.599
 3655SOL     OW11863   1.795   0.065   4.370
 3655SOL    HW111864   1.817   0.094   4.463
 3655SOL    HW211865   1.798   0.144   4.308
 3656SOL     OW11866   1.953   2.437   2.147
 3656SOL    HW111867   1.971   2.528   2.111
 3656SOL    HW211868   1.991   2.368   2.085
 3657SOL     OW11869   3.809   5.871   6.732
 3657SOL    HW111870   3.747   5.847   6.807
 3657SOL    HW211871   3.831   5.788   6.680
 3658SOL     OW11872   1.098   5.571   5.090
 3658SOL    HW111873   1.157   5.621   5.153
 3658SOL    HW211874   1.003   5.574   5.123
 3659SOL     OW11875   3.308   4.614   0.161
 3659SOL    HW111876   3.243   4.546   0.128
 3659SOL    HW211877   3.274   4.706   0.140
 3660SOL     OW11878   4.593   6.190   2.224
 3660SOL    HW111879   4.574   6.200   2.127
 3660SOL    HW211880   4.624   6.097   2.243
 3661SOL     OW11881   5.142   2.288   0.361
 3661SOL    HW111882   5.127   2.208   0.420
 3661SOL    HW211883   5.088   2.365   0.396
 3662SOL     OW11884   3.657   6.906   4.929
 3662SOL    HW111885   3.612   6.862   5.007
 3662SOL    HW211886   3.594   6.973   4.889
 3663SOL     OW11887   1.501   1.492   0.561
 3663SOL    HW111888   1.421   1.432   0.562
 3663SOL    HW211889   1.584   1.437   0.565
 3664SOL     OW11890   4.735   1.591   0.249
 3664SOL    HW111891   4.833   1.606   0.263
 3664SOL    HW211892   4.715   1.585   0.151
 3665SOL     OW11893   0.758   6.329   5.193
 3665SOL    HW111894   0.838   6.388   5.183
 3665SOL    HW211895   0.772   6.244   5.142
 3666SOL     OW11896   1.583   4.548   3.873
 3666SOL    HW111897   1.507   4.489   3.899
 3666SOL    HW211898   1.549   4.625   3.819
 3667SOL     OW11899   5.968   0.768   6.629
 3667SOL    HW111900   5.906   0.704   6.584
 3667SOL    HW211901   5.923   0.807   6.709
 3668SOL     OW11902   1.167   6.994   2.956
 3668SOL    HW111903   1.217   6.910   2.978
 3668SOL    HW211904   1.069   6.974   2.956
 3669SOL     OW11905   6.095   1.625   4.303
 3669SOL    HW111906   6.108   1.578   4.390
 3669SOL    HW211907   6.175   1.610   4.245
 3670SOL     OW11908   2.645   5.116   0.033
 3670SOL    HW111909   2.565   5.057   0.046
 3670SOL    HW211910   2.723   5.060   0.005
 3671SOL     OW11911   6.623   0.481   2.875
 3671SOL    HW111912   6.565   0.411   2.918
 3671SOL    HW211913   6.623   0.563   2.932
 3672SOL     OW11914   6.225   1.744   0.389
 3672SOL    HW111915   6.154   1.788   0.444
 3672SOL    HW211916   6.192   1.657   0.354
 3673SOL     OW11917   3.854   1.062   6.276
 3673SOL    HW111918   3.906   1.086   6.194
 3673SOL    HW211919   3.914   1.015   6.341
 3674SOL     OW11920   0.558   6.595   6.867
 3674SOL    HW111921   0.616   6.627   6.792
 3674SOL    HW211922   0.613   6.545   6.934
 3675SOL     OW11923   1.452   2.743   5.489
 3675SOL    HW111924   1.387   2.692   5.546
 3675SOL    HW211925   1.424   2.736   5.393
 3676SOL     OW11926   4.043   5.374   3.905
 3676SOL    HW111927   4.079   5.306   3.968
 3676SOL    HW211928   3.959   5.414   3.943
 3677SOL     OW11929   0.590   6.496   3.351
 3677SOL    HW111930   0.548   6.467   3.266
 3677SOL    HW211931   0.686   6.522   3.334
 3678SOL     OW11932   1.283   2.399   3.794
 3678SOL    HW111933   1.198   2.451   3.788
 3678SOL    HW211934   1.361   2.462   3.792
 3679SOL     OW11935   0.085   0.809   2.649
 3679SOL    HW111936   0.011   0.747   2.677
 3679SOL    HW211937   0.173   0.765   2.665
 3680SOL     OW11938   6.024   2.615   3.887
 3680SOL    HW111939   6.000   2.533   3.835
 3680SOL    HW211940   5.943   2.673   3.898
 3681SOL     OW11941   1.067   0.891   5.860
 3681SOL    HW111942   1.014   0.821   5.811
 3681SOL    HW211943   1.098   0.855   5.947
 3682SOL     OW11944   6.333   1.716   5.633
 3682SOL    HW111945   6.345   1.778   5.556
 3682SOL    HW211946   6.240   1.725   5.668
 3683SOL     OW11947   6.341   6.749   4.526
 3683SOL    HW111948   6.304   6.658   4.545
 3683SOL    HW211949   6.436   6.740   4.497
 3684SOL     OW11950   1.922   2.800   1.624
 3684SOL    HW111951   2.001   2.839   1.577
 3684SOL    HW211952   1.915   2.703   1.602
 3685SOL     OW11953   6.077   5.843   6.237
 3685SOL    HW111954   6.098   5.803   6.148
 3685SOL    HW211955   6.113   5.937   6.241
 3686SOL     OW11956   6.484   4.933   2.458
 3686SOL    HW111957   6.406   4.905   2.514
 3686SOL    HW211958   6.565   4.881   2.484
 3687SOL     OW11959   3.214   6.297   6.499
 3687SOL    HW111960   3.128   6.249   6.481
 3687SOL    HW211961   3.273   6.238   6.555
 3688SOL     OW11962   0.845   3.573   6.948
 3688SOL    HW111963   0.765   3.515   6.934
 3688SOL    HW211964   0.839   3.617   0.010
 3689SOL     OW11965   0.971   0.538   5.069
 3689SOL    HW111966   0.994   0.441   5.057
 3689SOL    HW211967   1.054   0.593   5.056
 3690SOL     OW11968   4.423   0.913   5.997
 3690SOL    HW111969   4.412   0.905   5.898
 3690SOL    HW211970   4.432   0.822   6.037
 3691SOL     OW11971   2.716   3.209   6.535
 3691SOL    HW111972   2.732   3.215   6.436
 3691SOL    HW211973   2.743   3.294   6.579
 3692SOL     OW11974   0.911   5.769   4.477
 3692SOL    HW111975   0.824   5.735   4.441
 3692SOL    HW211976   0.895   5.854   4.528
 3693SOL     OW11977   1.835   2.215   3.260
 3693SOL    HW111978   1.786   2.214   3.347
 3693SOL    HW211979   1.770   2.195   3.186
 3694SOL     OW11980   1.104   5.662   3.544
 3694SOL    HW111981   1.141   5.572   3.518
 3694SOL    HW211982   1.179   5.722   3.572
 3695SOL     OW11983   0.752   2.306   2.866
 3695SOL    HW111984   0.709   2.379   2.813
 3695SOL    HW211985   0.691   2.276   2.939
 3696SOL     OW11986   4.807   6.029   5.786
 3696SOL    HW111987   4.811   5.950   5.847
 3696SOL    HW211988   4.886   6.088   5.801
 3697SOL     OW11989   6.982   6.678   3.354
 3697SOL    HW111990   0.031   6.731   3.315
 3697SOL    HW211991   7.018   6.607   3.414
 3698SOL     OW11992   3.988   0.219   5.504
 3698SOL    HW111993   3.932   0.151   5.458
 3698SOL    HW211994   4.031   0.279   5.437
 3699SOL     OW11995   0.093   4.084   2.601
 3699SOL    HW111996   0.027   4.019   2.562
 3699SOL    HW211997   0.063   4.110   2.693
 3700SOL     OW11998   6.037   0.228   4.187
 3700SOL    HW111999   6.133   0.210   4.204
 3700SOL    HW212000   5.996   0.269   4.269
 3701SOL     OW12001   0.630   0.879   4.297
 3701SOL    HW112002   0.651   0.886   4.200
 3701SOL    HW212003   0.548   0.824   4.310
 3702SOL     OW12004   4.229   0.041   1.743
 3702SOL    HW112005   4.274   6.980   1.749
 3702SOL    HW212006   4.266   0.103   1.813
 3703SOL     OW12007   4.134   3.796   5.840
 3703SOL    HW112008   4.188   3.713   5.827
 3703SOL    HW212009   4.157   3.863   5.770
 3704SOL     OW12010   2.771   1.068   2.249
 3704SOL    HW112011   2.801   1.119   2.169
 3704SOL    HW212012   2.797   0.972   2.239
 3705SOL     OW12013   4.748   0.282   3.965
 3705SOL    HW112014   4.821   0.229   3.921
 3705SOL    HW212015   4.754   0.272   4.064
 3706SOL     OW12016   1.931   2.959   4.571
 3706SOL    HW112017   1.944   2.928   4.665
 3706SOL    HW212018   1.923   3.059   4.570
 3707SOL     OW12019   5.408   3.002   5.447
 3707SOL    HW112020   5.347   2.928   5.417
 3707SOL    HW212021   5.362   3.090   5.438
 3708SOL     OW12022   6.141   0.471   6.557
 3708SOL    HW112023   6.089   0.521   6.626
 3708SOL    HW212024   6.207   0.412   6.602
 3709SOL     OW12025   3.242   1.083   5.596
 3709SOL    HW112026   3.203   1.059   5.507
 3709SOL    HW212027   3.318   1.147   5.583
 3710SOL     OW12028   6.611   5.979   6.715
 3710SOL    HW112029   6.579   5.991   6.621
 3710SOL    HW212030   6.535   5.951   6.773
 3711SOL     OW12031   0.641   5.797   2.560
 3711SOL    HW112032   0.584   5.842   2.628
 3711SOL    HW212033   0.603   5.813   2.469
 3712SOL     OW12034   6.797   6.558   6.765
 3712SOL    HW112035   6.748   6.561   6.852
 3712SOL    HW212036   6.851   6.475   6.759
 3713SOL     OW12037   2.071   5.922   4.911
 3713SOL    HW112038   2.162   5.933   4.951
 3713SOL    HW212039   2.060   5.985   4.834
 3714SOL     OW12040   5.070   6.486   4.669
 3714SOL    HW112041   5.089   6.552   4.741
 3714SOL    HW212042   4.986   6.511   4.622
 3715SOL     OW12043   5.962   4.521   4.933
 3715SOL    HW112044   5.881   4.463   4.929
 3715SOL    HW212045   6.043   4.466   4.918
 3716SOL     OW12046   6.497   0.266   4.443
 3716SOL    HW112047   6.560   0.267   4.366
 3716SOL    HW212048   6.482   0.360   4.475
 3717SOL     OW12049   6.013   6.042   0.736
 3717SOL    HW112050   6.092   6.062   0.793
 3717SOL    HW212051   5.992   6.121   0.679
 3718SOL     OW12052   1.109   6.456   6.653
 3718SOL    HW112053   1.156   6.463   6.741
 3718SOL    HW212054   1.056   6.372   6.650
 3719SOL     OW12055   5.002   5.026   0.823
 3719SOL    HW112056   4.904   5.039   0.841
 3719SOL    HW212057   5.020   4.930   0.801
 3720SOL     OW12058   6.332   1.914   6.354
 3720SOL    HW112059   6.262   1.844   6.351
 3720SOL    HW212060   6.419   1.876   6.323
 3721SOL     OW12061   5.643   5.014   6.760
 3721SOL    HW112062   5.548   5.024   6.791
 3721SOL    HW212063   5.705   5.042   6.833
 3722SOL     OW12064   6.682   5.878   2.522
 3722SOL    HW112065   6.744   5.921   2.457
 3722SOL    HW212066   6.710   5.784   2.538
 3723SOL     OW12067   5.638   6.676   1.976
 3723SOL    HW112068   5.647   6.681   1.877
 3723SOL    HW212069   5.683   6.755   2.018
 3724SOL     OW12070   1.939   4.927   6.918
 3724SOL    HW112071   1.852   4.938   6.869
 3724SOL    HW212072   1.937   4.981   7.002
 3725SOL     OW12073   6.410   6.357   7.009
 3725SOL    HW112074   6.501   6.318   7.022
 3725SOL    HW212075   6.347   6.317   0.048
 3726SOL     OW12076   6.627   4.026   1.492
 3726SOL    HW112077   6.708   4.046   1.546
 3726SOL    HW212078   6.593   4.111   1.451
 3727SOL     OW12079   0.459   3.428   5.661
 3727SOL    HW112080   0.496   3.365   5.592
 3727SOL    HW212081   0.522   3.504   5.673
 3728SOL     OW12082   2.311   3.556   0.717
 3728SOL    HW112083   2.384   3.577   0.653
 3728SOL    HW212084   2.227   3.534   0.667
 3729SOL     OW12085   0.921   2.110   2.820
 3729SOL    HW112086   0.848   2.175   2.838
 3729SOL    HW212087   0.991   2.117   2.891
 3730SOL     OW12088   2.452   0.334   0.433
 3730SOL    HW112089   2.453   0.235   0.451
 3730SOL    HW212090   2.540   0.373   0.460
 3731SOL     OW12091   5.298   1.997   0.514
 3731SOL    HW112092   5.205   2.034   0.522
 3731SOL    HW212093   5.363   2.065   0.547
 3732SOL     OW12094   2.274   3.230   5.892
 3732SOL    HW112095   2.292   3.198   5.985
 3732SOL    HW212096   2.176   3.242   5.879
 3733SOL     OW12097   2.432   4.166   1.856
 3733SOL    HW112098   2.423   4.172   1.956
 3733SOL    HW212099   2.448   4.071   1.830
 3734SOL     OW12100   4.730   1.313   2.258
 3734SOL    HW112101   4.643   1.286   2.218
 3734SOL    HW212102   4.801   1.314   2.187
 3735SOL     OW12103   1.469   2.235   2.414
 3735SOL    HW112104   1.373   2.265   2.421
 3735SOL    HW212105   1.525   2.289   2.477
 3736SOL     OW12106   0.440   2.920   0.767
 3736SOL    HW112107   0.526   2.962   0.796
 3736SOL    HW212108   0.371   2.991   0.755
 3737SOL     OW12109   5.005   0.274   3.443
 3737SOL    HW112110   5.092   0.323   3.454
 3737SOL    HW212111   5.023   0.178   3.424
 3738SOL     OW12112   6.229   5.891   2.920
 3738SOL    HW112113   6.144   5.900   2.972
 3738SOL    HW212114   6.278   5.978   2.920
 3739SOL     OW12115   1.619   4.077   2.662
 3739SOL    HW112116   1.601   4.001   2.725
 3739SOL    HW212117   1.717   4.096   2.660
 3740SOL     OW12118   4.359   0.840   6.500
 3740SOL    HW112119   4.340   0.762   6.442
 3740SOL    HW212120   4.346   0.925   6.449
 3741SOL     OW12121   4.411   3.731   0.908
 3741SOL    HW112122   4.388   3.636   0.888
 3741SOL    HW212123   4.327   3.785   0.915
 3742SOL     OW12124   2.897   2.374   6.032
 3742SOL    HW112125   2.991   2.354   6.005
 3742SOL    HW212126   2.835   2.335   5.964
 3743SOL     OW12127   6.040   5.053   0.440
 3743SOL    HW112128   5.978   5.027   0.365
 3743SOL    HW212129   6.126   5.002   0.431
 3744SOL     OW12130   0.695   5.022   4.202
 3744SOL    HW112131   0.669   5.087   4.131
 3744SOL    HW212132   0.622   4.955   4.215
 3745SOL     OW12133   3.620   5.413   2.800
 3745SOL    HW112134   3.625   5.373   2.891
 3745SOL    HW212135   3.530   5.394   2.760
 3746SOL     OW12136   4.387   1.386   1.386
 3746SOL    HW112137   4.349   1.477   1.367
 3746SOL    HW212138   4.482   1.382   1.356
 3747SOL     OW12139   3.355   6.494   6.371
 3747SOL    HW112140   3.284   6.515   6.304
 3747SOL    HW212141   3.324   6.418   6.429
 3748SOL     OW12142   5.533   1.280   1.487
 3748SOL    HW112143   5.611   1.283   1.549
 3748SOL    HW212144   5.524   1.188   1.449
 3749SOL     OW12145   2.049   6.926   4.517
 3749SOL    HW112146   2.056   6.938   4.418
 3749SOL    HW212147   1.978   6.859   4.538
 3750SOL     OW12148   1.043   3.856   0.002
 3750SOL    HW112149   1.094   3.842   0.087
 3750SOL    HW212150   0.955   3.809   0.008
 3751SOL     OW12151   0.351   3.747   3.005
 3751SOL    HW112152   0.442   3.758   3.046
 3751SOL    HW212153   0.321   3.652   3.016
 3752SOL     OW12154   5.289   0.927   5.706
 3752SOL    HW112155   5.383   0.930   5.672
 3752SOL    HW212156   5.278   0.848   5.766
 3753SOL     OW12157   6.665   1.323   4.544
 3753SOL    HW112158   6.731   1.398   4.543
 3753SOL    HW212159   6.622   1.315   4.454
 3754SOL     OW12160   2.176   1.144   2.092
 3754SOL    HW112161   2.233   1.184   2.020
 3754SOL    HW212162   2.104   1.209   2.118
 3755SOL     OW12163   3.248   4.916   4.604
 3755SOL    HW112164   3.184   4.989   4.627
 3755SOL    HW212165   3.220   4.832   4.650
 3756SOL     OW12166   2.422   5.889   0.637
 3756SOL    HW112167   2.361   5.960   0.603
 3756SOL    HW212168   2.401   5.802   0.591
 3757SOL     OW12169   6.520   4.882   2.000
 3757SOL    HW112170   6.511   4.960   1.939
 3757SOL    HW212171   6.433   4.832   2.004
 3758SOL     OW12172   1.892   0.775   3.858
 3758SOL    HW112173   1.835   0.715   3.802
 3758SOL    HW212174   1.958   0.720   3.910
 3759SOL     OW12175   5.406   0.978   4.140
 3759SOL    HW112176   5.311   1.007   4.154
 3759SOL    HW212177   5.468   1.052   4.164
 3760SOL     OW12178   0.043   0.386   4.148
 3760SOL    HW112179   0.101   0.412   4.071
 3760SOL    HW212180   0.024   0.466   4.204
 3761SOL     OW12181   5.240   1.398   4.625
 3761SOL    HW112182   5.210   1.492   4.613
 3761SOL    HW212183   5.240   1.375   4.722
 3762SOL     OW12184   1.590   4.134   2.384
 3762SOL    HW112185   1.499   4.172   2.370
 3762SOL    HW212186   1.594   4.090   2.474
 3763SOL     OW12187   0.096   4.210   0.620
 3763SOL    HW112188   0.091   4.308   0.640
 3763SOL    HW212189   0.032   4.188   0.546
 3764SOL     OW12190   1.843   6.981   3.351
 3764SOL    HW112191   1.770   6.920   3.384
 3764SOL    HW212192   1.895   6.934   3.280
 3765SOL     OW12193   6.422   1.849   1.246
 3765SOL    HW112194   6.430   1.901   1.161
 3765SOL    HW212195   6.513   1.817   1.273
 3766SOL     OW12196   2.030   2.801   3.683
 3766SOL    HW112197   1.981   2.743   3.617
 3766SOL    HW212198   1.987   2.891   3.685
 3767SOL     OW12199   3.155   4.546   5.892
 3767SOL    HW112200   3.247   4.571   5.862
 3767SOL    HW212201   3.092   4.550   5.815
 3768SOL     OW12202   1.390   0.861   4.531
 3768SOL    HW112203   1.316   0.842   4.596
 3768SOL    HW212204   1.390   0.958   4.507
 3769SOL     OW12205   5.373   5.783   4.613
 3769SOL    HW112206   5.292   5.813   4.662
 3769SOL    HW212207   5.349   5.707   4.552
 3770SOL     OW12208   1.061   1.582   0.878
 3770SOL    HW112209   1.156   1.616   0.875
 3770SOL    HW212210   0.999   1.659   0.861
 3771SOL     OW12211   6.684   5.352   0.560
 3771SOL    HW112212   6.781   5.363   0.539
 3771SOL    HW212213   6.649   5.268   0.518
 3772SOL     OW12214   1.086   6.236   0.838
 3772SOL    HW112215   1.087   6.236   0.738
 3772SOL    HW212216   1.067   6.143   0.871
 3773SOL     OW12217   5.358   3.477   6.077
 3773SOL    HW112218   5.424   3.446   6.008
 3773SOL    HW212219   5.376   3.430   6.164
 3774SOL     OW12220   5.349   5.753   1.307
 3774SOL    HW112221   5.298   5.767   1.222
 3774SOL    HW212222   5.370   5.841   1.348
 3775SOL     OW12223   3.997   4.885   3.250
 3775SOL    HW112224   3.901   4.866   3.267
 3775SOL    HW212225   4.025   4.842   3.164
 3776SOL     OW12226   3.765   2.728   6.329
 3776SOL    HW112227   3.779   2.650   6.391
 3776SOL    HW212228   3.852   2.775   6.314
 3777SOL     OW12229   2.595   6.586   4.287
 3777SOL    HW112230   2.625   6.548   4.200
 3777SOL    HW212231   2.597   6.515   4.357
 3778SOL     OW12232   2.743   6.174   5.020
 3778SOL    HW112233   2.706   6.101   4.962
 3778SOL    HW212234   2.682   6.189   5.098
 3779SOL     OW12235   6.816   5.399   0.283
 3779SOL    HW112236   6.757   5.468   0.324
 3779SOL    HW212237   6.893   5.380   0.344
 3780SOL     OW12238   7.027   2.480   1.961
 3780SOL    HW112239   7.001   2.553   2.025
 3780SOL    HW212240   7.023   2.515   1.868
 3781SOL     OW12241   1.898   6.637   5.187
 3781SOL    HW112242   1.836   6.561   5.205
 3781SOL    HW212243   1.885   6.708   5.256
 3782SOL     OW12244   4.512   6.438   1.646
 3782SOL    HW112245   4.600   6.438   1.600
 3782SOL    HW212246   4.498   6.351   1.692
 3783SOL     OW12247   5.595   5.381   5.758
 3783SOL    HW112248   5.561   5.290   5.784
 3783SOL    HW212249   5.591   5.390   5.658
 3784SOL     OW12250   5.252   2.560   2.703
 3784SOL    HW112251   5.219   2.626   2.769
 3784SOL    HW212252   5.175   2.523   2.650
 3785SOL     OW12253   0.699   2.858   4.466
 3785SOL    HW112254   0.636   2.918   4.417
 3785SOL    HW212255   0.748   2.912   4.536
 3786SOL     OW12256   2.686   2.155   4.191
 3786SOL    HW112257   2.610   2.107   4.147
 3786SOL    HW212258   2.680   2.253   4.172
 3787SOL     OW12259   4.265   0.357   2.838
 3787SOL    HW112260   4.205   0.368   2.917
 3787SOL    HW212261   4.336   0.427   2.839
 3788SOL     OW12262   0.581   3.604   5.169
 3788SOL    HW112263   0.587   3.687   5.114
 3788SOL    HW212264   0.514   3.617   5.241
 3789SOL     OW12265   1.240   2.420   3.007
 3789SOL    HW112266   1.247   2.498   3.069
 3789SOL    HW212267   1.158   2.367   3.029
 3790SOL     OW12268   0.753   6.066   0.512
 3790SOL    HW112269   0.844   6.029   0.535
 3790SOL    HW212270   0.762   6.160   0.481
 3791SOL     OW12271   5.524   1.185   5.735
 3791SOL    HW112272   5.499   1.102   5.686
 3791SOL    HW212273   5.488   1.265   5.687
 3792SOL     OW12274   0.926   0.802   4.413
 3792SOL    HW112275   0.954   0.877   4.354
 3792SOL    HW212276   0.881   0.731   4.358
 3793SOL     OW12277   6.227   6.386   0.462
 3793SOL    HW112278   6.133   6.382   0.428
 3793SOL    HW212279   6.226   6.390   0.562
 3794SOL     OW12280   1.861   4.031   1.032
 3794SOL    HW112281   1.922   4.072   1.099
 3794SOL    HW212282   1.896   3.941   1.006
 3795SOL     OW12283   3.024   5.833   1.115
 3795SOL    HW112284   3.004   5.930   1.130
 3795SOL    HW212285   3.023   5.785   1.203
 3796SOL     OW12286   4.150   1.997   1.173
 3796SOL    HW112287   4.187   2.079   1.128
 3796SOL    HW212288   4.212   1.920   1.156
 3797SOL     OW12289   1.089   4.295   2.601
 3797SOL    HW112290   1.090   4.195   2.596
 3797SOL    HW212291   1.021   4.325   2.668
 3798SOL     OW12292   2.761   6.915   3.254
 3798SOL    HW112293   2.851   6.914   3.296
 3798SOL    HW212294   2.766   6.959   3.164
 3799SOL     OW12295   6.788   2.410   3.252
 3799SOL    HW112296   6.823   2.333   3.306
 3799SOL    HW212297   6.832   2.410   3.162
 3800SOL     OW12298   5.695   1.854   3.347
 3800SOL    HW112299   5.604   1.895   3.346
 3800SOL    HW212300   5.729   1.846   3.254
 3801SOL     OW12301   5.576   6.717   2.584
 3801SOL    HW112302   5.573   6.649   2.510
 3801SOL    HW212303   5.503   6.697   2.649
 3802SOL     OW12304   6.974   1.678   2.238
 3802SOL    HW112305   6.880   1.707   2.227
 3802SOL    HW212306   7.023   1.689   2.151
 3803SOL     OW12307   2.957   3.840   4.076
 3803SOL    HW112308   2.944   3.749   4.036
 3803SOL    HW212309   3.055   3.860   4.083
 3804SOL     OW12310   3.666   0.363   4.735
 3804SOL    HW112311   3.680   0.350   4.833
 3804SOL    HW212312   3.754   0.364   4.688
 3805SOL     OW12313   2.178   2.998   0.510
 3805SOL    HW112314   2.199   3.028   0.416
 3805SOL    HW212315   2.227   2.913   0.529
 3806SOL     OW12316   4.219   4.678   6.774
 3806SOL    HW112317   4.193   4.635   6.860
 3806SOL    HW212318   4.313   4.655   6.752
 3807SOL     OW12319   1.514   5.221   4.056
 3807SOL    HW112320   1.460   5.271   4.123
 3807SOL    HW212321   1.568   5.285   4.001
 3808SOL     OW12322   4.840   0.306   6.080
 3808SOL    HW112323   4.915   0.303   6.147
 3808SOL    HW212324   4.860   0.243   6.005
 3809SOL     OW12325   5.650   2.052   1.036
 3809SOL    HW112326   5.725   1.996   1.069
 3809SOL    HW212327   5.583   2.065   1.110
 3810SOL     OW12328   6.463   2.363   3.168
 3810SOL    HW112329   6.419   2.450   3.192
 3810SOL    HW212330   6.534   2.380   3.100
 3811SOL     OW12331   0.117   5.100   4.717
 3811SOL    HW112332   0.034   5.044   4.718
 3811SOL    HW212333   0.105   5.175   4.652
 3812SOL     OW12334   3.744   5.842   6.989
 3812SOL    HW112335   3.649   5.825   7.018
 3812SOL    HW212336   3.771   5.933   7.019
 3813SOL     OW12337   6.158   3.648   1.156
 3813SOL    HW112338   6.174   3.717   1.085
 3813SOL    HW212339   6.130   3.694   1.240
 3814SOL     OW12340   6.983   6.912   3.996
 3814SOL    HW112341   6.983   6.998   4.047
 3814SOL    HW212342   0.033   6.911   3.932
 3815SOL     OW12343   5.278   3.180   0.558
 3815SOL    HW112344   5.376   3.188   0.576
 3815SOL    HW212345   5.233   3.142   0.639
 3816SOL     OW12346   1.269   6.559   5.280
 3816SOL    HW112347   1.340   6.573   5.211
 3816SOL    HW212348   1.221   6.473   5.262
 3817SOL     OW12349   4.923   3.894   2.445
 3817SOL    HW112350   4.938   3.993   2.435
 3817SOL    HW212351   4.891   3.856   2.358
 3818SOL     OW12352   0.487   0.396   1.421
 3818SOL    HW112353   0.389   0.418   1.417
 3818SOL    HW212354   0.533   0.436   1.342
 3819SOL     OW12355   6.600   4.929   3.149
 3819SOL    HW112356   6.563   4.973   3.231
 3819SOL    HW212357   6.597   4.830   3.160
 3820SOL     OW12358   5.382   6.877   4.240
 3820SOL    HW112359   5.414   6.784   4.254
 3820SOL    HW212360   5.284   6.881   4.254
 3821SOL     OW12361   0.364   6.833   6.687
 3821SOL    HW112362   0.297   6.859   6.617
 3821SOL    HW212363   0.371   6.907   6.755
 3822SOL     OW12364   3.449   0.524   0.232
 3822SOL    HW112365   3.436   0.433   0.194
 3822SOL    HW212366   3.455   0.591   0.158
 3823SOL     OW12367   5.194   4.576   6.042
 3823SOL    HW112368   5.235   4.616   6.125
 3823SOL    HW212369   5.095   4.565   6.056
 3824SOL     OW12370   1.152   3.033   0.219
 3824SOL    HW112371   1.236   3.002   0.265
 3824SOL    HW212372   1.141   2.984   0.133
 3825SOL     OW12373   0.888   4.323   0.941
 3825SOL    HW112374   0.838   4.408   0.928
 3825SOL    HW212375   0.956   4.313   0.868
 3826SOL     OW12376   6.586   4.376   2.722
 3826SOL    HW112377   6.621   4.417   2.638
 3826SOL    HW212378   6.616   4.281   2.728
 3827SOL     OW12379   0.770   0.757   1.049
 3827SOL    HW112380   0.811   0.841   1.086
 3827SOL    HW212381   0.817   0.731   0.965
 3828SOL     OW12382   3.637   4.201   4.548
 3828SOL    HW112383   3.690   4.285   4.562
 3828SOL    HW212384   3.681   4.126   4.597
 3829SOL     OW12385   0.767   5.193   2.338
 3829SOL    HW112386   0.835   5.179   2.265
 3829SOL    HW212387   0.810   5.239   2.415
 3830SOL     OW12388   0.365   0.436   5.347
 3830SOL    HW112389   0.393   0.520   5.301
 3830SOL    HW212390   0.406   0.431   5.438
 3831SOL     OW12391   4.112   1.802   3.122
 3831SOL    HW112392   4.122   1.900   3.104
 3831SOL    HW212393   4.195   1.753   3.094
 3832SOL     OW12394   0.661   7.023   1.741
 3832SOL    HW112395   0.693   6.959   1.671
 3832SOL    HW212396   0.614   0.071   1.697
 3833SOL     OW12397   1.297   6.771   6.508
 3833SOL    HW112398   1.336   6.771   6.600
 3833SOL    HW212399   1.281   6.677   6.479
 3834SOL     OW12400   4.293   4.515   1.327
 3834SOL    HW112401   4.215   4.475   1.374
 3834SOL    HW212402   4.296   4.613   1.343
 3835SOL     OW12403   3.819   5.785   5.543
 3835SOL    HW112404   3.764   5.856   5.500
 3835SOL    HW212405   3.782   5.695   5.521
 3836SOL     OW12406   0.451   4.973   6.324
 3836SOL    HW112407   0.362   4.988   6.368
 3836SOL    HW212408   0.506   5.056   6.330
 3837SOL     OW12409   3.731   5.288   5.129
 3837SOL    HW112410   3.709   5.269   5.225
 3837SOL    HW212411   3.770   5.380   5.121
 3838SOL     OW12412   1.746   1.242   3.560
 3838SOL    HW112413   1.835   1.198   3.574
 3838SOL    HW212414   1.676   1.173   3.543
 3839SOL     OW12415   4.509   0.362   3.105
 3839SOL    HW112416   4.412   0.378   3.123
 3839SOL    HW212417   4.559   0.354   3.191
 3840SOL     OW12418   2.325   0.950   6.083
 3840SOL    HW112419   2.422   0.928   6.077
 3840SOL    HW212420   2.314   1.048   6.095
 3841SOL     OW12421   0.428   4.347   4.048
 3841SOL    HW112422   0.411   4.368   4.145
 3841SOL    HW212423   0.352   4.381   3.993
 3842SOL     OW12424   2.498   2.588   4.276
 3842SOL    HW112425   2.438   2.515   4.243
 3842SOL    HW212426   2.500   2.587   4.376
 3843SOL     OW12427   5.147   3.303   1.259
 3843SOL    HW112428   5.210   3.259   1.193
 3843SOL    HW212429   5.056   3.263   1.249
 3844SOL     OW12430   1.348   4.954   0.126
 3844SOL    HW112431   1.312   4.891   0.057
 3844SOL    HW212432   1.446   4.967   0.111
 3845SOL     OW12433   2.015   6.319   6.931
 3845SOL    HW112434   1.973   6.240   6.976
 3845SOL    HW212435   2.106   6.294   6.896
 3846SOL     OW12436   0.524   3.043   4.345
 3846SOL    HW112437   0.454   3.031   4.414
 3846SOL    HW212438   0.581   3.122   4.368
 3847SOL     OW12439   5.345   1.750   4.492
 3847SOL    HW112440   5.319   1.846   4.506
 3847SOL    HW212441   5.287   1.691   4.548
 3848SOL     OW12442   4.589   2.641   3.025
 3848SOL    HW112443   4.520   2.595   3.081
 3848SOL    HW212444   4.578   2.612   2.930
 3849SOL     OW12445   0.548   6.758   6.483
 3849SOL    HW112446   0.483   6.769   6.558
 3849SOL    HW212447   0.508   6.796   6.399
 3850SOL     OW12448   2.992   2.913   1.473
 3850SOL    HW112449   3.034   2.936   1.385
 3850SOL    HW212450   3.039   2.963   1.546
 3851SOL     OW12451   6.916   4.704   3.824
 3851SOL    HW112452   6.973   4.624   3.811
 3851SOL    HW212453   6.970   4.778   3.865
 3852SOL     OW12454   3.536   0.193   4.154
 3852SOL    HW112455   3.586   0.179   4.069
 3852SOL    HW212456   3.590   0.251   4.215
 3853SOL     OW12457   2.127   1.614   3.626
 3853SOL    HW112458   2.081   1.651   3.545
 3853SOL    HW212459   2.076   1.640   3.708
 3854SOL     OW12460   1.454   3.232   2.929
 3854SOL    HW112461   1.549   3.253   2.954
 3854SOL    HW212462   1.453   3.186   2.840
 3855SOL     OW12463   4.196   6.452   0.662
 3855SOL    HW112464   4.188   6.544   0.623
 3855SOL    HW212465   4.245   6.393   0.597
 3856SOL     OW12466   1.009   1.989   6.199
 3856SOL    HW112467   1.017   1.892   6.175
 3856SOL    HW212468   0.923   2.025   6.163
 3857SOL     OW12469   2.035   6.398   5.374
 3857SOL    HW112470   1.994   6.377   5.462
 3857SOL    HW212471   2.103   6.329   5.351
 3858SOL     OW12472   3.527   1.672   5.878
 3858SOL    HW112473   3.434   1.638   5.895
 3858SOL    HW212474   3.584   1.652   5.958
 3859SOL     OW12475   5.949   1.153   1.020
 3859SOL    HW112476   6.024   1.170   0.956
 3859SOL    HW212477   5.928   1.236   1.070
 3860SOL     OW12478   1.950   0.604   4.384
 3860SOL    HW112479   1.992   0.515   4.404
 3860SOL    HW212480   1.905   0.600   4.295
 3861SOL     OW12481   4.386   6.041   2.490
 3861SOL    HW112482   4.452   5.975   2.527
 3861SOL    HW212483   4.434   6.109   2.435
 3862SOL     OW12484   0.824   0.585   4.244
 3862SOL    HW112485   0.741   0.594   4.189
 3862SOL    HW212486   0.852   0.489   4.247
 3863SOL     OW12487   5.684   1.230   0.324
 3863SOL    HW112488   5.673   1.249   0.226
 3863SOL    HW212489   5.600   1.254   0.373
 3864SOL     OW12490   2.793   0.556   4.815
 3864SOL    HW112491   2.715   0.592   4.867
 3864SOL    HW212492   2.777   0.571   4.717
 3865SOL     OW12493   4.498   1.054   0.710
 3865SOL    HW112494   4.409   1.032   0.668
 3865SOL    HW212495   4.487   1.132   0.771
 3866SOL     OW12496   3.766   1.063   6.956
 3866SOL    HW112497   3.843   1.055   6.893
 3866SOL    HW212498   3.697   1.123   6.917
 3867SOL     OW12499   1.371   4.506   3.213
 3867SOL    HW112500   1.455   4.453   3.225
 3867SOL    HW212501   1.394   4.596   3.177
 3868SOL     OW12502   4.090   0.305   6.748
 3868SOL    HW112503   4.144   0.221   6.742
 3868SOL    HW212504   4.033   0.314   6.667
 3869SOL     OW12505   6.496   3.090   3.904
 3869SOL    HW112506   6.544   3.027   3.843
 3869SOL    HW212507   6.556   3.166   3.928
 3870SOL     OW12508   6.833   6.599   2.152
 3870SOL    HW112509   6.741   6.561   2.161
 3870SOL    HW212510   6.897   6.545   2.205
 3871SOL     OW12511   3.464   6.935   3.517
 3871SOL    HW112512   3.459   6.905   3.613
 3871SOL    HW212513   3.392   6.889   3.465
 3872SOL     OW12514   3.268   2.945   3.965
 3872SOL    HW112515   3.298   2.852   3.989
 3872SOL    HW212516   3.209   2.980   4.038
 3873SOL     OW12517   5.045   3.754   1.110
 3873SOL    HW112518   5.103   3.761   1.029
 3873SOL    HW212519   5.077   3.679   1.168
 3874SOL     OW12520   4.305   0.583   0.734
 3874SOL    HW112521   4.207   0.574   0.715
 3874SOL    HW212522   4.357   0.569   0.649
 3875SOL     OW12523   1.717   3.229   3.932
 3875SOL    HW112524   1.723   3.301   3.863
 3875SOL    HW212525   1.808   3.193   3.951
 3876SOL     OW12526   3.294   5.216   1.086
 3876SOL    HW112527   3.231   5.294   1.080
 3876SOL    HW212528   3.296   5.168   0.998
 3877SOL     OW12529   6.788   2.371   0.916
 3877SOL    HW112530   6.816   2.409   1.005
 3877SOL    HW212531   6.844   2.290   0.896
 3878SOL     OW12532   4.675   6.230   4.602
 3878SOL    HW112533   4.763   6.225   4.649
 3878SOL    HW212534   4.629   6.142   4.608
 3879SOL     OW12535   5.833   5.180   0.560
 3879SOL    HW112536   5.912   5.150   0.507
 3879SOL    HW212537   5.847   5.274   0.591
 3880SOL     OW12538   5.014   3.834   4.520
 3880SOL    HW112539   5.033   3.736   4.512
 3880SOL    HW212540   5.027   3.878   4.431
 3881SOL     OW12541   1.852   3.661   1.466
 3881SOL    HW112542   1.764   3.693   1.500
 3881SOL    HW212543   1.923   3.727   1.489
 3882SOL     OW12544   1.067   1.350   0.246
 3882SOL    HW112545   1.124   1.429   0.222
 3882SOL    HW212546   1.068   1.285   0.170
 3883SOL     OW12547   4.423   1.035   2.632
 3883SOL    HW112548   4.477   1.068   2.710
 3883SOL    HW212549   4.373   1.112   2.592
 3884SOL     OW12550   0.560   5.378   2.420
 3884SOL    HW112551   0.595   5.287   2.396
 3884SOL    HW212552   0.636   5.442   2.427
 3885SOL     OW12553   6.049   6.020   3.706
 3885SOL    HW112554   6.110   5.940   3.707
 3885SOL    HW212555   6.056   6.067   3.794
 3886SOL     OW12556   4.434   5.650   5.201
 3886SOL    HW112557   4.415   5.676   5.295
 3886SOL    HW212558   4.349   5.632   5.153
 3887SOL     OW12559   0.674   6.983   0.041
 3887SOL    HW112560   0.713   6.956   6.981
 3887SOL    HW212561   0.673   6.904   0.103
 3888SOL     OW12562   6.563   6.809   5.249
 3888SOL    HW112563   6.609   6.800   5.161
 3888SOL    HW212564   6.623   6.776   5.322
 3889SOL     OW12565   6.943   2.633   0.306
 3889SOL    HW112566   6.908   2.725   0.325
 3889SOL    HW212567   7.027   2.618   0.358
 3890SOL     OW12568   5.928   5.053   3.392
 3890SOL    HW112569   5.940   4.956   3.367
 3890SOL    HW212570   5.879   5.059   3.479
 3891SOL     OW12571   4.843   3.874   4.045
 3891SOL    HW112572   4.814   3.940   4.115
 3891SOL    HW212573   4.808   3.903   3.956
 3892SOL     OW12574   1.229   2.728   0.866
 3892SOL    HW112575   1.153   2.674   0.901
 3892SOL    HW212576   1.309   2.716   0.925
 3893SOL     OW12577   4.052   4.043   0.716
 3893SOL    HW112578   4.116   4.098   0.662
 3893SOL    HW212579   3.978   4.011   0.657
 3894SOL     OW12580   4.898   0.885   6.747
 3894SOL    HW112581   4.878   0.821   6.674
 3894SOL    HW212582   4.882   0.978   6.715
 3895SOL     OW12583   1.038   7.023   5.627
 3895SOL    HW112584   1.001   0.083   5.659
 3895SOL    HW212585   1.127   0.011   5.583
 3896SOL     OW12586   0.859   1.307   6.421
 3896SOL    HW112587   0.835   1.225   6.473
 3896SOL    HW212588   0.856   1.387   6.482
 3897SOL     OW12589   4.109   5.880   2.556
 3897SOL    HW112590   4.047   5.863   2.480
 3897SOL    HW212591   4.115   5.979   2.572
 3898SOL     OW12592   2.802   2.171   6.696
 3898SOL    HW112593   2.829   2.170   6.792
 3898SOL    HW212594   2.758   2.257   6.673
 3899SOL     OW12595   4.526   6.482   6.034
 3899SOL    HW112596   4.537   6.460   5.937
 3899SOL    HW212597   4.587   6.425   6.088
 3900SOL     OW12598   4.541   2.486   3.807
 3900SOL    HW112599   4.518   2.485   3.904
 3900SOL    HW212600   4.615   2.551   3.791
 3901SOL     OW12601   3.346   0.782   6.171
 3901SOL    HW112602   3.424   0.846   6.170
 3901SOL    HW212603   3.360   0.711   6.102
 3902SOL     OW12604   6.633   2.914   2.258
 3902SOL    HW112605   6.559   2.972   2.223
 3902SOL    HW212606   6.643   2.833   2.200
 3903SOL     OW12607   3.719   6.711   0.199
 3903SOL    HW112608   3.625   6.694   0.227
 3903SOL    HW212609   3.743   6.806   0.221
 3904SOL     OW12610   2.048   0.927   6.214
 3904SOL    HW112611   1.989   0.846   6.214
 3904SOL    HW212612   2.136   0.905   6.171
 3905SOL     OW12613   6.356   6.603   6.071
 3905SOL    HW112614   6.302   6.670   6.020
 3905SOL    HW212615   6.445   6.591   6.027
 3906SOL     OW12616   5.942   6.381   5.093
 3906SOL    HW112617   5.857   6.417   5.133
 3906SOL    HW212618   5.980   6.311   5.153
 3907SOL     OW12619   6.061   0.886   3.964
 3907SOL    HW112620   6.056   0.792   3.999
 3907SOL    HW212621   6.131   0.936   4.016
 3908SOL     OW12622   0.609   2.314   6.628
 3908SOL    HW112623   0.558   2.293   6.711
 3908SOL    HW212624   0.611   2.233   6.569
 3909SOL     OW12625   6.192   6.042   4.831
 3909SOL    HW112626   6.118   6.102   4.862
 3909SOL    HW212627   6.203   5.966   4.895
 3910SOL     OW12628   3.529   3.852   2.764
 3910SOL    HW112629   3.552   3.898   2.850
 3910SOL    HW212630   3.441   3.886   2.730
 3911SOL     OW12631   5.706   1.648   5.617
 3911SOL    HW112632   5.697   1.640   5.518
 3911SOL    HW212633   5.654   1.576   5.662
 3912SOL     OW12634   5.279   0.767   5.313
 3912SOL    HW112635   5.282   0.667   5.316
 3912SOL    HW212636   5.365   0.801   5.274
 3913SOL     OW12637   2.344   6.622   5.797
 3913SOL    HW112638   2.246   6.643   5.796
 3913SOL    HW212639   2.372   6.603   5.891
 3914SOL     OW12640   2.796   0.604   1.535
 3914SOL    HW112641   2.865   0.568   1.598
 3914SOL    HW212642   2.742   0.529   1.499
 3915SOL     OW12643   4.985   5.980   0.991
 3915SOL    HW112644   5.027   5.974   0.900
 3915SOL    HW212645   4.923   6.059   0.994
 3916SOL     OW12646   0.980   0.076   4.033
 3916SOL    HW112647   0.939   0.078   3.942
 3916SOL    HW212648   1.076   0.102   4.027
 3917SOL     OW12649   6.390   5.852   6.823
 3917SOL    HW112650   6.436   5.811   6.902
 3917SOL    HW212651   6.294   5.867   6.845
 3918SOL     OW12652   5.649   5.400   1.462
 3918SOL    HW112653   5.698   5.390   1.375
 3918SOL    HW212654   5.644   5.496   1.487
 3919SOL     OW12655   4.044   6.722   0.144
 3919SOL    HW112656   4.104   6.794   0.179
 3919SOL    HW212657   3.949   6.742   0.170
 3920SOL     OW12658   3.372   3.469   0.698
 3920SOL    HW112659   3.309   3.512   0.763
 3920SOL    HW212660   3.363   3.513   0.609
 3921SOL     OW12661   0.118   3.292   1.850
 3921SOL    HW112662   0.144   3.209   1.801
 3921SOL    HW212663   0.178   3.367   1.824
 3922SOL     OW12664   6.690   3.789   2.323
 3922SOL    HW112665   6.736   3.700   2.323
 3922SOL    HW212666   6.614   3.787   2.259
 3923SOL     OW12667   0.321   1.279   0.389
 3923SOL    HW112668   0.361   1.348   0.450
 3923SOL    HW212669   0.227   1.261   0.418
 3924SOL     OW12670   5.980   4.765   3.678
 3924SOL    HW112671   5.900   4.815   3.713
 3924SOL    HW212672   5.989   4.678   3.726
 3925SOL     OW12673   2.381   5.423   1.392
 3925SOL    HW112674   2.427   5.505   1.358
 3925SOL    HW212675   2.402   5.346   1.332
 3926SOL     OW12676   6.383   4.805   2.755
 3926SOL    HW112677   6.311   4.777   2.692
 3926SOL    HW212678   6.353   4.788   2.849
 3927SOL     OW12679   6.396   2.515   4.863
 3927SOL    HW112680   6.367   2.427   4.900
 3927SOL    HW212681   6.376   2.588   4.929
 3928SOL     OW12682   3.949   5.931   6.300
 3928SOL    HW112683   4.017   5.859   6.314
 3928SOL    HW212684   3.990   6.020   6.318
 3929SOL     OW12685   0.453   0.498   4.839
 3929SOL    HW112686   0.470   0.438   4.917
 3929SOL    HW212687   0.359   0.486   4.808
 3930SOL     OW12688   2.896   1.921   3.811
 3930SOL    HW112689   2.836   2.001   3.819
 3930SOL    HW212690   2.969   1.941   3.746
 3931SOL     OW12691   1.387   1.079   1.129
 3931SOL    HW112692   1.302   1.125   1.155
 3931SOL    HW212693   1.375   0.980   1.134
 3932SOL     OW12694   2.024   4.143   3.741
 3932SOL    HW112695   2.102   4.081   3.727
 3932SOL    HW212696   2.039   4.198   3.823
 3933SOL     OW12697   1.691   6.164   6.873
 3933SOL    HW112698   1.732   6.235   6.816
 3933SOL    HW212699   1.763   6.115   6.922
 3934SOL     OW12700   0.367   1.086   6.736
 3934SOL    HW112701   0.365   1.114   6.639
 3934SOL    HW212702   0.290   1.025   6.755
 3935SOL     OW12703   2.812   6.918   6.973
 3935SOL    HW112704   2.757   6.836   6.956
 3935SOL    HW212705   2.816   6.973   6.889
 3936SOL     OW12706   7.000   5.184   5.581
 3936SOL    HW112707   0.035   5.206   5.507
 3936SOL    HW212708   0.007   5.220   5.667
 3937SOL     OW12709   6.956   1.545   3.331
 3937SOL    HW112710   7.016   1.596   3.269
 3937SOL    HW212711   6.950   1.450   3.299
 3938SOL     OW12712   0.287   2.412   3.938
 3938SOL    HW112713   0.306   2.505   3.905
 3938SOL    HW212714   0.363   2.381   3.995
 3939SOL     OW12715   2.031   3.111   2.745
 3939SOL    HW112716   2.090   3.184   2.778
 3939SOL    HW212717   2.077   3.023   2.758
 3940SOL     OW12718   5.232   4.772   1.124
 3940SOL    HW112719   5.231   4.818   1.213
 3940SOL    HW212720   5.157   4.706   1.120
 3941SOL     OW12721   5.177   3.603   5.657
 3941SOL    HW112722   5.099   3.666   5.657
 3941SOL    HW212723   5.156   3.525   5.717
 3942SOL     OW12724   0.501   6.582   6.274
 3942SOL    HW112725   0.402   6.587   6.265
 3942SOL    HW212726   0.528   6.616   6.364
 3943SOL     OW12727   6.819   2.920   2.758
 3943SOL    HW112728   6.884   2.987   2.793
 3943SOL    HW212729   6.751   2.900   2.828
 3944SOL     OW12730   4.491   2.545   4.843
 3944SOL    HW112731   4.503   2.577   4.748
 3944SOL    HW212732   4.428   2.606   4.891
 3945SOL     OW12733   0.934   1.829   0.371
 3945SOL    HW112734   0.857   1.873   0.416
 3945SOL    HW212735   0.943   1.865   0.278
 3946SOL     OW12736   5.554   4.736   4.949
 3946SOL    HW112737   5.607   4.770   4.872
 3946SOL    HW212738   5.611   4.674   5.003
 3947SOL     OW12739   5.387   6.690   0.269
 3947SOL    HW112740   5.367   6.597   0.237
 3947SOL    HW212741   5.429   6.685   0.360
 3948SOL     OW12742   0.532   4.859   2.540
 3948SOL    HW112743   0.563   4.914   2.463
 3948SOL    HW212744   0.568   4.766   2.533
 3949SOL     OW12745   4.830   0.697   3.113
 3949SOL    HW112746   4.858   0.613   3.160
 3949SOL    HW212747   4.904   0.728   3.053
 3950SOL     OW12748   1.723   4.509   0.495
 3950SOL    HW112749   1.716   4.415   0.527
 3950SOL    HW212750   1.736   4.570   0.574
 3951SOL     OW12751   5.000   0.104   1.564
 3951SOL    HW112752   4.971   0.018   1.606
 3951SOL    HW212753   4.970   0.181   1.620
 3952SOL     OW12754   6.702   2.362   2.370
 3952SOL    HW112755   6.706   2.461   2.364
 3952SOL    HW212756   6.794   2.325   2.384
 3953SOL     OW12757   3.870   5.062   1.537
 3953SOL    HW112758   3.939   5.004   1.580
 3953SOL    HW212759   3.793   5.006   1.507
 3954SOL     OW12760   4.212   5.157   4.765
 3954SOL    HW112761   4.239   5.067   4.801
 3954SOL    HW212762   4.235   5.228   4.831
 3955SOL     OW12763   3.177   6.877   6.335
 3955SOL    HW112764   3.175   6.779   6.317
 3955SOL    HW212765   3.111   6.924   6.277
 3956SOL     OW12766   0.978   0.797   2.643
 3956SOL    HW112767   0.941   0.712   2.682
 3956SOL    HW212768   0.933   0.816   2.556
 3957SOL     OW12769   4.691   6.628   3.990
 3957SOL    HW112770   4.783   6.662   3.975
 3957SOL    HW212771   4.669   6.561   3.919
 3958SOL     OW12772   5.553   1.315   4.751
 3958SOL    HW112773   5.477   1.357   4.700
 3958SOL    HW212774   5.626   1.383   4.761
 3959SOL     OW12775   3.825   6.536   0.386
 3959SOL    HW112776   3.825   6.614   0.324
 3959SOL    HW212777   3.794   6.565   0.477
 3960SOL     OW12778   4.770   1.363   6.329
 3960SOL    HW112779   4.679   1.349   6.366
 3960SOL    HW212780   4.818   1.432   6.384
 3961SOL     OW12781   5.586   1.437   2.474
 3961SOL    HW112782   5.588   1.531   2.440
 3961SOL    HW212783   5.498   1.419   2.519
 3962SOL     OW12784   2.367   4.223   6.974
 3962SOL    HW112785   2.466   4.238   6.967
 3962SOL    HW212786   2.348   4.126   6.965
 3963SOL     OW12787   5.047   5.415   2.723
 3963SOL    HW112788   4.953   5.415   2.689
 3963SOL    HW212789   5.054   5.355   2.802
 3964SOL     OW12790   4.670   5.261   4.061
 3964SOL    HW112791   4.674   5.328   3.986
 3964SOL    HW212792   4.745   5.197   4.053
 3965SOL     OW12793   5.138   2.751   4.336
 3965SOL    HW112794   5.216   2.705   4.379
 3965SOL    HW212795   5.112   2.831   4.390
 3966SOL     OW12796   4.554   6.218   6.249
 3966SOL    HW112797   4.603   6.303   6.270
 3966SOL    HW212798   4.619   6.149   6.218
 3967SOL     OW12799   2.080   3.844   2.227
 3967SOL    HW112800   2.097   3.943   2.230
 3967SOL    HW212801   2.099   3.805   2.317
 3968SOL     OW12802   4.640   0.265   0.988
 3968SOL    HW112803   4.692   0.305   0.913
 3968SOL    HW212804   4.576   0.334   1.024
 3969SOL     OW12805   1.336   4.276   2.233
 3969SOL    HW112806   1.319   4.286   2.135
 3969SOL    HW212807   1.269   4.214   2.273
 3970SOL     OW12808   5.776   6.234   3.408
 3970SOL    HW112809   5.830   6.318   3.416
 3970SOL    HW212810   5.820   6.161   3.461
 3971SOL     OW12811   3.566   5.518   3.518
 3971SOL    HW112812   3.475   5.549   3.490
 3971SOL    HW212813   3.564   5.486   3.612
 3972SOL     OW12814   1.066   3.770   0.692
 3972SOL    HW112815   1.133   3.754   0.765
 3972SOL    HW212816   1.044   3.684   0.646
 3973SOL     OW12817   1.450   6.016   6.250
 3973SOL    HW112818   1.510   6.001   6.171
 3973SOL    HW212819   1.467   6.106   6.289
 3974SOL     OW12820   2.257   0.587   5.368
 3974SOL    HW112821   2.265   0.657   5.296
 3974SOL    HW212822   2.186   0.613   5.433
 3975SOL     OW12823   5.142   1.871   5.792
 3975SOL    HW112824   5.121   1.869   5.890
 3975SOL    HW212825   5.130   1.779   5.754
 3976SOL     OW12826   1.438   6.411   1.785
 3976SOL    HW112827   1.493   6.397   1.866
 3976SOL    HW212828   1.345   6.377   1.801
 3977SOL     OW12829   2.023   3.264   5.921
 3977SOL    HW112830   1.976   3.210   5.990
 3977SOL    HW212831   2.035   3.358   5.955
 3978SOL     OW12832   5.822   5.408   3.901
 3978SOL    HW112833   5.877   5.492   3.906
 3978SOL    HW212834   5.842   5.352   3.982
 3979SOL     OW12835   3.564   0.629   6.971
 3979SOL    HW112836   3.641   0.568   6.953
 3979SOL    HW212837   3.599   0.716   7.007
 3980SOL     OW12838   5.845   6.043   6.903
 3980SOL    HW112839   5.787   6.114   6.944
 3980SOL    HW212840   5.807   6.017   6.814
 3981SOL     OW12841   3.003   0.115   0.672
 3981SOL    HW112842   2.972   0.140   0.764
 3981SOL    HW212843   3.102   0.127   0.666
 3982SOL     OW12844   2.506   6.662   3.463
 3982SOL    HW112845   2.487   6.702   3.373
 3982SOL    HW212846   2.593   6.698   3.497
 3983SOL     OW12847   5.172   4.751   4.044
 3983SOL    HW112848   5.073   4.748   4.057
 3983SOL    HW212849   5.198   4.839   4.004
 3984SOL     OW12850   6.587   0.870   2.451
 3984SOL    HW112851   6.552   0.840   2.362
 3984SOL    HW212852   6.666   0.930   2.436
 3985SOL     OW12853   2.481   4.946   6.519
 3985SOL    HW112854   2.537   4.964   6.600
 3985SOL    HW212855   2.443   4.854   6.525
 3986SOL     OW12856   5.166   1.404   2.668
 3986SOL    HW112857   5.090   1.464   2.688
 3986SOL    HW212858   5.185   1.345   2.746
 3987SOL     OW12859   3.723   4.863   3.315
 3987SOL    HW112860   3.663   4.896   3.388
 3987SOL    HW212861   3.668   4.843   3.234
 3988SOL     OW12862   3.132   5.083   6.783
 3988SOL    HW112863   3.155   5.171   6.825
 3988SOL    HW212864   3.162   5.082   6.688
 3989SOL     OW12865   6.800   2.695   6.839
 3989SOL    HW112866   6.739   2.754   6.892
 3989SOL    HW212867   6.792   2.601   6.873
 3990SOL     OW12868   4.575   2.128   2.462
 3990SOL    HW112869   4.477   2.141   2.450
 3990SOL    HW212870   4.601   2.157   2.554
 3991SOL     OW12871   6.393   1.002   2.602
 3991SOL    HW112872   6.391   1.097   2.570
 3991SOL    HW212873   6.470   0.954   2.559
 3992SOL     OW12874   3.182   1.582   0.202
 3992SOL    HW112875   3.106   1.612   0.261
 3992SOL    HW212876   3.180   1.483   0.194
 3993SOL     OW12877   1.185   2.598   2.225
 3993SOL    HW112878   1.202   2.603   2.323
 3993SOL    HW212879   1.151   2.507   2.201
 3994SOL     OW12880   1.633   0.018   6.310
 3994SOL    HW112881   1.614   7.009   6.401
 3994SOL    HW212882   1.666   6.971   6.251
 3995SOL     OW12883   2.118   3.691   6.187
 3995SOL    HW112884   2.144   3.737   6.272
 3995SOL    HW212885   2.136   3.751   6.109
 3996SOL     OW12886   0.717   6.461   4.586
 3996SOL    HW112887   0.722   6.557   4.613
 3996SOL    HW212888   0.663   6.410   4.654
 3997SOL     OW12889   5.564   1.242   3.192
 3997SOL    HW112890   5.592   1.334   3.163
 3997SOL    HW212891   5.628   1.175   3.156
 3998SOL     OW12892   3.928   1.187   3.657
 3998SOL    HW112893   3.840   1.227   3.683
 3998SOL    HW212894   3.976   1.248   3.594
 3999SOL     OW12895   5.499   2.719   4.108
 3999SOL    HW112896   5.552   2.796   4.143
 3999SOL    HW212897   5.406   2.749   4.089
 4000SOL     OW12898   3.249   0.066   3.818
 4000SOL    HW112899   3.316   7.024   3.793
 4000SOL    HW212900   3.235   0.127   3.739
 4001SOL     OW12901   2.572   1.551   3.614
 4001SOL    HW112902   2.641   1.491   3.573
 4001SOL    HW212903   2.612   1.602   3.689
 4002SOL     OW12904   3.215   4.439   0.710
 4002SOL    HW112905   3.300   4.419   0.662
 4002SOL    HW212906   3.137   4.419   0.651
 4003SOL     OW12907   3.701   0.192   3.841
 4003SOL    HW112908   3.682   0.196   3.743
 4003SOL    HW212909   3.779   0.252   3.862
 4004SOL     OW12910   5.438   2.012   4.071
 4004SOL    HW112911   5.374   1.935   4.070
 4004SOL    HW212912   5.451   2.045   3.978
 4005SOL     OW12913   4.905   5.623   6.865
 4005SOL    HW112914   4.995   5.666   6.862
 4005SOL    HW212915   4.837   5.690   6.895
 4006SOL     OW12916   4.458   5.273   2.468
 4006SOL    HW112917   4.476   5.237   2.560
 4006SOL    HW212918   4.544   5.301   2.425
 4007SOL     OW12919   0.025   2.220   6.600
 4007SOL    HW112920   0.069   2.302   6.637
 4007SOL    HW212921   7.014   2.241   6.510
 4008SOL     OW12922   2.856   2.099   4.767
 4008SOL    HW112923   2.928   2.125   4.832
 4008SOL    HW212924   2.877   2.139   4.678
 4009SOL     OW12925   4.526   3.253   1.444
 4009SOL    HW112926   4.508   3.169   1.495
 4009SOL    HW212927   4.536   3.329   1.508
 4010SOL     OW12928   2.294   2.864   1.299
 4010SOL    HW112929   2.288   2.874   1.199
 4010SOL    HW212930   2.343   2.780   1.321
 4011SOL     OW12931   0.676   1.193   2.362
 4011SOL    HW112932   0.647   1.185   2.266
 4011SOL    HW212933   0.630   1.271   2.404
 4012SOL     OW12934   6.787   4.811   1.668
 4012SOL    HW112935   6.732   4.767   1.597
 4012SOL    HW212936   6.738   4.890   1.705
 4013SOL     OW12937   3.315   1.369   5.006
 4013SOL    HW112938   3.222   1.387   4.976
 4013SOL    HW212939   3.314   1.327   5.096
 4014SOL     OW12940   5.587   6.483   2.420
 4014SOL    HW112941   5.686   6.467   2.419
 4014SOL    HW212942   5.540   6.397   2.438
 4015SOL     OW12943   4.724   4.666   6.443
 4015SOL    HW112944   4.782   4.705   6.372
 4015SOL    HW212945   4.628   4.684   6.421
 4016SOL     OW12946   2.255   6.437   6.171
 4016SOL    HW112947   2.177   6.375   6.185
 4016SOL    HW212948   2.221   6.529   6.151
 4017SOL     OW12949   6.915   6.194   0.444
 4017SOL    HW112950   6.927   6.224   0.350
 4017SOL    HW212951   6.941   6.098   0.452
 4018SOL     OW12952   3.882   5.879   2.404
 4018SOL    HW112953   3.821   5.811   2.446
 4018SOL    HW212954   3.882   5.962   2.459
 4019SOL     OW12955   4.981   4.324   3.330
 4019SOL    HW112956   4.945   4.416   3.322
 4019SOL    HW212957   5.043   4.306   3.254
 4020SOL     OW12958   4.808   2.073   5.254
 4020SOL    HW112959   4.742   2.007   5.291
 4020SOL    HW212960   4.794   2.082   5.155
 4021SOL     OW12961   3.904   5.167   6.434
 4021SOL    HW112962   3.879   5.160   6.531
 4021SOL    HW212963   3.907   5.263   6.408
 4022SOL     OW12964   4.994   1.630   7.001
 4022SOL    HW112965   5.085   1.657   0.006
 4022SOL    HW212966   4.962   1.695   6.933
 4023SOL     OW12967   6.175   1.842   4.634
 4023SOL    HW112968   6.201   1.854   4.538
 4023SOL    HW212969   6.244   1.786   4.681
 4024SOL     OW12970   3.495   6.318   4.539
 4024SOL    HW112971   3.574   6.257   4.531
 4024SOL    HW212972   3.461   6.340   4.447
 4025SOL     OW12973   0.718   3.505   2.990
 4025SOL    HW112974   0.747   3.537   2.899
 4025SOL    HW212975   0.776   3.428   3.017
 4026SOL     OW12976   5.782   5.776   4.148
 4026SOL    HW112977   5.707   5.765   4.213
 4026SOL    HW212978   5.868   5.783   4.198
 4027SOL     OW12979   3.779   4.231   1.808
 4027SOL    HW112980   3.703   4.194   1.860
 4027SOL    HW212981   3.749   4.314   1.759
 4028SOL     OW12982   1.769   2.067   4.407
 4028SOL    HW112983   1.808   1.988   4.359
 4028SOL    HW212984   1.723   2.036   4.490
 4029SOL     OW12985   2.319   4.126   5.661
 4029SOL    HW112986   2.320   4.026   5.661
 4029SOL    HW212987   2.240   4.159   5.713
 4030SOL     OW12988   0.593   1.904   5.607
 4030SOL    HW112989   0.671   1.867   5.556
 4030SOL    HW212990   0.615   1.997   5.636
 4031SOL     OW12991   4.399   5.612   3.689
 4031SOL    HW112992   4.351   5.525   3.694
 4031SOL    HW212993   4.417   5.636   3.594
 4032SOL     OW12994   5.906   6.650   4.057
 4032SOL    HW112995   5.922   6.746   4.079
 4032SOL    HW212996   5.876   6.642   3.962
 4033SOL     OW12997   3.024   4.003   4.439
 4033SOL    HW112998   2.991   3.911   4.419
 4033SOL    HW212999   2.947   4.063   4.457
 4034SOL     OW13000   6.444   1.418   4.657
 4034SOL    HW113001   6.367   1.359   4.680
 4034SOL    HW213002   6.508   1.369   4.599
 4035SOL     OW13003   0.418   4.438   6.795
 4035SOL    HW113004   0.451   4.344   6.801
 4035SOL    HW213005   0.456   4.481   6.713
 4036SOL     OW13006   6.234   6.072   2.606
 4036SOL    HW113007   6.248   6.049   2.703
 4036SOL    HW213008   6.168   6.008   2.566
 4037SOL     OW13009   1.074   3.732   6.350
 4037SOL    HW113010   1.141   3.703   6.419
 4037SOL    HW213011   0.985   3.744   6.393
 4038SOL     OW13012   5.442   4.437   2.909
 4038SOL    HW113013   5.474   4.522   2.950
 4038SOL    HW213014   5.476   4.359   2.962
 4039SOL     OW13015   5.334   6.184   0.371
 4039SOL    HW113016   5.406   6.176   0.440
 4039SOL    HW213017   5.277   6.102   0.373
 4040SOL     OW13018   3.103   6.815   1.223
 4040SOL    HW113019   3.163   6.853   1.294
 4040SOL    HW213020   3.055   6.735   1.260
 4041SOL     OW13021   1.144   6.499   3.291
 4041SOL    HW113022   1.183   6.590   3.303
 4041SOL    HW213023   1.133   6.455   3.380
 4042SOL     OW13024   5.608   5.093   2.168
 4042SOL    HW113025   5.554   5.166   2.209
 4042SOL    HW213026   5.559   5.054   2.090
 4043SOL     OW13027   5.202   1.972   2.529
 4043SOL    HW113028   5.178   2.062   2.566
 4043SOL    HW213029   5.223   1.981   2.432
 4044SOL     OW13030   5.974   6.973   3.467
 4044SOL    HW113031   5.992   6.923   3.382
 4044SOL    HW213032   5.902   6.926   3.518
 4045SOL     OW13033   2.191   5.121   6.660
 4045SOL    HW113034   2.126   5.049   6.684
 4045SOL    HW213035   2.275   5.109   6.713
 4046SOL     OW13036   1.089   2.400   1.871
 4046SOL    HW113037   1.046   2.490   1.869
 4046SOL    HW213038   1.187   2.409   1.854
 4047SOL     OW13039   3.161   3.602   1.829
 4047SOL    HW113040   3.067   3.571   1.846
 4047SOL    HW213041   3.219   3.576   1.906
 4048SOL     OW13042   5.505   0.593   0.442
 4048SOL    HW113043   5.561   0.620   0.364
 4048SOL    HW213044   5.490   0.672   0.502
 4049SOL     OW13045   5.651   6.708   5.668
 4049SOL    HW113046   5.678   6.698   5.763
 4049SOL    HW213047   5.570   6.767   5.662
 4050SOL     OW13048   1.704   6.231   0.682
 4050SOL    HW113049   1.655   6.256   0.599
 4050SOL    HW213050   1.728   6.134   0.678
 4051SOL     OW13051   2.984   4.777   0.851
 4051SOL    HW113052   3.015   4.868   0.879
 4051SOL    HW213053   3.030   4.708   0.906
 4052SOL     OW13054   0.669   0.563   7.011
 4052SOL    HW113055   0.580   0.521   6.996
 4052SOL    HW213056   0.741   0.496   6.990
 4053SOL     OW13057   3.159   4.857   3.911
 4053SOL    HW113058   3.190   4.868   3.816
 4053SOL    HW213059   3.239   4.844   3.970
 4054SOL     OW13060   3.815   1.868   0.902
 4054SOL    HW113061   3.734   1.922   0.924
 4054SOL    HW213062   3.877   1.923   0.846
 4055SOL     OW13063   3.424   2.097   6.216
 4055SOL    HW113064   3.418   2.196   6.199
 4055SOL    HW213065   3.510   2.063   6.178
 4056SOL     OW13066   3.587   2.716   6.787
 4056SOL    HW113067   3.524   2.724   6.865
 4056SOL    HW213068   3.609   2.807   6.752
 4057SOL     OW13069   4.457   2.878   6.401
 4057SOL    HW113070   4.440   2.787   6.439
 4057SOL    HW213071   4.371   2.918   6.370
 4058SOL     OW13072   2.291   1.174   5.342
 4058SOL    HW113073   2.211   1.126   5.379
 4058SOL    HW213074   2.363   1.177   5.412
 4059SOL     OW13075   1.231   1.965   5.200
 4059SOL    HW113076   1.184   1.928   5.280
 4059SOL    HW213077   1.189   1.929   5.117
 4060SOL     OW13078   4.033   4.843   4.244
 4060SOL    HW113079   4.039   4.778   4.169
 4060SOL    HW213080   4.113   4.835   4.303
 4061SOL     OW13081   3.389   4.137   2.176
 4061SOL    HW113082   3.427   4.144   2.268
 4061SOL    HW213083   3.291   4.156   2.180
 4062SOL     OW13084   3.471   0.794   2.646
 4062SOL    HW113085   3.401   0.749   2.700
 4062SOL    HW213086   3.473   0.891   2.667
 4063SOL     OW13087   3.195   5.282   6.227
 4063SOL    HW113088   3.158   5.371   6.256
 4063SOL    HW213089   3.151   5.253   6.143
 4064SOL     OW13090   0.064   0.701   3.302
 4064SOL    HW113091   6.995   0.677   3.315
 4064SOL    HW213092   0.118   0.664   3.378
 4065SOL     OW13093   6.675   0.301   0.698
 4065SOL    HW113094   6.703   0.206   0.687
 4065SOL    HW213095   6.643   0.316   0.791
 4066SOL     OW13096   5.826   4.246   1.549
 4066SOL    HW113097   5.899   4.198   1.598
 4066SOL    HW213098   5.863   4.326   1.503
 4067SOL     OW13099   6.059   1.084   2.740
 4067SOL    HW113100   6.131   1.137   2.696
 4067SOL    HW213101   6.062   0.990   2.708
 4068SOL     OW13102   5.728   0.422   3.982
 4068SOL    HW113103   5.774   0.348   4.030
 4068SOL    HW213104   5.792   0.465   3.918
 4069SOL     OW13105   5.698   5.573   0.826
 4069SOL    HW113106   5.751   5.623   0.895
 4069SOL    HW213107   5.625   5.631   0.792
 4070SOL     OW13108   1.919   3.938   3.205
 4070SOL    HW113109   1.956   3.881   3.279
 4070SOL    HW213110   1.994   3.989   3.163
 4071SOL     OW13111   1.823   0.321   3.835
 4071SOL    HW113112   1.902   0.361   3.790
 4071SOL    HW213113   1.842   0.225   3.857
 4072SOL     OW13114   1.771   0.166   4.756
 4072SOL    HW113115   1.687   0.196   4.710
 4072SOL    HW213116   1.750   0.134   4.848
 4073SOL     OW13117   2.736   6.065   7.003
 4073SOL    HW113118   2.674   6.053   0.053
 4073SOL    HW213119   2.797   6.142   7.020
 4074SOL     OW13120   1.565   2.339   1.066
 4074SOL    HW113121   1.648   2.301   1.108
 4074SOL    HW213122   1.501   2.265   1.046
 4075SOL     OW13123   5.025   1.339   3.240
 4075SOL    HW113124   4.973   1.421   3.263
 4075SOL    HW213125   5.120   1.350   3.267
 4076SOL     OW13126   1.859   3.506   4.458
 4076SOL    HW113127   1.811   3.579   4.505
 4076SOL    HW213128   1.848   3.517   4.359
 4077SOL     OW13129   3.384   0.873   0.826
 4077SOL    HW113130   3.450   0.948   0.818
 4077SOL    HW213131   3.376   0.827   0.737
 4078SOL     OW13132   6.178   3.715   1.432
 4078SOL    HW113133   6.140   3.807   1.440
 4078SOL    HW213134   6.237   3.696   1.511
 4079SOL     OW13135   0.404   0.598   3.813
 4079SOL    HW113136   0.412   0.521   3.750
 4079SOL    HW213137   0.421   0.684   3.763
 4080SOL     OW13138   3.492   3.859   1.586
 4080SOL    HW113139   3.420   3.889   1.650
 4080SOL    HW213140   3.576   3.842   1.637
 4081SOL     OW13141   1.366   2.179   5.650
 4081SOL    HW113142   1.361   2.255   5.714
 4081SOL    HW213143   1.461   2.168   5.619
 4082SOL     OW13144   0.968   2.836   4.801
 4082SOL    HW113145   0.922   2.840   4.890
 4082SOL    HW213146   0.993   2.742   4.781
 4083SOL     OW13147   5.511   4.867   3.450
 4083SOL    HW113148   5.566   4.945   3.421
 4083SOL    HW213149   5.474   4.884   3.541
 4084SOL     OW13150   4.084   0.983   3.239
 4084SOL    HW113151   4.132   1.067   3.214
 4084SOL    HW213152   3.992   0.984   3.200
 4085SOL     OW13153   3.075   5.060   2.070
 4085SOL    HW113154   3.018   4.999   2.125
 4085SOL    HW213155   3.130   5.006   2.007
 4086SOL     OW13156   6.385   5.549   6.189
 4086SOL    HW113157   6.455   5.613   6.223
 4086SOL    HW213158   6.362   5.484   6.261
 4087SOL     OW13159   2.154   0.094   2.644
 4087SOL    HW113160   2.211   0.133   2.716
 4087SOL    HW213161   2.106   0.167   2.596
 4088SOL     OW13162   0.433   1.202   5.292
 4088SOL    HW113163   0.416   1.298   5.314
 4088SOL    HW213164   0.514   1.170   5.341
 4089SOL     OW13165   0.306   0.154   3.663
 4089SOL    HW113166   0.240   0.138   3.590
 4089SOL    HW213167   0.366   0.074   3.671
 4090SOL     OW13168   2.602   0.244   5.440
 4090SOL    HW113169   2.624   0.147   5.442
 4090SOL    HW213170   2.686   0.297   5.441
 4091SOL     OW13171   2.151   5.550   1.319
 4091SOL    HW113172   2.209   5.493   1.377
 4091SOL    HW213173   2.193   5.559   1.228
 4092SOL     OW13174   4.914   3.188   4.115
 4092SOL    HW113175   4.923   3.287   4.126
 4092SOL    HW213176   4.886   3.147   4.201
 4093SOL     OW13177   5.273   5.828   3.130
 4093SOL    HW113178   5.361   5.783   3.142
 4093SOL    HW213179   5.203   5.760   3.111
 4094SOL     OW13180   6.958   5.726   6.779
 4094SOL    HW113181   7.007   5.779   6.710
 4094SOL    HW213182   7.004   5.639   6.793
 4095SOL     OW13183   0.051   5.067   0.127
 4095SOL    HW113184   0.010   5.154   0.101
 4095SOL    HW213185   0.054   5.007   0.047
 4096SOL     OW13186   1.731   1.995   6.847
 4096SOL    HW113187   1.753   1.937   6.769
 4096SOL    HW213188   1.774   2.085   6.835
 4097SOL     OW13189   0.003   4.610   5.195
 4097SOL    HW113190   6.935   4.612   5.167
 4097SOL    HW213191   0.009   4.610   5.294
 4098SOL     OW13192   2.177   4.750   3.327
 4098SOL    HW113193   2.186   4.778   3.422
 4098SOL    HW213194   2.268   4.739   3.287
 4099SOL     OW13195   4.565   4.702   6.000
 4099SOL    HW113196   4.596   4.727   5.908
 4099SOL    HW213197   4.623   4.628   6.035
 4100SOL     OW13198   1.505   0.634   3.527
 4100SOL    HW113199   1.409   0.616   3.550
 4100SOL    HW213200   1.509   0.689   3.444
 4101SOL     OW13201   6.367   0.524   7.008
 4101SOL    HW113202   6.358   0.472   0.066
 4101SOL    HW213203   6.276   0.540   6.969
 4102SOL     OW13204   1.757   0.831   6.880
 4102SOL    HW113205   1.763   0.899   6.807
 4102SOL    HW213206   1.849   0.811   6.914
 4103SOL     OW13207   1.598   6.440   2.368
 4103SOL    HW113208   1.560   6.394   2.288
 4103SOL    HW213209   1.690   6.405   2.386
 4104SOL     OW13210   0.346   5.774   3.852
 4104SOL    HW113211   0.380   5.699   3.796
 4104SOL    HW213212   0.273   5.822   3.804
 4105SOL     OW13213   4.852   1.026   0.993
 4105SOL    HW113214   4.832   0.928   1.000
 4105SOL    HW213215   4.948   1.038   0.966
 4106SOL     OW13216   0.247   2.277   3.522
 4106SOL    HW113217   0.171   2.321   3.570
 4106SOL    HW213218   0.227   2.276   3.424
 4107SOL     OW13219   0.027   6.471   6.423
 4107SOL    HW113220   0.008   6.422   6.508
 4107SOL    HW213221   6.983   6.453   6.357
 4108SOL     OW13222   6.588   5.288   3.966
 4108SOL    HW113223   6.573   5.219   4.036
 4108SOL    HW213224   6.512   5.286   3.901
 4109SOL     OW13225   6.173   6.439   3.362
 4109SOL    HW113226   6.148   6.409   3.269
 4109SOL    HW213227   6.166   6.361   3.424
 4110SOL     OW13228   4.624   4.240   0.337
 4110SOL    HW113229   4.633   4.224   0.435
 4110SOL    HW213230   4.565   4.170   0.297
 4111SOL     OW13231   6.945   3.917   3.916
 4111SOL    HW113232   0.001   3.882   3.959
 4111SOL    HW213233   6.876   3.934   3.986
 4112SOL     OW13234   4.856   0.006   4.811
 4112SOL    HW113235   4.862   6.989   4.900
 4112SOL    HW213236   4.881   0.103   4.821
 4113SOL     OW13237   4.602   4.621   4.606
 4113SOL    HW113238   4.670   4.623   4.533
 4113SOL    HW213239   4.645   4.646   4.692
 4114SOL     OW13240   6.927   1.352   2.647
 4114SOL    HW113241   6.893   1.257   2.646
 4114SOL    HW213242   6.947   1.380   2.553
 4115SOL     OW13243   3.412   5.026   3.947
 4115SOL    HW113244   3.377   5.099   3.887
 4115SOL    HW213245   3.488   5.062   4.002
 4116SOL     OW13246   5.237   2.533   3.261
 4116SOL    HW113247   5.200   2.600   3.196
 4116SOL    HW213248   5.162   2.483   3.303
 4117SOL     OW13249   1.225   2.430   2.732
 4117SOL    HW113250   1.220   2.405   2.829
 4117SOL    HW213251   1.302   2.491   2.717
 4118SOL     OW13252   6.806   6.819   6.149
 4118SOL    HW113253   6.712   6.790   6.138
 4118SOL    HW213254   6.855   6.753   6.206
 4119SOL     OW13255   2.013   1.198   3.651
 4119SOL    HW113256   1.992   1.295   3.664
 4119SOL    HW213257   2.071   1.166   3.726
 4120SOL     OW13258   2.141   1.084   6.416
 4120SOL    HW113259   2.102   1.047   6.332
 4120SOL    HW213260   2.081   1.156   6.452
 4121SOL     OW13261   6.961   6.920   1.699
 4121SOL    HW113262   6.972   7.018   1.680
 4121SOL    HW213263   6.866   6.894   1.688
 4122SOL     OW13264   6.848   4.611   4.325
 4122SOL    HW113265   6.941   4.646   4.318
 4122SOL    HW213266   6.788   4.664   4.265
 4123SOL     OW13267   3.889   4.850   2.484
 4123SOL    HW113268   3.917   4.942   2.457
 4123SOL    HW213269   3.831   4.810   2.414
 4124SOL     OW13270   6.625   5.893   0.199
 4124SOL    HW113271   6.724   5.902   0.206
 4124SOL    HW213272   6.580   5.974   0.237
 4125SOL     OW13273   5.682   2.025   2.217
 4125SOL    HW113274   5.765   1.970   2.228
 4125SOL    HW213275   5.645   2.048   2.307
 4126SOL     OW13276   1.019   3.255   2.004
 4126SOL    HW113277   1.001   3.165   1.964
 4126SOL    HW213278   1.081   3.245   2.082
 4127SOL     OW13279   3.873   1.867   4.153
 4127SOL    HW113280   3.972   1.857   4.141
 4127SOL    HW213281   3.848   1.963   4.138
 4128SOL     OW13282   0.083   3.454   1.046
 4128SOL    HW113283   0.063   3.443   1.143
 4128SOL    HW213284   7.027   3.439   0.992
 4129SOL     OW13285   2.746   2.919   0.663
 4129SOL    HW113286   2.759   2.840   0.723
 4129SOL    HW213287   2.782   2.897   0.572
 4130SOL     OW13288   6.099   3.004   1.509
 4130SOL    HW113289   6.111   3.074   1.579
 4130SOL    HW213290   6.070   3.046   1.423
 4131SOL     OW13291   4.367   0.813   2.479
 4131SOL    HW113292   4.414   0.859   2.554
 4131SOL    HW213293   4.423   0.736   2.448
 4132SOL     OW13294   6.975   4.121   4.408
 4132SOL    HW113295   7.017   4.150   4.322
 4132SOL    HW213296   6.980   4.021   4.415
 4133SOL     OW13297   5.765   6.896   2.075
 4133SOL    HW113298   5.786   6.992   2.088
 4133SOL    HW213299   5.822   6.841   2.137
 4134SOL     OW13300   2.354   3.269   1.074
 4134SOL    HW113301   2.284   3.203   1.103
 4134SOL    HW213302   2.407   3.297   1.154
 4135SOL     OW13303   6.884   0.896   2.445
 4135SOL    HW113304   6.930   0.894   2.356
 4135SOL    HW213305   6.894   0.806   2.489
 4136SOL     OW13306   1.599   4.671   2.229
 4136SOL    HW113307   1.590   4.761   2.270
 4136SOL    HW213308   1.550   4.604   2.284
 4137SOL     OW13309   1.534   2.989   0.290
 4137SOL    HW113310   1.531   3.013   0.193
 4137SOL    HW213311   1.628   2.968   0.316
 4138SOL     OW13312   4.631   6.434   0.713
 4138SOL    HW113313   4.582   6.364   0.764
 4138SOL    HW213314   4.683   6.491   0.776
 4139SOL     OW13315   2.338   2.509   3.018
 4139SOL    HW113316   2.408   2.521   3.089
 4139SOL    HW213317   2.249   2.537   3.054
 4140SOL     OW13318   2.341   2.276   4.723
 4140SOL    HW113319   2.286   2.317   4.796
 4140SOL    HW213320   2.343   2.337   4.644
 4141SOL     OW13321   4.300   0.075   7.016
 4141SOL    HW113322   4.305   0.043   6.922
 4141SOL    HW213323   4.373   0.140   0.006
 4142SOL     OW13324   0.762   4.453   3.008
 4142SOL    HW113325   0.750   4.428   3.105
 4142SOL    HW213326   0.681   4.502   2.976
 4143SOL     OW13327   5.805   2.853   0.751
 4143SOL    HW113328   5.878   2.788   0.773
 4143SOL    HW213329   5.737   2.807   0.692
 4144SOL     OW13330   5.760   1.856   0.447
 4144SOL    HW113331   5.673   1.877   0.492
 4144SOL    HW213332   5.767   1.906   0.361
 4145SOL     OW13333   0.283   6.790   1.328
 4145SOL    HW113334   0.268   6.696   1.360
 4145SOL    HW213335   0.223   6.808   1.250
 4146SOL     OW13336   5.298   6.903   3.877
 4146SOL    HW113337   5.371   6.851   3.923
 4146SOL    HW213338   5.226   6.841   3.849
 4147SOL     OW13339   4.999   4.154   5.303
 4147SOL    HW113340   5.012   4.242   5.257
 4147SOL    HW213341   4.974   4.085   5.235
 4148SOL     OW13342   2.923   1.803   5.900
 4148SOL    HW113343   2.934   1.720   5.955
 4148SOL    HW213344   2.992   1.804   5.827
 4149SOL     OW13345   1.799   2.964   0.339
 4149SOL    HW113346   1.881   2.942   0.287
 4149SOL    HW213347   1.810   2.935   0.434
 4150SOL     OW13348   5.644   2.446   6.182
 4150SOL    HW113349   5.594   2.502   6.248
 4150SOL    HW213350   5.593   2.443   6.095
 4151SOL     OW13351   2.463   6.642   4.803
 4151SOL    HW113352   2.470   6.725   4.748
 4151SOL    HW213353   2.421   6.569   4.750
 4152SOL     OW13354   3.284   5.454   1.654
 4152SOL    HW113355   3.258   5.383   1.589
 4152SOL    HW213356   3.220   5.531   1.646
 4153SOL     OW13357   0.194   4.912   1.767
 4153SOL    HW113358   0.237   4.957   1.845
 4153SOL    HW213359   0.216   4.962   1.683
 4154SOL     OW13360   1.239   5.863   4.561
 4154SOL    HW113361   1.248   5.961   4.546
 4154SOL    HW213362   1.187   5.846   4.644
 4155SOL     OW13363   0.871   2.204   1.877
 4155SOL    HW113364   0.952   2.260   1.860
 4155SOL    HW213365   0.829   2.230   1.964
 4156SOL     OW13366   6.911   5.232   5.121
 4156SOL    HW113367   6.967   5.149   5.121
 4156SOL    HW213368   6.866   5.242   5.032
 4157SOL     OW13369   6.879   6.021   2.035
 4157SOL    HW113370   6.891   5.944   1.972
 4157SOL    HW213371   6.817   6.088   1.994
 4158SOL     OW13372   1.687   2.401   2.007
 4158SOL    HW113373   1.716   2.449   1.924
 4158SOL    HW213374   1.766   2.391   2.068
 4159SOL     OW13375   2.597   1.436   3.297
 4159SOL    HW113376   2.521   1.388   3.342
 4159SOL    HW213377   2.679   1.429   3.353
 4160SOL     OW13378   6.455   0.118   6.511
 4160SOL    HW113379   6.519   0.054   6.554
 4160SOL    HW213380   6.473   0.122   6.413
 4161SOL     OW13381   2.693   2.471   1.532
 4161SOL    HW113382   2.598   2.493   1.551
 4161SOL    HW213383   2.698   2.386   1.479
 4162SOL     OW13384   6.777   6.529   1.293
 4162SOL    HW113385   6.788   6.565   1.200
 4162SOL    HW213386   6.683   6.544   1.323
 4163SOL     OW13387   3.796   6.428   1.114
 4163SOL    HW113388   3.800   6.364   1.038
 4163SOL    HW213389   3.703   6.465   1.121
 4164SOL     OW13390   0.132   6.837   4.911
 4164SOL    HW113391   0.188   6.770   4.959
 4164SOL    HW213392   0.189   6.885   4.844
 4165SOL     OW13393   4.313   1.158   5.649
 4165SOL    HW113394   4.410   1.151   5.630
 4165SOL    HW213395   4.260   1.132   5.568
 4166SOL     OW13396   5.792   0.670   2.746
 4166SOL    HW113397   5.852   0.606   2.794
 4166SOL    HW213398   5.800   0.761   2.788
 4167SOL     OW13399   4.107   4.930   5.486
 4167SOL    HW113400   4.060   4.857   5.436
 4167SOL    HW213401   4.067   5.018   5.461
 4168SOL     OW13402   6.024   4.257   0.283
 4168SOL    HW113403   6.106   4.309   0.307
 4168SOL    HW213404   6.028   4.166   0.324
 4169SOL     OW13405   4.931   3.894   5.098
 4169SOL    HW113406   4.870   3.819   5.072
 4169SOL    HW213407   4.989   3.918   5.020
 4170SOL     OW13408   5.659   3.084   4.512
 4170SOL    HW113409   5.737   3.131   4.470
 4170SOL    HW213410   5.684   3.051   4.603
 4171SOL     OW13411   1.444   3.992   1.025
 4171SOL    HW113412   1.476   3.946   0.942
 4171SOL    HW213413   1.515   4.056   1.057
 4172SOL     OW13414   3.205   3.641   0.881
 4172SOL    HW113415   3.140   3.614   0.952
 4172SOL    HW213416   3.165   3.714   0.825
 4173SOL     OW13417   4.576   2.785   5.348
 4173SOL    HW113418   4.634   2.722   5.296
 4173SOL    HW213419   4.480   2.764   5.331
 4174SOL     OW13420   4.421   0.708   4.472
 4174SOL    HW113421   4.382   0.696   4.563
 4174SOL    HW213422   4.463   0.623   4.442
 4175SOL     OW13423   2.056   4.339   6.798
 4175SOL    HW113424   2.000   4.297   6.869
 4175SOL    HW213425   2.054   4.438   6.808
 4176SOL     OW13426   4.716   6.576   6.846
 4176SOL    HW113427   4.736   6.507   6.915
 4176SOL    HW213428   4.661   6.649   6.886
 4177SOL     OW13429   4.719   4.832   4.414
 4177SOL    HW113430   4.716   4.904   4.483
 4177SOL    HW213431   4.785   4.762   4.442
 4178SOL     OW13432   3.054   5.692   2.181
 4178SOL    HW113433   3.146   5.666   2.150
 4178SOL    HW213434   3.030   5.638   2.262
 4179SOL     OW13435   5.094   3.052   3.957
 4179SOL    HW113436   5.036   3.106   4.017
 4179SOL    HW213437   5.059   3.058   3.863
 4180SOL     OW13438   5.552   3.237   0.619
 4180SOL    HW113439   5.558   3.329   0.658
 4180SOL    HW213440   5.574   3.169   0.689
 4181SOL     OW13441   5.401   0.203   5.217
 4181SOL    HW113442   5.324   0.166   5.269
 4181SOL    HW213443   5.485   0.196   5.271
 4182SOL     OW13444   0.360   6.072   4.132
 4182SOL    HW113445   0.364   5.996   4.196
 4182SOL    HW213446   0.292   6.139   4.164
 4183SOL     OW13447   2.439   1.369   2.220
 4183SOL    HW113448   2.482   1.456   2.196
 4183SOL    HW213449   2.483   1.294   2.170
 4184SOL     OW13450   3.469   6.294   3.210
 4184SOL    HW113451   3.462   6.303   3.111
 4184SOL    HW213452   3.377   6.282   3.249
 4185SOL     OW13453   6.975   3.527   3.134
 4185SOL    HW113454   6.923   3.454   3.090
 4185SOL    HW213455   6.919   3.570   3.205
 4186SOL     OW13456   1.343   5.893   6.482
 4186SOL    HW113457   1.386   5.807   6.510
 4186SOL    HW213458   1.396   5.934   6.407
 4187SOL     OW13459   1.913   3.587   6.694
 4187SOL    HW113460   1.894   3.636   6.609
 4187SOL    HW213461   1.901   3.489   6.680
 4188SOL     OW13462   5.011   0.486   6.643
 4188SOL    HW113463   4.989   0.582   6.627
 4188SOL    HW213464   5.110   0.474   6.648
 4189SOL     OW13465   4.724   5.777   2.816
 4189SOL    HW113466   4.752   5.697   2.869
 4189SOL    HW213467   4.793   5.798   2.747
 4190SOL     OW13468   0.352   6.923   0.783
 4190SOL    HW113469   0.417   6.896   0.854
 4190SOL    HW213470   0.295   6.845   0.759
 4191SOL     OW13471   5.056   4.283   6.008
 4191SOL    HW113472   4.992   4.332   5.949
 4191SOL    HW213473   5.057   4.186   5.983
 4192SOL     OW13474   1.438   1.852   2.428
 4192SOL    HW113475   1.519   1.884   2.377
 4192SOL    HW213476   1.449   1.756   2.451
 4193SOL     OW13477   6.144   0.665   0.890
 4193SOL    HW113478   6.129   0.586   0.949
 4193SOL    HW213479   6.078   0.663   0.814
 4194SOL     OW13480   4.497   0.991   5.369
 4194SOL    HW113481   4.504   0.900   5.410
 4194SOL    HW213482   4.528   0.988   5.274
 4195SOL     OW13483   4.636   6.241   1.932
 4195SOL    HW113484   4.689   6.177   1.877
 4195SOL    HW213485   4.688   6.325   1.946
 4196SOL     OW13486   6.631   2.187   3.538
 4196SOL    HW113487   6.586   2.113   3.589
 4196SOL    HW213488   6.701   2.149   3.478
 4197SOL     OW13489   3.538   6.191   6.114
 4197SOL    HW113490   3.547   6.107   6.062
 4197SOL    HW213491   3.442   6.205   6.138
 4198SOL     OW13492   6.622   0.204   2.288
 4198SOL    HW113493   6.541   0.256   2.315
 4198SOL    HW213494   6.689   0.207   2.363
 4199SOL     OW13495   1.631   4.219   6.356
 4199SOL    HW113496   1.536   4.186   6.351
 4199SOL    HW213497   1.690   4.145   6.387
 4200SOL     OW13498   4.104   0.770   5.328
 4200SOL    HW113499   4.023   0.711   5.330
 4200SOL    HW213500   4.174   0.728   5.270
 4201SOL     OW13501   6.395   6.864   3.959
 4201SOL    HW113502   6.379   6.875   4.057
 4201SOL    HW213503   6.483   6.818   3.944
 4202SOL     OW13504   3.587   5.832   0.367
 4202SOL    HW113505   3.614   5.740   0.397
 4202SOL    HW213506   3.668   5.883   0.338
 4203SOL     OW13507   5.626   5.253   0.348
 4203SOL    HW113508   5.555   5.184   0.361
 4203SOL    HW213509   5.710   5.225   0.394
 4204SOL     OW13510   3.315   3.536   5.740
 4204SOL    HW113511   3.226   3.495   5.758
 4204SOL    HW213512   3.387   3.469   5.759
 4205SOL     OW13513   3.694   5.733   5.030
 4205SOL    HW113514   3.723   5.829   5.032
 4205SOL    HW213515   3.660   5.711   4.939
 4206SOL     OW13516   1.549   1.761   4.915
 4206SOL    HW113517   1.525   1.858   4.914
 4206SOL    HW213518   1.482   1.711   4.970
 4207SOL     OW13519   2.275   2.307   1.435
 4207SOL    HW113520   2.206   2.355   1.381
 4207SOL    HW213521   2.316   2.370   1.501
 4208SOL     OW13522   1.771   4.156   5.264
 4208SOL    HW113523   1.747   4.063   5.292
 4208SOL    HW213524   1.751   4.168   5.167
 4209SOL     OW13525   0.364   5.815   2.661
 4209SOL    HW113526   0.341   5.748   2.732
 4209SOL    HW213527   0.317   5.790   2.576
 4210SOL     OW13528   3.975   3.423   4.968
 4210SOL    HW113529   3.877   3.433   4.986
 4210SOL    HW213530   3.997   3.326   4.953
 4211SOL     OW13531   3.622   2.169   5.187
 4211SOL    HW113532   3.673   2.087   5.159
 4211SOL    HW213533   3.525   2.148   5.194
 4212SOL     OW13534   0.010   1.198   3.549
 4212SOL    HW113535   0.055   1.110   3.535
 4212SOL    HW213536   6.954   1.201   3.493
 4213SOL     OW13537   2.839   1.130   2.823
 4213SOL    HW113538   2.749   1.110   2.863
 4213SOL    HW213539   2.841   1.097   2.729
 4214SOL     OW13540   0.676   5.282   4.030
 4214SOL    HW113541   0.633   5.364   3.994
 4214SOL    HW213542   0.713   5.301   4.122
 4215SOL     OW13543   4.803   6.108   5.154
 4215SOL    HW113544   4.767   6.046   5.225
 4215SOL    HW213545   4.898   6.084   5.135
 4216SOL     OW13546   1.517   0.589   3.094
 4216SOL    HW113547   1.447   0.659   3.076
 4216SOL    HW213548   1.595   0.603   3.033
 4217SOL     OW13549   1.198   0.035   1.925
 4217SOL    HW113550   1.202   6.965   1.947
 4217SOL    HW213551   1.111   0.056   1.880
 4218SOL     OW13552   3.674   1.386   1.224
 4218SOL    HW113553   3.755   1.388   1.166
 4218SOL    HW213554   3.632   1.477   1.226
 4219SOL     OW13555   4.121   6.067   4.397
 4219SOL    HW113556   4.154   6.061   4.491
 4219SOL    HW213557   4.042   6.128   4.393
 4220SOL     OW13558   5.192   2.115   1.607
 4220SOL    HW113559   5.117   2.079   1.662
 4220SOL    HW213560   5.195   2.214   1.617
 4221SOL     OW13561   6.616   5.209   6.724
 4221SOL    HW113562   6.591   5.275   6.653
 4221SOL    HW213563   6.555   5.130   6.719
 4222SOL     OW13564   5.508   1.866   3.589
 4222SOL    HW113565   5.475   1.772   3.581
 4222SOL    HW213566   5.507   1.894   3.685
 4223SOL     OW13567   4.164   3.951   1.332
 4223SOL    HW113568   4.261   3.946   1.354
 4223SOL    HW213569   4.117   3.873   1.374
 4224SOL     OW13570   5.181   3.977   4.937
 4224SOL    HW113571   5.254   4.044   4.949
 4224SOL    HW213572   5.142   3.986   4.845
 4225SOL     OW13573   0.836   2.207   5.340
 4225SOL    HW113574   0.887   2.260   5.407
 4225SOL    HW213575   0.870   2.228   5.248
 4226SOL     OW13576   0.476   5.842   4.752
 4226SOL    HW113577   0.525   5.927   4.773
 4226SOL    HW213578   0.472   5.784   4.833
 4227SOL     OW13579   5.054   6.060   1.704
 4227SOL    HW113580   5.031   6.127   1.775
 4227SOL    HW213581   5.154   6.047   1.701
 4228SOL     OW13582   1.041   5.814   4.769
 4228SOL    HW113583   0.948   5.842   4.794
 4228SOL    HW213584   1.036   5.738   4.704
 4229SOL     OW13585   5.693   5.859   6.015
 4229SOL    HW113586   5.778   5.848   5.963
 4229SOL    HW213587   5.619   5.812   5.968
 4230SOL     OW13588   1.383   0.108   2.881
 4230SOL    HW113589   1.410   0.094   2.786
 4230SOL    HW213590   1.296   0.063   2.899
 4231SOL     OW13591   5.120   0.830   5.536
 4231SOL    HW113592   5.165   0.819   5.447
 4231SOL    HW213593   5.189   0.850   5.605
 4232SOL     OW13594   2.462   5.299   3.543
 4232SOL    HW113595   2.507   5.224   3.493
 4232SOL    HW213596   2.363   5.292   3.533
 4233SOL     OW13597   7.027   6.547   4.208
 4233SOL    HW113598   0.041   6.626   4.254
 4233SOL    HW213599   7.026   6.469   4.270
 4234SOL     OW13600   2.014   5.545   5.296
 4234SOL    HW113601   1.974   5.453   5.294
 4234SOL    HW213602   1.992   5.593   5.212
 4235SOL     OW13603   6.722   4.784   5.645
 4235SOL    HW113604   6.716   4.738   5.734
 4235SOL    HW213605   6.754   4.878   5.659
 4236SOL     OW13606   0.496   5.340   2.728
 4236SOL    HW113607   0.563   5.414   2.737
 4236SOL    HW213608   0.538   5.263   2.680
 4237SOL     OW13609   6.609   3.749   3.991
 4237SOL    HW113610   6.515   3.729   3.965
 4237SOL    HW213611   6.671   3.717   3.919
 4238SOL     OW13612   1.457   0.817   3.338
 4238SOL    HW113613   1.364   0.811   3.374
 4238SOL    HW213614   1.459   0.789   3.242
 4239SOL     OW13615   4.295   1.113   3.056
 4239SOL    HW113616   4.386   1.150   3.073
 4239SOL    HW213617   4.282   1.100   2.957
 4240SOL     OW13618   1.822   5.411   0.158
 4240SOL    HW113619   1.920   5.399   0.168
 4240SOL    HW213620   1.778   5.322   0.146
 4241SOL     OW13621   6.842   1.704   0.756
 4241SOL    HW113622   6.760   1.646   0.750
 4241SOL    HW213623   6.883   1.712   0.665
 4242SOL     OW13624   2.358   2.364   4.004
 4242SOL    HW113625   2.267   2.377   4.046
 4242SOL    HW213626   2.380   2.267   4.002
 4243SOL     OW13627   5.135   0.979   2.673
 4243SOL    HW113628   5.086   0.915   2.613
 4243SOL    HW213629   5.078   1.000   2.753
 4244SOL     OW13630   3.749   3.676   1.995
 4244SOL    HW113631   3.795   3.593   2.027
 4244SOL    HW213632   3.703   3.720   2.072
 4245SOL     OW13633   6.856   1.761   6.218
 4245SOL    HW113634   6.887   1.703   6.294
 4245SOL    HW213635   6.864   1.857   6.243
 4246SOL     OW13636   6.740   4.171   3.292
 4246SOL    HW113637   6.798   4.248   3.320
 4246SOL    HW213638   6.770   4.138   3.202
 4247SOL     OW13639   0.131   6.428   4.455
 4247SOL    HW113640   0.197   6.502   4.460
 4247SOL    HW213641   0.054   6.448   4.516
 4248SOL     OW13642   1.214   2.243   5.114
 4248SOL    HW113643   1.229   2.179   5.189
 4248SOL    HW213644   1.271   2.217   5.036
 4249SOL     OW13645   6.429   3.011   5.711
 4249SOL    HW113646   6.503   3.019   5.778
 4249SOL    HW213647   6.462   2.961   5.631
 4250SOL     OW13648   0.159   4.652   3.648
 4250SOL    HW113649   0.256   4.656   3.672
 4250SOL    HW213650   0.135   4.732   3.593
 4251SOL     OW13651   6.245   4.045   0.260
 4251SOL    HW113652   6.192   4.049   0.344
 4251SOL    HW213653   6.231   3.957   0.215
 4252SOL     OW13654   6.424   6.099   4.951
 4252SOL    HW113655   6.473   6.139   4.874
 4252SOL    HW213656   6.327   6.091   4.927
 4253SOL     OW13657   3.807   0.566   1.864
 4253SOL    HW113658   3.845   0.474   1.869
 4253SOL    HW213659   3.736   0.576   1.934
 4254SOL     OW13660   1.575   3.124   1.761
 4254SOL    HW113661   1.479   3.103   1.783
 4254SOL    HW213662   1.584   3.222   1.743
 4255SOL     OW13663   6.298   2.284   3.676
 4255SOL    HW113664   6.350   2.241   3.749
 4255SOL    HW213665   6.332   2.252   3.587
 4256SOL     OW13666   1.438   6.662   1.089
 4256SOL    HW113667   1.386   6.737   1.132
 4256SOL    HW213668   1.390   6.632   1.006
 4257SOL     OW13669   3.230   1.389   5.650
 4257SOL    HW113670   3.179   1.317   5.603
 4257SOL    HW213671   3.318   1.401   5.606
 4258SOL     OW13672   5.772   6.462   2.083
 4258SOL    HW113673   5.720   6.540   2.047
 4258SOL    HW213674   5.811   6.486   2.172
 4259SOL     OW13675   2.296   1.210   6.789
 4259SOL    HW113676   2.351   1.128   6.797
 4259SOL    HW213677   2.306   1.248   6.697
 4260SOL     OW13678   4.091   5.987   3.816
 4260SOL    HW113679   4.181   5.944   3.817
 4260SOL    HW213680   4.084   6.049   3.739
 4261SOL     OW13681   2.503   6.950   1.655
 4261SOL    HW113682   2.591   6.958   1.701
 4261SOL    HW213683   2.512   6.983   1.561
 4262SOL     OW13684   1.483   5.184   5.699
 4262SOL    HW113685   1.461   5.093   5.733
 4262SOL    HW213686   1.515   5.241   5.776
 4263SOL     OW13687   2.633   6.409   4.488
 4263SOL    HW113688   2.661   6.315   4.472
 4263SOL    HW213689   2.639   6.429   4.586
 4264SOL     OW13690   0.086   1.680   0.893
 4264SOL    HW113691   0.123   1.760   0.846
 4264SOL    HW213692   7.014   1.681   0.889
 4265SOL     OW13693   6.402   1.771   6.978
 4265SOL    HW113694   6.499   1.788   6.956
 4265SOL    HW213695   6.390   1.674   7.000
 4266SOL     OW13696   2.922   5.274   0.043
 4266SOL    HW113697   2.905   5.334   6.991
 4266SOL    HW213698   2.878   5.186   0.027
 4267SOL     OW13699   2.158   3.769   4.984
 4267SOL    HW113700   2.221   3.846   4.995
 4267SOL    HW213701   2.133   3.761   4.888
 4268SOL     OW13702   1.586   6.695   0.078
 4268SOL    HW113703   1.648   6.738   0.012
 4268SOL    HW213704   1.566   6.601   0.048
 4269SOL     OW13705   2.224   2.172   0.344
 4269SOL    HW113706   2.276   2.097   0.304
 4269SOL    HW213707   2.180   2.140   0.428
 4270SOL     OW13708   3.998   3.153   4.781
 4270SOL    HW113709   4.022   3.157   4.878
 4270SOL    HW213710   3.898   3.151   4.772
 4271SOL     OW13711   0.410   7.006   5.364
 4271SOL    HW113712   0.338   0.039   5.398
 4271SOL    HW213713   0.381   6.911   5.374
 4272SOL     OW13714   6.891   4.958   4.624
 4272SOL    HW113715   6.896   5.023   4.549
 4272SOL    HW213716   6.798   4.955   4.660
 4273SOL     OW13717   4.471   6.360   4.292
 4273SOL    HW113718   4.571   6.365   4.295
 4273SOL    HW213719   4.443   6.283   4.234
 4274SOL     OW13720   0.572   6.933   3.274
 4274SOL    HW113721   0.483   6.978   3.271
 4274SOL    HW213722   0.626   6.961   3.194
 4275SOL     OW13723   6.739   0.767   5.959
 4275SOL    HW113724   6.713   0.683   5.912
 4275SOL    HW213725   6.677   0.782   6.036
 4276SOL     OW13726   1.380   5.370   2.664
 4276SOL    HW113727   1.331   5.302   2.719
 4276SOL    HW213728   1.345   5.461   2.684
 4277SOL     OW13729   0.020   4.214   3.893
 4277SOL    HW113730   0.039   4.188   3.798
 4277SOL    HW213731   6.950   4.211   3.910
 4278SOL     OW13732   6.993   6.941   5.135
 4278SOL    HW113733   0.015   6.941   5.048
 4278SOL    HW213734   6.930   7.019   5.137
 4279SOL     OW13735   3.574   6.454   5.561
 4279SOL    HW113736   3.528   6.541   5.546
 4279SOL    HW213737   3.520   6.399   5.625
 4280SOL     OW13738   5.702   1.344   5.417
 4280SOL    HW113739   5.629   1.373   5.479
 4280SOL    HW213740   5.764   1.420   5.400
 4281SOL     OW13741   1.719   4.840   4.627
 4281SOL    HW113742   1.740   4.746   4.602
 4281SOL    HW213743   1.623   4.849   4.652
 4282SOL     OW13744   2.507   2.127   0.111
 4282SOL    HW113745   2.495   2.038   0.155
 4282SOL    HW213746   2.493   2.118   0.013
 4283SOL     OW13747   1.586   0.457   3.868
 4283SOL    HW113748   1.553   0.413   3.952
 4283SOL    HW213749   1.683   0.440   3.857
 4284SOL     OW13750   5.607   6.987   2.616
 4284SOL    HW113751   5.592   7.024   2.524
 4284SOL    HW213752   5.619   6.887   2.610
 4285SOL     OW13753   0.466   7.007   5.948
 4285SOL    HW113754   0.529   6.954   5.891
 4285SOL    HW213755   0.501   7.012   6.042
 4286SOL     OW13756   5.212   5.324   6.438
 4286SOL    HW113757   5.121   5.366   6.434
 4286SOL    HW213758   5.230   5.275   6.353
 4287SOL     OW13759   5.905   0.720   4.938
 4287SOL    HW113760   5.886   0.729   4.840
 4287SOL    HW213761   5.918   0.623   4.960
 4288SOL     OW13762   0.832   6.610   3.304
 4288SOL    HW113763   0.850   6.560   3.389
 4288SOL    HW213764   0.873   6.701   3.309
 4289SOL     OW13765   5.618   2.463   2.017
 4289SOL    HW113766   5.525   2.501   2.014
 4289SOL    HW213767   5.656   2.462   1.924
 4290SOL     OW13768   2.392   6.726   1.183
 4290SOL    HW113769   2.354   6.669   1.110
 4290SOL    HW213770   2.486   6.751   1.159
 4291SOL     OW13771   4.798   3.340   1.383
 4291SOL    HW113772   4.860   3.345   1.460
 4291SOL    HW213773   4.705   3.323   1.416
 4292SOL     OW13774   6.070   4.614   5.568
 4292SOL    HW113775   6.084   4.712   5.552
 4292SOL    HW213776   6.012   4.601   5.649
 4293SOL     OW13777   6.770   3.963   6.416
 4293SOL    HW113778   6.716   3.909   6.480
 4293SOL    HW213779   6.802   3.904   6.342
 4294SOL     OW13780   4.685   2.888   6.576
 4294SOL    HW113781   4.669   2.948   6.655
 4294SOL    HW213782   4.608   2.893   6.513
 4295SOL     OW13783   3.916   0.155   4.829
 4295SOL    HW113784   3.921   0.185   4.924
 4295SOL    HW213785   3.847   0.083   4.821
 4296SOL     OW13786   2.301   1.938   0.227
 4296SOL    HW113787   2.346   1.882   0.296
 4296SOL    HW213788   2.303   1.890   0.139
 4297SOL     OW13789   5.013   6.859   5.487
 4297SOL    HW113790   5.110   6.838   5.493
 4297SOL    HW213791   4.963   6.777   5.458
 4298SOL     OW13792   1.577   5.278   0.115
 4298SOL    HW113793   1.592   5.187   0.076
 4298SOL    HW213794   1.515   5.270   0.193
 4299SOL     OW13795   1.456   3.341   6.305
 4299SOL    HW113796   1.549   3.377   6.299
 4299SOL    HW213797   1.437   3.310   6.398
 4300SOL     OW13798   2.887   1.353   6.081
 4300SOL    HW113799   2.840   1.327   5.997
 4300SOL    HW213800   2.827   1.410   6.137
 4301SOL     OW13801   2.767   1.442   0.623
 4301SOL    HW113802   2.718   1.525   0.595
 4301SOL    HW213803   2.738   1.365   0.566
 4302SOL     OW13804   1.327   6.395   6.145
 4302SOL    HW113805   1.270   6.353   6.074
 4302SOL    HW213806   1.331   6.493   6.130
 4303SOL     OW13807   6.546   4.674   3.112
 4303SOL    HW113808   6.538   4.621   3.196
 4303SOL    HW213809   6.516   4.619   3.035
 4304SOL     OW13810   3.378   3.462   4.344
 4304SOL    HW113811   3.322   3.510   4.277
 4304SOL    HW213812   3.399   3.370   4.310
 4305SOL     OW13813   6.159   1.516   3.756
 4305SOL    HW113814   6.202   1.426   3.752
 4305SOL    HW213815   6.161   1.559   3.666
 4306SOL     OW13816   0.319   3.614   6.793
 4306SOL    HW113817   0.254   3.675   6.837
 4306SOL    HW213818   0.398   3.600   6.853
 4307SOL     OW13819   4.790   4.293   5.458
 4307SOL    HW113820   4.825   4.262   5.370
 4307SOL    HW213821   4.706   4.243   5.481
 4308SOL     OW13822   5.220   6.039   5.732
 4308SOL    HW113823   5.232   5.948   5.771
 4308SOL    HW213824   5.185   6.032   5.639
 4309SOL     OW13825   0.852   0.122   0.157
 4309SOL    HW113826   0.816   0.174   0.234
 4309SOL    HW213827   0.782   0.058   0.124
 4310SOL     OW13828   1.462   2.666   4.107
 4310SOL    HW113829   1.554   2.627   4.115
 4310SOL    HW213830   1.426   2.684   4.199
 4311SOL     OW13831   1.403   6.462   3.159
 4311SOL    HW113832   1.330   6.434   3.221
 4311SOL    HW213833   1.370   6.533   3.097
 4312SOL     OW13834   0.877   5.832   1.601
 4312SOL    HW113835   0.884   5.760   1.532
 4312SOL    HW213836   0.968   5.862   1.628
 4313SOL     OW13837   5.797   1.431   1.712
 4313SOL    HW113838   5.751   1.353   1.756
 4313SOL    HW213839   5.729   1.502   1.694
 4314SOL     OW13840   4.755   2.855   3.055
 4314SOL    HW113841   4.827   2.787   3.069
 4314SOL    HW213842   4.666   2.811   3.062
 4315SOL     OW13843   2.119   0.550   2.494
 4315SOL    HW113844   2.070   0.595   2.419
 4315SOL    HW213845   2.206   0.515   2.460
 4316SOL     OW13846   4.943   0.276   1.080
 4316SOL    HW113847   4.960   0.241   1.173
 4316SOL    HW213848   4.973   0.371   1.074
 4317SOL     OW13849   3.199   0.997   5.323
 4317SOL    HW113850   3.284   0.949   5.301
 4317SOL    HW213851   3.126   0.930   5.334
 4318SOL     OW13852   0.847   3.605   3.662
 4318SOL    HW113853   0.786   3.566   3.594
 4318SOL    HW213854   0.871   3.536   3.730
 4319SOL     OW13855   2.281   3.407   6.910
 4319SOL    HW113856   2.311   3.402   6.815
 4319SOL    HW213857   2.359   3.392   6.971
 4320SOL     OW13858   1.392   6.450   2.074
 4320SOL    HW113859   1.356   6.515   2.142
 4320SOL    HW213860   1.487   6.472   2.053
 4321SOL     OW13861   6.117   0.665   4.735
 4321SOL    HW113862   6.147   0.658   4.830
 4321SOL    HW213863   6.168   0.738   4.689
 4322SOL     OW13864   6.588   1.302   6.462
 4322SOL    HW113865   6.642   1.380   6.495
 4322SOL    HW213866   6.491   1.319   6.478
 4323SOL     OW13867   5.722   3.117   2.321
 4323SOL    HW113868   5.705   3.190   2.254
 4323SOL    HW213869   5.635   3.077   2.348
 4324SOL     OW13870   5.733   4.470   6.911
 4324SOL    HW113871   5.644   4.514   6.921
 4324SOL    HW213872   5.727   4.374   6.940
 4325SOL     OW13873   1.281   0.927   0.486
 4325SOL    HW113874   1.281   1.012   0.433
 4325SOL    HW213875   1.253   0.851   0.429
 4326SOL     OW13876   6.735   2.933   5.186
 4326SOL    HW113877   6.765   3.028   5.180
 4326SOL    HW213878   6.766   2.894   5.273
 4327SOL     OW13879   5.709   5.428   2.316
 4327SOL    HW113880   5.702   5.466   2.408
 4327SOL    HW213881   5.624   5.382   2.291
 4328SOL     OW13882   4.515   4.574   5.715
 4328SOL    HW113883   4.574   4.654   5.705
 4328SOL    HW213884   4.424   4.603   5.745
 4329SOL     OW13885   3.200   1.820   6.127
 4329SOL    HW113886   3.141   1.900   6.113
 4329SOL    HW213887   3.285   1.848   6.170
 4330SOL     OW13888   2.548   0.592   5.619
 4330SOL    HW113889   2.471   0.529   5.631
 4330SOL    HW213890   2.625   0.543   5.578
 4331SOL     OW13891   5.215   3.275   1.539
 4331SOL    HW113892   5.129   3.311   1.575
 4331SOL    HW213893   5.228   3.309   1.445
 4332SOL     OW13894   5.373   3.803   2.079
 4332SOL    HW113895   5.449   3.817   2.143
 4332SOL    HW213896   5.295   3.764   2.127
 4333SOL     OW13897   5.052   1.664   5.195
 4333SOL    HW113898   4.958   1.669   5.161
 4333SOL    HW213899   5.077   1.752   5.235
 4334SOL     OW13900   2.764   2.094   2.032
 4334SOL    HW113901   2.741   2.101   1.935
 4334SOL    HW213902   2.836   2.160   2.054
 4335SOL     OW13903   2.889   3.651   3.707
 4335SOL    HW113904   2.983   3.682   3.722
 4335SOL    HW213905   2.874   3.637   3.609
 4336SOL     OW13906   1.437   6.907   5.207
 4336SOL    HW113907   1.493   6.911   5.290
 4336SOL    HW213908   1.432   6.813   5.174
 4337SOL     OW13909   1.097   4.646   0.217
 4337SOL    HW113910   1.050   4.710   0.156
 4337SOL    HW213911   1.179   4.689   0.253
 4338SOL     OW13912   5.154   5.329   4.891
 4338SOL    HW113913   5.066   5.297   4.856
 4338SOL    HW213914   5.148   5.338   4.991
 4339SOL     OW13915   6.097   2.801   5.157
 4339SOL    HW113916   6.063   2.890   5.127
 4339SOL    HW213917   6.036   2.729   5.122
 4340SOL     OW13918   6.280   3.601   2.431
 4340SOL    HW113919   6.217   3.643   2.366
 4340SOL    HW213920   6.320   3.519   2.390
 4341SOL     OW13921   1.251   3.801   1.936
 4341SOL    HW113922   1.233   3.802   1.838
 4341SOL    HW213923   1.305   3.882   1.961
 4342SOL     OW13924   6.575   2.889   3.711
 4342SOL    HW113925   6.580   2.796   3.747
 4342SOL    HW213926   6.489   2.901   3.663
 4343SOL     OW13927   3.220   0.390   0.062
 4343SOL    HW113928   3.205   0.348   0.152
 4343SOL    HW213929   3.161   0.470   0.052
 4344SOL     OW13930   1.641   5.514   3.424
 4344SOL    HW113931   1.691   5.453   3.362
 4344SOL    HW213932   1.655   5.483   3.518
 4345SOL     OW13933   1.742   3.481   5.833
 4345SOL    HW113934   1.757   3.427   5.917
 4345SOL    HW213935   1.826   3.530   5.810
 4346SOL     OW13936   2.396   2.957   1.783
 4346SOL    HW113937   2.404   3.045   1.736
 4346SOL    HW213938   2.438   2.885   1.727
 4347SOL     OW13939   6.869   0.990   1.414
 4347SOL    HW113940   6.891   0.997   1.511
 4347SOL    HW213941   6.896   0.900   1.380
 4348SOL     OW13942   0.148   3.210   2.506
 4348SOL    HW113943   0.148   3.289   2.567
 4348SOL    HW213944   0.088   3.139   2.543
 4349SOL     OW13945   0.514   1.805   2.898
 4349SOL    HW113946   0.422   1.769   2.910
 4349SOL    HW213947   0.542   1.854   2.980
 4350SOL     OW13948   4.728   2.241   4.403
 4350SOL    HW113949   4.646   2.286   4.439
 4350SOL    HW213950   4.807   2.302   4.414
 4351SOL     OW13951   2.201   6.572   1.731
 4351SOL    HW113952   2.226   6.480   1.700
 4351SOL    HW213953   2.231   6.639   1.663
 4352SOL     OW13954   0.564   2.234   1.775
 4352SOL    HW113955   0.529   2.307   1.834
 4352SOL    HW213956   0.493   2.207   1.710
 4353SOL     OW13957   2.705   5.475   1.009
 4353SOL    HW113958   2.691   5.540   0.935
 4353SOL    HW213959   2.617   5.436   1.037
 4354SOL     OW13960   2.052   6.704   6.441
 4354SOL    HW113961   1.969   6.759   6.453
 4354SOL    HW213962   2.065   6.646   6.522
 4355SOL     OW13963   3.636   0.266   1.975
 4355SOL    HW113964   3.732   0.240   1.967
 4355SOL    HW213965   3.601   0.295   1.886
 4356SOL     OW13966   4.561   4.346   1.610
 4356SOL    HW113967   4.512   4.299   1.536
 4356SOL    HW213968   4.554   4.292   1.694
 4357SOL     OW13969   6.090   0.100   6.977
 4357SOL    HW113970   6.024   0.034   7.013
 4357SOL    HW213971   6.091   0.094   6.877
 4358SOL     OW13972   6.740   6.366   0.635
 4358SOL    HW113973   6.828   6.329   0.606
 4358SOL    HW213974   6.673   6.354   0.561
 4359SOL     OW13975   1.449   2.355   4.419
 4359SOL    HW113976   1.381   2.427   4.434
 4359SOL    HW213977   1.422   2.273   4.471
 4360SOL     OW13978   1.439   3.875   2.331
 4360SOL    HW113979   1.360   3.934   2.318
 4360SOL    HW213980   1.425   3.788   2.283
 4361SOL     OW13981   3.137   2.738   1.727
 4361SOL    HW113982   3.212   2.680   1.695
 4361SOL    HW213983   3.050   2.695   1.706
 4362SOL     OW13984   6.040   3.865   5.724
 4362SOL    HW113985   5.942   3.867   5.706
 4362SOL    HW213986   6.060   3.923   5.803
 4363SOL     OW13987   4.907   2.042   6.019
 4363SOL    HW113988   4.925   1.944   6.027
 4363SOL    HW213989   4.824   2.064   6.069
 4364SOL     OW13990   2.931   3.647   5.560
 4364SOL    HW113991   2.909   3.729   5.613
 4364SOL    HW213992   3.009   3.667   5.500
 4365SOL     OW13993   2.965   1.624   2.455
 4365SOL    HW113994   2.902   1.700   2.470
 4365SOL    HW213995   2.920   1.538   2.478
 4366SOL     OW13996   6.046   6.578   1.067
 4366SOL    HW113997   6.088   6.626   1.144
 4366SOL    HW213998   6.050   6.479   1.083
 4367SOL     OW13999   0.954   4.948   5.000
 4367SOL    HW114000   0.876   4.886   5.000
 4367SOL    HW214001   1.031   4.906   4.953
 4368SOL     OW14002   4.380   5.327   1.033
 4368SOL    HW114003   4.375   5.382   0.949
 4368SOL    HW214004   4.290   5.324   1.077
 4369SOL     OW14005   4.959   5.664   2.382
 4369SOL    HW114006   4.874   5.672   2.331
 4369SOL    HW214007   5.036   5.690   2.323
 4370SOL     OW14008   5.570   4.621   3.043
 4370SOL    HW114009   5.602   4.696   2.985
 4370SOL    HW214010   5.585   4.644   3.139
 4371SOL     OW14011   6.109   0.563   1.614
 4371SOL    HW114012   6.025   0.617   1.610
 4371SOL    HW214013   6.143   0.547   1.521
 4372SOL     OW14014   4.621   1.163   2.800
 4372SOL    HW114015   4.554   1.211   2.857
 4372SOL    HW214016   4.651   1.224   2.727
 4373SOL     OW14017   7.010   2.887   6.673
 4373SOL    HW114018   7.016   2.873   6.574
 4373SOL    HW214019   7.005   2.798   6.719
 4374SOL     OW14020   1.295   1.974   1.806
 4374SOL    HW114021   1.223   2.029   1.848
 4374SOL    HW214022   1.374   1.968   1.868
 4375SOL     OW14023   2.549   6.951   4.037
 4375SOL    HW114024   2.648   6.960   4.035
 4375SOL    HW214025   2.524   6.854   4.029
 4376SOL     OW14026   6.454   6.800   2.087
 4376SOL    HW114027   6.527   6.804   2.019
 4376SOL    HW214028   6.462   6.717   2.141
 4377SOL     OW14029   5.457   3.774   0.543
 4377SOL    HW114030   5.448   3.766   0.643
 4377SOL    HW214031   5.535   3.720   0.512
 4378SOL     OW14032   2.113   0.547   3.182
 4378SOL    HW114033   2.090   0.638   3.215
 4378SOL    HW214034   2.171   0.554   3.101
 4379SOL     OW14035   2.637   1.213   4.230
 4379SOL    HW114036   2.610   1.201   4.326
 4379SOL    HW214037   2.736   1.208   4.223
 4380SOL     OW14038   1.305   0.980   1.486
 4380SOL    HW114039   1.313   0.943   1.579
 4380SOL    HW214040   1.359   0.923   1.424
 4381SOL     OW14041   1.531   5.673   4.985
 4381SOL    HW114042   1.453   5.612   5.001
 4381SOL    HW214043   1.616   5.624   5.003
 4382SOL     OW14044   6.800   3.131   6.345
 4382SOL    HW114045   6.840   3.209   6.296
 4382SOL    HW214046   6.868   3.057   6.350
 4383SOL     OW14047   5.861   3.596   6.324
 4383SOL    HW114048   5.867   3.681   6.376
 4383SOL    HW214049   5.862   3.617   6.226
 4384SOL     OW14050   6.509   1.020   3.348
 4384SOL    HW114051   6.524   1.111   3.386
 4384SOL    HW214052   6.412   0.999   3.348
 4385SOL     OW14053   4.476   2.161   4.716
 4385SOL    HW114054   4.468   2.219   4.635
 4385SOL    HW214055   4.459   2.216   4.798
 4386SOL     OW14056   1.254   3.908   5.877
 4386SOL    HW114057   1.253   4.006   5.859
 4386SOL    HW214058   1.324   3.888   5.946
 4387SOL     OW14059   6.401   2.613   1.870
 4387SOL    HW114060   6.357   2.594   1.782
 4387SOL    HW214061   6.410   2.528   1.922
 4388SOL     OW14062   5.551   2.134   6.105
 4388SOL    HW114063   5.517   2.078   6.028
 4388SOL    HW214064   5.628   2.190   6.074
 4389SOL     OW14065   6.764   3.526   1.731
 4389SOL    HW114066   6.784   3.598   1.798
 4389SOL    HW214067   6.840   3.518   1.666
 4390SOL     OW14068   5.601   7.017   0.628
 4390SOL    HW114069   5.579   0.063   0.692
 4390SOL    HW214070   5.683   6.970   0.659
 4391SOL     OW14071   2.018   4.878   6.651
 4391SOL    HW114072   1.976   4.866   6.741
 4391SOL    HW214073   2.070   4.795   6.628
 4392SOL     OW14074   0.763   1.769   4.052
 4392SOL    HW114075   0.808   1.689   4.013
 4392SOL    HW214076   0.671   1.777   4.014
 4393SOL     OW14077   6.241   0.354   1.789
 4393SOL    HW114078   6.222   0.409   1.707
 4393SOL    HW214079   6.341   0.347   1.801
 4394SOL     OW14080   1.265   0.018   1.642
 4394SOL    HW114081   1.313   0.106   1.645
 4394SOL    HW214082   1.273   7.000   1.731
 4395SOL     OW14083   1.711   0.279   1.744
 4395SOL    HW114084   1.777   0.227   1.798
 4395SOL    HW214085   1.676   0.222   1.669
 4396SOL     OW14086   1.400   1.486   3.937
 4396SOL    HW114087   1.345   1.477   4.020
 4396SOL    HW214088   1.444   1.399   3.916
 4397SOL     OW14089   2.004   3.139   3.967
 4397SOL    HW114090   2.046   3.156   3.878
 4397SOL    HW214091   2.030   3.049   4.000
 4398SOL     OW14092   1.930   3.544   6.068
 4398SOL    HW114093   1.917   3.600   5.986
 4398SOL    HW214094   2.015   3.572   6.113
 4399SOL     OW14095   1.944   5.762   1.763
 4399SOL    HW114096   1.984   5.701   1.695
 4399SOL    HW214097   1.955   5.857   1.734
 4400SOL     OW14098   1.650   6.650   3.701
 4400SOL    HW114099   1.600   6.736   3.715
 4400SOL    HW214100   1.607   6.598   3.627
 4401SOL     OW14101   3.817   6.178   5.365
 4401SOL    HW114102   3.804   6.209   5.270
 4401SOL    HW214103   3.748   6.110   5.387
 4402SOL     OW14104   1.196   0.423   2.145
 4402SOL    HW114105   1.174   0.514   2.179
 4402SOL    HW214106   1.128   0.358   2.180
 4403SOL     OW14107   0.596   5.613   0.988
 4403SOL    HW114108   0.570   5.522   1.019
 4403SOL    HW214109   0.564   5.682   1.053
 4404SOL     OW14110   1.078   5.579   5.409
 4404SOL    HW114111   1.146   5.619   5.347
 4404SOL    HW214112   1.109   5.490   5.440
 4405SOL     OW14113   2.745   5.255   3.315
 4405SOL    HW114114   2.658   5.270   3.267
 4405SOL    HW214115   2.731   5.189   3.390
 4406SOL     OW14116   6.852   3.228   1.602
 4406SOL    HW114117   6.755   3.231   1.576
 4406SOL    HW214118   6.892   3.319   1.592
 4407SOL     OW14119   0.095   5.765   1.571
 4407SOL    HW114120   0.151   5.829   1.519
 4407SOL    HW214121   7.026   5.780   1.550
 4408SOL     OW14122   3.294   6.171   6.761
 4408SOL    HW114123   3.212   6.172   6.819
 4408SOL    HW214124   3.373   6.202   6.814
 4409SOL     OW14125   3.960   0.906   2.005
 4409SOL    HW114126   4.007   0.837   1.949
 4409SOL    HW214127   3.888   0.949   1.951
 4410SOL     OW14128   0.065   6.371   0.636
 4410SOL    HW114129   0.032   6.464   0.651
 4410SOL    HW214130   0.024   6.334   0.553
 4411SOL     OW14131   3.501   4.808   5.573
 4411SOL    HW114132   3.579   4.815   5.636
 4411SOL    HW214133   3.532   4.770   5.486
 4412SOL     OW14134   5.091   6.822   4.243
 4412SOL    HW114135   5.123   6.771   4.323
 4412SOL    HW214136   4.994   6.841   4.252
 4413SOL     OW14137   3.747   6.384   4.240
 4413SOL    HW114138   3.785   6.378   4.147
 4413SOL    HW214139   3.707   6.475   4.253
 4414SOL     OW14140   4.663   5.390   1.686
 4414SOL    HW114141   4.601   5.327   1.733
 4414SOL    HW214142   4.635   5.399   1.591
 4415SOL     OW14143   3.555   3.901   1.323
 4415SOL    HW114144   3.481   3.934   1.264
 4415SOL    HW214145   3.517   3.878   1.413
 4416SOL     OW14146   3.964   1.597   4.597
 4416SOL    HW114147   3.965   1.677   4.536
 4416SOL    HW214148   3.939   1.626   4.689
 4417SOL     OW14149   6.236   2.684   4.278
 4417SOL    HW114150   6.326   2.641   4.272
 4417SOL    HW214151   6.247   2.784   4.271
 4418SOL     OW14152   6.399   1.374   1.309
 4418SOL    HW114153   6.439   1.463   1.288
 4418SOL    HW214154   6.378   1.369   1.407
 4419SOL     OW14155   6.255   6.068   6.292
 4419SOL    HW114156   6.302   6.116   6.366
 4419SOL    HW214157   6.279   6.109   6.204
 4420SOL     OW14158   3.919   2.254   1.508
 4420SOL    HW114159   3.878   2.179   1.558
 4420SOL    HW214160   3.847   2.312   1.470
 4421SOL     OW14161   0.905   3.070   5.006
 4421SOL    HW114162   0.838   3.119   5.060
 4421SOL    HW214163   0.975   3.031   5.067
 4422SOL     OW14164   1.149   4.891   6.879
 4422SOL    HW114165   1.058   4.879   6.920
 4422SOL    HW214166   1.174   4.808   6.829
 4423SOL     OW14167   6.378   4.566   5.766
 4423SOL    HW114168   6.323   4.552   5.684
 4423SOL    HW214169   6.469   4.599   5.739
 4424SOL     OW14170   4.787   5.591   4.281
 4424SOL    HW114171   4.839   5.556   4.203
 4424SOL    HW214172   4.812   5.686   4.298
 4425SOL     OW14173   1.933   5.423   0.589
 4425SOL    HW114174   1.893   5.466   0.670
 4425SOL    HW214175   2.006   5.360   0.617
 4426SOL     OW14176   0.843   0.636   3.891
 4426SOL    HW114177   0.762   0.603   3.939
 4426SOL    HW214178   0.889   0.560   3.845
 4427SOL     OW14179   3.736   6.495   2.892
 4427SOL    HW114180   3.753   6.505   2.794
 4427SOL    HW214181   3.653   6.440   2.906
 4428SOL     OW14182   5.250   0.893   4.610
 4428SOL    HW114183   5.246   0.793   4.605
 4428SOL    HW214184   5.345   0.922   4.623
 4429SOL     OW14185   3.232   6.793   3.419
 4429SOL    HW114186   3.181   6.751   3.495
 4429SOL    HW214187   3.168   6.820   3.347
 4430SOL     OW14188   5.964   4.612   4.116
 4430SOL    HW114189   5.927   4.546   4.051
 4430SOL    HW214190   6.064   4.604   4.118
 4431SOL     OW14191   3.312   0.439   3.702
 4431SOL    HW114192   3.266   0.355   3.676
 4431SOL    HW214193   3.276   0.470   3.790
 4432SOL     OW14194   2.182   3.754   6.428
 4432SOL    HW114195   2.173   3.749   6.527
 4432SOL    HW214196   2.209   3.847   6.402
 4433SOL     OW14197   0.776   1.810   4.739
 4433SOL    HW114198   0.691   1.811   4.686
 4433SOL    HW214199   0.850   1.770   4.685
 4434SOL     OW14200   7.010   1.258   1.677
 4434SOL    HW114201   0.080   1.264   1.700
 4434SOL    HW214202   6.978   1.165   1.695
 4435SOL     OW14203   3.406   4.038   0.884
 4435SOL    HW114204   3.400   4.007   0.978
 4435SOL    HW214205   3.502   4.050   0.859
 4436SOL     OW14206   4.703   2.401   1.493
 4436SOL    HW114207   4.755   2.319   1.516
 4436SOL    HW214208   4.671   2.394   1.398
 4437SOL     OW14209   0.383   3.614   2.680
 4437SOL    HW114210   0.440   3.614   2.598
 4437SOL    HW214211   0.410   3.691   2.738
 4438SOL     OW14212   4.538   6.656   5.526
 4438SOL    HW114213   4.530   6.692   5.619
 4438SOL    HW214214   4.595   6.573   5.528
 4439SOL     OW14215   0.960   6.496   3.068
 4439SOL    HW114216   0.885   6.519   3.129
 4439SOL    HW214217   1.040   6.469   3.123
 4440SOL     OW14218   2.449   4.719   1.018
 4440SOL    HW114219   2.428   4.691   0.924
 4440SOL    HW214220   2.547   4.709   1.034
 4441SOL     OW14221   1.214   1.741   1.162
 4441SOL    HW114222   1.285   1.677   1.133
 4441SOL    HW214223   1.178   1.789   1.082
 4442SOL     OW14224   1.340   4.989   5.820
 4442SOL    HW114225   1.303   4.896   5.827
 4442SOL    HW214226   1.272   5.048   5.776
 4443SOL     OW14227   0.757   4.618   6.730
 4443SOL    HW114228   0.824   4.553   6.765
 4443SOL    HW214229   0.676   4.617   6.789
 4444SOL     OW14230   4.522   4.214   0.844
 4444SOL    HW114231   4.457   4.189   0.916
 4444SOL    HW214232   4.611   4.232   0.886
 4445SOL     OW14233   0.267   5.275   6.545
 4445SOL    HW114234   0.232   5.195   6.496
 4445SOL    HW214235   0.318   5.333   6.481
 4446SOL     OW14236   5.253   1.714   0.051
 4446SOL    HW114237   5.321   1.646   0.077
 4446SOL    HW214238   5.286   1.805   0.076
 4447SOL     OW14239   5.434   4.393   5.280
 4447SOL    HW114240   5.383   4.326   5.334
 4447SOL    HW214241   5.384   4.414   5.196
 4448SOL     OW14242   2.762   6.293   1.212
 4448SOL    HW114243   2.692   6.301   1.142
 4448SOL    HW214244   2.747   6.363   1.282
 4449SOL     OW14245   4.180   1.468   6.349
 4449SOL    HW114246   4.180   1.467   6.449
 4449SOL    HW214247   4.269   1.438   6.315
 4450SOL     OW14248   3.670   0.837   0.084
 4450SOL    HW114249   3.672   0.814   0.181
 4450SOL    HW214250   3.724   0.919   0.067
 4451SOL     OW14251   4.665   4.859   3.741
 4451SOL    HW114252   4.690   4.788   3.808
 4451SOL    HW214253   4.650   4.945   3.789
 4452SOL     OW14254   5.663   5.840   4.433
 4452SOL    HW114255   5.589   5.787   4.474
 4452SOL    HW214256   5.627   5.926   4.397
 4453SOL     OW14257   0.426   3.209   1.861
 4453SOL    HW114258   0.497   3.200   1.791
 4453SOL    HW214259   0.349   3.149   1.838
 4454SOL     OW14260   0.789   1.550   6.921
 4454SOL    HW114261   0.877   1.502   6.920
 4454SOL    HW214262   0.780   1.602   7.005
 4455SOL     OW14263   5.664   5.793   4.984
 4455SOL    HW114264   5.736   5.725   4.970
 4455SOL    HW214265   5.641   5.835   4.896
 4456SOL     OW14266   2.064   6.326   3.534
 4456SOL    HW114267   1.992   6.375   3.583
 4456SOL    HW214268   2.138   6.389   3.511
 4457SOL     OW14269   1.098   2.219   4.803
 4457SOL    HW114270   1.175   2.213   4.866
 4457SOL    HW214271   1.039   2.138   4.816
 4458SOL     OW14272   2.030   3.533   1.870
 4458SOL    HW114273   1.963   3.459   1.871
 4458SOL    HW214274   2.111   3.506   1.922
 4459SOL     OW14275   1.362   2.231   4.906
 4459SOL    HW114276   1.403   2.139   4.901
 4459SOL    HW214277   1.413   2.293   4.846
 4460SOL     OW14278   6.922   2.749   4.214
 4460SOL    HW114279   7.015   2.735   4.249
 4460SOL    HW214280   6.925   2.776   4.118
 4461SOL     OW14281   2.327   0.540   1.667
 4461SOL    HW114282   2.238   0.497   1.650
 4461SOL    HW214283   2.315   0.617   1.729
 4462SOL     OW14284   6.163   3.811   2.266
 4462SOL    HW114285   6.132   3.892   2.215
 4462SOL    HW214286   6.124   3.812   2.357
 4463SOL     OW14287   5.454   0.775   0.645
 4463SOL    HW114288   5.506   0.856   0.619
 4463SOL    HW214289   5.507   0.720   0.710
 4464SOL     OW14290   0.382   5.298   0.670
 4464SOL    HW114291   0.404   5.385   0.714
 4464SOL    HW214292   0.284   5.279   0.679
 4465SOL     OW14293   2.435   5.918   0.066
 4465SOL    HW114294   2.471   5.826   0.053
 4465SOL    HW214295   2.494   5.969   0.129
 4466SOL     OW14296   2.456   1.933   3.843
 4466SOL    HW114297   2.490   1.849   3.801
 4466SOL    HW214298   2.374   1.963   3.796
 4467SOL     OW14299   2.708   5.998   3.967
 4467SOL    HW114300   2.781   6.010   3.901
 4467SOL    HW214301   2.743   6.015   4.059
 4468SOL     OW14302   0.896   3.042   0.329
 4468SOL    HW114303   0.867   3.002   0.242
 4468SOL    HW214304   0.994   3.062   0.325
 4469SOL     OW14305   2.815   6.872   1.639
 4469SOL    HW114306   2.839   6.919   1.554
 4469SOL    HW214307   2.862   6.784   1.643
 4470SOL     OW14308   0.861   0.674   2.277
 4470SOL    HW114309   0.824   0.758   2.317
 4470SOL    HW214310   0.807   0.648   2.197
 4471SOL     OW14311   2.364   2.658   6.262
 4471SOL    HW114312   2.308   2.729   6.303
 4471SOL    HW214313   2.445   2.700   6.220
 4472SOL     OW14314   1.668   2.808   1.200
 4472SOL    HW114315   1.648   2.901   1.231
 4472SOL    HW214316   1.606   2.785   1.124
 4473SOL     OW14317   6.488   2.538   4.252
 4473SOL    HW114318   6.446   2.460   4.300
 4473SOL    HW214319   6.581   2.552   4.286
 4474SOL     OW14320   3.097   0.710   1.977
 4474SOL    HW114321   3.190   0.730   1.945
 4474SOL    HW214322   3.037   0.786   1.953
 4475SOL     OW14323   1.220   3.714   2.445
 4475SOL    HW114324   1.131   3.735   2.405
 4475SOL    HW214325   1.274   3.662   2.379
 4476SOL     OW14326   5.581   1.186   4.229
 4476SOL    HW114327   5.654   1.228   4.175
 4476SOL    HW214328   5.605   1.190   4.326
 4477SOL     OW14329   2.355   0.124   5.384
 4477SOL    HW114330   2.435   0.184   5.390
 4477SOL    HW214331   2.277   0.177   5.352
 4478SOL     OW14332   1.246   0.338   1.247
 4478SOL    HW114333   1.202   0.424   1.221
 4478SOL    HW214334   1.303   0.306   1.171
 4479SOL     OW14335   1.147   2.204   0.302
 4479SOL    HW114336   1.199   2.121   0.284
 4479SOL    HW214337   1.185   2.280   0.248
 4480SOL     OW14338   0.279   4.697   4.659
 4480SOL    HW114339   0.318   4.625   4.716
 4480SOL    HW214340   0.181   4.705   4.678
 4481SOL     OW14341   2.453   5.050   5.493
 4481SOL    HW114342   2.494   4.977   5.438
 4481SOL    HW214343   2.427   5.014   5.582
 4482SOL     OW14344   3.119   4.685   6.120
 4482SOL    HW114345   3.146   4.622   6.047
 4482SOL    HW214346   3.019   4.691   6.124
 4483SOL     OW14347   0.731   3.030   1.986
 4483SOL    HW114348   0.735   3.119   2.031
 4483SOL    HW214349   0.739   3.041   1.888
 4484SOL     OW14350   2.460   3.353   0.377
 4484SOL    HW114351   2.531   3.283   0.385
 4484SOL    HW214352   2.371   3.309   0.366
 4485SOL     OW14353   4.836   2.683   4.903
 4485SOL    HW114354   4.766   2.729   4.849
 4485SOL    HW214355   4.795   2.643   4.985
 4486SOL     OW14356   5.494   4.771   5.598
 4486SOL    HW114357   5.470   4.854   5.547
 4486SOL    HW214358   5.590   4.748   5.582
 4487SOL     OW14359   1.828   3.076   6.921
 4487SOL    HW114360   1.825   2.982   6.953
 4487SOL    HW214361   1.820   3.139   6.998
 4488SOL     OW14362   1.196   3.916   3.677
 4488SOL    HW114363   1.219   3.873   3.764
 4488SOL    HW214364   1.224   3.857   3.601
 4489SOL     OW14365   4.964   5.461   5.371
 4489SOL    HW114366   4.915   5.527   5.314
 4489SOL    HW214367   4.906   5.382   5.389
 4490SOL     OW14368   5.119   1.823   0.732
 4490SOL    HW114369   5.029   1.862   0.715
 4490SOL    HW214370   5.190   1.893   0.718
 4491SOL     OW14371   1.047   3.092   2.898
 4491SOL    HW114372   1.059   2.999   2.864
 4491SOL    HW214373   1.109   3.107   2.975
 4492SOL     OW14374   5.759   1.045   1.510
 4492SOL    HW114375   5.803   1.073   1.424
 4492SOL    HW214376   5.823   1.058   1.585
 4493SOL     OW14377   5.260   6.571   4.961
 4493SOL    HW114378   5.202   6.629   4.905
 4493SOL    HW214379   5.338   6.539   4.906
 4494SOL     OW14380   1.147   0.754   6.088
 4494SOL    HW114381   1.218   0.689   6.064
 4494SOL    HW214382   1.070   0.706   6.130
 4495SOL     OW14383   3.617   5.906   1.909
 4495SOL    HW114384   3.546   5.940   1.970
 4495SOL    HW214385   3.661   5.826   1.950
 4496SOL     OW14386   4.419   6.274   6.473
 4496SOL    HW114387   4.371   6.352   6.433
 4496SOL    HW214388   4.490   6.243   6.410
 4497SOL     OW14389   3.679   2.360   0.100
 4497SOL    HW114390   3.718   2.415   0.174
 4497SOL    HW214391   3.691   2.408   0.013
 4498SOL     OW14392   6.812   5.122   5.891
 4498SOL    HW114393   6.891   5.182   5.873
 4498SOL    HW214394   6.798   5.062   5.812
 4499SOL     OW14395   6.806   1.765   2.889
 4499SOL    HW114396   6.806   1.792   2.792
 4499SOL    HW214397   6.887   1.711   2.908
 4500SOL     OW14398   3.922   5.374   0.075
 4500SOL    HW114399   3.833   5.416   0.058
 4500SOL    HW214400   3.967   5.353   7.016
 4501SOL     OW14401   6.008   1.903   1.800
 4501SOL    HW114402   5.939   1.863   1.739
 4501SOL    HW214403   6.019   1.845   1.880
 4502SOL     OW14404   0.969   3.407   6.787
 4502SOL    HW114405   0.916   3.480   6.830
 4502SOL    HW214406   1.008   3.347   6.857
 4503SOL     OW14407   2.608   6.950   2.606
 4503SOL    HW114408   2.612   6.851   2.593
 4503SOL    HW214409   2.701   6.988   2.601
 4504SOL     OW14410   6.962   1.859   3.517
 4504SOL    HW114411   6.905   1.828   3.442
 4504SOL    HW214412   6.923   1.827   3.604
 4505SOL     OW14413   6.706   4.795   2.499
 4505SOL    HW114414   6.757   4.762   2.578
 4505SOL    HW214415   6.754   4.770   2.415
 4506SOL     OW14416   4.792   2.819   4.130
 4506SOL    HW114417   4.764   2.889   4.196
 4506SOL    HW214418   4.798   2.860   4.038
 4507SOL     OW14419   6.575   3.192   3.485
 4507SOL    HW114420   6.576   3.101   3.443
 4507SOL    HW214421   6.480   3.221   3.498
 4508SOL     OW14422   0.295   4.016   0.708
 4508SOL    HW114423   0.233   4.094   0.704
 4508SOL    HW214424   0.372   4.032   0.647
 4509SOL     OW14425   4.773   1.971   2.377
 4509SOL    HW114426   4.686   2.006   2.411
 4509SOL    HW214427   4.768   1.960   2.278
 4510SOL     OW14428   4.580   1.486   3.952
 4510SOL    HW114429   4.672   1.491   3.991
 4510SOL    HW214430   4.529   1.411   3.996
 4511SOL     OW14431   6.951   4.282   1.084
 4511SOL    HW114432   6.909   4.193   1.093
 4511SOL    HW214433   6.909   4.346   1.148
 4512SOL     OW14434   3.644   2.147   5.600
 4512SOL    HW114435   3.646   2.059   5.648
 4512SOL    HW214436   3.571   2.146   5.531
 4513SOL     OW14437   0.876   6.069   6.461
 4513SOL    HW114438   0.903   5.977   6.432
 4513SOL    HW214439   0.777   6.075   6.462
 4514SOL     OW14440   3.233   3.238   6.594
 4514SOL    HW114441   3.305   3.198   6.650
 4514SOL    HW214442   3.271   3.266   6.505
 4515SOL     OW14443   5.705   0.290   4.727
 4515SOL    HW114444   5.741   0.202   4.756
 4515SOL    HW214445   5.632   0.318   4.789
 4516SOL     OW14446   2.582   1.760   5.725
 4516SOL    HW114447   2.670   1.798   5.696
 4516SOL    HW214448   2.510   1.791   5.663
 4517SOL     OW14449   4.169   0.401   6.370
 4517SOL    HW114450   4.079   0.361   6.357
 4517SOL    HW214451   4.233   0.331   6.401
 4518SOL     OW14452   1.648   6.464   1.051
 4518SOL    HW114453   1.584   6.525   1.098
 4518SOL    HW214454   1.633   6.370   1.081
 4519SOL     OW14455   5.286   0.088   0.258
 4519SOL    HW114456   5.338   0.095   0.343
 4519SOL    HW214457   5.227   0.007   0.261
 4520SOL     OW14458   4.050   6.316   5.182
 4520SOL    HW114459   4.058   6.322   5.281
 4520SOL    HW214460   4.061   6.407   5.141
 4521SOL     OW14461   5.184   2.116   5.173
 4521SOL    HW114462   5.164   2.207   5.208
 4521SOL    HW214463   5.210   2.122   5.076
 4522SOL     OW14464   5.457   3.700   3.765
 4522SOL    HW114465   5.498   3.624   3.715
 4522SOL    HW214466   5.420   3.666   3.852
 4523SOL     OW14467   0.550   3.864   6.647
 4523SOL    HW114468   0.556   3.879   6.746
 4523SOL    HW214469   0.550   3.766   6.628
 4524SOL     OW14470   0.536   3.162   3.126
 4524SOL    HW114471   0.622   3.115   3.104
 4524SOL    HW214472   0.459   3.103   3.102
 4525SOL     OW14473   2.165   2.913   6.070
 4525SOL    HW114474   2.120   2.824   6.061
 4525SOL    HW214475   2.130   2.961   6.150
 4526SOL     OW14476   0.765   0.588   6.410
 4526SOL    HW114477   0.835   0.517   6.420
 4526SOL    HW214478   0.696   0.575   6.482
 4527SOL     OW14479   6.756   0.050   2.768
 4527SOL    HW114480   6.658   0.072   2.765
 4527SOL    HW214481   6.778   7.013   2.694
 4528SOL     OW14482   3.974   0.626   5.654
 4528SOL    HW114483   3.954   0.706   5.709
 4528SOL    HW214484   3.933   0.637   5.563
 4529SOL     OW14485   2.877   1.085   5.594
 4529SOL    HW114486   2.911   1.003   5.641
 4529SOL    HW214487   2.787   1.067   5.557
 4530SOL     OW14488   2.396   6.593   5.062
 4530SOL    HW114489   2.421   6.615   4.968
 4530SOL    HW214490   2.478   6.569   5.114
 4531SOL     OW14491   1.546   4.778   6.644
 4531SOL    HW114492   1.508   4.847   6.583
 4531SOL    HW214493   1.583   4.702   6.589
 4532SOL     OW14494   4.969   0.836   2.880
 4532SOL    HW114495   4.936   0.892   2.804
 4532SOL    HW214496   5.017   0.756   2.844
 4533SOL     OW14497   1.686   0.709   2.887
 4533SOL    HW114498   1.625   0.758   2.825
 4533SOL    HW214499   1.730   0.775   2.948
 4534SOL     OW14500   4.554   1.835   4.536
 4534SOL    HW114501   4.531   1.867   4.628
 4534SOL    HW214502   4.473   1.797   4.492
 4535SOL     OW14503   3.491   1.697   0.878
 4535SOL    HW114504   3.425   1.695   0.803
 4535SOL    HW214505   3.558   1.624   0.866
 4536SOL     OW14506   2.085   2.106   5.620
 4536SOL    HW114507   2.164   2.161   5.593
 4536SOL    HW214508   2.056   2.051   5.542
 4537SOL     OW14509   3.164   3.736   3.787
 4537SOL    HW114510   3.114   3.815   3.821
 4537SOL    HW214511   3.253   3.730   3.833
 4538SOL     OW14512   0.434   2.448   1.929
 4538SOL    HW114513   0.350   2.398   1.948
 4538SOL    HW214514   0.466   2.494   2.012
 4539SOL     OW14515   1.921   5.041   5.024
 4539SOL    HW114516   1.898   4.969   4.958
 4539SOL    HW214517   1.839   5.091   5.049
 4540SOL     OW14518   0.333   1.054   0.526
 4540SOL    HW114519   0.267   0.985   0.496
 4540SOL    HW214520   0.328   1.133   0.465
 4541SOL     OW14521   3.773   1.636   6.730
 4541SOL    HW114522   3.845   1.568   6.740
 4541SOL    HW214523   3.707   1.604   6.661
 4542SOL     OW14524   0.170   2.319   0.908
 4542SOL    HW114525   0.193   2.237   0.856
 4542SOL    HW214526   0.093   2.299   0.969
 4543SOL     OW14527   4.359   2.433   0.452
 4543SOL    HW114528   4.344   2.334   0.441
 4543SOL    HW214529   4.271   2.480   0.451
 4544SOL     OW14530   5.009   5.148   0.449
 4544SOL    HW114531   4.926   5.149   0.505
 4544SOL    HW214532   5.065   5.229   0.471
 4545SOL     OW14533   0.838   4.230   4.964
 4545SOL    HW114534   0.878   4.173   5.036
 4545SOL    HW214535   0.880   4.208   4.877
 4546SOL     OW14536   2.754   1.542   5.751
 4546SOL    HW114537   2.821   1.605   5.792
 4546SOL    HW214538   2.671   1.593   5.729
 4547SOL     OW14539   6.319   0.872   0.189
 4547SOL    HW114540   6.270   0.881   0.276
 4547SOL    HW214541   6.375   0.790   0.190
 4548SOL     OW14542   2.302   2.933   3.049
 4548SOL    HW114543   2.283   2.936   2.950
 4548SOL    HW214544   2.216   2.946   3.099
 4549SOL     OW14545   5.543   4.423   2.657
 4549SOL    HW114546   5.513   4.436   2.751
 4549SOL    HW214547   5.510   4.499   2.600
 4550SOL     OW14548   0.887   4.637   3.240
 4550SOL    HW114549   0.987   4.630   3.246
 4550SOL    HW214550   0.859   4.630   3.144
 4551SOL     OW14551   1.664   3.675   5.093
 4551SOL    HW114552   1.749   3.638   5.056
 4551SOL    HW214553   1.590   3.663   5.027
 4552SOL     OW14554   5.842   1.374   1.164
 4552SOL    HW114555   5.905   1.348   1.238
 4552SOL    HW214556   5.750   1.384   1.201
 4553SOL     OW14557   5.282   4.700   6.291
 4553SOL    HW114558   5.237   4.781   6.329
 4553SOL    HW214559   5.377   4.696   6.323
 4554SOL     OW14560   0.252   5.866   0.937
 4554SOL    HW114561   0.178   5.802   0.956
 4554SOL    HW214562   0.215   5.957   0.924
 4555SOL     OW14563   1.361   1.571   6.879
 4555SOL    HW114564   1.296   1.534   6.813
 4555SOL    HW214565   1.434   1.504   6.895
 4556SOL     OW14566   6.442   3.272   6.015
 4556SOL    HW114567   6.432   3.365   5.978
 4556SOL    HW214568   6.456   3.207   5.940
 4557SOL     OW14569   6.044   4.867   4.027
 4557SOL    HW114570   6.113   4.859   4.098
 4557SOL    HW214571   5.984   4.787   4.030
 4558SOL     OW14572   6.049   3.029   5.408
 4558SOL    HW114573   6.015   3.065   5.321
 4558SOL    HW214574   6.052   2.929   5.404
 4559SOL     OW14575   0.759   3.017   2.976
 4559SOL    HW114576   0.735   2.928   3.017
 4559SOL    HW214577   0.857   3.019   2.957
 4560SOL     OW14578   0.077   4.425   1.765
 4560SOL    HW114579   0.128   4.413   1.680
 4560SOL    HW214580   0.048   4.520   1.773
 4561SOL     OW14581   3.243   2.095   4.292
 4561SOL    HW114582   3.334   2.078   4.330
 4561SOL    HW214583   3.251   2.110   4.193
 4562SOL     OW14584   2.016   6.463   0.454
 4562SOL    HW114585   1.924   6.425   0.445
 4562SOL    HW214586   2.062   6.421   0.533
 4563SOL     OW14587   0.331   2.687   1.464
 4563SOL    HW114588   0.246   2.672   1.515
 4563SOL    HW214589   0.349   2.785   1.458
 4564SOL     OW14590   0.530   4.347   1.938
 4564SOL    HW114591   0.431   4.359   1.931
 4564SOL    HW214592   0.550   4.268   1.996
 4565SOL     OW14593   1.917   0.349   5.021
 4565SOL    HW114594   1.923   0.316   4.926
 4565SOL    HW214595   1.948   0.444   5.025
 4566SOL     OW14596   0.175   4.186   1.325
 4566SOL    HW114597   0.179   4.229   1.235
 4566SOL    HW214598   0.219   4.096   1.321
 4567SOL     OW14599   0.104   6.919   6.165
 4567SOL    HW114600   0.072   7.013   6.180
 4567SOL    HW214601   0.112   6.902   6.066
 4568SOL     OW14602   0.834   4.426   3.893
 4568SOL    HW114603   0.821   4.358   3.821
 4568SOL    HW214604   0.905   4.395   3.956
 4569SOL     OW14605   3.053   0.780   3.295
 4569SOL    HW114606   3.106   0.846   3.243
 4569SOL    HW214607   2.992   0.827   3.359
 4570SOL     OW14608   6.113   5.535   1.612
 4570SOL    HW114609   6.054   5.487   1.677
 4570SOL    HW214610   6.200   5.487   1.603
 4571SOL     OW14611   4.209   2.811   6.655
 4571SOL    HW114612   4.212   2.905   6.619
 4571SOL    HW214613   4.281   2.757   6.611
 4572SOL     OW14614   2.597   2.378   6.661
 4572SOL    HW114615   2.628   2.470   6.684
 4572SOL    HW214616   2.566   2.377   6.566
 4573SOL     OW14617   1.071   6.468   0.963
 4573SOL    HW114618   1.056   6.384   0.911
 4573SOL    HW214619   1.032   6.458   1.055
 4574SOL     OW14620   5.956   3.505   0.044
 4574SOL    HW114621   6.046   3.527   0.082
 4574SOL    HW214622   5.959   3.515   6.972
 4575SOL     OW14623   6.168   0.918   4.543
 4575SOL    HW114624   6.263   0.932   4.570
 4575SOL    HW214625   6.134   1.001   4.498
 4576SOL     OW14626   3.053   4.827   5.072
 4576SOL    HW114627   2.977   4.765   5.057
 4576SOL    HW214628   3.123   4.782   5.128
 4577SOL     OW14629   1.672   2.124   3.019
 4577SOL    HW114630   1.693   2.045   2.962
 4577SOL    HW214631   1.606   2.182   2.972
 4578SOL     OW14632   1.473   0.760   2.656
 4578SOL    HW114633   1.490   0.731   2.562
 4578SOL    HW214634   1.426   0.687   2.705
 4579SOL     OW14635   4.731   0.185   1.799
 4579SOL    HW114636   4.819   0.220   1.768
 4579SOL    HW214637   4.657   0.239   1.759
 4580SOL     OW14638   5.699   3.416   0.090
 4580SOL    HW114639   5.698   3.426   0.189
 4580SOL    HW214640   5.790   3.441   0.055
 4581SOL     OW14641   3.249   6.666   2.091
 4581SOL    HW114642   3.181   6.600   2.124
 4581SOL    HW214643   3.335   6.619   2.073
 4582SOL     OW14644   5.064   0.600   2.677
 4582SOL    HW114645   5.044   0.669   2.607
 4582SOL    HW214646   4.978   0.555   2.704
 4583SOL     OW14647   1.958   0.552   6.646
 4583SOL    HW114648   1.971   0.648   6.619
 4583SOL    HW214649   2.023   0.529   6.718
 4584SOL     OW14650   1.470   0.204   6.144
 4584SOL    HW114651   1.532   0.137   6.184
 4584SOL    HW214652   1.445   0.272   6.214
 4585SOL     OW14653   1.811   3.941   3.545
 4585SOL    HW114654   1.816   4.041   3.554
 4585SOL    HW214655   1.721   3.915   3.512
 4586SOL     OW14656   4.921   4.275   0.333
 4586SOL    HW114657   4.830   4.241   0.358
 4586SOL    HW214658   4.923   4.374   0.343
 4587SOL     OW14659   3.095   3.546   5.008
 4587SOL    HW114660   3.145   3.632   4.998
 4587SOL    HW214661   3.075   3.530   5.105
 4588SOL     OW14662   3.013   3.678   6.450
 4588SOL    HW114663   3.013   3.772   6.484
 4588SOL    HW214664   3.027   3.615   6.526
 4589SOL     OW14665   5.548   5.748   2.066
 4589SOL    HW114666   5.456   5.773   2.034
 4589SOL    HW214667   5.604   5.830   2.071
 4590SOL     OW14668   3.719   5.702   1.438
 4590SOL    HW114669   3.691   5.733   1.347
 4590SOL    HW214670   3.763   5.613   1.430
 4591SOL     OW14671   2.496   6.845   5.668
 4591SOL    HW114672   2.482   6.751   5.637
 4591SOL    HW214673   2.431   6.906   5.622
 4592SOL     OW14674   2.744   1.456   4.623
 4592SOL    HW114675   2.749   1.367   4.669
 4592SOL    HW214676   2.790   1.450   4.535
 4593SOL     OW14677   0.024   5.671   3.302
 4593SOL    HW114678   0.080   5.597   3.265
 4593SOL    HW214679   6.958   5.663   3.266
 4594SOL     OW14680   2.879   0.191   3.150
 4594SOL    HW114681   2.895   0.166   3.054
 4594SOL    HW214682   2.813   0.266   3.154
 4595SOL     OW14683   4.789   1.784   6.287
 4595SOL    HW114684   4.732   1.860   6.255
 4595SOL    HW214685   4.773   1.705   6.228
 4596SOL     OW14686   0.725   0.617   1.951
 4596SOL    HW114687   0.806   0.558   1.950
 4596SOL    HW214688   0.680   0.612   1.861
 4597SOL     OW14689   2.625   5.250   6.646
 4597SOL    HW114690   2.720   5.270   6.622
 4597SOL    HW214691   2.571   5.237   6.562
 4598SOL     OW14692   2.523   5.308   6.914
 4598SOL    HW114693   2.538   5.307   6.815
 4598SOL    HW214694   2.593   5.252   6.959
 4599SOL     OW14695   1.903   3.912   2.786
 4599SOL    HW114696   1.861   3.865   2.863
 4599SOL    HW214697   1.848   3.897   2.703
 4600SOL     OW14698   6.805   6.351   5.966
 4600SOL    HW114699   6.793   6.253   5.982
 4600SOL    HW214700   6.866   6.365   5.888
 4601SOL     OW14701   0.583   1.135   4.424
 4601SOL    HW114702   0.602   1.039   4.404
 4601SOL    HW214703   0.667   1.180   4.451
 4602SOL     OW14704   2.587   0.600   6.597
 4602SOL    HW114705   2.607   0.543   6.676
 4602SOL    HW214706   2.595   0.697   6.623
 4603SOL     OW14707   4.430   6.078   1.261
 4603SOL    HW114708   4.352   6.024   1.292
 4603SOL    HW214709   4.411   6.175   1.276
 4604SOL     OW14710   4.915   6.877   5.962
 4604SOL    HW114711   4.915   6.974   5.988
 4604SOL    HW214712   5.008   6.848   5.941
 4605SOL     OW14713   2.343   6.815   2.028
 4605SOL    HW114714   2.325   6.905   2.067
 4605SOL    HW214715   2.320   6.744   2.095
 4606SOL     OW14716   0.269   6.697   2.509
 4606SOL    HW114717   0.283   6.769   2.441
 4606SOL    HW214718   0.266   6.608   2.464
 4607SOL     OW14719   2.034   4.089   2.967
 4607SOL    HW114720   1.966   4.147   2.922
 4607SOL    HW214721   2.052   4.008   2.910
 4608SOL     OW14722   0.190   3.532   4.926
 4608SOL    HW114723   0.212   3.502   5.019
 4608SOL    HW214724   0.137   3.461   4.880
 4609SOL     OW14725   4.059   6.206   6.333
 4609SOL    HW114726   4.141   6.192   6.278
 4609SOL    HW214727   4.078   6.180   6.428
 4610SOL     OW14728   5.356   2.299   6.658
 4610SOL    HW114729   5.439   2.274   6.707
 4610SOL    HW214730   5.276   2.275   6.714
 4611SOL     OW14731   0.447   1.008   5.947
 4611SOL    HW114732   0.481   0.925   5.902
 4611SOL    HW214733   0.416   1.073   5.878
 4612SOL     OW14734   2.327   6.180   2.381
 4612SOL    HW114735   2.363   6.234   2.457
 4612SOL    HW214736   2.354   6.221   2.294
 4613SOL     OW14737   1.981   4.379   2.198
 4613SOL    HW114738   2.081   4.377   2.210
 4613SOL    HW214739   1.957   4.456   2.138
 4614SOL     OW14740   6.088   2.845   3.598
 4614SOL    HW114741   6.145   2.870   3.519
 4614SOL    HW214742   6.147   2.815   3.673
 4615SOL     OW14743   0.671   1.136   1.092
 4615SOL    HW114744   0.751   1.089   1.056
 4615SOL    HW214745   0.697   1.186   1.175
 4616SOL     OW14746   6.576   2.698   5.204
 4616SOL    HW114747   6.572   2.678   5.107
 4616SOL    HW214748   6.643   2.771   5.220
 4617SOL     OW14749   0.441   2.641   2.179
 4617SOL    HW114750   0.467   2.691   2.262
 4617SOL    HW214751   0.414   2.706   2.108
 4618SOL     OW14752   2.597   3.816   5.647
 4618SOL    HW114753   2.574   3.845   5.740
 4618SOL    HW214754   2.650   3.888   5.601
 4619SOL     OW14755   3.120   5.990   4.347
 4619SOL    HW114756   3.040   5.950   4.303
 4619SOL    HW214757   3.123   5.962   4.443
 4620SOL     OW14758   0.625   5.444   1.338
 4620SOL    HW114759   0.577   5.456   1.251
 4620SOL    HW214760   0.694   5.372   1.328
 4621SOL     OW14761   5.243   0.500   2.256
 4621SOL    HW114762   5.298   0.478   2.337
 4621SOL    HW214763   5.148   0.517   2.284
 4622SOL     OW14764   4.311   5.626   0.930
 4622SOL    HW114765   4.343   5.587   0.844
 4622SOL    HW214766   4.389   5.659   0.984
 4623SOL     OW14767   3.298   5.101   0.854
 4623SOL    HW114768   3.360   5.023   0.863
 4623SOL    HW214769   3.315   5.148   0.767
 4624SOL     OW14770   3.792   1.398   3.456
 4624SOL    HW114771   3.757   1.491   3.454
 4624SOL    HW214772   3.870   1.393   3.518
 4625SOL     OW14773   1.761   5.363   2.058
 4625SOL    HW114774   1.695   5.291   2.077
 4625SOL    HW214775   1.761   5.429   2.134
 4626SOL     OW14776   4.132   3.847   1.753
 4626SOL    HW114777   4.040   3.849   1.712
 4626SOL    HW214778   4.185   3.924   1.718
 4627SOL     OW14779   0.230   5.936   4.661
 4627SOL    HW114780   0.316   5.892   4.686
 4627SOL    HW214781   0.249   6.028   4.626
 4628SOL     OW14782   4.535   4.983   3.518
 4628SOL    HW114783   4.571   4.963   3.427
 4628SOL    HW214784   4.590   4.936   3.587
 4629SOL     OW14785   1.803   5.570   6.437
 4629SOL    HW114786   1.781   5.659   6.477
 4629SOL    HW214787   1.855   5.584   6.353
 4630SOL     OW14788   1.257   5.630   2.499
 4630SOL    HW114789   1.234   5.605   2.593
 4630SOL    HW214790   1.307   5.716   2.498
 4631SOL     OW14791   0.163   0.495   3.928
 4631SOL    HW114792   0.100   0.544   3.867
 4631SOL    HW214793   0.257   0.509   3.897
 4632SOL     OW14794   3.008   5.389   2.671
 4632SOL    HW114795   2.983   5.356   2.581
 4632SOL    HW214796   3.100   5.357   2.694
 4633SOL     OW14797   5.458   1.510   4.379
 4633SOL    HW114798   5.513   1.525   4.461
 4633SOL    HW214799   5.382   1.576   4.377
 4634SOL     OW14800   2.989   3.789   4.837
 4634SOL    HW114801   3.059   3.843   4.792
 4634SOL    HW214802   2.962   3.832   4.923
 4635SOL     OW14803   4.775   5.197   0.846
 4635SOL    HW114804   4.676   5.194   0.864
 4635SOL    HW214805   4.824   5.216   0.931
 4636SOL     OW14806   1.822   5.316   0.997
 4636SOL    HW114807   1.913   5.285   1.025
 4636SOL    HW214808   1.829   5.368   0.912
 4637SOL     OW14809   1.522   6.873   1.598
 4637SOL    HW114810   1.497   6.788   1.552
 4637SOL    HW214811   1.471   6.881   1.684
 4638SOL     OW14812   3.899   5.219   0.636
 4638SOL    HW114813   3.928   5.146   0.574
 4638SOL    HW214814   3.931   5.199   0.728
 4639SOL     OW14815   2.452   2.599   0.387
 4639SOL    HW114816   2.438   2.520   0.327
 4639SOL    HW214817   2.472   2.680   0.332
 4640SOL     OW14818   5.875   3.267   5.587
 4640SOL    HW114819   5.842   3.189   5.641
 4640SOL    HW214820   5.975   3.266   5.585
 4641SOL     OW14821   1.014   6.423   3.740
 4641SOL    HW114822   1.039   6.482   3.817
 4641SOL    HW214823   0.990   6.332   3.774
 4642SOL     OW14824   1.536   1.726   3.929
 4642SOL    HW114825   1.496   1.811   3.964
 4642SOL    HW214826   1.482   1.648   3.959
 4643SOL     OW14827   6.706   2.283   0.112
 4643SOL    HW114828   6.611   2.258   0.132
 4643SOL    HW214829   6.718   2.381   0.131
 4644SOL     OW14830   1.180   1.465   6.667
 4644SOL    HW114831   1.142   1.518   6.592
 4644SOL    HW214832   1.244   1.397   6.632
 4645SOL     OW14833   1.420   0.689   3.873
 4645SOL    HW114834   1.441   0.592   3.863
 4645SOL    HW214835   1.321   0.702   3.871
 4646SOL     OW14836   2.407   5.232   4.407
 4646SOL    HW114837   2.463   5.149   4.410
 4646SOL    HW214838   2.432   5.291   4.483
 4647SOL     OW14839   1.960   6.671   2.943
 4647SOL    HW114840   1.931   6.581   2.911
 4647SOL    HW214841   2.032   6.706   2.882
 4648SOL     OW14842   3.126   1.198   3.875
 4648SOL    HW114843   3.192   1.133   3.838
 4648SOL    HW214844   3.051   1.149   3.917
 4649SOL     OW14845   6.146   0.958   0.748
 4649SOL    HW114846   6.107   0.888   0.689
 4649SOL    HW214847   6.215   0.918   0.808
 4650SOL     OW14848   5.313   6.037   1.714
 4650SOL    HW114849   5.347   6.075   1.628
 4650SOL    HW214850   5.361   6.079   1.791
 4651SOL     OW14851   6.836   3.816   6.158
 4651SOL    HW114852   6.741   3.801   6.130
 4651SOL    HW214853   6.887   3.857   6.083
 4652SOL     OW14854   0.160   5.851   4.407
 4652SOL    HW114855   0.140   5.870   4.503
 4652SOL    HW214856   0.246   5.800   4.400
 4653SOL     OW14857   4.653   5.824   0.405
 4653SOL    HW114858   4.626   5.881   0.483
 4653SOL    HW214859   4.738   5.858   0.366
 4654SOL     OW14860   6.703   6.279   4.542
 4654SOL    HW114861   6.795   6.291   4.505
 4654SOL    HW214862   6.636   6.315   4.477
 4655SOL     OW14863   5.548   2.867   1.663
 4655SOL    HW114864   5.472   2.810   1.632
 4655SOL    HW214865   5.586   2.828   1.747
 4656SOL     OW14866   0.711   0.480   1.590
 4656SOL    HW114867   0.629   0.441   1.548
 4656SOL    HW214868   0.713   0.579   1.575
 4657SOL     OW14869   5.211   6.721   2.103
 4657SOL    HW114870   5.197   6.807   2.152
 4657SOL    HW214871   5.195   6.734   2.006
 4658SOL     OW14872   2.244   2.643   5.430
 4658SOL    HW114873   2.172   2.667   5.494
 4658SOL    HW214874   2.272   2.724   5.379
 4659SOL     OW14875   3.482   4.358   1.337
 4659SOL    HW114876   3.450   4.315   1.422
 4659SOL    HW214877   3.540   4.436   1.359
 4660SOL     OW14878   1.194   6.864   3.539
 4660SOL    HW114879   1.112   6.814   3.566
 4660SOL    HW214880   1.179   6.906   3.449
 4661SOL     OW14881   2.248   3.822   5.690
 4661SOL    HW114882   2.158   3.861   5.670
 4661SOL    HW214883   2.261   3.740   5.635
 4662SOL     OW14884   3.057   6.698   5.110
 4662SOL    HW114885   3.035   6.728   5.203
 4662SOL    HW214886   3.061   6.598   5.108
 4663SOL     OW14887   1.109   0.200   0.196
 4663SOL    HW114888   1.087   0.249   0.281
 4663SOL    HW214889   1.027   0.153   0.163
 4664SOL     OW14890   6.685   0.025   0.721
 4664SOL    HW114891   6.637   7.001   0.793
 4664SOL    HW214892   6.680   7.001   0.635
 4665SOL     OW14893   1.998   0.824   5.512
 4665SOL    HW114894   2.029   0.914   5.543
 4665SOL    HW214895   1.905   0.831   5.477
 4666SOL     OW14896   2.123   2.473   6.811
 4666SOL    HW114897   2.076   2.523   6.884
 4666SOL    HW214898   2.181   2.403   6.851
 4667SOL     OW14899   6.540   3.888   1.915
 4667SOL    HW114900   6.625   3.835   1.907
 4667SOL    HW214901   6.499   3.872   2.004
 4668SOL     OW14902   3.941   2.135   5.015
 4668SOL    HW114903   3.857   2.083   5.027
 4668SOL    HW214904   3.951   2.161   4.919
 4669SOL     OW14905   5.080   0.365   0.462
 4669SOL    HW114906   5.152   0.331   0.402
 4669SOL    HW214907   5.026   0.433   0.413
 4670SOL     OW14908   1.686   3.521   0.157
 4670SOL    HW114909   1.619   3.571   0.212
 4670SOL    HW214910   1.750   3.586   0.116
 4671SOL     OW14911   0.711   3.211   0.083
 4671SOL    HW114912   0.758   3.123   0.081
 4671SOL    HW214913   0.773   3.281   0.121
 4672SOL     OW14914   3.896   4.712   5.725
 4672SOL    HW114915   3.963   4.652   5.681
 4672SOL    HW214916   3.899   4.700   5.824
 4673SOL     OW14917   4.862   0.488   6.874
 4673SOL    HW114918   4.772   0.449   6.853
 4673SOL    HW214919   4.921   0.482   6.793
 4674SOL     OW14920   0.109   1.515   0.593
 4674SOL    HW114921   0.121   1.599   0.541
 4674SOL    HW214922   0.012   1.498   0.608
 4675SOL     OW14923   3.543   6.120   6.525
 4675SOL    HW114924   3.601   6.199   6.504
 4675SOL    HW214925   3.521   6.119   6.622
 4676SOL     OW14926   0.989   6.487   5.071
 4676SOL    HW114927   1.038   6.400   5.076
 4676SOL    HW214928   1.042   6.552   5.017
 4677SOL     OW14929   3.387   0.074   6.740
 4677SOL    HW114930   3.477   0.039   6.764
 4677SOL    HW214931   3.369   0.158   6.791
 4678SOL     OW14932   2.068   5.298   1.611
 4678SOL    HW114933   2.016   5.292   1.526
 4678SOL    HW214934   2.068   5.392   1.643
 4679SOL     OW14935   2.682   1.421   6.239
 4679SOL    HW114936   2.585   1.400   6.255
 4679SOL    HW214937   2.738   1.370   6.303
 4680SOL     OW14938   1.965   5.280   1.360
 4680SOL    HW114939   2.021   5.260   1.280
 4680SOL    HW214940   1.913   5.364   1.345
 4681SOL     OW14941   0.753   5.386   5.013
 4681SOL    HW114942   0.806   5.386   5.098
 4681SOL    HW214943   0.794   5.450   4.948
 4682SOL     OW14944   3.897   6.284   0.354
 4682SOL    HW114945   3.980   6.306   0.406
 4682SOL    HW214946   3.832   6.359   0.362
 4683SOL     OW14947   6.435   3.858   2.159
 4683SOL    HW114948   6.434   3.957   2.166
 4683SOL    HW214949   6.345   3.822   2.183
 4684SOL     OW14950   1.588   2.673   4.532
 4684SOL    HW114951   1.504   2.668   4.479
 4684SOL    HW214952   1.667   2.674   4.471
 4685SOL     OW14953   6.145   5.205   4.311
 4685SOL    HW114954   6.142   5.150   4.395
 4685SOL    HW214955   6.240   5.227   4.290
 4686SOL     OW14956   4.921   6.171   6.855
 4686SOL    HW114957   4.932   6.109   6.778
 4686SOL    HW214958   5.003   6.226   6.865
 4687SOL     OW14959   6.741   3.935   4.466
 4687SOL    HW114960   6.667   3.938   4.533
 4687SOL    HW214961   6.732   4.014   4.404
 4688SOL     OW14962   0.465   3.305   6.542
 4688SOL    HW114963   0.404   3.257   6.605
 4688SOL    HW214964   0.560   3.286   6.566
 4689SOL     OW14965   0.216   0.206   5.546
 4689SOL    HW114966   0.208   0.191   5.645
 4689SOL    HW214967   0.208   0.303   5.526
 4690SOL     OW14968   1.536   1.391   0.205
 4690SOL    HW114969   1.460   1.413   0.265
 4690SOL    HW214970   1.537   1.292   0.188
 4691SOL     OW14971   2.749   4.112   1.205
 4691SOL    HW114972   2.679   4.169   1.248
 4691SOL    HW214973   2.804   4.068   1.277
 4692SOL     OW14974   0.144   5.155   2.959
 4692SOL    HW114975   0.055   5.190   2.989
 4692SOL    HW214976   0.154   5.059   2.986
 4693SOL     OW14977   0.397   1.464   4.432
 4693SOL    HW114978   0.466   1.423   4.492
 4693SOL    HW214979   0.321   1.497   4.487
 4694SOL     OW14980   2.545   1.252   0.069
 4694SOL    HW114981   2.453   1.266   0.033
 4694SOL    HW214982   2.567   1.323   0.136
 4695SOL     OW14983   3.904   2.745   1.702
 4695SOL    HW114984   3.982   2.684   1.688
 4695SOL    HW214985   3.842   2.740   1.623
 4696SOL     OW14986   0.375   3.551   6.198
 4696SOL    HW114987   0.421   3.520   6.114
 4696SOL    HW214988   0.411   3.640   6.224
 4697SOL     OW14989   1.569   3.908   0.378
 4697SOL    HW114990   1.533   3.814   0.372
 4697SOL    HW214991   1.666   3.905   0.401
 4698SOL     OW14992   5.529   4.852   1.329
 4698SOL    HW114993   5.491   4.932   1.282
 4698SOL    HW214994   5.482   4.840   1.417
 4699SOL     OW14995   0.005   0.115   2.093
 4699SOL    HW114996   6.996   0.023   2.103
 4699SOL    HW214997   6.982   0.164   2.021
 4700SOL     OW14998   5.208   1.685   0.960
 4700SOL    HW114999   5.192   1.774   1.003
 4700SOL    HW215000   5.161   1.681   0.872
 4701SOL     OW15001   1.066   1.430   0.661
 4701SOL    HW115002   1.059   1.494   0.737
 4701SOL    HW215003   1.002   1.457   0.589
 4702SOL     OW15004   4.110   3.815   6.783
 4702SOL    HW115005   4.209   3.824   6.792
 4702SOL    HW215006   4.085   3.718   6.780
 4703SOL     OW15007   1.675   1.470   3.324
 4703SOL    HW115008   1.679   1.532   3.403
 4703SOL    HW215009   1.767   1.435   3.305
 4704SOL     OW15010   0.022   6.598   0.819
 4704SOL    HW115011   6.981   6.664   0.851
 4704SOL    HW215012   0.096   6.593   0.886
 4705SOL     OW15013   3.809   2.914   4.340
 4705SOL    HW115014   3.867   2.832   4.342
 4705SOL    HW215015   3.827   2.970   4.421
 4706SOL     OW15016   3.375   5.901   6.763
 4706SOL    HW115017   3.386   6.000   6.761
 4706SOL    HW215018   3.279   5.878   6.745
 4707SOL     OW15019   1.727   5.674   1.110
 4707SOL    HW115020   1.679   5.751   1.068
 4707SOL    HW215021   1.661   5.605   1.138
 4708SOL     OW15022   3.295   1.969   0.689
 4708SOL    HW115023   3.310   2.044   0.626
 4708SOL    HW215024   3.341   1.989   0.776
 4709SOL     OW15025   3.837   4.792   5.354
 4709SOL    HW115026   3.876   4.826   5.268
 4709SOL    HW215027   3.854   4.693   5.360
 4710SOL     OW15028   4.725   1.547   6.988
 4710SOL    HW115029   4.708   1.494   6.905
 4710SOL    HW215030   4.816   1.589   6.983
 4711SOL     OW15031   3.135   0.174   2.526
 4711SOL    HW115032   3.138   0.264   2.483
 4711SOL    HW215033   3.201   0.113   2.481
 4712SOL     OW15034   1.899   4.646   1.181
 4712SOL    HW115035   1.816   4.671   1.132
 4712SOL    HW215036   1.930   4.722   1.238
 4713SOL     OW15037   2.701   5.220   1.602
 4713SOL    HW115038   2.680   5.139   1.547
 4713SOL    HW215039   2.617   5.258   1.640
 4714SOL     OW15040   2.665   1.412   1.689
 4714SOL    HW115041   2.675   1.393   1.591
 4714SOL    HW215042   2.743   1.465   1.721
 4715SOL     OW15043   6.949   3.002   2.522
 4715SOL    HW115044   6.867   3.043   2.482
 4715SOL    HW215045   6.929   2.971   2.615
 4716SOL     OW15046   3.846   5.106   6.680
 4716SOL    HW115047   3.777   5.166   6.720
 4716SOL    HW215048   3.829   5.012   6.708
 4717SOL     OW15049   1.050   5.839   2.487
 4717SOL    HW115050   1.125   5.786   2.446
 4717SOL    HW215051   1.017   5.791   2.569
 4718SOL     OW15052   5.085   1.707   6.252
 4718SOL    HW115053   5.119   1.680   6.342
 4718SOL    HW215054   4.986   1.701   6.251
 4719SOL     OW15055   5.836   3.720   2.655
 4719SOL    HW115056   5.791   3.640   2.694
 4719SOL    HW215057   5.767   3.781   2.616
 4720SOL     OW15058   2.690   6.515   5.576
 4720SOL    HW115059   2.607   6.555   5.537
 4720SOL    HW215060   2.737   6.459   5.507
 4721SOL     OW15061   1.201   2.200   1.134
 4721SOL    HW115062   1.276   2.165   1.078
 4721SOL    HW215063   1.113   2.174   1.094
 4722SOL     OW15064   1.785   6.798   0.274
 4722SOL    HW115065   1.855   6.840   0.217
 4722SOL    HW215066   1.702   6.853   0.272
 4723SOL     OW15067   2.640   6.669   6.625
 4723SOL    HW115068   2.738   6.649   6.617
 4723SOL    HW215069   2.588   6.585   6.609
 4724SOL     OW15070   3.923   6.565   2.373
 4724SOL    HW115071   3.886   6.601   2.287
 4724SOL    HW215072   4.011   6.609   2.393
 4725SOL     OW15073   5.036   6.567   3.224
 4725SOL    HW115074   5.045   6.505   3.302
 4725SOL    HW215075   4.984   6.522   3.152
 4726SOL     OW15076   1.513   4.024   6.571
 4726SOL    HW115077   1.570   3.952   6.532
 4726SOL    HW215078   1.425   3.986   6.598
 4727SOL     OW15079   6.609   5.630   0.333
 4727SOL    HW115080   6.608   5.645   0.432
 4727SOL    HW215081   6.615   5.718   0.286
 4728SOL     OW15082   6.307   1.275   0.008
 4728SOL    HW115083   6.232   1.258   6.972
 4728SOL    HW215084   6.281   1.347   0.073
 4729SOL     OW15085   2.293   6.838   2.301
 4729SOL    HW115086   2.237   6.909   2.343
 4729SOL    HW215087   2.375   6.822   2.357
 4730SOL     OW15088   2.181   6.153   5.535
 4730SOL    HW115089   2.277   6.126   5.526
 4730SOL    HW215090   2.165   6.191   5.626
 4731SOL     OW15091   5.516   1.269   5.023
 4731SOL    HW115092   5.480   1.279   4.930
 4731SOL    HW215093   5.451   1.215   5.077
 4732SOL     OW15094   0.154   3.395   6.820
 4732SOL    HW115095   0.214   3.323   6.785
 4732SOL    HW215096   0.201   3.483   6.816
 4733SOL     OW15097   0.180   3.412   2.705
 4733SOL    HW115098   0.245   3.487   2.693
 4733SOL    HW215099   0.090   3.448   2.729
 4734SOL     OW15100   4.868   3.316   0.230
 4734SOL    HW115101   4.846   3.236   0.286
 4734SOL    HW215102   4.847   3.400   0.281
 4735SOL     OW15103   0.600   4.117   4.361
 4735SOL    HW115104   0.648   4.202   4.339
 4735SOL    HW215105   0.599   4.057   4.281
 4736SOL     OW15106   0.684   1.291   6.939
 4736SOL    HW115107   0.587   1.272   6.951
 4736SOL    HW215108   0.696   1.383   6.901
 4737SOL     OW15109   2.783   4.872   1.929
 4737SOL    HW115110   2.791   4.778   1.964
 4737SOL    HW215111   2.687   4.901   1.935
 4738SOL     OW15112   6.780   6.173   1.727
 4738SOL    HW115113   6.857   6.225   1.767
 4738SOL    HW215114   6.714   6.152   1.799
 4739SOL     OW15115   3.963   0.723   2.220
 4739SOL    HW115116   3.991   0.811   2.182
 4739SOL    HW215117   3.897   0.680   2.158
 4740SOL     OW15118   1.194   1.878   2.322
 4740SOL    HW115119   1.286   1.858   2.357
 4740SOL    HW215120   1.135   1.906   2.398
 4741SOL     OW15121   4.203   2.696   1.550
 4741SOL    HW115122   4.251   2.617   1.588
 4741SOL    HW215123   4.133   2.665   1.485
 4742SOL     OW15124   2.893   6.759   0.461
 4742SOL    HW115125   2.965   6.819   0.427
 4742SOL    HW215126   2.918   6.664   0.444
 4743SOL     OW15127   1.916   4.295   1.719
 4743SOL    HW115128   2.014   4.291   1.734
 4743SOL    HW215129   1.883   4.388   1.737
 4744SOL     OW15130   2.180   6.120   0.767
 4744SOL    HW115131   2.235   6.124   0.684
 4744SOL    HW215132   2.105   6.186   0.762
 4745SOL     OW15133   1.969   4.048   0.617
 4745SOL    HW115134   2.021   4.094   0.545
 4745SOL    HW215135   2.028   3.983   0.665
 4746SOL     OW15136   4.508   5.186   4.283
 4746SOL    HW115137   4.508   5.276   4.327
 4746SOL    HW215138   4.575   5.185   4.209
 4747SOL     OW15139   1.866   3.093   0.717
 4747SOL    HW115140   1.877   2.997   0.689
 4747SOL    HW215141   1.775   3.125   0.692
 4748SOL     OW15142   1.682   6.501   2.640
 4748SOL    HW115143   1.653   6.522   2.734
 4748SOL    HW215144   1.742   6.421   2.641
 4749SOL     OW15145   2.093   0.127   0.480
 4749SOL    HW115146   2.077   0.129   0.381
 4749SOL    HW215147   2.175   0.072   0.499
 4750SOL     OW15148   5.775   3.522   5.024
 4750SOL    HW115149   5.753   3.424   5.017
 4750SOL    HW215150   5.799   3.557   4.933
 4751SOL     OW15151   4.572   0.998   2.392
 4751SOL    HW115152   4.509   0.999   2.469
 4751SOL    HW215153   4.652   1.055   2.413
 4752SOL     OW15154   4.442   2.276   0.035
 4752SOL    HW115155   4.461   2.187   0.077
 4752SOL    HW215156   4.527   2.330   0.032
 4753SOL     OW15157   2.170   6.632   5.447
 4753SOL    HW115158   2.111   6.702   5.405
 4753SOL    HW215159   2.139   6.541   5.419
 4754SOL     OW15160   4.191   4.283   6.768
 4754SOL    HW115161   4.121   4.271   6.838
 4754SOL    HW215162   4.266   4.338   6.806
 4755SOL     OW15163   1.528   0.432   1.861
 4755SOL    HW115164   1.462   0.363   1.890
 4755SOL    HW215165   1.615   0.388   1.839
 4756SOL     OW15166   5.996   4.242   6.631
 4756SOL    HW115167   6.052   4.223   6.712
 4756SOL    HW215168   5.984   4.158   6.578
 4757SOL     OW15169   1.730   3.078   1.457
 4757SOL    HW115170   1.648   3.065   1.402
 4757SOL    HW215171   1.780   3.158   1.424
 4758SOL     OW15172   1.721   0.336   3.071
 4758SOL    HW115173   1.627   0.366   3.056
 4758SOL    HW215174   1.766   0.399   3.135
 4759SOL     OW15175   0.836   4.945   0.952
 4759SOL    HW115176   0.929   4.940   0.917
 4759SOL    HW215177   0.836   4.926   1.050
 4760SOL     OW15178   1.616   6.697   0.774
 4760SOL    HW115179   1.656   6.789   0.778
 4760SOL    HW215180   1.577   6.674   0.863
 4761SOL     OW15181   0.388   6.619   0.553
 4761SOL    HW115182   0.361   6.525   0.531
 4761SOL    HW215183   0.323   6.659   0.617
 4762SOL     OW15184   1.834   5.858   2.520
 4762SOL    HW115185   1.843   5.940   2.575
 4762SOL    HW215186   1.916   5.801   2.530
 4763SOL     OW15187   4.697   5.600   1.859
 4763SOL    HW115188   4.702   5.531   1.787
 4763SOL    HW215189   4.718   5.558   1.947
 4764SOL     OW15190   4.656   3.982   6.017
 4764SOL    HW115191   4.686   4.045   6.089
 4764SOL    HW215192   4.642   3.891   6.056
 4765SOL     OW15193   3.856   1.690   5.284
 4765SOL    HW115194   3.952   1.669   5.268
 4765SOL    HW215195   3.823   1.751   5.211
 4766SOL     OW15196   6.656   6.957   4.256
 4766SOL    HW115197   6.596   6.913   4.324
 4766SOL    HW215198   6.711   6.887   4.210
 4767SOL     OW15199   2.194   5.067   4.546
 4767SOL    HW115200   2.154   5.043   4.457
 4767SOL    HW215201   2.294   5.055   4.541
 4768SOL     OW15202   4.667   2.608   6.600
 4768SOL    HW115203   4.697   2.693   6.557
 4768SOL    HW215204   4.625   2.549   6.532
 4769SOL     OW15205   3.371   5.535   1.268
 4769SOL    HW115206   3.277   5.527   1.235
 4769SOL    HW215207   3.376   5.609   1.335
 4770SOL     OW15208   6.917   1.785   5.221
 4770SOL    HW115209   6.967   1.803   5.306
 4770SOL    HW215210   6.923   1.687   5.199
 4771SOL     OW15211   2.833   0.183   5.201
 4771SOL    HW115212   2.797   0.260   5.149
 4771SOL    HW215213   2.883   0.122   5.139
 4772SOL     OW15214   2.854   5.645   0.733
 4772SOL    HW115215   2.756   5.632   0.723
 4772SOL    HW215216   2.899   5.623   0.647
 4773SOL     OW15217   2.314   5.771   4.536
 4773SOL    HW115218   2.356   5.707   4.471
 4773SOL    HW215219   2.312   5.729   4.627
 4774SOL     OW15220   1.763   4.016   0.026
 4774SOL    HW115221   1.672   4.056   0.037
 4774SOL    HW215222   1.764   3.957   6.972
 4775SOL     OW15223   5.727   6.478   4.839
 4775SOL    HW115224   5.727   6.436   4.930
 4775SOL    HW215225   5.822   6.487   4.807
 4776SOL     OW15226   1.487   0.753   5.935
 4776SOL    HW115227   1.457   0.836   5.981
 4776SOL    HW215228   1.425   0.678   5.957
 4777SOL     OW15229   0.846   5.769   0.595
 4777SOL    HW115230   0.784   5.729   0.529
 4777SOL    HW215231   0.924   5.811   0.547
 4778SOL     OW15232   0.489   2.095   4.571
 4778SOL    HW115233   0.415   2.044   4.526
 4778SOL    HW215234   0.454   2.135   4.656
 4779SOL     OW15235   5.713   1.279   3.787
 4779SOL    HW115236   5.650   1.293   3.863
 4779SOL    HW215237   5.792   1.340   3.798
 4780SOL     OW15238   5.815   2.729   5.365
 4780SOL    HW115239   5.896   2.691   5.320
 4780SOL    HW215240   5.843   2.783   5.445
 4781SOL     OW15241   1.670   5.916   2.297
 4781SOL    HW115242   1.734   5.904   2.372
 4781SOL    HW215243   1.603   5.842   2.297
 4782SOL     OW15244   5.601   4.977   5.193
 4782SOL    HW115245   5.568   4.899   5.141
 4782SOL    HW215246   5.648   5.041   5.132
 4783SOL     OW15247   5.977   3.137   0.947
 4783SOL    HW115248   5.889   3.107   0.912
 4783SOL    HW215249   6.015   3.208   0.887
 4784SOL     OW15250   5.581   2.605   6.443
 4784SOL    HW115251   5.641   2.564   6.512
 4784SOL    HW215252   5.594   2.704   6.442
 4785SOL     OW15253   0.713   6.175   3.404
 4785SOL    HW115254   0.678   6.083   3.420
 4785SOL    HW215255   0.647   6.243   3.438
 4786SOL     OW15256   2.766   6.385   0.613
 4786SOL    HW115257   2.727   6.421   0.698
 4786SOL    HW215258   2.866   6.387   0.618
 4787SOL     OW15259   4.262   1.758   4.511
 4787SOL    HW115260   4.226   1.849   4.533
 4787SOL    HW215261   4.211   1.720   4.434
 4788SOL     OW15262   6.142   5.983   6.773
 4788SOL    HW115263   6.067   6.036   6.813
 4788SOL    HW215264   6.190   6.039   6.705
 4789SOL     OW15265   4.599   0.585   2.165
 4789SOL    HW115266   4.568   0.556   2.255
 4789SOL    HW215267   4.556   0.672   2.140
 4790SOL     OW15268   5.798   1.827   5.044
 4790SOL    HW115269   5.815   1.747   4.987
 4790SOL    HW215270   5.886   1.867   5.071
 4791SOL     OW15271   0.229   2.682   0.743
 4791SOL    HW115272   0.176   2.660   0.660
 4791SOL    HW215273   0.275   2.770   0.731
 4792SOL     OW15274   2.035   3.759   4.202
 4792SOL    HW115275   2.031   3.832   4.134
 4792SOL    HW215276   2.022   3.798   4.293
 4793SOL     OW15277   1.408   3.940   6.261
 4793SOL    HW115278   1.449   3.926   6.171
 4793SOL    HW215279   1.347   3.864   6.283
 4794SOL     OW15280   4.924   0.836   4.588
 4794SOL    HW115281   4.998   0.868   4.647
 4794SOL    HW215282   4.905   0.740   4.607
 4795SOL     OW15283   0.517   0.329   5.034
 4795SOL    HW115284   0.500   0.341   5.132
 4795SOL    HW215285   0.606   0.286   5.020
 4796SOL     OW15286   3.498   1.216   5.565
 4796SOL    HW115287   3.555   1.207   5.484
 4796SOL    HW215288   3.495   1.311   5.594
 4797SOL     OW15289   0.999   5.197   4.618
 4797SOL    HW115290   0.900   5.206   4.623
 4797SOL    HW215291   1.040   5.233   4.702
 4798SOL     OW15292   4.868   4.781   6.251
 4798SOL    HW115293   4.817   4.851   6.201
 4798SOL    HW215294   4.964   4.808   6.258
 4799SOL     OW15295   3.693   3.008   6.658
 4799SOL    HW115296   3.615   3.048   6.609
 4799SOL    HW215297   3.694   3.042   6.752
 4800SOL     OW15298   1.617   4.997   0.073
 4800SOL    HW115299   1.633   4.950   7.014
 4800SOL    HW215300   1.704   5.028   0.111
 4801SOL     OW15301   4.967   2.710   1.696
 4801SOL    HW115302   4.893   2.778   1.700
 4801SOL    HW215303   4.963   2.662   1.608
 4802SOL     OW15304   0.032   6.082   2.374
 4802SOL    HW115305   0.052   6.125   2.462
 4802SOL    HW215306   0.093   6.003   2.361
 4803SOL     OW15307   5.317   4.379   6.837
 4803SOL    HW115308   5.349   4.301   6.782
 4803SOL    HW215309   5.395   4.424   6.880
 4804SOL     OW15310   5.383   2.202   0.233
 4804SOL    HW115311   5.409   2.207   0.330
 4804SOL    HW215312   5.288   2.231   0.223
 4805SOL     OW15313   6.073   1.899   0.930
 4805SOL    HW115314   6.171   1.918   0.919
 4805SOL    HW215315   6.057   1.801   0.924
 4806SOL     OW15316   1.368   2.824   2.899
 4806SOL    HW115317   1.358   2.879   2.982
 4806SOL    HW215318   1.402   2.882   2.825
 4807SOL     OW15319   1.370   2.907   6.792
 4807SOL    HW115320   1.315   2.978   6.834
 4807SOL    HW215321   1.445   2.949   6.740
 4808SOL     OW15322   3.622   5.751   0.738
 4808SOL    HW115323   3.671   5.716   0.658
 4808SOL    HW215324   3.672   5.830   0.775
 4809SOL     OW15325   3.619   4.977   1.675
 4809SOL    HW115326   3.591   5.068   1.705
 4809SOL    HW215327   3.559   4.947   1.600
 4810SOL     OW15328   1.299   4.155   3.592
 4810SOL    HW115329   1.333   4.150   3.498
 4810SOL    HW215330   1.263   4.065   3.619
 4811SOL     OW15331   3.183   3.911   4.680
 4811SOL    HW115332   3.241   3.992   4.681
 4811SOL    HW215333   3.120   3.916   4.603
 4812SOL     OW15334   0.351   6.642   2.139
 4812SOL    HW115335   0.288   6.571   2.108
 4812SOL    HW215336   0.441   6.602   2.153
 4813SOL     OW15337   6.264   1.376   0.300
 4813SOL    HW115338   6.338   1.426   0.255
 4813SOL    HW215339   6.178   1.423   0.284
 4814SOL     OW15340   0.096   3.833   1.569
 4814SOL    HW115341   7.026   3.844   1.590
 4814SOL    HW215342   0.117   3.736   1.555
 4815SOL     OW15343   5.784   4.660   2.490
 4815SOL    HW115344   5.818   4.615   2.572
 4815SOL    HW215345   5.712   4.604   2.449
 4816SOL     OW15346   1.152   6.984   2.215
 4816SOL    HW115347   1.198   6.895   2.216
 4816SOL    HW215348   1.179   0.007   2.134
 4817SOL     OW15349   3.806   1.520   1.487
 4817SOL    HW115350   3.753   1.587   1.538
 4817SOL    HW215351   3.748   1.442   1.463
 4818SOL     OW15352   3.033   0.461   4.466
 4818SOL    HW115353   2.944   0.495   4.497
 4818SOL    HW215354   3.055   0.501   4.377
 4819SOL     OW15355   3.124   0.797   1.674
 4819SOL    HW115356   3.186   0.874   1.689
 4819SOL    HW215357   3.155   0.743   1.596
 4820SOL     OW15358   7.028   4.405   2.439
 4820SOL    HW115359   0.063   4.359   2.376
 4820SOL    HW215360   6.965   4.337   2.479
 4821SOL     OW15361   6.466   5.354   1.724
 4821SOL    HW115362   6.551   5.406   1.718
 4821SOL    HW215363   6.428   5.342   1.632
 4822SOL     OW15364   2.234   4.088   4.042
 4822SOL    HW115365   2.246   4.185   4.066
 4822SOL    HW215366   2.324   4.045   4.032
 4823SOL     OW15367   0.801   0.266   4.145
 4823SOL    HW115368   0.865   0.200   4.105
 4823SOL    HW215369   0.797   0.252   4.244
 4824SOL     OW15370   5.551   2.296   2.453
 4824SOL    HW115371   5.619   2.304   2.380
 4824SOL    HW215372   5.493   2.377   2.455
 4825SOL     OW15373   2.107   3.473   3.700
 4825SOL    HW115374   2.025   3.527   3.721
 4825SOL    HW215375   2.170   3.478   3.777
 4826SOL     OW15376   0.314   6.377   0.536
 4826SOL    HW115377   0.386   6.332   0.589
 4826SOL    HW215378   0.227   6.365   0.583
 4827SOL     OW15379   4.450   1.126   1.326
 4827SOL    HW115380   4.396   1.204   1.357
 4827SOL    HW215381   4.402   1.079   1.252
 4828SOL     OW15382   5.381   3.389   2.142
 4828SOL    HW115383   5.348   3.297   2.119
 4828SOL    HW215384   5.324   3.457   2.097
 4829SOL     OW15385   3.001   0.357   6.000
 4829SOL    HW115386   2.904   0.364   5.977
 4829SOL    HW215387   3.032   0.444   6.038
 4830SOL     OW15388   4.805   6.031   3.763
 4830SOL    HW115389   4.824   5.936   3.787
 4830SOL    HW215390   4.890   6.083   3.760
 4831SOL     OW15391   6.453   4.611   5.405
 4831SOL    HW115392   6.484   4.680   5.470
 4831SOL    HW215393   6.358   4.587   5.425
 4832SOL     OW15394   3.174   3.094   5.886
 4832SOL    HW115395   3.091   3.127   5.931
 4832SOL    HW215396   3.150   3.047   5.801
 4833SOL     OW15397   4.217   1.302   3.260
 4833SOL    HW115398   4.119   1.319   3.252
 4833SOL    HW215399   4.249   1.252   3.180
 4834SOL     OW15400   4.087   1.146   1.097
 4834SOL    HW115401   4.075   1.186   1.188
 4834SOL    HW215402   4.004   1.157   1.044
 4835SOL     OW15403   1.877   0.046   6.537
 4835SOL    HW115404   1.805   0.116   6.545
 4835SOL    HW215405   1.962   0.082   6.574
 4836SOL     OW15406   5.132   1.875   4.272
 4836SOL    HW115407   5.179   1.868   4.360
 4836SOL    HW215408   5.195   1.847   4.199
 4837SOL     OW15409   2.915   2.426   1.354
 4837SOL    HW115410   2.926   2.459   1.260
 4837SOL    HW215411   2.820   2.433   1.381
 4838SOL     OW15412   3.779   4.859   2.217
 4838SOL    HW115413   3.720   4.834   2.141
 4838SOL    HW215414   3.819   4.949   2.200
 4839SOL     OW15415   0.211   5.466   5.586
 4839SOL    HW115416   0.224   5.484   5.683
 4839SOL    HW215417   0.251   5.540   5.532
 4840SOL     OW15418   5.933   6.624   0.568
 4840SOL    HW115419   5.882   6.703   0.535
 4840SOL    HW215420   5.941   6.628   0.667
 4841SOL     OW15421   3.276   5.833   1.689
 4841SOL    HW115422   3.374   5.829   1.668
 4841SOL    HW215423   3.254   5.923   1.727
 4842SOL     OW15424   3.836   5.964   1.469
 4842SOL    HW115425   3.898   5.954   1.391
 4842SOL    HW215426   3.787   5.878   1.485
 4843SOL     OW15427   0.118   3.831   0.423
 4843SOL    HW115428   0.205   3.787   0.445
 4843SOL    HW215429   0.107   3.913   0.481
 4844SOL     OW15430   6.722   3.090   0.225
 4844SOL    HW115431   6.624   3.075   0.241
 4844SOL    HW215432   6.741   3.088   0.127
 4845SOL     OW15433   5.965   5.637   3.930
 4845SOL    HW115434   5.936   5.665   4.021
 4845SOL    HW215435   6.055   5.675   3.911
 4846SOL     OW15436   1.236   3.019   0.888
 4846SOL    HW115437   1.178   3.070   0.825
 4846SOL    HW215438   1.228   2.921   0.869
 4847SOL     OW15439   3.721   1.953   5.037
 4847SOL    HW115440   3.664   1.976   4.958
 4847SOL    HW215441   3.749   1.857   5.032
 4848SOL     OW15442   1.673   1.666   3.540
 4848SOL    HW115443   1.593   1.714   3.573
 4848SOL    HW215444   1.711   1.609   3.613
 4849SOL     OW15445   1.561   6.996   0.287
 4849SOL    HW115446   1.529   0.042   0.228
 4849SOL    HW215447   1.483   6.950   0.330
 4850SOL     OW15448   3.901   0.292   1.889
 4850SOL    HW115449   3.966   0.292   1.814
 4850SOL    HW215450   3.948   0.311   1.975
 4851SOL     OW15451   4.268   5.673   5.777
 4851SOL    HW115452   4.219   5.711   5.856
 4851SOL    HW215453   4.215   5.689   5.694
 4852SOL     OW15454   1.565   1.110   0.149
 4852SOL    HW115455   1.652   1.146   0.116
 4852SOL    HW215456   1.576   1.014   0.174
 4853SOL     OW15457   3.473   1.418   2.981
 4853SOL    HW115458   3.413   1.339   2.979
 4853SOL    HW215459   3.436   1.489   2.921
 4854SOL     OW15460   4.769   5.504   2.105
 4854SOL    HW115461   4.767   5.474   2.200
 4854SOL    HW215462   4.858   5.544   2.084
 4855SOL     OW15463   5.956   1.741   2.018
 4855SOL    HW115464   5.886   1.672   2.004
 4855SOL    HW215465   5.934   1.794   2.100
 4856SOL     OW15466   2.888   4.846   3.902
 4856SOL    HW115467   2.986   4.838   3.919
 4856SOL    HW215468   2.837   4.802   3.977
 4857SOL     OW15469   0.853   2.026   5.954
 4857SOL    HW115470   0.759   2.042   5.983
 4857SOL    HW215471   0.865   1.929   5.931
 4858SOL     OW15472   1.563   2.028   4.842
 4858SOL    HW115473   1.566   1.984   4.752
 4858SOL    HW215474   1.652   2.067   4.864
 4859SOL     OW15475   1.587   5.853   4.765
 4859SOL    HW115476   1.684   5.844   4.745
 4859SOL    HW215477   1.561   5.790   4.838
 4860SOL     OW15478   4.496   5.405   1.433
 4860SOL    HW115479   4.427   5.340   1.465
 4860SOL    HW215480   4.554   5.362   1.364
 4861SOL     OW15481   5.152   5.094   6.904
 4861SOL    HW115482   5.124   5.022   6.968
 4861SOL    HW215483   5.083   5.166   6.904
 4862SOL     OW15484   1.328   5.375   3.037
 4862SOL    HW115485   1.382   5.303   2.992
 4862SOL    HW215486   1.337   5.460   2.985
 4863SOL     OW15487   5.746   4.099   0.785
 4863SOL    HW115488   5.781   4.080   0.693
 4863SOL    HW215489   5.696   4.020   0.819
 4864SOL     OW15490   2.831   0.660   3.089
 4864SOL    HW115491   2.851   0.696   2.998
 4864SOL    HW215492   2.917   0.646   3.138
 4865SOL     OW15493   2.344   6.505   4.069
 4865SOL    HW115494   2.319   6.510   4.166
 4865SOL    HW215495   2.261   6.494   4.014
 4866SOL     OW15496   6.950   3.487   1.526
 4866SOL    HW115497   0.021   3.499   1.533
 4866SOL    HW215498   6.923   3.486   1.430
 4867SOL     OW15499   4.556   5.695   2.174
 4867SOL    HW115500   4.575   5.779   2.123
 4867SOL    HW215501   4.626   5.627   2.152
 4868SOL     OW15502   6.383   4.493   1.746
 4868SOL    HW115503   6.409   4.546   1.665
 4868SOL    HW215504   6.464   4.475   1.801
 4869SOL     OW15505   1.562   1.683   0.377
 4869SOL    HW115506   1.540   1.616   0.449
 4869SOL    HW215507   1.658   1.672   0.352
 4870SOL     OW15508   0.598   6.278   1.912
 4870SOL    HW115509   0.588   6.361   1.858
 4870SOL    HW215510   0.529   6.277   1.985
 4871SOL     OW15511   1.566   0.608   4.565
 4871SOL    HW115512   1.496   0.678   4.547
 4871SOL    HW215513   1.566   0.587   4.663
 4872SOL     OW15514   0.114   6.574   3.045
 4872SOL    HW115515   0.089   6.505   3.112
 4872SOL    HW215516   0.056   6.565   2.964
 4873SOL     OW15517   6.834   5.402   4.514
 4873SOL    HW115518   6.826   5.488   4.464
 4873SOL    HW215519   6.908   5.410   4.581
 4874SOL     OW15520   4.860   2.305   2.968
 4874SOL    HW115521   4.785   2.301   3.035
 4874SOL    HW215522   4.858   2.223   2.911
 4875SOL     OW15523   4.776   6.918   0.065
 4875SOL    HW115524   4.838   6.845   0.095
 4875SOL    HW215525   4.808   6.955   7.005
 4876SOL     OW15526   0.685   1.502   3.197
 4876SOL    HW115527   0.721   1.503   3.291
 4876SOL    HW215528   0.760   1.517   3.133
 4877SOL     OW15529   0.628   2.076   5.108
 4877SOL    HW115530   0.726   2.093   5.118
 4877SOL    HW215531   0.606   1.986   5.146
 4878SOL     OW15532   6.914   1.729   1.827
 4878SOL    HW115533   6.845   1.794   1.860
 4878SOL    HW215534   6.919   1.733   1.728
 4879SOL     OW15535   4.945   1.806   2.482
 4879SOL    HW115536   4.874   1.872   2.457
 4879SOL    HW215537   4.999   1.842   2.558
 4880SOL     OW15538   6.835   3.036   6.991
 4880SOL    HW115539   6.756   2.991   6.950
 4880SOL    HW215540   6.868   3.108   6.929
 4881SOL     OW15541   1.785   2.539   1.140
 4881SOL    HW115542   1.736   2.561   1.055
 4881SOL    HW215543   1.785   2.618   1.201
 4882SOL     OW15544   4.267   2.079   5.099
 4882SOL    HW115545   4.332   2.145   5.060
 4882SOL    HW215546   4.317   2.003   5.139
 4883SOL     OW15547   5.024   3.944   1.671
 4883SOL    HW115548   5.096   3.963   1.604
 4883SOL    HW215549   5.066   3.914   1.757
 4884SOL     OW15550   2.363   5.502   0.807
 4884SOL    HW115551   2.423   5.581   0.819
 4884SOL    HW215552   2.306   5.516   0.725
 4885SOL     OW15553   2.534   4.850   1.677
 4885SOL    HW115554   2.529   4.909   1.757
 4885SOL    HW215555   2.587   4.768   1.699
 4886SOL     OW15556   3.149   6.930   2.140
 4886SOL    HW115557   3.162   6.831   2.140
 4886SOL    HW215558   3.169   6.966   2.231
 4887SOL     OW15559   1.153   6.614   1.700
 4887SOL    HW115560   1.144   6.515   1.708
 4887SOL    HW215561   1.225   6.636   1.634
 4888SOL     OW15562   3.039   6.756   3.238
 4888SOL    HW115563   2.967   6.769   3.169
 4888SOL    HW215564   3.114   6.703   3.198
 4889SOL     OW15565   6.740   1.740   4.609
 4889SOL    HW115566   6.693   1.782   4.531
 4889SOL    HW215567   6.705   1.778   4.694
 4890SOL     OW15568   0.824   0.986   5.314
 4890SOL    HW115569   0.862   0.909   5.364
 4890SOL    HW215570   0.735   0.961   5.276
 4891SOL     OW15571   2.306   4.902   6.167
 4891SOL    HW115572   2.301   4.802   6.176
 4891SOL    HW215573   2.289   4.944   6.256
 4892SOL     OW15574   5.858   6.527   2.333
 4892SOL    HW115575   5.876   6.594   2.404
 4892SOL    HW215576   5.913   6.444   2.351
 4893SOL     OW15577   0.367   3.257   2.125
 4893SOL    HW115578   0.445   3.236   2.184
 4893SOL    HW215579   0.396   3.251   2.029
 4894SOL     OW15580   3.774   0.019   2.112
 4894SOL    HW115581   3.753   7.009   2.203
 4894SOL    HW215582   3.697   0.075   2.081
 4895SOL     OW15583   0.365   4.938   3.425
 4895SOL    HW115584   0.385   4.983   3.338
 4895SOL    HW215585   0.384   4.841   3.418
 4896SOL     OW15586   2.097   5.121   3.722
 4896SOL    HW115587   2.127   5.173   3.641
 4896SOL    HW215588   2.176   5.082   3.768
 4897SOL     OW15589   1.762   5.748   5.270
 4897SOL    HW115590   1.820   5.687   5.216
 4897SOL    HW215591   1.811   5.777   5.352
 4898SOL     OW15592   4.394   0.982   5.086
 4898SOL    HW115593   4.437   1.054   5.031
 4898SOL    HW215594   4.297   1.001   5.096
 4899SOL     OW15595   6.320   5.634   2.339
 4899SOL    HW115596   6.386   5.705   2.362
 4899SOL    HW215597   6.284   5.593   2.422
 4900SOL     OW15598   4.516   5.942   5.673
 4900SOL    HW115599   4.482   5.992   5.593
 4900SOL    HW215600   4.612   5.965   5.688
 4901SOL     OW15601   1.197   2.502   5.066
 4901SOL    HW115602   1.218   2.406   5.084
 4901SOL    HW215603   1.216   2.522   4.970
 4902SOL     OW15604   1.986   0.443   6.090
 4902SOL    HW115605   1.949   0.381   6.160
 4902SOL    HW215606   2.071   0.405   6.054
 4903SOL     OW15607   4.611   5.872   0.918
 4903SOL    HW115608   4.529   5.819   0.895
 4903SOL    HW215609   4.691   5.826   0.880
 4904SOL     OW15610   2.209   0.817   5.856
 4904SOL    HW115611   2.262   0.809   5.941
 4904SOL    HW215612   2.140   0.745   5.854
 4905SOL     OW15613   3.178   0.247   3.095
 4905SOL    HW115614   3.091   0.259   3.142
 4905SOL    HW215615   3.170   0.278   3.001
 4906SOL     OW15616   4.812   3.352   5.255
 4906SOL    HW115617   4.819   3.289   5.178
 4906SOL    HW215618   4.791   3.444   5.221
 4907SOL     OW15619   4.833   1.363   0.624
 4907SOL    HW115620   4.767   1.397   0.558
 4907SOL    HW215621   4.793   1.366   0.716
 4908SOL     OW15622   4.842   0.400   0.779
 4908SOL    HW115623   4.939   0.385   0.799
 4908SOL    HW215624   4.808   0.477   0.834
 4909SOL     OW15625   6.487   4.038   3.361
 4909SOL    HW115626   6.570   4.074   3.318
 4909SOL    HW215627   6.510   3.993   3.447
 4910SOL     OW15628   5.655   1.243   4.509
 4910SOL    HW115629   5.640   1.334   4.471
 4910SOL    HW215630   5.592   1.228   4.585
 4911SOL     OW15631   2.062   2.340   3.151
 4911SOL    HW115632   2.119   2.399   3.208
 4911SOL    HW215633   1.978   2.317   3.201
 4912SOL     OW15634   5.304   1.789   5.488
 4912SOL    HW115635   5.231   1.746   5.541
 4912SOL    HW215636   5.350   1.719   5.432
 4913SOL     OW15637   5.498   2.927   5.704
 4913SOL    HW115638   5.417   2.930   5.762
 4913SOL    HW215639   5.478   2.969   5.615
 4914SOL     OW15640   4.493   0.272   5.187
 4914SOL    HW115641   4.562   0.278   5.114
 4914SOL    HW215642   4.513   0.193   5.244
 4915SOL     OW15643   2.974   6.106   5.567
 4915SOL    HW115644   3.055   6.147   5.524
 4915SOL    HW215645   2.975   6.126   5.665
 4916SOL     OW15646   6.814   0.529   4.380
 4916SOL    HW115647   6.778   0.444   4.340
 4916SOL    HW215648   6.833   0.594   4.307
 4917SOL     OW15649   3.399   5.937   0.773
 4917SOL    HW115650   3.444   5.869   0.714
 4917SOL    HW215651   3.349   5.890   0.845
 4918SOL     OW15652   6.389   5.432   2.177
 4918SOL    HW115653   6.487   5.451   2.171
 4918SOL    HW215654   6.353   5.472   2.261
 4919SOL     OW15655   3.795   3.056   2.355
 4919SOL    HW115656   3.704   3.023   2.380
 4919SOL    HW215657   3.860   3.034   2.428
 4920SOL     OW15658   5.639   0.551   5.126
 4920SOL    HW115659   5.673   0.540   5.219
 4920SOL    HW215660   5.716   0.547   5.062
 4921SOL     OW15661   1.038   5.907   0.492
 4921SOL    HW115662   1.112   5.957   0.537
 4921SOL    HW215663   1.054   5.905   0.393
 4922SOL     OW15664   3.361   2.121   5.147
 4922SOL    HW115665   3.290   2.185   5.119
 4922SOL    HW215666   3.321   2.030   5.159
 4923SOL     OW15667   3.296   1.845   2.923
 4923SOL    HW115668   3.345   1.926   2.955
 4923SOL    HW215669   3.236   1.870   2.846
 4924SOL     OW15670   2.424   1.625   5.933
 4924SOL    HW115671   2.415   1.704   5.873
 4924SOL    HW215672   2.405   1.653   6.028
 4925SOL     OW15673   4.373   0.052   3.148
 4925SOL    HW115674   4.466   0.069   3.115
 4925SOL    HW215675   4.307   0.078   3.077
 4926SOL     OW15676   5.428   1.732   1.628
 4926SOL    HW115677   5.494   1.705   1.698
 4926SOL    HW215678   5.472   1.732   1.539
 4927SOL     OW15679   3.099   2.445   6.347
 4927SOL    HW115680   3.095   2.537   6.308
 4927SOL    HW215681   3.140   2.383   6.281
 4928SOL     OW15682   1.361   1.648   0.938
 4928SOL    HW115683   1.392   1.686   0.851
 4928SOL    HW215684   1.438   1.604   0.985
 4929SOL     OW15685   0.099   0.240   3.412
 4929SOL    HW115686   0.132   0.228   3.318
 4929SOL    HW215687   0.033   0.168   3.434
 4930SOL     OW15688   6.120   6.725   2.140
 4930SOL    HW115689   6.091   6.672   2.060
 4930SOL    HW215690   6.143   6.663   2.215
 4931SOL     OW15691   6.002   6.444   1.599
 4931SOL    HW115692   6.098   6.474   1.595
 4931SOL    HW215693   5.979   6.419   1.693
 4932SOL     OW15694   3.565   4.104   3.354
 4932SOL    HW115695   3.648   4.051   3.342
 4932SOL    HW215696   3.559   4.136   3.449
 4933SOL     OW15697   2.321   6.454   4.350
 4933SOL    HW115698   2.387   6.520   4.386
 4933SOL    HW215699   2.342   6.363   4.386
 4934SOL     OW15700   3.461   6.118   2.576
 4934SOL    HW115701   3.456   6.213   2.543
 4934SOL    HW215702   3.555   6.096   2.600
 4935SOL     OW15703   1.390   2.173   6.966
 4935SOL    HW115704   1.444   2.252   6.996
 4935SOL    HW215705   1.435   2.131   6.887
 4936SOL     OW15706   2.633   4.395   1.117
 4936SOL    HW115707   2.650   4.365   1.211
 4936SOL    HW215708   2.696   4.470   1.094
 4937SOL     OW15709   4.843   3.156   5.032
 4937SOL    HW115710   4.884   3.222   4.968
 4937SOL    HW215711   4.899   3.073   5.032
 4938SOL     OW15712   3.701   5.457   5.609
 4938SOL    HW115713   3.614   5.487   5.570
 4938SOL    HW215714   3.774   5.470   5.543
 4939SOL     OW15715   4.666   3.072   5.736
 4939SOL    HW115716   4.741   3.136   5.753
 4939SOL    HW215717   4.580   3.123   5.732
 4940SOL     OW15718   1.869   0.268   5.331
 4940SOL    HW115719   1.786   0.215   5.346
 4940SOL    HW215720   1.886   0.275   5.232
 4941SOL     OW15721   4.343   1.625   0.028
 4941SOL    HW115722   4.311   1.671   0.111
 4941SOL    HW215723   4.406   1.552   0.052
 4942SOL     OW15724   5.246   3.513   5.397
 4942SOL    HW115725   5.332   3.470   5.370
 4942SOL    HW215726   5.255   3.550   5.489
 4943SOL     OW15727   4.522   2.265   0.628
 4943SOL    HW115728   4.477   2.345   0.588
 4943SOL    HW215729   4.612   2.291   0.662
 4944SOL     OW15730   2.245   4.109   2.641
 4944SOL    HW115731   2.222   4.014   2.621
 4944SOL    HW215732   2.203   4.136   2.728
 4945SOL     OW15733   0.875   0.122   3.786
 4945SOL    HW115734   0.898   0.071   3.703
 4945SOL    HW215735   0.915   0.213   3.781
 4946SOL     OW15736   1.473   3.035   2.013
 4946SOL    HW115737   1.389   3.083   2.038
 4946SOL    HW215738   1.552   3.085   2.048
 4947SOL     OW15739   0.854   6.983   0.820
 4947SOL    HW115740   0.805   6.998   0.734
 4947SOL    HW215741   0.836   6.891   0.853
 4948SOL     OW15742   2.106   1.060   2.628
 4948SOL    HW115743   2.050   1.008   2.693
 4948SOL    HW215744   2.066   1.051   2.536
 4949SOL     OW15745   5.291   0.494   5.288
 4949SOL    HW115746   5.305   0.515   5.191
 4949SOL    HW215747   5.363   0.433   5.320
 4950SOL     OW15748   2.365   6.233   4.480
 4950SOL    HW115749   2.326   6.148   4.445
 4950SOL    HW215750   2.453   6.214   4.523
 4951SOL     OW15751   4.157   1.532   4.364
 4951SOL    HW115752   4.131   1.481   4.281
 4951SOL    HW215753   4.095   1.508   4.438
 4952SOL     OW15754   0.406   6.368   4.944
 4952SOL    HW115755   0.330   6.409   4.893
 4952SOL    HW215756   0.446   6.437   5.005
 4953SOL     OW15757   2.187   5.460   1.038
 4953SOL    HW115758   2.122   5.536   1.039
 4953SOL    HW215759   2.267   5.484   0.985
 4954SOL     OW15760   5.246   4.751   0.359
 4954SOL    HW115761   5.288   4.780   0.444
 4954SOL    HW215762   5.298   4.675   0.320
 4955SOL     OW15763   1.845   6.550   0.866
 4955SOL    HW115764   1.798   6.559   0.778
 4955SOL    HW215765   1.778   6.542   0.939
 4956SOL     OW15766   4.216   6.888   5.521
 4956SOL    HW115767   4.169   6.921   5.603
 4956SOL    HW215768   4.315   6.889   5.536
 4957SOL     OW15769   0.443   1.315   4.220
 4957SOL    HW115770   0.497   1.236   4.250
 4957SOL    HW215771   0.415   1.368   4.299
 4958SOL     OW15772   0.253   6.289   6.353
 4958SOL    HW115773   0.215   6.374   6.390
 4958SOL    HW215774   0.317   6.250   6.420
 4959SOL     OW15775   0.937   0.929   0.423
 4959SOL    HW115776   0.845   0.909   0.391
 4959SOL    HW215777   1.004   0.900   0.354
 4960SOL     OW15778   3.683   6.674   4.236
 4960SOL    HW115779   3.586   6.670   4.214
 4960SOL    HW215780   3.726   6.750   4.187
 4961SOL     OW15781   5.407   6.724   4.683
 4961SOL    HW115782   5.392   6.771   4.597
 4961SOL    HW215783   5.389   6.787   4.759
 4962SOL     OW15784   5.755   2.380   1.766
 4962SOL    HW115785   5.783   2.329   1.685
 4962SOL    HW215786   5.797   2.471   1.763
 4963SOL     OW15787   0.255   5.248   1.158
 4963SOL    HW115788   0.199   5.279   1.234
 4963SOL    HW215789   0.270   5.149   1.166
 4964SOL     OW15790   3.533   5.914   3.564
 4964SOL    HW115791   3.625   5.952   3.553
 4964SOL    HW215792   3.515   5.848   3.491
 4965SOL     OW15793   0.331   6.678   4.674
 4965SOL    HW115794   0.337   6.667   4.575
 4965SOL    HW215795   0.423   6.679   4.714
 4966SOL     OW15796   3.005   6.284   5.197
 4966SOL    HW115797   3.034   6.339   5.119
 4966SOL    HW215798   2.979   6.193   5.166
 4967SOL     OW15799   3.781   2.790   0.142
 4967SOL    HW115800   3.696   2.771   0.191
 4967SOL    HW215801   3.814   2.706   0.098
 4968SOL     OW15802   4.702   2.816   3.372
 4968SOL    HW115803   4.712   2.859   3.283
 4968SOL    HW215804   4.633   2.743   3.366
 4969SOL     OW15805   1.555   1.303   1.633
 4969SOL    HW115806   1.618   1.289   1.709
 4969SOL    HW215807   1.603   1.285   1.547
 4970SOL     OW15808   0.963   1.977   4.857
 4970SOL    HW115809   1.011   1.909   4.912
 4970SOL    HW215810   0.874   1.941   4.828
 4971SOL     OW15811   5.937   6.282   3.152
 4971SOL    HW115812   5.880   6.232   3.216
 4971SOL    HW215813   5.883   6.355   3.110
 4972SOL     OW15814   1.795   3.458   1.177
 4972SOL    HW115815   1.893   3.476   1.191
 4972SOL    HW215816   1.782   3.360   1.158
 4973SOL     OW15817   6.062   6.026   2.227
 4973SOL    HW115818   6.042   6.047   2.132
 4973SOL    HW215819   6.066   5.926   2.239
 4974SOL     OW15820   5.414   5.879   2.866
 4974SOL    HW115821   5.349   5.822   2.916
 4974SOL    HW215822   5.415   5.851   2.770
 4975SOL     OW15823   5.936   6.248   0.612
 4975SOL    HW115824   5.947   6.330   0.556
 4975SOL    HW215825   5.860   6.261   0.675
 4976SOL     OW15826   3.347   0.433   4.991
 4976SOL    HW115827   3.289   0.372   4.936
 4976SOL    HW215828   3.349   0.524   4.949
 4977SOL     OW15829   4.291   3.718   0.283
 4977SOL    HW115830   4.260   3.746   0.374
 4977SOL    HW215831   4.391   3.709   0.284
 4978SOL     OW15832   5.933   3.769   5.445
 4978SOL    HW115833   5.878   3.690   5.472
 4978SOL    HW215834   5.996   3.793   5.518
 4979SOL     OW15835   0.589   0.805   5.804
 4979SOL    HW115836   0.687   0.790   5.793
 4979SOL    HW215837   0.548   0.825   5.715
 4980SOL     OW15838   3.956   5.121   2.408
 4980SOL    HW115839   3.959   5.118   2.308
 4980SOL    HW215840   3.898   5.197   2.438
 4981SOL     OW15841   4.582   6.997   5.690
 4981SOL    HW115842   4.668   6.993   5.639
 4981SOL    HW215843   4.547   0.063   5.689
 4982SOL     OW15844   2.077   2.340   0.175
 4982SOL    HW115845   2.175   2.319   0.168
 4982SOL    HW215846   2.025   2.255   0.177
 4983SOL     OW15847   5.287   2.772   3.720
 4983SOL    HW115848   5.335   2.772   3.632
 4983SOL    HW215849   5.342   2.820   3.788
 4984SOL     OW15850   5.032   3.620   4.336
 4984SOL    HW115851   4.986   3.569   4.263
 4984SOL    HW215852   5.121   3.652   4.303
 4985SOL     OW15853   4.999   5.383   3.085
 4985SOL    HW115854   5.096   5.401   3.070
 4985SOL    HW215855   4.985   5.350   3.179
 4986SOL     OW15856   5.763   4.434   2.940
 4986SOL    HW115857   5.825   4.443   3.018
 4986SOL    HW215858   5.675   4.478   2.961
 4987SOL     OW15859   6.977   3.051   1.280
 4987SOL    HW115860   0.024   3.054   1.214
 4987SOL    HW215861   6.897   3.097   1.242
 4988SOL     OW15862   0.313   1.703   4.299
 4988SOL    HW115863   0.215   1.717   4.281
 4988SOL    HW215864   0.325   1.631   4.368
 4989SOL     OW15865   6.858   1.416   0.614
 4989SOL    HW115866   6.882   1.362   0.695
 4989SOL    HW215867   6.786   1.480   0.637
 4990SOL     OW15868   0.654   2.743   5.299
 4990SOL    HW115869   0.661   2.649   5.332
 4990SOL    HW215870   0.605   2.745   5.212
 4991SOL     OW15871   0.141   3.015   4.200
 4991SOL    HW115872   0.120   3.023   4.102
 4991SOL    HW215873   0.072   3.065   4.252
 4992SOL     OW15874   3.376   0.792   5.259
 4992SOL    HW115875   3.454   0.843   5.223
 4992SOL    HW215876   3.320   0.760   5.183
 4993SOL     OW15877   3.257   6.262   3.835
 4993SOL    HW115878   3.309   6.241   3.752
 4993SOL    HW215879   3.165   6.222   3.827
 4994SOL     OW15880   0.668   0.023   2.796
 4994SOL    HW115881   0.643   6.993   2.719
 4994SOL    HW215882   0.590   0.036   2.856
 4995SOL     OW15883   6.670   2.558   6.356
 4995SOL    HW115884   6.597   2.619   6.325
 4995SOL    HW215885   6.738   2.611   6.407
 4996SOL     OW15886   0.213   2.308   2.008
 4996SOL    HW115887   0.130   2.364   2.002
 4996SOL    HW215888   0.190   2.214   1.986
 4997SOL     OW15889   6.774   2.274   2.835
 4997SOL    HW115890   6.859   2.326   2.821
 4997SOL    HW215891   6.705   2.334   2.876
 4998SOL     OW15892   1.589   5.086   4.856
 4998SOL    HW115893   1.637   5.113   4.773
 4998SOL    HW215894   1.490   5.092   4.841
 4999SOL     OW15895   5.522   5.756   0.746
 4999SOL    HW115896   5.507   5.766   0.647
 4999SOL    HW215897   5.539   5.846   0.786
 5000SOL     OW15898   0.932   0.438   4.611
 5000SOL    HW115899   0.849   0.479   4.650
 5000SOL    HW215900   0.983   0.507   4.560
 5001SOL     OW15901   2.784   3.961   5.513
 5001SOL    HW115902   2.746   3.934   5.424
 5001SOL    HW215903   2.864   4.018   5.499
 5002SOL     OW15904   2.079   1.058   2.345
 5002SOL    HW115905   2.120   1.094   2.261
 5002SOL    HW215906   1.980   1.070   2.341
 5003SOL     OW15907   6.711   6.393   2.551
 5003SOL    HW115908   6.769   6.433   2.621
 5003SOL    HW215909   6.632   6.452   2.536
 5004SOL     OW15910   2.067   5.760   6.436
 5004SOL    HW115911   2.157   5.718   6.422
 5004SOL    HW215912   2.074   5.859   6.428
 5005SOL     OW15913   4.577   2.984   0.595
 5005SOL    HW115914   4.609   3.023   0.681
 5005SOL    HW215915   4.477   2.985   0.594
 5006SOL     OW15916   5.424   6.583   5.173
 5006SOL    HW115917   5.394   6.521   5.246
 5006SOL    HW215918   5.353   6.588   5.102
 5007SOL     OW15919   4.115   0.914   5.994
 5007SOL    HW115920   4.064   0.997   6.013
 5007SOL    HW215921   4.213   0.932   6.003
 5008SOL     OW15922   5.639   1.204   3.542
 5008SOL    HW115923   5.652   1.233   3.637
 5008SOL    HW215924   5.639   1.104   3.538
 5009SOL     OW15925   0.865   6.235   2.017
 5009SOL    HW115926   0.769   6.246   1.991
 5009SOL    HW215927   0.871   6.212   2.114
 5010SOL     OW15928   3.888   3.947   3.599
 5010SOL    HW115929   3.888   3.994   3.687
 5010SOL    HW215930   3.982   3.932   3.569
 5011SOL     OW15931   0.618   3.146   2.341
 5011SOL    HW115932   0.637   3.224   2.400
 5011SOL    HW215933   0.672   3.154   2.257
 5012SOL     OW15934   6.866   2.783   6.223
 5012SOL    HW115935   6.813   2.715   6.172
 5012SOL    HW215936   6.854   2.873   6.183
 5013SOL     OW15937   4.046   0.947   6.425
 5013SOL    HW115938   4.136   0.964   6.384
 5013SOL    HW215939   4.058   0.922   6.521
 5014SOL     OW15940   6.256   6.333   0.722
 5014SOL    HW115941   6.157   6.343   0.716
 5014SOL    HW215942   6.280   6.236   0.727
 5015SOL     OW15943   4.272   2.112   3.728
 5015SOL    HW115944   4.350   2.051   3.728
 5015SOL    HW215945   4.201   2.076   3.788
 5016SOL     OW15946   1.686   0.442   2.791
 5016SOL    HW115947   1.700   0.533   2.828
 5016SOL    HW215948   1.605   0.401   2.833
 5017SOL     OW15949   2.317   2.036   1.030
 5017SOL    HW115950   2.348   1.972   0.959
 5017SOL    HW215951   2.272   1.985   1.103
 5018SOL     OW15952   0.297   4.463   3.197
 5018SOL    HW115953   0.261   4.456   3.104
 5018SOL    HW215954   0.271   4.382   3.249
 5019SOL     OW15955   2.413   4.178   0.534
 5019SOL    HW115956   2.511   4.163   0.517
 5019SOL    HW215957   2.380   4.108   0.597
 5020SOL     OW15958   4.615   5.128   6.251
 5020SOL    HW115959   4.581   5.034   6.240
 5020SOL    HW215960   4.575   5.186   6.180
 5021SOL     OW15961   1.998   4.832   5.715
 5021SOL    HW115962   2.047   4.861   5.798
 5021SOL    HW215963   2.064   4.802   5.646
 5022SOL     OW15964   1.926   6.266   0.835
 5022SOL    HW115965   1.926   6.358   0.873
 5022SOL    HW215966   1.843   6.253   0.780
 5023SOL     OW15967   6.343   2.835   1.018
 5023SOL    HW115968   6.244   2.829   1.031
 5023SOL    HW215969   6.388   2.769   1.078
 5024SOL     OW15970   6.557   3.954   3.604
 5024SOL    HW115971   6.610   4.006   3.670
 5024SOL    HW215972   6.580   3.857   3.612
 5025SOL     OW15973   4.983   1.662   3.257
 5025SOL    HW115974   4.909   1.681   3.194
 5025SOL    HW215975   5.062   1.720   3.235
 5026SOL     OW15976   6.043   5.488   4.385
 5026SOL    HW115977   6.014   5.491   4.480
 5026SOL    HW215978   6.079   5.398   4.363
 5027SOL     OW15979   0.139   6.893   3.285
 5027SOL    HW115980   0.218   6.831   3.285
 5027SOL    HW215981   0.124   6.928   3.192
 5028SOL     OW15982   0.393   6.279   2.500
 5028SOL    HW115983   0.392   6.255   2.597
 5028SOL    HW215984   0.321   6.346   2.481
 5029SOL     OW15985   0.370   2.176   1.601
 5029SOL    HW115986   0.382   2.270   1.570
 5029SOL    HW215987   0.273   2.160   1.621
 5030SOL     OW15988   6.764   0.380   6.676
 5030SOL    HW115989   6.773   0.288   6.638
 5030SOL    HW215990   6.693   0.380   6.747
 5031SOL     OW15991   5.778   0.469   4.313
 5031SOL    HW115992   5.794   0.566   4.294
 5031SOL    HW215993   5.707   0.435   4.251
 5032SOL     OW15994   1.444   5.191   0.634
 5032SOL    HW115995   1.517   5.253   0.604
 5032SOL    HW215996   1.483   5.104   0.662
 5033SOL     OW15997   2.494   4.449   5.609
 5033SOL    HW115998   2.498   4.394   5.526
 5033SOL    HW215999   2.471   4.543   5.586
 5034SOL     OW16000   6.056   2.142   2.241
 5034SOL    HW116001   6.048   2.232   2.283
 5034SOL    HW216002   6.083   2.152   2.145
 5035SOL     OW16003   4.792   5.378   0.401
 5035SOL    HW116004   4.865   5.324   0.359
 5035SOL    HW216005   4.762   5.333   0.486
 5036SOL     OW16006   0.858   6.305   0.444
 5036SOL    HW116007   0.957   6.321   0.443
 5036SOL    HW216008   0.814   6.365   0.377
 5037SOL     OW16009   4.371   1.608   3.593
 5037SOL    HW116010   4.354   1.664   3.674
 5037SOL    HW216011   4.432   1.532   3.618
 5038SOL     OW16012   1.104   5.657   5.877
 5038SOL    HW116013   1.102   5.564   5.914
 5038SOL    HW216014   1.199   5.685   5.862
 5039SOL     OW16015   2.335   2.890   5.326
 5039SOL    HW116016   2.268   2.868   5.256
 5039SOL    HW216017   2.385   2.973   5.300
 5040SOL     OW16018   3.461   3.737   6.262
 5040SOL    HW116019   3.435   3.834   6.259
 5040SOL    HW216020   3.438   3.699   6.351
 5041SOL     OW16021   1.005   3.296   1.628
 5041SOL    HW116022   1.082   3.264   1.682
 5041SOL    HW216023   1.006   3.396   1.624
 5042SOL     OW16024   5.640   3.455   6.418
 5042SOL    HW116025   5.718   3.499   6.373
 5042SOL    HW216026   5.567   3.440   6.352
 5043SOL     OW16027   3.879   0.465   3.304
 5043SOL    HW116028   3.939   0.535   3.264
 5043SOL    HW216029   3.891   0.464   3.403
 5044SOL     OW16030   5.807   5.764   3.425
 5044SOL    HW116031   5.808   5.744   3.523
 5044SOL    HW216032   5.852   5.690   3.375
 5045SOL     OW16033   6.249   3.231   0.182
 5045SOL    HW116034   6.338   3.248   0.225
 5045SOL    HW216035   6.245   3.136   0.151
 5046SOL     OW16036   3.492   3.169   5.197
 5046SOL    HW116037   3.557   3.131   5.263
 5046SOL    HW216038   3.450   3.094   5.146
 5047SOL     OW16039   6.201   0.257   2.874
 5047SOL    HW116040   6.161   0.206   2.950
 5047SOL    HW216041   6.298   0.273   2.892
 5048SOL     OW16042   6.945   2.225   1.509
 5048SOL    HW116043   7.023   2.175   1.548
 5048SOL    HW216044   6.860   2.185   1.541
 5049SOL     OW16045   0.816   2.051   2.418
 5049SOL    HW116046   0.848   1.990   2.490
 5049SOL    HW216047   0.803   1.999   2.333
 5050SOL     OW16048   0.902   2.606   1.840
 5050SOL    HW116049   0.838   2.538   1.804
 5050SOL    HW216050   0.878   2.628   1.934
 5051SOL     OW16051   2.827   4.403   0.864
 5051SOL    HW116052   2.848   4.467   0.939
 5051SOL    HW216053   2.817   4.311   0.901
 5052SOL     OW16054   4.494   5.463   0.763
 5052SOL    HW116055   4.581   5.478   0.717
 5052SOL    HW216056   4.454   5.377   0.733
 5053SOL     OW16057   2.610   4.074   1.553
 5053SOL    HW116058   2.528   4.037   1.509
 5053SOL    HW216059   2.690   4.026   1.518
 5054SOL     OW16060   3.324   5.948   4.918
 5054SOL    HW116061   3.269   6.019   4.874
 5054SOL    HW216062   3.346   5.877   4.852
 5055SOL     OW16063   1.025   1.677   5.220
 5055SOL    HW116064   0.947   1.624   5.252
 5055SOL    HW216065   1.000   1.726   5.136
 5056SOL     OW16066   0.140   3.920   5.784
 5056SOL    HW116067   0.096   3.874   5.707
 5056SOL    HW216068   0.218   3.865   5.815
 5057SOL     OW16069   0.692   5.911   3.484
 5057SOL    HW116070   0.595   5.914   3.510
 5057SOL    HW216071   0.747   5.890   3.565
 5058SOL     OW16072   4.211   4.162   6.516
 5058SOL    HW116073   4.182   4.190   6.607
 5058SOL    HW216074   4.285   4.095   6.523
 5059SOL     OW16075   3.481   2.032   4.903
 5059SOL    HW116076   3.446   1.939   4.916
 5059SOL    HW216077   3.470   2.084   4.987
 5060SOL     OW16078   0.357   3.409   5.094
 5060SOL    HW116079   0.450   3.445   5.099
 5060SOL    HW216080   0.351   3.345   5.017
 5061SOL     OW16081   3.836   3.555   4.526
 5061SOL    HW116082   3.738   3.566   4.539
 5061SOL    HW216083   3.857   3.457   4.516
 5062SOL     OW16084   4.784   1.075   2.999
 5062SOL    HW116085   4.814   0.991   2.954
 5062SOL    HW216086   4.721   1.124   2.939
 5063SOL     OW16087   1.270   6.702   2.189
 5063SOL    HW116088   1.348   6.751   2.227
 5063SOL    HW216089   1.197   6.696   2.257
 5064SOL     OW16090   4.589   5.569   0.356
 5064SOL    HW116091   4.659   5.503   0.385
 5064SOL    HW216092   4.615   5.660   0.387
 5065SOL     OW16093   2.539   0.028   3.353
 5065SOL    HW116094   2.550   0.006   3.450
 5065SOL    HW216095   2.622   0.003   3.303
 5066SOL     OW16096   2.010   4.827   1.837
 5066SOL    HW116097   2.063   4.879   1.770
 5066SOL    HW216098   2.050   4.736   1.848
 5067SOL     OW16099   4.170   2.391   1.387
 5067SOL    HW116100   4.231   2.360   1.460
 5067SOL    HW216101   4.075   2.384   1.417
 5068SOL     OW16102   3.922   6.398   0.775
 5068SOL    HW116103   3.912   6.481   0.830
 5068SOL    HW216104   4.007   6.402   0.723
 5069SOL     OW16105   3.326   4.571   6.239
 5069SOL    HW116106   3.239   4.616   6.217
 5069SOL    HW216107   3.390   4.585   6.163
 5070SOL     OW16108   5.697   3.478   4.279
 5070SOL    HW116109   5.691   3.525   4.192
 5070SOL    HW216110   5.784   3.429   4.285
 5071SOL     OW16111   3.603   1.174   3.431
 5071SOL    HW116112   3.526   1.207   3.486
 5071SOL    HW216113   3.676   1.242   3.432
 5072SOL     OW16114   1.866   1.070   0.972
 5072SOL    HW116115   1.966   1.072   0.981
 5072SOL    HW216116   1.826   1.024   1.051
 5073SOL     OW16117   2.814   6.616   2.533
 5073SOL    HW116118   2.783   6.522   2.531
 5073SOL    HW216119   2.891   6.627   2.469
 5074SOL     OW16120   3.812   2.129   1.742
 5074SOL    HW116121   3.873   2.088   1.810
 5074SOL    HW216122   3.761   2.204   1.783
 5075SOL     OW16123   1.780   3.408   6.916
 5075SOL    HW116124   1.829   3.492   6.938
 5075SOL    HW216125   1.720   3.385   6.993
 5076SOL     OW16126   5.225   1.126   0.417
 5076SOL    HW116127   5.304   1.168   0.462
 5076SOL    HW216128   5.168   1.081   0.486
 5077SOL     OW16129   1.223   4.901   3.765
 5077SOL    HW116130   1.149   4.872   3.825
 5077SOL    HW216131   1.212   4.857   3.675
 5078SOL     OW16132   0.573   0.990   3.912
 5078SOL    HW116133   0.605   1.076   3.952
 5078SOL    HW216134   0.626   0.914   3.950
 5079SOL     OW16135   2.024   2.694   6.036
 5079SOL    HW116136   2.012   2.642   5.951
 5079SOL    HW216137   1.936   2.702   6.083
 5080SOL     OW16138   6.608   5.302   5.957
 5080SOL    HW116139   6.526   5.280   5.905
 5080SOL    HW216140   6.672   5.225   5.953
 5081SOL     OW16141   3.667   5.972   5.699
 5081SOL    HW116142   3.600   5.949   5.628
 5081SOL    HW216143   3.627   5.955   5.789
 5082SOL     OW16144   4.735   6.550   1.315
 5082SOL    HW116145   4.804   6.619   1.335
 5082SOL    HW216146   4.646   6.595   1.304
 5083SOL     OW16147   2.427   0.563   2.730
 5083SOL    HW116148   2.407   0.655   2.696
 5083SOL    HW216149   2.449   0.503   2.654
 5084SOL     OW16150   0.781   5.150   4.852
 5084SOL    HW116151   0.757   5.228   4.910
 5084SOL    HW216152   0.733   5.069   4.885
 5085SOL     OW16153   1.216   3.655   6.556
 5085SOL    HW116154   1.315   3.664   6.548
 5085SOL    HW216155   1.192   3.558   6.563
 5086SOL     OW16156   1.183   4.588   2.298
 5086SOL    HW116157   1.272   4.563   2.336
 5086SOL    HW216158   1.165   4.533   2.216
 5087SOL     OW16159   6.780   5.338   2.703
 5087SOL    HW116160   6.838   5.272   2.654
 5087SOL    HW216161   6.712   5.376   2.641
 5088SOL     OW16162   4.485   5.929   1.985
 5088SOL    HW116163   4.478   5.859   1.915
 5088SOL    HW216164   4.581   5.947   2.006
 5089SOL     OW16165   5.355   4.244   4.358
 5089SOL    HW116166   5.389   4.275   4.447
 5089SOL    HW216167   5.402   4.293   4.285
 5090SOL     OW16168   1.959   0.047   3.588
 5090SOL    HW116169   2.039   7.021   3.615
 5090SOL    HW216170   1.925   0.015   3.500
 5091SOL     OW16171   6.562   0.277   0.250
 5091SOL    HW116172   6.550   0.249   0.346
 5091SOL    HW216173   6.591   0.199   0.196
 5092SOL     OW16174   3.633   3.702   4.034
 5092SOL    HW116175   3.715   3.658   3.996
 5092SOL    HW216176   3.637   3.697   4.134
 5093SOL     OW16177   1.658   1.480   3.036
 5093SOL    HW116178   1.602   1.410   2.993
 5093SOL    HW216179   1.645   1.479   3.135
 5094SOL     OW16180   2.439   5.796   6.374
 5094SOL    HW116181   2.480   5.840   6.294
 5094SOL    HW216182   2.492   5.715   6.399
 5095SOL     OW16183   0.509   1.204   3.388
 5095SOL    HW116184   0.426   1.216   3.441
 5095SOL    HW216185   0.492   1.230   3.293
 5096SOL     OW16186   5.281   3.816   6.324
 5096SOL    HW116187   5.236   3.742   6.374
 5096SOL    HW216188   5.232   3.902   6.341
 5097SOL     OW16189   6.238   0.007   5.817
 5097SOL    HW116190   6.163   0.070   5.840
 5097SOL    HW216191   6.258   0.014   5.720
 5098SOL     OW16192   3.773   1.929   2.001
 5098SOL    HW116193   3.751   1.893   2.092
 5098SOL    HW216194   3.748   2.026   1.997
 5099SOL     OW16195   0.322   5.636   1.658
 5099SOL    HW116196   0.301   5.558   1.717
 5099SOL    HW216197   0.237   5.682   1.632
 5100SOL     OW16198   5.013   4.507   2.658
 5100SOL    HW116199   5.047   4.483   2.749
 5100SOL    HW216200   4.915   4.486   2.652
 5101SOL     OW16201   4.381   0.194   5.659
 5101SOL    HW116202   4.283   0.206   5.672
 5101SOL    HW216203   4.419   0.276   5.616
 5102SOL     OW16204   4.935   5.146   4.045
 5102SOL    HW116205   4.907   5.075   4.108
 5102SOL    HW216206   5.000   5.207   4.090
 5103SOL     OW16207   0.854   0.648   5.395
 5103SOL    HW116208   0.829   0.591   5.317
 5103SOL    HW216209   0.775   0.655   5.457
 5104SOL     OW16210   3.696   5.436   1.890
 5104SOL    HW116211   3.664   5.385   1.969
 5104SOL    HW216212   3.739   5.374   1.824
 5105SOL     OW16213   3.536   3.382   6.863
 5105SOL    HW116214   3.534   3.396   6.962
 5105SOL    HW216215   3.442   3.383   6.827
 5106SOL     OW16216   4.104   2.511   0.720
 5106SOL    HW116217   4.013   2.470   0.721
 5106SOL    HW216218   4.173   2.440   0.733
 5107SOL     OW16219   5.304   2.619   1.234
 5107SOL    HW116220   5.293   2.525   1.267
 5107SOL    HW216221   5.316   2.619   1.135
 5108SOL     OW16222   4.455   3.955   6.299
 5108SOL    HW116223   4.443   3.941   6.397
 5108SOL    HW216224   4.524   3.891   6.264
 5109SOL     OW16225   2.120   3.110   1.136
 5109SOL    HW116226   2.179   3.044   1.089
 5109SOL    HW216227   2.026   3.100   1.103
 5110SOL     OW16228   5.872   7.023   6.295
 5110SOL    HW116229   5.898   0.015   6.390
 5110SOL    HW216230   5.779   0.030   6.279
 5111SOL     OW16231   1.233   5.823   4.983
 5111SOL    HW116232   1.290   5.888   4.932
 5111SOL    HW216233   1.154   5.798   4.928
 5112SOL     OW16234   0.167   0.486   3.474
 5112SOL    HW116235   0.264   0.503   3.455
 5112SOL    HW216236   0.140   0.399   3.435
 5113SOL     OW16237   1.690   4.994   0.891
 5113SOL    HW116238   1.763   5.038   0.943
 5113SOL    HW216239   1.602   5.036   0.915
 5114SOL     OW16240   4.013   6.872   0.458
 5114SOL    HW116241   4.041   6.949   0.515
 5114SOL    HW216242   3.941   6.820   0.504
 5115SOL     OW16243   2.158   3.735   1.736
 5115SOL    HW116244   2.084   3.786   1.780
 5115SOL    HW216245   2.143   3.637   1.747
 5116SOL     OW16246   2.455   0.114   6.722
 5116SOL    HW116247   2.551   0.137   6.742
 5116SOL    HW216248   2.453   0.034   6.661
 5117SOL     OW16249   1.206   2.932   4.672
 5117SOL    HW116250   1.164   2.858   4.619
 5117SOL    HW216251   1.136   2.997   4.701
 5118SOL     OW16252   6.023   0.146   0.236
 5118SOL    HW116253   6.027   0.048   0.252
 5118SOL    HW216254   6.023   0.163   0.137
 5119SOL     OW16255   5.485   1.961   6.850
 5119SOL    HW116256   5.428   1.995   6.925
 5119SOL    HW216257   5.563   1.911   6.887
 5120SOL     OW16258   5.331   0.899   4.920
 5120SOL    HW116259   5.316   0.908   4.822
 5120SOL    HW216260   5.427   0.878   4.938
 5121SOL     OW16261   2.975   3.652   0.187
 5121SOL    HW116262   2.989   3.643   0.285
 5121SOL    HW216263   2.967   3.561   0.146
 5122SOL     OW16264   4.182   5.545   3.014
 5122SOL    HW116265   4.229   5.563   2.928
 5122SOL    HW216266   4.244   5.500   3.078
 5123SOL     OW16267   5.304   1.886   2.012
 5123SOL    HW116268   5.234   1.820   1.985
 5123SOL    HW216269   5.294   1.970   1.958
 5124SOL     OW16270   1.838   6.035   4.087
 5124SOL    HW116271   1.809   6.128   4.110
 5124SOL    HW216272   1.898   6.037   4.007
 5125SOL     OW16273   0.436   2.055   4.020
 5125SOL    HW116274   0.434   1.957   4.039
 5125SOL    HW216275   0.490   2.072   3.938
 5126SOL     OW16276   1.877   6.741   0.607
 5126SOL    HW116277   1.898   6.698   0.520
 5126SOL    HW216278   1.779   6.732   0.627
 5127SOL     OW16279   2.052   5.510   0.380
 5127SOL    HW116280   2.001   5.471   0.456
 5127SOL    HW216281   1.989   5.549   0.313
 5128SOL     OW16282   6.724   6.048   1.345
 5128SOL    HW116283   6.711   6.000   1.258
 5128SOL    HW216284   6.765   6.137   1.327
 5129SOL     OW16285   4.773   6.358   1.514
 5129SOL    HW116286   4.836   6.381   1.589
 5129SOL    HW216287   4.768   6.434   1.450
 5130SOL     OW16288   6.737   4.576   2.970
 5130SOL    HW116289   6.669   4.551   2.901
 5130SOL    HW216290   6.691   4.601   3.055
 5131SOL     OW16291   0.827   2.874   3.346
 5131SOL    HW116292   0.878   2.789   3.361
 5131SOL    HW216293   0.820   2.892   3.248
 5132SOL     OW16294   3.914   4.381   6.707
 5132SOL    HW116295   3.887   4.301   6.654
 5132SOL    HW216296   3.926   4.355   6.803
 5133SOL     OW16297   3.511   5.762   6.560
 5133SOL    HW116298   3.574   5.781   6.485
 5133SOL    HW216299   3.491   5.847   6.609
 5134SOL     OW16300   0.540   3.231   1.517
 5134SOL    HW116301   0.579   3.253   1.428
 5134SOL    HW216302   0.596   3.271   1.589
 5135SOL     OW16303   6.932   2.241   5.111
 5135SOL    HW116304   6.947   2.317   5.174
 5135SOL    HW216305   6.943   2.274   5.017
 5136SOL     OW16306   5.210   0.629   4.600
 5136SOL    HW116307   5.141   0.645   4.671
 5136SOL    HW216308   5.223   0.530   4.589
 5137SOL     OW16309   5.041   4.024   6.811
 5137SOL    HW116310   5.031   4.084   6.731
 5137SOL    HW216311   5.047   3.929   6.780
 5138SOL     OW16312   3.370   3.330   6.378
 5138SOL    HW116313   3.388   3.420   6.419
 5138SOL    HW216314   3.318   3.342   6.294
 5139SOL     OW16315   1.762   6.688   4.136
 5139SOL    HW116316   1.846   6.642   4.107
 5139SOL    HW216317   1.711   6.628   4.198
 5140SOL     OW16318   3.290   1.685   0.692
 5140SOL    HW116319   3.296   1.784   0.704
 5140SOL    HW216320   3.295   1.663   0.594
 5141SOL     OW16321   5.500   3.445   1.203
 5141SOL    HW116322   5.494   3.436   1.303
 5141SOL    HW216323   5.524   3.539   1.180
 5142SOL     OW16324   6.042   2.990   4.225
 5142SOL    HW116325   6.112   2.997   4.154
 5142SOL    HW216326   5.970   2.927   4.195
 5143SOL     OW16327   0.597   5.039   3.903
 5143SOL    HW116328   0.595   5.128   3.948
 5143SOL    HW216329   0.615   5.051   3.806
 5144SOL     OW16330   1.576   6.771   6.123
 5144SOL    HW116331   1.476   6.770   6.122
 5144SOL    HW216332   1.610   6.852   6.077
 5145SOL     OW16333   1.983   5.359   5.952
 5145SOL    HW116334   2.052   5.292   5.923
 5145SOL    HW216335   1.957   5.339   6.047
 5146SOL     OW16336   3.595   3.913   6.860
 5146SOL    HW116337   3.570   3.877   6.770
 5146SOL    HW216338   3.556   4.005   6.870
 5147SOL     OW16339   6.893   4.378   0.263
 5147SOL    HW116340   6.945   4.302   0.303
 5147SOL    HW216341   6.918   4.388   0.167
 5148SOL     OW16342   0.025   5.957   1.246
 5148SOL    HW116343   0.066   6.046   1.265
 5148SOL    HW216344   0.097   5.888   1.243
 5149SOL     OW16345   6.206   0.698   3.265
 5149SOL    HW116346   6.148   0.674   3.188
 5149SOL    HW216347   6.213   0.620   3.327
 5150SOL     OW16348   1.629   5.927   3.912
 5150SOL    HW116349   1.646   5.855   3.979
 5150SOL    HW216350   1.712   5.981   3.898
 5151SOL     OW16351   5.171   1.694   6.534
 5151SOL    HW116352   5.263   1.657   6.521
 5151SOL    HW216353   5.170   1.749   6.617
 5152SOL     OW16354   1.558   4.664   0.222
 5152SOL    HW116355   1.637   4.642   0.164
 5152SOL    HW216356   1.476   4.673   0.165
 5153SOL     OW16357   2.464   2.323   0.674
 5153SOL    HW116358   2.475   2.328   0.574
 5153SOL    HW216359   2.387   2.264   0.696
 5154SOL     OW16360   1.735   3.389   6.123
 5154SOL    HW116361   1.767   3.326   6.194
 5154SOL    HW216362   1.793   3.470   6.121
 5155SOL     OW16363   4.224   6.189   2.082
 5155SOL    HW116364   4.217   6.257   2.154
 5155SOL    HW216365   4.239   6.099   2.123
 5156SOL     OW16366   6.655   2.157   6.050
 5156SOL    HW116367   6.559   2.142   6.030
 5156SOL    HW216368   6.666   2.180   6.146
 5157SOL     OW16369   4.731   2.680   3.673
 5157SOL    HW116370   4.823   2.652   3.646
 5157SOL    HW216371   4.682   2.715   3.594
 5158SOL     OW16372   3.243   1.878   1.335
 5158SOL    HW116373   3.215   1.807   1.270
 5158SOL    HW216374   3.248   1.839   1.427
 5159SOL     OW16375   0.368   2.773   4.017
 5159SOL    HW116376   0.392   2.759   3.921
 5159SOL    HW216377   0.435   2.834   4.060
 5160SOL     OW16378   1.356   3.798   4.327
 5160SOL    HW116379   1.307   3.758   4.404
 5160SOL    HW216380   1.302   3.873   4.288
 5161SOL     OW16381   1.507   3.960   5.578
 5161SOL    HW116382   1.468   3.906   5.652
 5161SOL    HW216383   1.445   3.958   5.499
 5162SOL     OW16384   6.764   5.406   4.184
 5162SOL    HW116385   6.676   5.447   4.159
 5162SOL    HW216386   6.754   5.307   4.187
 5163SOL     OW16387   5.261   5.453   1.104
 5163SOL    HW116388   5.347   5.503   1.096
 5163SOL    HW216389   5.262   5.373   1.045
 5164SOL     OW16390   5.350   2.642   5.289
 5164SOL    HW116391   5.339   2.695   5.205
 5164SOL    HW216392   5.447   2.642   5.315
 5165SOL     OW16393   6.345   4.637   4.641
 5165SOL    HW116394   6.365   4.648   4.739
 5165SOL    HW216395   6.365   4.543   4.614
 5166SOL     OW16396   1.542   4.946   1.521
 5166SOL    HW116397   1.522   4.871   1.458
 5166SOL    HW216398   1.610   4.917   1.587
 5167SOL     OW16399   5.895   6.434   5.555
 5167SOL    HW116400   5.826   6.374   5.595
 5167SOL    HW216401   5.970   6.447   5.620
 5168SOL     OW16402   4.152   2.090   3.122
 5168SOL    HW116403   4.209   2.157   3.169
 5168SOL    HW216404   4.153   2.109   3.024
 5169SOL     OW16405   3.404   4.007   6.246
 5169SOL    HW116406   3.305   4.024   6.241
 5169SOL    HW216407   3.451   4.062   6.177
 5170SOL     OW16408   6.724   4.331   5.317
 5170SOL    HW116409   6.748   4.428   5.307
 5170SOL    HW216410   6.682   4.315   5.406
 5171SOL     OW16411   2.327   4.728   4.264
 5171SOL    HW116412   2.276   4.722   4.350
 5171SOL    HW216413   2.402   4.663   4.265
 5172SOL     OW16414   0.422   3.691   1.691
 5172SOL    HW116415   0.432   3.760   1.763
 5172SOL    HW216416   0.475   3.719   1.611
 5173SOL     OW16417   6.026   4.044   5.942
 5173SOL    HW116418   6.089   4.097   6.001
 5173SOL    HW216419   5.934   4.083   5.948
 5174SOL     OW16420   1.638   4.928   5.080
 5174SOL    HW116421   1.604   4.987   5.008
 5174SOL    HW216422   1.720   4.880   5.049
 5175SOL     OW16423   2.016   4.388   0.144
 5175SOL    HW116424   1.948   4.455   0.174
 5175SOL    HW216425   1.979   4.336   0.067
 5176SOL     OW16426   4.212   3.722   0.575
 5176SOL    HW116427   4.174   3.645   0.626
 5176SOL    HW216428   4.245   3.792   0.638
 5177SOL     OW16429   4.771   6.640   5.728
 5177SOL    HW116430   4.864   6.617   5.755
 5177SOL    HW216431   4.727   6.693   5.800
 5178SOL     OW16432   2.728   2.799   1.678
 5178SOL    HW116433   2.661   2.744   1.728
 5178SOL    HW216434   2.815   2.750   1.675
 5179SOL     OW16435   4.293   6.503   5.607
 5179SOL    HW116436   4.296   6.567   5.531
 5179SOL    HW216437   4.269   6.551   5.691
 5180SOL     OW16438   3.412   1.939   0.002
 5180SOL    HW116439   3.437   2.036   0.009
 5180SOL    HW216440   3.439   1.905   6.939
 5181SOL     OW16441   3.996   0.168   2.593
 5181SOL    HW116442   4.053   0.149   2.512
 5181SOL    HW216443   3.963   0.262   2.589
 5182SOL     OW16444   5.701   4.891   1.622
 5182SOL    HW116445   5.781   4.887   1.683
 5182SOL    HW216446   5.658   4.801   1.619
 5183SOL     OW16447   4.505   6.727   2.055
 5183SOL    HW116448   4.494   6.638   2.010
 5183SOL    HW216449   4.586   6.725   2.113
 5184SOL     OW16450   0.915   1.142   3.283
 5184SOL    HW116451   0.942   1.179   3.194
 5184SOL    HW216452   0.962   1.192   3.355
 5185SOL     OW16453   3.509   6.693   2.676
 5185SOL    HW116454   3.604   6.665   2.659
 5185SOL    HW216455   3.502   6.792   2.670
 5186SOL     OW16456   6.913   3.757   1.175
 5186SOL    HW116457   7.013   3.763   1.170
 5186SOL    HW216458   6.874   3.782   1.087
 5187SOL     OW16459   6.384   1.748   3.432
 5187SOL    HW116460   6.382   1.827   3.492
 5187SOL    HW216461   6.349   1.773   3.341
 5188SOL     OW16462   0.348   5.055   6.849
 5188SOL    HW116463   0.409   5.081   6.924
 5188SOL    HW216464   0.381   4.970   6.807
 5189SOL     OW16465   5.073   4.768   6.586
 5189SOL    HW116466   5.070   4.733   6.493
 5189SOL    HW216467   5.168   4.787   6.612
 5190SOL     OW16468   0.778   2.207   4.054
 5190SOL    HW116469   0.861   2.151   4.060
 5190SOL    HW216470   0.733   2.209   4.143
 5191SOL     OW16471   3.359   1.469   2.134
 5191SOL    HW116472   3.307   1.399   2.183
 5191SOL    HW216473   3.386   1.541   2.198
 5192SOL     OW16474   5.751   5.592   2.601
 5192SOL    HW116475   5.756   5.651   2.520
 5192SOL    HW216476   5.723   5.646   2.680
 5193SOL     OW16477   4.858   4.432   3.808
 5193SOL    HW116478   4.820   4.428   3.715
 5193SOL    HW216479   4.829   4.352   3.859
 5194SOL     OW16480   5.088   1.060   5.897
 5194SOL    HW116481   5.157   0.993   5.871
 5194SOL    HW216482   5.103   1.145   5.847
 5195SOL     OW16483   6.575   6.668   4.795
 5195SOL    HW116484   6.496   6.606   4.791
 5195SOL    HW216485   6.616   6.664   4.886
 5196SOL     OW16486   0.719   4.257   1.671
 5196SOL    HW116487   0.632   4.231   1.629
 5196SOL    HW216488   0.713   4.351   1.705
 5197SOL     OW16489   2.026   6.403   4.646
 5197SOL    HW116490   2.006   6.385   4.742
 5197SOL    HW216491   1.943   6.434   4.599
 5198SOL     OW16492   3.191   6.241   5.470
 5198SOL    HW116493   3.149   6.319   5.515
 5198SOL    HW216494   3.217   6.267   5.377
 5199SOL     OW16495   2.272   5.729   1.718
 5199SOL    HW116496   2.368   5.701   1.718
 5199SOL    HW216497   2.214   5.647   1.713
 5200SOL     OW16498   0.561   1.738   4.525
 5200SOL    HW116499   0.524   1.649   4.499
 5200SOL    HW216500   0.555   1.801   4.447
 5201SOL     OW16501   5.598   4.823   4.069
 5201SOL    HW116502   5.638   4.763   4.137
 5201SOL    HW216503   5.543   4.769   4.005
 5202SOL     OW16504   4.648   3.335   6.631
 5202SOL    HW116505   4.678   3.319   6.725
 5202SOL    HW216506   4.712   3.398   6.586
 5203SOL     OW16507   1.874   0.571   0.420
 5203SOL    HW116508   1.914   0.509   0.351
 5203SOL    HW216509   1.931   0.570   0.502
 5204SOL     OW16510   3.207   0.237   6.603
 5204SOL    HW116511   3.269   0.177   6.653
 5204SOL    HW216512   3.251   0.269   6.519
 5205SOL     OW16513   6.889   6.213   1.031
 5205SOL    HW116514   6.978   6.248   1.000
 5205SOL    HW216515   6.818   6.282   1.013
 5206SOL     OW16516   0.422   4.521   4.881
 5206SOL    HW116517   0.494   4.464   4.844
 5206SOL    HW216518   0.428   4.522   4.981
 5207SOL     OW16519   0.010   0.045   4.454
 5207SOL    HW116520   0.057   0.118   4.504
 5207SOL    HW216521   6.940   0.064   4.450
 5208SOL     OW16522   4.964   2.379   0.171
 5208SOL    HW116523   5.048   2.341   0.209
 5208SOL    HW216524   4.957   2.356   0.074
 5209SOL     OW16525   4.798   7.025   3.380
 5209SOL    HW116526   4.825   6.972   3.460
 5209SOL    HW216527   4.858   7.002   3.303
 5210SOL     OW16528   5.164   4.144   1.032
 5210SOL    HW116529   5.246   4.199   1.017
 5210SOL    HW216530   5.094   4.169   0.965
 5211SOL     OW16531   4.715   2.283   4.100
 5211SOL    HW116532   4.730   2.269   4.198
 5211SOL    HW216533   4.770   2.361   4.069
 5212SOL     OW16534   1.565   3.121   0.685
 5212SOL    HW116535   1.489   3.176   0.720
 5212SOL    HW216536   1.551   3.025   0.711
 5213SOL     OW16537   3.892   3.061   2.605
 5213SOL    HW116538   3.983   3.055   2.647
 5213SOL    HW216539   3.841   3.136   2.647
 5214SOL     OW16540   5.502   4.183   6.466
 5214SOL    HW116541   5.498   4.219   6.560
 5214SOL    HW216542   5.483   4.085   6.467
 5215SOL     OW16543   6.346   3.601   4.787
 5215SOL    HW116544   6.386   3.555   4.708
 5215SOL    HW216545   6.329   3.534   4.859
 5216SOL     OW16546   5.613   4.482   0.861
 5216SOL    HW116547   5.540   4.464   0.927
 5216SOL    HW216548   5.624   4.402   0.801
 5217SOL     OW16549   3.906   5.650   4.151
 5217SOL    HW116550   3.999   5.619   4.130
 5217SOL    HW216551   3.855   5.659   4.065
 5218SOL     OW16552   0.833   0.421   0.919
 5218SOL    HW116553   0.785   0.350   0.866
 5218SOL    HW216554   0.806   0.414   1.015
 5219SOL     OW16555   2.022   2.051   5.007
 5219SOL    HW116556   1.934   2.059   5.053
 5219SOL    HW216557   2.007   2.044   4.908
 5220SOL     OW16558   2.228   4.802   3.018
 5220SOL    HW116559   2.279   4.855   2.951
 5220SOL    HW216560   2.281   4.797   3.104
 5221SOL     OW16561   0.019   0.663   1.747
 5221SOL    HW116562   7.024   0.619   1.660
 5221SOL    HW216563   0.004   0.599   1.822
 5222SOL     OW16564   4.391   4.841   1.909
 5222SOL    HW116565   4.378   4.742   1.899
 5222SOL    HW216566   4.483   4.859   1.942
 5223SOL     OW16567   0.672   3.007   0.833
 5223SOL    HW116568   0.716   3.018   0.744
 5223SOL    HW216569   0.728   2.948   0.891
 5224SOL     OW16570   0.948   1.980   4.057
 5224SOL    HW116571   1.008   1.937   3.990
 5224SOL    HW216572   0.866   1.923   4.070
 5225SOL     OW16573   0.239   1.419   4.983
 5225SOL    HW116574   0.204   1.326   4.989
 5225SOL    HW216575   0.339   1.418   4.984
 5226SOL     OW16576   0.471   6.040   3.889
 5226SOL    HW116577   0.439   6.041   3.984
 5226SOL    HW216578   0.449   5.952   3.848
 5227SOL     OW16579   6.813   3.181   5.211
 5227SOL    HW116580   6.796   3.263   5.157
 5227SOL    HW216581   6.899   3.192   5.261
 5228SOL     OW16582   1.861   3.057   5.452
 5228SOL    HW116583   1.862   3.072   5.551
 5228SOL    HW216584   1.934   2.994   5.427
 5229SOL     OW16585   3.314   0.367   6.374
 5229SOL    HW116586   3.411   0.347   6.386
 5229SOL    HW216587   3.292   0.457   6.411
 5230SOL     OW16588   6.759   0.260   1.558
 5230SOL    HW116589   6.744   0.357   1.579
 5230SOL    HW216590   6.842   0.229   1.604
 5231SOL     OW16591   5.717   1.522   2.775
 5231SOL    HW116592   5.806   1.496   2.737
 5231SOL    HW216593   5.699   1.618   2.755
 5232SOL     OW16594   1.967   3.654   5.801
 5232SOL    HW116595   2.048   3.612   5.760
 5232SOL    HW216596   1.966   3.752   5.779
 5233SOL     OW16597   2.889   0.323   2.690
 5233SOL    HW116598   2.864   0.259   2.617
 5233SOL    HW216599   2.985   0.348   2.681
 5234SOL     OW16600   2.106   2.180   0.981
 5234SOL    HW116601   2.105   2.246   1.056
 5234SOL    HW216602   2.188   2.123   0.989
 5235SOL     OW16603   2.510   1.867   1.206
 5235SOL    HW116604   2.485   1.896   1.298
 5235SOL    HW216605   2.455   1.916   1.138
 5236SOL     OW16606   3.660   5.176   2.124
 5236SOL    HW116607   3.645   5.275   2.124
 5236SOL    HW216608   3.572   5.129   2.135
 5237SOL     OW16609   2.031   2.468   4.749
 5237SOL    HW116610   2.060   2.409   4.824
 5237SOL    HW216611   1.945   2.513   4.773
 5238SOL     OW16612   1.190   5.571   2.758
 5238SOL    HW116613   1.138   5.488   2.780
 5238SOL    HW216614   1.145   5.651   2.797
 5239SOL     OW16615   2.999   3.782   1.540
 5239SOL    HW116616   2.973   3.832   1.623
 5239SOL    HW216617   3.082   3.729   1.559
 5240SOL     OW16618   2.536   2.433   6.207
 5240SOL    HW116619   2.481   2.468   6.283
 5240SOL    HW216620   2.632   2.430   6.235
 5241SOL     OW16621   1.170   6.066   2.572
 5241SOL    HW116622   1.167   6.117   2.487
 5241SOL    HW216623   1.130   5.975   2.558
 5242SOL     OW16624   4.732   0.734   0.325
 5242SOL    HW116625   4.643   0.770   0.298
 5242SOL    HW216626   4.757   0.770   0.415
 5243SOL     OW16627   1.629   6.086   1.695
 5243SOL    HW116628   1.667   5.993   1.696
 5243SOL    HW216629   1.656   6.134   1.778
 5244SOL     OW16630   5.229   3.548   0.549
 5244SOL    HW116631   5.256   3.491   0.627
 5244SOL    HW216632   5.299   3.618   0.533
 5245SOL     OW16633   4.156   4.103   0.258
 5245SOL    HW116634   4.126   4.195   0.282
 5245SOL    HW216635   4.255   4.103   0.247
 5246SOL     OW16636   6.498   2.549   1.558
 5246SOL    HW116637   6.544   2.633   1.586
 5246SOL    HW216638   6.502   2.540   1.458
 5247SOL     OW16639   4.032   2.196   5.903
 5247SOL    HW116640   4.044   2.168   5.998
 5247SOL    HW216641   4.049   2.118   5.843
 5248SOL     OW16642   6.423   1.805   2.434
 5248SOL    HW116643   6.348   1.842   2.489
 5248SOL    HW216644   6.485   1.755   2.493
 5249SOL     OW16645   0.476   4.862   6.722
 5249SOL    HW116646   0.415   4.849   6.644
 5249SOL    HW216647   0.468   4.784   6.784
 5250SOL     OW16648   2.219   5.806   0.251
 5250SOL    HW116649   2.289   5.847   0.192
 5250SOL    HW216650   2.150   5.761   0.195
 5251SOL     OW16651   0.708   4.131   0.862
 5251SOL    HW116652   0.666   4.218   0.838
 5251SOL    HW216653   0.807   4.143   0.875
 5252SOL     OW16654   3.195   6.865   2.485
 5252SOL    HW116655   3.229   6.942   2.430
 5252SOL    HW216656   3.255   6.853   2.564
 5253SOL     OW16657   5.792   4.821   4.713
 5253SOL    HW116658   5.798   4.870   4.800
 5253SOL    HW216659   5.800   4.886   4.637
 5254SOL     OW16660   6.073   0.135   3.082
 5254SOL    HW116661   6.129   0.055   3.060
 5254SOL    HW216662   5.977   0.108   3.089
 5255SOL     OW16663   5.691   1.706   4.778
 5255SOL    HW116664   5.708   1.608   4.785
 5255SOL    HW216665   5.751   1.745   4.708
 5256SOL     OW16666   5.302   0.551   3.105
 5256SOL    HW116667   5.390   0.593   3.126
 5256SOL    HW216668   5.266   0.589   3.020
 5257SOL     OW16669   4.099   0.709   6.715
 5257SOL    HW116670   4.148   0.679   6.633
 5257SOL    HW216671   4.153   0.686   6.796
 5258SOL     OW16672   5.216   1.584   2.176
 5258SOL    HW116673   5.188   1.498   2.220
 5258SOL    HW216674   5.307   1.573   2.136
 5259SOL     OW16675   4.842   5.047   3.214
 5259SOL    HW116676   4.865   5.108   3.290
 5259SOL    HW216677   4.782   4.974   3.247
 5260SOL     OW16678   2.324   0.063   0.115
 5260SOL    HW116679   2.392   0.041   0.184
 5260SOL    HW216680   2.284   7.006   0.079
 5261SOL     OW16681   6.400   4.546   0.542
 5261SOL    HW116682   6.497   4.531   0.561
 5261SOL    HW216683   6.378   4.642   0.559
 5262SOL     OW16684   2.133   0.637   2.753
 5262SOL    HW116685   2.109   0.605   2.662
 5262SOL    HW216686   2.230   0.622   2.770
 5263SOL     OW16687   1.822   1.468   3.695
 5263SOL    HW116688   1.778   1.396   3.641
 5263SOL    HW216689   1.863   1.429   3.777
 5264SOL     OW16690   6.668   1.893   1.439
 5264SOL    HW116691   6.714   1.944   1.367
 5264SOL    HW216692   6.598   1.951   1.481
 5265SOL     OW16693   5.659   3.011   4.784
 5265SOL    HW116694   5.595   3.079   4.819
 5265SOL    HW216695   5.611   2.926   4.764
 5266SOL     OW16696   2.286   6.829   0.389
 5266SOL    HW116697   2.341   6.762   0.439
 5266SOL    HW216698   2.347   6.888   0.336
 5267SOL     OW16699   4.450   2.359   4.501
 5267SOL    HW116700   4.425   2.373   4.405
 5267SOL    HW216701   4.456   2.448   4.547
 5268SOL     OW16702   5.377   0.970   6.342
 5268SOL    HW116703   5.423   1.056   6.322
 5268SOL    HW216704   5.330   0.938   6.260
 5269SOL     OW16705   0.205   6.449   2.399
 5269SOL    HW116706   0.218   6.474   2.304
 5269SOL    HW216707   0.107   6.450   2.421
 5270SOL     OW16708   7.014   1.977   6.974
 5270SOL    HW116709   0.025   1.968   6.882
 5270SOL    HW216710   6.915   1.993   6.967
 5271SOL     OW16711   6.046   5.719   4.184
 5271SOL    HW116712   6.064   5.646   4.250
 5271SOL    HW216713   6.096   5.700   4.099
 5272SOL     OW16714   3.863   6.958   0.254
 5272SOL    HW116715   3.926   6.932   0.327
 5272SOL    HW216716   3.913   7.008   0.183
 5273SOL     OW16717   1.007   2.922   2.599
 5273SOL    HW116718   1.066   2.983   2.546
 5273SOL    HW216719   0.911   2.946   2.583
 5274SOL     OW16720   4.894   6.052   2.485
 5274SOL    HW116721   4.989   6.081   2.482
 5274SOL    HW216722   4.848   6.093   2.564
 5275SOL     OW16723   3.004   0.746   0.716
 5275SOL    HW116724   2.995   0.781   0.809
 5275SOL    HW216725   2.987   0.821   0.651
 5276SOL     OW16726   2.584   6.263   1.667
 5276SOL    HW116727   2.553   6.251   1.573
 5276SOL    HW216728   2.621   6.176   1.701
 5277SOL     OW16729   1.641   1.101   2.445
 5277SOL    HW116730   1.551   1.062   2.462
 5277SOL    HW216731   1.704   1.072   2.516
 5278SOL     OW16732   4.384   5.086   2.246
 5278SOL    HW116733   4.407   5.171   2.292
 5278SOL    HW216734   4.317   5.036   2.301
 5279SOL     OW16735   2.492   5.327   1.064
 5279SOL    HW116736   2.459   5.287   1.150
 5279SOL    HW216737   2.473   5.265   0.989
 5280SOL     OW16738   3.440   6.073   5.148
 5280SOL    HW116739   3.402   6.034   5.065
 5280SOL    HW216740   3.378   6.057   5.224
 5281SOL     OW16741   0.410   2.014   2.093
 5281SOL    HW116742   0.486   2.001   2.029
 5281SOL    HW216743   0.421   2.102   2.140
 5282SOL     OW16744   2.621   1.980   3.549
 5282SOL    HW116745   2.545   1.917   3.561
 5282SOL    HW216746   2.595   2.052   3.486
 5283SOL     OW16747   4.876   5.917   0.301
 5283SOL    HW116748   4.906   5.826   0.271
 5283SOL    HW216749   4.955   5.976   0.312
 5284SOL     OW16750   5.722   3.500   2.724
 5284SOL    HW116751   5.633   3.488   2.681
 5284SOL    HW216752   5.749   3.414   2.768
 5285SOL     OW16753   3.378   5.185   3.702
 5285SOL    HW116754   3.292   5.232   3.681
 5285SOL    HW216755   3.443   5.201   3.628
 5286SOL     OW16756   1.488   4.622   1.672
 5286SOL    HW116757   1.518   4.692   1.737
 5286SOL    HW216758   1.389   4.622   1.666
 5287SOL     OW16759   2.426   2.053   0.530
 5287SOL    HW116760   2.409   2.073   0.626
 5287SOL    HW216761   2.359   1.987   0.497
 5288SOL     OW16762   2.877   7.027   1.407
 5288SOL    HW116763   2.948   0.070   1.406
 5288SOL    HW216764   2.844   7.012   1.315
 5289SOL     OW16765   0.756   5.219   0.924
 5289SOL    HW116766   0.768   5.125   0.953
 5289SOL    HW216767   0.831   5.245   0.862
 5290SOL     OW16768   3.673   5.589   0.484
 5290SOL    HW116769   3.772   5.579   0.476
 5290SOL    HW216770   3.637   5.514   0.540
 5291SOL     OW16771   1.949   5.269   5.318
 5291SOL    HW116772   1.863   5.225   5.345
 5291SOL    HW216773   2.011   5.200   5.280
 5292SOL     OW16774   4.860   3.133   6.045
 5292SOL    HW116775   4.873   3.161   6.140
 5292SOL    HW216776   4.786   3.065   6.040
 5293SOL     OW16777   0.322   0.492   4.484
 5293SOL    HW116778   0.399   0.438   4.451
 5293SOL    HW216779   0.307   0.474   4.581
 5294SOL     OW16780   6.347   2.798   6.413
 5294SOL    HW116781   6.303   2.726   6.467
 5294SOL    HW216782   6.364   2.878   6.471
 5295SOL     OW16783   6.302   0.578   2.979
 5295SOL    HW116784   6.346   0.658   3.019
 5295SOL    HW216785   6.297   0.588   2.880
 5296SOL     OW16786   0.526   4.375   0.782
 5296SOL    HW116787   0.604   4.437   0.784
 5296SOL    HW216788   0.443   4.424   0.805
 5297SOL     OW16789   1.947   1.626   1.565
 5297SOL    HW116790   1.990   1.628   1.655
 5297SOL    HW216791   1.971   1.709   1.514
 5298SOL     OW16792   7.015   5.445   1.030
 5298SOL    HW116793   6.990   5.357   1.071
 5298SOL    HW216794   0.025   5.429   0.939
 5299SOL     OW16795   2.792   0.490   1.961
 5299SOL    HW116796   2.823   0.445   2.044
 5299SOL    HW216797   2.699   0.525   1.974
 5300SOL     OW16798   6.998   5.860   3.829
 5300SOL    HW116799   7.026   5.954   3.813
 5300SOL    HW216800   7.003   5.808   3.744
 5301SOL     OW16801   4.293   1.191   0.053
 5301SOL    HW116802   4.369   1.142   0.011
 5301SOL    HW216803   4.227   1.216   7.010
 5302SOL     OW16804   6.310   4.139   2.500
 5302SOL    HW116805   6.253   4.064   2.533
 5302SOL    HW216806   6.400   4.135   2.543
 5303SOL     OW16807   6.275   4.178   3.641
 5303SOL    HW116808   6.231   4.219   3.562
 5303SOL    HW216809   6.249   4.082   3.648
 5304SOL     OW16810   5.434   1.904   6.013
 5304SOL    HW116811   5.448   1.871   5.920
 5304SOL    HW216812   5.346   1.872   6.047
 5305SOL     OW16813   2.435   0.920   3.297
 5305SOL    HW116814   2.519   0.975   3.302
 5305SOL    HW216815   2.394   0.914   3.388
 5306SOL     OW16816   3.321   6.939   5.599
 5306SOL    HW116817   3.275   6.962   5.514
 5306SOL    HW216818   3.383   7.013   5.625
 5307SOL     OW16819   4.478   6.831   6.787
 5307SOL    HW116820   4.378   6.832   6.782
 5307SOL    HW216821   4.507   6.808   6.879
 5308SOL     OW16822   6.797   1.473   3.045
 5308SOL    HW116823   6.755   1.551   3.092
 5308SOL    HW216824   6.830   1.408   3.112
 5309SOL     OW16825   3.738   3.747   3.747
 5309SOL    HW116826   3.799   3.745   3.826
 5309SOL    HW216827   3.766   3.821   3.685
 5310SOL     OW16828   5.096   2.248   1.013
 5310SOL    HW116829   5.049   2.301   1.083
 5310SOL    HW216830   5.182   2.292   0.988
 5311SOL     OW16831   2.054   5.554   6.879
 5311SOL    HW116832   2.022   5.557   6.785
 5311SOL    HW216833   2.107   5.470   6.894
 5312SOL     OW16834   0.689   3.928   3.274
 5312SOL    HW116835   0.702   3.958   3.368
 5312SOL    HW216836   0.771   3.947   3.221
 5313SOL     OW16837   1.008   5.816   6.901
 5313SOL    HW116838   0.982   5.912   6.889
 5313SOL    HW216839   0.964   5.760   6.832
 5314SOL     OW16840   3.376   5.210   0.632
 5314SOL    HW116841   3.456   5.263   0.660
 5314SOL    HW216842   3.404   5.140   0.567
 5315SOL     OW16843   5.820   2.735   2.176
 5315SOL    HW116844   5.906   2.724   2.124
 5315SOL    HW216845   5.781   2.825   2.157
 5316SOL     OW16846   0.040   4.162   3.584
 5316SOL    HW116847   6.988   4.102   3.574
 5316SOL    HW216848   0.123   4.114   3.557
 5317SOL     OW16849   5.469   6.800   3.054
 5317SOL    HW116850   5.565   6.779   3.032
 5317SOL    HW216851   5.423   6.716   3.083
 5318SOL     OW16852   0.552   2.566   4.166
 5318SOL    HW116853   0.500   2.509   4.231
 5318SOL    HW216854   0.492   2.591   4.090
 5319SOL     OW16855   5.198   0.691   0.314
 5319SOL    HW116856   5.224   0.772   0.261
 5319SOL    HW216857   5.103   0.668   0.294
 5320SOL     OW16858   5.878   3.059   6.270
 5320SOL    HW116859   5.970   3.021   6.259
 5320SOL    HW216860   5.837   3.075   6.180
 5321SOL     OW16861   1.762   5.300   5.818
 5321SOL    HW116862   1.843   5.332   5.867
 5321SOL    HW216863   1.789   5.230   5.752
 5322SOL     OW16864   3.048   5.860   6.517
 5322SOL    HW116865   3.051   5.844   6.616
 5322SOL    HW216866   2.986   5.794   6.474
 5323SOL     OW16867   5.188   2.741   0.968
 5323SOL    HW116868   5.141   2.749   0.880
 5323SOL    HW216869   5.286   2.760   0.956
 5324SOL     OW16870   3.825   3.035   1.519
 5324SOL    HW116871   3.741   2.985   1.541
 5324SOL    HW216872   3.900   3.002   1.577
 5325SOL     OW16873   5.385   6.139   2.886
 5325SOL    HW116874   5.303   6.174   2.839
 5325SOL    HW216875   5.395   6.042   2.867
 5326SOL     OW16876   6.915   6.313   1.373
 5326SOL    HW116877   7.006   6.313   1.332
 5326SOL    HW216878   6.862   6.390   1.338
 5327SOL     OW16879   6.377   0.396   3.990
 5327SOL    HW116880   6.432   0.313   3.997
 5327SOL    HW216881   6.280   0.371   3.987
 5328SOL     OW16882   3.755   4.204   0.222
 5328SOL    HW116883   3.801   4.118   0.243
 5328SOL    HW216884   3.739   4.254   0.307
 5329SOL     OW16885   0.204   4.717   0.406
 5329SOL    HW116886   0.265   4.706   0.328
 5329SOL    HW216887   0.121   4.764   0.377
 5330SOL     OW16888   4.404   4.250   1.418
 5330SOL    HW116889   4.455   4.207   1.344
 5330SOL    HW216890   4.381   4.344   1.391
 5331SOL     OW16891   4.507   3.295   0.299
 5331SOL    HW116892   4.602   3.270   0.316
 5331SOL    HW216893   4.485   3.379   0.347
 5332SOL     OW16894   5.816   4.164   0.516
 5332SOL    HW116895   5.907   4.137   0.488
 5332SOL    HW216896   5.777   4.226   0.448
 5333SOL     OW16897   2.170   1.013   4.096
 5333SOL    HW116898   2.180   0.925   4.050
 5333SOL    HW216899   2.208   1.006   4.189
 5334SOL     OW16900   4.510   4.807   2.411
 5334SOL    HW116901   4.412   4.797   2.393
 5334SOL    HW216902   4.558   4.725   2.382
 5335SOL     OW16903   0.439   4.679   1.645
 5335SOL    HW116904   0.445   4.777   1.625
 5335SOL    HW216905   0.379   4.635   1.579
 5336SOL     OW16906   1.090   2.958   4.062
 5336SOL    HW116907   1.011   2.905   4.035
 5336SOL    HW216908   1.108   2.944   4.160
 5337SOL     OW16909   6.973   4.458   0.870
 5337SOL    HW116910   6.951   4.545   0.914
 5337SOL    HW216911   6.962   4.384   0.937
 5338SOL     OW16912   6.517   3.365   0.840
 5338SOL    HW116913   6.434   3.351   0.894
 5338SOL    HW216914   6.535   3.284   0.784
 5339SOL     OW16915   5.941   2.318   2.629
 5339SOL    HW116916   5.899   2.358   2.548
 5339SOL    HW216917   5.881   2.331   2.708
 5340SOL     OW16918   5.480   2.785   2.523
 5340SOL    HW116919   5.389   2.809   2.556
 5340SOL    HW216920   5.476   2.698   2.474
 5341SOL     OW16921   4.406   5.789   3.465
 5341SOL    HW116922   4.409   5.776   3.366
 5341SOL    HW216923   4.477   5.854   3.492
 5342SOL     OW16924   5.898   6.638   4.451
 5342SOL    HW116925   5.904   6.722   4.397
 5342SOL    HW216926   5.924   6.560   4.394
 5343SOL     OW16927   3.956   3.458   5.827
 5343SOL    HW116928   3.962   3.517   5.747
 5343SOL    HW216929   3.876   3.398   5.819
 5344SOL     OW16930   1.037   1.705   6.153
 5344SOL    HW116931   1.129   1.724   6.121
 5344SOL    HW216932   1.010   1.613   6.125
 5345SOL     OW16933   5.571   2.252   6.794
 5345SOL    HW116934   5.552   2.160   6.828
 5345SOL    HW216935   5.601   2.310   6.870
 5346SOL     OW16936   3.212   5.648   3.866
 5346SOL    HW116937   3.153   5.625   3.788
 5346SOL    HW216938   3.279   5.717   3.839
 5347SOL     OW16939   5.625   1.788   4.032
 5347SOL    HW116940   5.599   1.696   4.061
 5347SOL    HW216941   5.569   1.855   4.080
 5348SOL     OW16942   5.157   1.451   3.493
 5348SOL    HW116943   5.170   1.491   3.583
 5348SOL    HW216944   5.119   1.359   3.502
 5349SOL     OW16945   0.317   3.988   2.512
 5349SOL    HW116946   0.247   4.047   2.552
 5349SOL    HW216947   0.275   3.905   2.475
 5350SOL     OW16948   1.776   6.420   6.731
 5350SOL    HW116949   1.739   6.470   6.652
 5350SOL    HW216950   1.872   6.399   6.714
 5351SOL     OW16951   0.174   5.490   1.400
 5351SOL    HW116952   0.260   5.484   1.450
 5351SOL    HW216953   0.111   5.550   1.450
 5352SOL     OW16954   1.848   3.461   4.181
 5352SOL    HW116955   1.798   3.496   4.101
 5352SOL    HW216956   1.922   3.402   4.150
 5353SOL     OW16957   4.408   5.758   3.197
 5353SOL    HW116958   4.439   5.682   3.139
 5353SOL    HW216959   4.483   5.824   3.208
 5354SOL     OW16960   4.019   5.842   0.548
 5354SOL    HW116961   3.974   5.766   0.501
 5354SOL    HW216962   3.979   5.854   0.639
 5355SOL     OW16963   5.082   4.700   5.292
 5355SOL    HW116964   5.037   4.696   5.382
 5355SOL    HW216965   5.181   4.696   5.305
 5356SOL     OW16966   0.206   5.122   1.579
 5356SOL    HW116967   0.122   5.159   1.621
 5356SOL    HW216968   0.274   5.195   1.572
 5357SOL     OW16969   5.683   4.246   2.487
 5357SOL    HW116970   5.653   4.274   2.396
 5357SOL    HW216971   5.656   4.314   2.554
 5358SOL     OW16972   4.534   2.105   0.413
 5358SOL    HW116973   4.525   2.017   0.459
 5358SOL    HW216974   4.506   2.178   0.475
 5359SOL     OW16975   2.535   1.796   6.496
 5359SOL    HW116976   2.535   1.854   6.578
 5359SOL    HW216977   2.554   1.852   6.416
 5360SOL     OW16978   5.236   4.539   3.159
 5360SOL    HW116979   5.261   4.442   3.161
 5360SOL    HW216980   5.138   4.548   3.176
 5361SOL     OW16981   2.819   6.156   2.196
 5361SOL    HW116982   2.875   6.074   2.209
 5361SOL    HW216983   2.853   6.209   2.119
 5362SOL     OW16984   6.015   0.343   1.956
 5362SOL    HW116985   6.096   0.355   1.899
 5362SOL    HW216986   6.037   0.364   2.051
 5363SOL     OW16987   5.873   5.185   4.096
 5363SOL    HW116988   5.898   5.181   4.193
 5363SOL    HW216989   5.924   5.115   4.046
 5364SOL     OW16990   4.861   1.154   2.427
 5364SOL    HW116991   4.957   1.182   2.432
 5364SOL    HW216992   4.811   1.216   2.367
 5365SOL     OW16993   3.590   2.899   3.939
 5365SOL    HW116994   3.496   2.906   3.906
 5365SOL    HW216995   3.653   2.905   3.862
 5366SOL     OW16996   6.429   6.218   2.178
 5366SOL    HW116997   6.453   6.121   2.168
 5366SOL    HW216998   6.329   6.228   2.174
 5367SOL     OW16999   6.276   6.169   1.494
 5367SOL    HW117000   6.269   6.086   1.549
 5367SOL    HW217001   6.313   6.243   1.551
 5368SOL     OW17002   6.730   5.499   3.884
 5368SOL    HW117003   6.674   5.421   3.912
 5368SOL    HW217004   6.672   5.578   3.868
 5369SOL     OW17005   2.353   6.079   2.048
 5369SOL    HW117006   2.350   6.164   1.995
 5369SOL    HW217007   2.275   6.021   2.022
 5370SOL     OW17008   2.656   3.765   1.725
 5370SOL    HW117009   2.744   3.812   1.738
 5370SOL    HW217010   2.635   3.761   1.628
 5371SOL     OW17011   5.440   5.464   4.817
 5371SOL    HW117012   5.408   5.406   4.742
 5371SOL    HW217013   5.369   5.530   4.842
 5372SOL     OW17014   0.621   0.497   3.040
 5372SOL    HW117015   0.679   0.447   2.976
 5372SOL    HW217016   0.679   0.547   3.105
 5373SOL     OW17017   3.264   0.650   6.883
 5373SOL    HW117018   3.177   0.615   6.919
 5373SOL    HW217019   3.339   0.595   6.919
 5374SOL     OW17020   2.518   4.980   1.958
 5374SOL    HW117021   2.457   5.056   1.934
 5374SOL    HW217022   2.558   4.996   2.048
 5375SOL     OW17023   1.227   5.085   3.947
 5375SOL    HW117024   1.198   5.024   4.021
 5375SOL    HW217025   1.242   5.031   3.864
 5376SOL     OW17026   0.110   1.040   6.057
 5376SOL    HW117027   0.048   0.961   6.062
 5376SOL    HW217028   0.057   1.124   6.052
 5377SOL     OW17029   2.491   0.747   3.090
 5377SOL    HW117030   2.526   0.784   3.004
 5377SOL    HW217031   2.478   0.821   3.155
 5378SOL     OW17032   5.637   1.203   1.852
 5378SOL    HW117033   5.638   1.192   1.951
 5378SOL    HW217034   5.544   1.191   1.817
 5379SOL     OW17035   1.462   2.614   6.349
 5379SOL    HW117036   1.524   2.574   6.417
 5379SOL    HW217037   1.454   2.553   6.270
 5380SOL     OW17038   4.753   6.941   1.455
 5380SOL    HW117039   4.815   6.874   1.413
 5380SOL    HW217040   4.752   7.024   1.400
 5381SOL     OW17041   4.736   6.388   3.827
 5381SOL    HW117042   4.813   6.431   3.780
 5381SOL    HW217043   4.762   6.295   3.855
 5382SOL     OW17044   4.365   1.876   1.742
 5382SOL    HW117045   4.412   1.792   1.768
 5382SOL    HW217046   4.360   1.937   1.821
 5383SOL     OW17047   2.153   2.827   4.506
 5383SOL    HW117048   2.174   2.792   4.597
 5383SOL    HW217049   2.065   2.876   4.509
 5384SOL     OW17050   5.315   5.328   4.606
 5384SOL    HW117051   5.379   5.251   4.607
 5384SOL    HW217052   5.223   5.295   4.628
 5385SOL     OW17053   4.461   2.391   5.609
 5385SOL    HW117054   4.389   2.406   5.541
 5385SOL    HW217055   4.451   2.299   5.647
 5386SOL     OW17056   6.109   4.304   4.175
 5386SOL    HW117057   6.186   4.312   4.110
 5386SOL    HW217058   6.134   4.349   4.261
 5387SOL     OW17059   1.324   1.096   3.289
 5387SOL    HW117060   1.249   1.056   3.236
 5387SOL    HW217061   1.410   1.051   3.264
 5388SOL     OW17062   1.006   6.468   2.324
 5388SOL    HW117063   0.931   6.494   2.263
 5388SOL    HW217064   1.051   6.551   2.359
 5389SOL     OW17065   4.256   1.321   3.882
 5389SOL    HW117066   4.214   1.231   3.870
 5389SOL    HW217067   4.316   1.320   3.962
 5390SOL     OW17068   0.103   2.822   3.396
 5390SOL    HW117069   0.093   2.909   3.444
 5390SOL    HW217070   0.200   2.797   3.392
 5391SOL     OW17071   2.343   3.662   0.986
 5391SOL    HW117072   2.440   3.676   1.003
 5391SOL    HW217073   2.330   3.622   0.896
 5392SOL     OW17074   5.855   1.968   3.646
 5392SOL    HW117075   5.875   1.939   3.552
 5392SOL    HW217076   5.828   2.064   3.645
 5393SOL     OW17077   3.841   1.775   5.615
 5393SOL    HW117078   3.802   1.817   5.533
 5393SOL    HW217079   3.770   1.762   5.684
 5394SOL     OW17080   1.387   0.831   1.253
 5394SOL    HW117081   1.431   0.741   1.248
 5394SOL    HW217082   1.288   0.821   1.251
 5395SOL     OW17083   6.455   1.488   0.961
 5395SOL    HW117084   6.499   1.399   0.973
 5395SOL    HW217085   6.410   1.515   1.046
 5396SOL     OW17086   5.439   5.327   2.170
 5396SOL    HW117087   5.475   5.388   2.099
 5396SOL    HW217088   5.366   5.373   2.220
 5397SOL     OW17089   0.173   0.915   2.387
 5397SOL    HW117090   0.178   1.003   2.435
 5397SOL    HW217091   0.154   0.842   2.453
 5398SOL     OW17092   5.274   2.000   3.037
 5398SOL    HW117093   5.232   2.076   3.087
 5398SOL    HW217094   5.250   1.914   3.081
 5399SOL     OW17095   2.499   0.490   6.089
 5399SOL    HW117096   2.475   0.396   6.114
 5399SOL    HW217097   2.571   0.523   6.150
 5400SOL     OW17098   4.498   3.082   1.648
 5400SOL    HW117099   4.417   3.140   1.655
 5400SOL    HW217100   4.558   3.100   1.726
 5401SOL     OW17101   6.057   3.655   1.705
 5401SOL    HW117102   6.121   3.691   1.774
 5401SOL    HW217103   6.034   3.727   1.640
 5402SOL     OW17104   0.988   6.395   1.222
 5402SOL    HW117105   0.933   6.317   1.251
 5402SOL    HW217106   1.076   6.394   1.271
 5403SOL     OW17107   5.264   2.552   0.151
 5403SOL    HW117108   5.344   2.529   0.206
 5403SOL    HW217109   5.190   2.584   0.210
 5404SOL     OW17110   6.663   1.114   0.744
 5404SOL    HW117111   6.748   1.062   0.744
 5404SOL    HW217112   6.647   1.151   0.836
 5405SOL     OW17113   5.428   5.562   0.028
 5405SOL    HW117114   5.499   5.509   7.009
 5405SOL    HW217115   5.345   5.561   7.000
 5406SOL     OW17116   2.974   0.597   4.198
 5406SOL    HW117117   2.955   0.618   4.102
 5406SOL    HW217118   2.906   0.532   4.233
 5407SOL     OW17119   1.480   6.789   2.676
 5407SOL    HW117120   1.487   6.873   2.622
 5407SOL    HW217121   1.540   6.719   2.636
 5408SOL     OW17122   3.612   1.976   4.503
 5408SOL    HW117123   3.574   1.936   4.420
 5408SOL    HW217124   3.610   1.909   4.577
 5409SOL     OW17125   1.086   3.199   0.694
 5409SOL    HW117126   1.017   3.127   0.695
 5409SOL    HW217127   1.101   3.230   0.600
 5410SOL     OW17128   1.261   2.713   0.600
 5410SOL    HW117129   1.249   2.616   0.582
 5410SOL    HW217130   1.235   2.732   0.695
 5411SOL     OW17131   3.430   4.866   6.654
 5411SOL    HW117132   3.350   4.822   6.695
 5411SOL    HW217133   3.445   4.955   6.697
 5412SOL     OW17134   0.164   2.053   6.149
 5412SOL    HW117135   0.180   2.143   6.189
 5412SOL    HW217136   0.081   2.056   6.093
 5413SOL     OW17137   6.936   6.454   4.611
 5413SOL    HW117138   6.949   6.526   4.678
 5413SOL    HW217139   6.840   6.425   4.611
 5414SOL     OW17140   5.609   4.089   4.874
 5414SOL    HW117141   5.667   4.103   4.955
 5414SOL    HW217142   5.587   3.992   4.865
 5415SOL     OW17143   3.780   0.313   6.874
 5415SOL    HW117144   3.812   0.396   6.920
 5415SOL    HW217145   3.799   0.319   6.776
 5416SOL     OW17146   3.093   5.563   6.246
 5416SOL    HW117147   3.021   5.589   6.310
 5416SOL    HW217148   3.181   5.595   6.280
 5417SOL     OW17149   4.769   5.973   4.098
 5417SOL    HW117150   4.707   6.046   4.070
 5417SOL    HW217151   4.759   5.956   4.196
 5418SOL     OW17152   6.354   3.504   4.332
 5418SOL    HW117153   6.429   3.457   4.286
 5418SOL    HW217154   6.374   3.511   4.430
 5419SOL     OW17155   4.507   0.220   6.297
 5419SOL    HW117156   4.595   0.207   6.343
 5419SOL    HW217157   4.496   0.147   6.229
 5420SOL     OW17158   1.137   0.719   1.870
 5420SOL    HW117159   1.178   0.639   1.826
 5420SOL    HW217160   1.138   0.707   1.969
 5421SOL     OW17161   4.205   4.699   2.383
 5421SOL    HW117162   4.146   4.657   2.452
 5421SOL    HW217163   4.209   4.798   2.399
 5422SOL     OW17164   2.460   5.883   3.863
 5422SOL    HW117165   2.435   5.810   3.928
 5422SOL    HW217166   2.555   5.909   3.878
 5423SOL     OW17167   5.706   5.595   1.739
 5423SOL    HW117168   5.670   5.502   1.735
 5423SOL    HW217169   5.635   5.660   1.711
 5424SOL     OW17170   4.234   3.902   5.553
 5424SOL    HW117171   4.311   3.864   5.605
 5424SOL    HW217172   4.210   3.992   5.589
 5425SOL     OW17173   1.312   4.145   5.787
 5425SOL    HW117174   1.246   4.218   5.804
 5425SOL    HW217175   1.343   4.149   5.692
 5426SOL     OW17176   5.299   5.138   1.746
 5426SOL    HW117177   5.330   5.201   1.675
 5426SOL    HW217178   5.231   5.183   1.804
 5427SOL     OW17179   4.608   2.370   6.421
 5427SOL    HW117180   4.645   2.297   6.478
 5427SOL    HW217181   4.670   2.388   6.345
 5428SOL     OW17182   6.333   6.182   3.346
 5428SOL    HW117183   6.296   6.094   3.315
 5428SOL    HW217184   6.278   6.216   3.422
 5429SOL     OW17185   3.334   0.306   4.363
 5429SOL    HW117186   3.339   0.266   4.271
 5429SOL    HW217187   3.247   0.282   4.405
 5430SOL     OW17188   2.799   3.868   6.017
 5430SOL    HW117189   2.833   3.789   6.067
 5430SOL    HW217190   2.851   3.878   5.932
 5431SOL     OW17191   3.202   4.528   6.631
 5431SOL    HW117192   3.274   4.589   6.602
 5431SOL    HW217193   3.231   4.478   6.713
 5432SOL     OW17194   5.642   5.432   6.924
 5432SOL    HW117195   5.672   5.517   6.880
 5432SOL    HW217196   5.696   5.415   7.006
 5433SOL     OW17197   1.892   0.622   1.555
 5433SOL    HW117198   1.877   0.699   1.494
 5433SOL    HW217199   1.816   0.615   1.619
 5434SOL     OW17200   5.518   0.393   4.916
 5434SOL    HW117201   5.559   0.401   5.006
 5434SOL    HW217202   5.496   0.485   4.881
 5435SOL     OW17203   6.990   3.878   0.771
 5435SOL    HW117204   6.974   3.859   0.674
 5435SOL    HW217205   6.911   3.846   0.824
 5436SOL     OW17206   1.168   5.048   3.035
 5436SOL    HW117207   1.182   5.003   3.123
 5436SOL    HW217208   1.089   5.108   3.040
 5437SOL     OW17209   3.642   5.771   1.192
 5437SOL    HW117210   3.589   5.716   1.128
 5437SOL    HW217211   3.594   5.858   1.208
 5438SOL     OW17212   4.868   4.883   2.443
 5438SOL    HW117213   4.911   4.970   2.467
 5438SOL    HW217214   4.770   4.889   2.457
 5439SOL     OW17215   1.088   5.014   1.443
 5439SOL    HW117216   1.184   5.043   1.442
 5439SOL    HW217217   1.043   5.042   1.359
 5440SOL     OW17218   6.553   6.197   3.745
 5440SOL    HW117219   6.584   6.259   3.673
 5440SOL    HW217220   6.588   6.105   3.727
 5441SOL     OW17221   5.192   2.586   3.526
 5441SOL    HW117222   5.218   2.630   3.612
 5441SOL    HW217223   5.250   2.620   3.452
 5442SOL     OW17224   4.244   6.667   5.827
 5442SOL    HW117225   4.253   6.623   5.917
 5442SOL    HW217226   4.292   6.755   5.829
 5443SOL     OW17227   4.431   0.507   4.118
 5443SOL    HW117228   4.446   0.414   4.083
 5443SOL    HW217229   4.520   0.548   4.141
 5444SOL     OW17230   6.003   1.341   5.048
 5444SOL    HW117231   5.983   1.248   5.017
 5444SOL    HW217232   5.984   1.349   5.146
 5445SOL     OW17233   5.579   5.001   5.456
 5445SOL    HW117234   5.583   4.999   5.356
 5445SOL    HW217235   5.627   5.081   5.490
 5446SOL     OW17236   0.683   4.221   6.131
 5446SOL    HW117237   0.766   4.223   6.074
 5446SOL    HW217238   0.675   4.132   6.176
 5447SOL     OW17239   1.469   2.001   0.689
 5447SOL    HW117240   1.529   2.004   0.769
 5447SOL    HW217241   1.419   1.914   0.688
 5448SOL     OW17242   4.398   5.094   3.001
 5448SOL    HW117243   4.439   5.004   2.985
 5448SOL    HW217244   4.385   5.108   3.099
 5449SOL     OW17245   3.029   1.300   1.800
 5449SOL    HW117246   2.998   1.229   1.736
 5449SOL    HW217247   2.986   1.387   1.776
 5450SOL     OW17248   4.226   5.549   1.647
 5450SOL    HW117249   4.314   5.557   1.601
 5450SOL    HW217250   4.156   5.525   1.581
 5451SOL     OW17251   0.341   6.743   3.138
 5451SOL    HW117252   0.268   6.686   3.101
 5451SOL    HW217253   0.402   6.772   3.064
 5452SOL     OW17254   2.246   4.705   1.870
 5452SOL    HW117255   2.303   4.786   1.867
 5452SOL    HW217256   2.242   4.663   1.779
 5453SOL     OW17257   5.993   4.011   3.066
 5453SOL    HW117258   6.044   4.045   2.987
 5453SOL    HW217259   5.969   3.915   3.052
 5454SOL     OW17260   5.307   5.386   2.595
 5454SOL    HW117261   5.212   5.400   2.623
 5454SOL    HW217262   5.368   5.430   2.662
 5455SOL     OW17263   1.451   1.288   3.678
 5455SOL    HW117264   1.543   1.317   3.703
 5455SOL    HW217265   1.407   1.358   3.622
 5456SOL     OW17266   6.307   0.952   6.925
 5456SOL    HW117267   6.320   1.033   6.869
 5456SOL    HW217268   6.318   0.976   7.022
 5457SOL     OW17269   5.721   2.487   6.619
 5457SOL    HW117270   5.676   2.506   6.706
 5457SOL    HW217271   5.732   2.388   6.608
 5458SOL     OW17272   5.859   3.886   0.243
 5458SOL    HW117273   5.877   3.790   0.266
 5458SOL    HW217274   5.862   3.941   0.326
 5459SOL     OW17275   2.050   3.696   5.428
 5459SOL    HW117276   2.082   3.786   5.401
 5459SOL    HW217277   2.128   3.635   5.443
 5460SOL     OW17278   1.892   0.505   0.844
 5460SOL    HW117279   1.947   0.498   0.761
 5460SOL    HW217280   1.944   0.469   0.921
 5461SOL     OW17281   6.414   0.884   5.648
 5461SOL    HW117282   6.386   0.830   5.727
 5461SOL    HW217283   6.492   0.840   5.603
 5462SOL     OW17284   4.790   5.464   6.681
 5462SOL    HW117285   4.693   5.482   6.696
 5462SOL    HW217286   4.845   5.515   6.746
 5463SOL     OW17287   0.761   3.276   6.634
 5463SOL    HW117288   0.843   3.280   6.691
 5463SOL    HW217289   0.786   3.238   6.544
 5464SOL     OW17290   7.017   6.302   5.643
 5464SOL    HW117291   6.991   6.385   5.594
 5464SOL    HW217292   6.964   6.224   5.608
 5465SOL     OW17293   6.680   5.787   3.901
 5465SOL    HW117294   6.764   5.781   3.846
 5465SOL    HW217295   6.705   5.800   3.997
 5466SOL     OW17296   6.097   2.671   6.123
 5466SOL    HW117297   6.101   2.707   6.216
 5466SOL    HW217298   6.001   2.666   6.093
 5467SOL     OW17299   5.407   3.380   3.900
 5467SOL    HW117300   5.491   3.411   3.855
 5467SOL    HW217301   5.356   3.460   3.932
 5468SOL     OW17302   0.635   1.459   1.398
 5468SOL    HW117303   0.589   1.545   1.417
 5468SOL    HW217304   0.733   1.468   1.418
 5469SOL     OW17305   2.909   0.461   5.041
 5469SOL    HW117306   2.850   0.486   5.118
 5469SOL    HW217307   2.869   0.496   4.956
 5470SOL     OW17308   3.819   5.351   4.506
 5470SOL    HW117309   3.875   5.270   4.522
 5470SOL    HW217310   3.722   5.327   4.512
 5471SOL     OW17311   4.679   0.718   2.876
 5471SOL    HW117312   4.636   0.808   2.867
 5471SOL    HW217313   4.732   0.715   2.960
 5472SOL     OW17314   2.488   2.137   6.872
 5472SOL    HW117315   2.492   2.051   6.822
 5472SOL    HW217316   2.557   2.200   6.836
 5473SOL     OW17317   2.849   3.815   1.050
 5473SOL    HW117318   2.894   3.751   1.113
 5473SOL    HW217319   2.861   3.908   1.085
 5474SOL     OW17320   0.210   5.203   3.663
 5474SOL    HW117321   0.294   5.212   3.610
 5474SOL    HW217322   0.167   5.294   3.673
 5475SOL     OW17323   6.464   1.993   5.229
 5475SOL    HW117324   6.509   1.912   5.267
 5475SOL    HW217325   6.526   2.071   5.234
 5476SOL     OW17326   2.545   6.668   6.275
 5476SOL    HW117327   2.580   6.736   6.211
 5476SOL    HW217328   2.451   6.692   6.301
 5477SOL     OW17329   2.056   4.764   3.674
 5477SOL    HW117330   2.005   4.846   3.699
 5477SOL    HW217331   1.997   4.700   3.625
 5478SOL     OW17332   5.589   5.106   5.834
 5478SOL    HW117333   5.602   5.097   5.933
 5478SOL    HW217334   5.666   5.064   5.786
 5479SOL     OW17335   3.427   1.769   4.965
 5479SOL    HW117336   3.331   1.740   4.969
 5479SOL    HW217337   3.479   1.717   5.033
 5480SOL     OW17338   6.708   3.437   4.466
 5480SOL    HW117339   6.747   3.497   4.396
 5480SOL    HW217340   6.774   3.423   4.539
 5481SOL     OW17341   4.391   1.062   6.733
 5481SOL    HW117342   4.449   1.082   6.812
 5481SOL    HW217343   4.412   0.971   6.698
 5482SOL     OW17344   4.553   3.165   1.192
 5482SOL    HW117345   4.554   3.167   1.292
 5482SOL    HW217346   4.587   3.076   1.160
 5483SOL     OW17347   6.907   3.558   5.924
 5483SOL    HW117348   7.000   3.596   5.933
 5483SOL    HW217349   6.881   3.514   6.010
 5484SOL     OW17350   6.660   6.218   3.988
 5484SOL    HW117351   6.621   6.220   3.895
 5484SOL    HW217352   6.758   6.236   3.983
 5485SOL     OW17353   3.833   6.757   5.498
 5485SOL    HW117354   3.908   6.761   5.564
 5485SOL    HW217355   3.772   6.835   5.512
 5486SOL     OW17356   1.138   1.001   3.102
 5486SOL    HW117357   1.044   1.016   3.074
 5486SOL    HW217358   1.169   0.912   3.069
 5487SOL     OW17359   6.251   4.437   0.340
 5487SOL    HW117360   6.291   4.461   0.429
 5487SOL    HW217361   6.236   4.519   0.286
 5488SOL     OW17362   5.305   2.119   6.209
 5488SOL    HW117363   5.246   2.156   6.138
 5488SOL    HW217364   5.399   2.111   6.174
 5489SOL     OW17365   1.642   4.444   2.904
 5489SOL    HW117366   1.645   4.410   2.997
 5489SOL    HW217367   1.605   4.537   2.904
 5490SOL     OW17368   2.594   1.562   0.915
 5490SOL    HW117369   2.571   1.471   0.949
 5490SOL    HW217370   2.690   1.582   0.936
 5491SOL     OW17371   1.482   4.930   0.695
 5491SOL    HW117372   1.531   4.890   0.617
 5491SOL    HW217373   1.531   4.908   0.779
 5492SOL     OW17374   0.774   1.750   6.433
 5492SOL    HW117375   0.798   1.841   6.465
 5492SOL    HW217376   0.709   1.709   6.498
 5493SOL     OW17377   3.546   3.112   6.364
 5493SOL    HW117378   3.640   3.145   6.376
 5493SOL    HW217379   3.485   3.190   6.351
 5494SOL     OW17380   5.850   3.480   1.449
 5494SOL    HW117381   5.803   3.392   1.450
 5494SOL    HW217382   5.804   3.542   1.513
 5495SOL     OW17383   4.138   3.392   2.788
 5495SOL    HW117384   4.100   3.380   2.880
 5495SOL    HW217385   4.172   3.304   2.755
 5496SOL     OW17386   3.553   5.845   1.637
 5496SOL    HW117387   3.591   5.859   1.729
 5496SOL    HW217388   3.615   5.786   1.585
 5497SOL     OW17389   6.808   1.115   2.619
 5497SOL    HW117390   6.799   1.064   2.704
 5497SOL    HW217391   6.840   1.053   2.547
 5498SOL     OW17392   4.587   1.700   5.975
 5498SOL    HW117393   4.506   1.707   6.033
 5498SOL    HW217394   4.588   1.777   5.911
 5499SOL     OW17395   6.623   1.708   3.093
 5499SOL    HW117396   6.661   1.780   3.151
 5499SOL    HW217397   6.659   1.718   3.000
 5500SOL     OW17398   2.062   6.132   0.416
 5500SOL    HW117399   2.103   6.158   0.329
 5500SOL    HW217400   1.971   6.172   0.424
 5501SOL     OW17401   2.778   0.203   2.435
 5501SOL    HW117402   2.838   0.127   2.460
 5501SOL    HW217403   2.687   0.168   2.414
 5502SOL     OW17404   6.146   4.227   5.726
 5502SOL    HW117405   6.050   4.241   5.702
 5502SOL    HW217406   6.152   4.171   5.809
 5503SOL     OW17407   1.150   4.555   3.346
 5503SOL    HW117408   1.156   4.465   3.388
 5503SOL    HW217409   1.231   4.570   3.288
 5504SOL     OW17410   3.579   1.766   4.676
 5504SOL    HW117411   3.533   1.711   4.606
 5504SOL    HW217412   3.539   1.746   4.766
 5505SOL     OW17413   3.439   5.512   5.463
 5505SOL    HW117414   3.465   5.557   5.378
 5505SOL    HW217415   3.348   5.542   5.491
 5506SOL     OW17416   6.411   0.716   5.341
 5506SOL    HW117417   6.508   0.739   5.350
 5506SOL    HW217418   6.402   0.633   5.286
 5507SOL     OW17419   2.824   6.580   3.954
 5507SOL    HW117420   2.804   6.624   3.867
 5507SOL    HW217421   2.906   6.622   3.994
 5508SOL     OW17422   2.538   0.380   6.465
 5508SOL    HW117423   2.572   0.459   6.516
 5508SOL    HW217424   2.547   0.397   6.367
 5509SOL     OW17425   5.809   6.784   0.400
 5509SOL    HW117426   5.729   6.842   0.385
 5509SOL    HW217427   5.876   6.798   0.326
 5510SOL     OW17428   4.928   0.522   5.803
 5510SOL    HW117429   4.971   0.537   5.892
 5510SOL    HW217430   4.991   0.550   5.730
 5511SOL     OW17431   0.562   0.577   2.556
 5511SOL    HW117432   0.477   0.582   2.503
 5511SOL    HW217433   0.608   0.491   2.535
 5512SOL     OW17434   1.298   1.149   6.872
 5512SOL    HW117435   1.277   1.126   6.777
 5512SOL    HW217436   1.212   1.162   6.922
 5513SOL     OW17437   4.782   4.211   4.464
 5513SOL    HW117438   4.734   4.241   4.546
 5513SOL    HW217439   4.868   4.167   4.490
 5514SOL     OW17440   5.216   4.698   2.272
 5514SOL    HW117441   5.168   4.771   2.223
 5514SOL    HW217442   5.172   4.682   2.360
 5515SOL     OW17443   6.623   2.193   1.970
 5515SOL    HW117444   6.630   2.285   1.931
 5515SOL    HW217445   6.587   2.198   2.063
 5516SOL     OW17446   1.331   3.857   6.737
 5516SOL    HW117447   1.245   3.826   6.696
 5516SOL    HW217448   1.311   3.930   6.802
 5517SOL     OW17449   3.022   1.822   1.167
 5517SOL    HW117450   2.993   1.906   1.123
 5517SOL    HW217451   3.107   1.790   1.126
 5518SOL     OW17452   5.870   4.990   5.706
 5518SOL    HW117453   5.859   4.912   5.644
 5518SOL    HW217454   5.906   5.068   5.655
 5519SOL     OW17455   5.800   3.545   3.762
 5519SOL    HW117456   5.843   3.455   3.750
 5519SOL    HW217457   5.847   3.612   3.705
 5520SOL     OW17458   0.995   3.934   2.143
 5520SOL    HW117459   1.032   3.845   2.117
 5520SOL    HW217460   1.034   4.005   2.084
 5521SOL     OW17461   5.699   6.261   1.262
 5521SOL    HW117462   5.693   6.360   1.254
 5521SOL    HW217463   5.792   6.235   1.288
 5522SOL     OW17464   2.653   3.504   1.791
 5522SOL    HW117465   2.663   3.597   1.756
 5522SOL    HW217466   2.564   3.495   1.836
 5523SOL     OW17467   3.171   0.169   2.809
 5523SOL    HW117468   3.125   0.156   2.721
 5523SOL    HW217469   3.209   0.261   2.814
 5524SOL     OW17470   0.823   4.874   5.370
 5524SOL    HW117471   0.858   4.923   5.290
 5524SOL    HW217472   0.730   4.843   5.351
 5525SOL     OW17473   6.736   5.233   6.468
 5525SOL    HW117474   6.719   5.327   6.438
 5525SOL    HW217475   6.816   5.232   6.528
 5526SOL     OW17476   6.059   3.247   3.405
 5526SOL    HW117477   5.980   3.187   3.394
 5526SOL    HW217478   6.118   3.212   3.478
 5527SOL     OW17479   1.627   2.805   1.625
 5527SOL    HW117480   1.599   2.749   1.547
 5527SOL    HW217481   1.570   2.784   1.704
 5528SOL     OW17482   0.332   2.349   4.541
 5528SOL    HW117483   0.336   2.274   4.608
 5528SOL    HW217484   0.322   2.436   4.589
 5529SOL     OW17485   2.455   0.893   4.588
 5529SOL    HW117486   2.391   0.892   4.665
 5529SOL    HW217487   2.546   0.866   4.620
 5530SOL     OW17488   0.456   2.052   0.549
 5530SOL    HW117489   0.443   2.038   0.451
 5530SOL    HW217490   0.553   2.042   0.572
 5531SOL     OW17491   4.144   3.049   5.313
 5531SOL    HW117492   4.075   2.995   5.265
 5531SOL    HW217493   4.116   3.145   5.314
 5532SOL     OW17494   2.302   1.819   0.470
 5532SOL    HW117495   2.345   1.747   0.525
 5532SOL    HW217496   2.224   1.781   0.421
 5533SOL     OW17497   3.628   0.560   2.066
 5533SOL    HW117498   3.560   0.517   2.007
 5533SOL    HW217499   3.616   0.659   2.063
 5534SOL     OW17500   0.845   3.841   6.502
 5534SOL    HW117501   0.806   3.751   6.521
 5534SOL    HW217502   0.907   3.867   6.577
 5535SOL     OW17503   6.290   3.207   3.060
 5535SOL    HW117504   6.294   3.108   3.052
 5535SOL    HW217505   6.335   3.249   2.981
 5536SOL     OW17506   2.369   0.699   4.367
 5536SOL    HW117507   2.380   0.771   4.435
 5536SOL    HW217508   2.367   0.610   4.413
 5537SOL     OW17509   3.966   0.290   5.078
 5537SOL    HW117510   4.005   0.361   5.020
 5537SOL    HW217511   3.906   0.331   5.146
 5538SOL     OW17512   3.675   1.266   5.818
 5538SOL    HW117513   3.623   1.316   5.749
 5538SOL    HW217514   3.690   1.325   5.897
 5539SOL     OW17515   1.513   0.963   2.069
 5539SOL    HW117516   1.552   0.881   2.111
 5539SOL    HW217517   1.420   0.976   2.102
 5540SOL     OW17518   5.330   2.918   0.443
 5540SOL    HW117519   5.268   2.968   0.382
 5540SOL    HW217520   5.364   2.980   0.514
 5541SOL     OW17521   4.958   3.690   5.946
 5541SOL    HW117522   5.053   3.667   5.966
 5541SOL    HW217523   4.939   3.671   5.849
 5542SOL     OW17524   5.332   4.674   6.667
 5542SOL    HW117525   5.407   4.673   6.600
 5542SOL    HW217526   5.271   4.597   6.650
 5543SOL     OW17527   1.712   6.476   0.226
 5543SOL    HW117528   1.698   6.574   0.237
 5543SOL    HW217529   1.711   6.452   0.129
 5544SOL     OW17530   4.542   4.851   6.217
 5544SOL    HW117531   4.532   4.810   6.126
 5544SOL    HW217532   4.484   4.802   6.281
 5545SOL     OW17533   4.278   1.375   2.758
 5545SOL    HW117534   4.225   1.460   2.761
 5545SOL    HW217535   4.305   1.355   2.664
 5546SOL     OW17536   0.753   6.113   5.027
 5546SOL    HW117537   0.674   6.056   5.049
 5546SOL    HW217538   0.837   6.058   5.030
 5547SOL     OW17539   5.153   2.035   5.575
 5547SOL    HW117540   5.133   1.986   5.659
 5547SOL    HW217541   5.105   1.991   5.498
 5548SOL     OW17542   0.046   3.787   5.569
 5548SOL    HW117543   6.982   3.792   5.528
 5548SOL    HW217544   0.088   3.699   5.547
 5549SOL     OW17545   4.131   3.500   1.938
 5549SOL    HW117546   4.131   3.589   1.984
 5549SOL    HW217547   4.192   3.504   1.859
 5550SOL     OW17548   2.428   4.394   2.781
 5550SOL    HW117549   2.472   4.304   2.773
 5550SOL    HW217550   2.340   4.384   2.827
 5551SOL     OW17551   1.973   5.346   2.821
 5551SOL    HW117552   1.958   5.432   2.871
 5551SOL    HW217553   2.046   5.295   2.865
 5552SOL     OW17554   6.523   6.918   6.209
 5552SOL    HW117555   6.448   6.886   6.152
 5552SOL    HW217556   6.526   7.018   6.209
 5553SOL     OW17557   4.143   0.469   6.978
 5553SOL    HW117558   4.059   0.511   7.013
 5553SOL    HW217559   4.120   0.400   6.909
 5554SOL     OW17560   4.924   3.067   1.502
 5554SOL    HW117561   4.931   3.142   1.568
 5554SOL    HW217562   4.880   2.989   1.545
 5555SOL     OW17563   0.921   3.996   3.135
 5555SOL    HW117564   0.873   3.985   3.048
 5555SOL    HW217565   1.015   4.027   3.118
 5556SOL     OW17566   6.015   1.082   4.319
 5556SOL    HW117567   5.958   1.095   4.238
 5556SOL    HW217568   5.958   1.056   4.397
 5557SOL     OW17569   3.214   5.834   1.410
 5557SOL    HW117570   3.227   5.900   1.336
 5557SOL    HW217571   3.226   5.881   1.498
 5558SOL     OW17572   3.431   4.342   0.597
 5558SOL    HW117573   3.439   4.247   0.565
 5558SOL    HW217574   3.449   4.404   0.520
 5559SOL     OW17575   1.121   0.293   2.476
 5559SOL    HW117576   1.032   0.327   2.447
 5559SOL    HW217577   1.127   0.195   2.459
 5560SOL     OW17578   6.677   5.987   2.856
 5560SOL    HW117579   6.577   5.989   2.864
 5560SOL    HW217580   6.703   5.982   2.759
 5561SOL     OW17581   3.068   0.645   4.832
 5561SOL    HW117582   3.078   0.680   4.739
 5561SOL    HW217583   2.973   0.617   4.847
 5562SOL     OW17584   4.413   4.425   0.178
 5562SOL    HW117585   4.451   4.334   0.196
 5562SOL    HW217586   4.478   4.495   0.209
 5563SOL     OW17587   3.199   5.228   2.788
 5563SOL    HW117588   3.125   5.169   2.756
 5563SOL    HW217589   3.236   5.191   2.874
 5564SOL     OW17590   4.787   6.930   6.450
 5564SOL    HW117591   4.775   6.987   6.368
 5564SOL    HW217592   4.697   6.900   6.482
 5565SOL     OW17593   4.219   3.229   0.380
 5565SOL    HW117594   4.312   3.226   0.343
 5565SOL    HW217595   4.172   3.310   0.346
 5566SOL     OW17596   1.619   4.447   0.885
 5566SOL    HW117597   1.696   4.399   0.927
 5566SOL    HW217598   1.598   4.406   0.796
 5567SOL     OW17599   6.766   3.728   1.946
 5567SOL    HW117600   6.800   3.657   2.008
 5567SOL    HW217601   6.815   3.813   1.963
 5568SOL     OW17602   4.643   0.108   3.055
 5568SOL    HW117603   4.733   0.073   3.029
 5568SOL    HW217604   4.652   0.169   3.134
 5569SOL     OW17605   2.413   1.685   3.224
 5569SOL    HW117606   2.323   1.667   3.264
 5569SOL    HW217607   2.475   1.610   3.247
 5570SOL     OW17608   6.255   3.621   3.395
 5570SOL    HW117609   6.351   3.624   3.367
 5570SOL    HW217610   6.245   3.559   3.472
 5571SOL     OW17611   6.904   5.047   2.304
 5571SOL    HW117612   6.918   5.137   2.262
 5571SOL    HW217613   6.990   4.996   2.302
 5572SOL     OW17614   1.674   4.583   4.786
 5572SOL    HW117615   1.738   4.545   4.853
 5572SOL    HW217616   1.685   4.534   4.699
 5573SOL     OW17617   1.480   5.432   5.301
 5573SOL    HW117618   1.382   5.436   5.279
 5573SOL    HW217619   1.510   5.522   5.333
 5574SOL     OW17620   0.527   2.946   6.842
 5574SOL    HW117621   0.618   2.910   6.823
 5574SOL    HW217622   0.496   2.914   6.931
 5575SOL     OW17623   0.551   6.968   1.222
 5575SOL    HW117624   0.501   6.939   1.141
 5575SOL    HW217625   0.647   6.984   1.199
 5576SOL     OW17626   1.864   4.268   2.860
 5576SOL    HW117627   1.796   4.339   2.880
 5576SOL    HW217628   1.882   4.266   2.762
 5577SOL     OW17629   2.216   3.142   0.748
 5577SOL    HW117630   2.231   3.098   0.659
 5577SOL    HW217631   2.231   3.241   0.739
 5578SOL     OW17632   4.068   3.879   2.415
 5578SOL    HW117633   4.003   3.947   2.381
 5578SOL    HW217634   4.098   3.904   2.507
 5579SOL     OW17635   0.563   3.481   1.079
 5579SOL    HW117636   0.623   3.551   1.041
 5579SOL    HW217637   0.507   3.520   1.151
 5580SOL     OW17638   4.674   1.992   6.128
 5580SOL    HW117639   4.706   1.945   6.046
 5580SOL    HW217640   4.579   2.018   6.117
 5581SOL     OW17641   0.889   1.493   1.501
 5581SOL    HW117642   0.970   1.530   1.453
 5581SOL    HW217643   0.918   1.441   1.581
 5582SOL     OW17644   2.622   4.256   6.944
 5582SOL    HW117645   2.627   4.242   0.016
 5582SOL    HW217646   2.714   4.247   6.905
 5583SOL     OW17647   4.121   0.900   2.453
 5583SOL    HW117648   4.071   0.855   2.379
 5583SOL    HW217649   4.211   0.858   2.463
 5584SOL     OW17650   6.248   3.474   4.084
 5584SOL    HW117651   6.266   3.497   4.179
 5584SOL    HW217652   6.334   3.449   4.039
 5585SOL     OW17653   4.697   5.371   3.413
 5585SOL    HW117654   4.744   5.458   3.403
 5585SOL    HW217655   4.764   5.296   3.416
 5586SOL     OW17656   6.659   3.577   5.788
 5586SOL    HW117657   6.670   3.543   5.695
 5586SOL    HW217658   6.746   3.573   5.836
 5587SOL     OW17659   4.253   0.238   0.744
 5587SOL    HW117660   4.261   0.324   0.695
 5587SOL    HW217661   4.344   0.204   0.768
 5588SOL     OW17662   2.892   6.408   2.969
 5588SOL    HW117663   2.860   6.490   2.921
 5588SOL    HW217664   2.856   6.408   3.063
 5589SOL     OW17665   6.175   4.482   6.803
 5589SOL    HW117666   6.253   4.450   6.749
 5589SOL    HW217667   6.166   4.425   6.884
 5590SOL     OW17668   6.075   6.352   3.792
 5590SOL    HW117669   5.977   6.372   3.783
 5590SOL    HW217670   6.087   6.270   3.849
 5591SOL     OW17671   0.586   1.505   1.093
 5591SOL    HW117672   0.523   1.575   1.125
 5591SOL    HW217673   0.535   1.421   1.074
 5592SOL     OW17674   1.638   5.425   3.891
 5592SOL    HW117675   1.667   5.430   3.795
 5592SOL    HW217676   1.702   5.475   3.948
 5593SOL     OW17677   0.265   2.612   6.606
 5593SOL    HW117678   0.214   2.639   6.524
 5593SOL    HW217679   0.363   2.614   6.585
 5594SOL     OW17680   5.021   0.626   4.805
 5594SOL    HW117681   4.930   0.595   4.777
 5594SOL    HW217682   5.013   0.704   4.867
 5595SOL     OW17683   1.152   1.514   4.842
 5595SOL    HW117684   1.228   1.522   4.906
 5595SOL    HW217685   1.138   1.602   4.796
 5596SOL     OW17686   4.697   6.580   2.662
 5596SOL    HW117687   4.634   6.505   2.645
 5596SOL    HW217688   4.658   6.641   2.731
 5597SOL     OW17689   4.835   2.462   4.556
 5597SOL    HW117690   4.870   2.522   4.484
 5597SOL    HW217691   4.909   2.406   4.593
 5598SOL     OW17692   4.903   3.342   4.359
 5598SOL    HW117693   4.937   3.420   4.410
 5598SOL    HW217694   4.888   3.265   4.421
 5599SOL     OW17695   0.957   1.066   4.015
 5599SOL    HW117696   0.985   1.160   4.035
 5599SOL    HW217697   1.038   1.009   4.002
 5600SOL     OW17698   0.391   1.521   2.713
 5600SOL    HW117699   0.391   1.439   2.770
 5600SOL    HW217700   0.312   1.518   2.651
 5601SOL     OW17701   2.807   0.069   5.920
 5601SOL    HW117702   2.717   0.111   5.919
 5601SOL    HW217703   2.877   0.138   5.939
 5602SOL     OW17704   0.475   1.474   0.490
 5602SOL    HW117705   0.553   1.468   0.553
 5602SOL    HW217706   0.442   1.568   0.486
 5603SOL     OW17707   5.083   2.676   6.551
 5603SOL    HW117708   5.050   2.585   6.527
 5603SOL    HW217709   5.182   2.677   6.547
 5604SOL     OW17710   6.197   2.121   5.591
 5604SOL    HW117711   6.129   2.189   5.563
 5604SOL    HW217712   6.163   2.072   5.671
 5605SOL     OW17713   0.695   0.737   4.541
 5605SOL    HW117714   0.794   0.747   4.533
 5605SOL    HW217715   0.650   0.782   4.464
 5606SOL     OW17716   5.290   0.055   0.990
 5606SOL    HW117717   5.311   7.012   0.923
 5606SOL    HW217718   5.220   0.022   1.054
 5607SOL     OW17719   5.761   0.387   2.797
 5607SOL    HW117720   5.715   0.468   2.834
 5607SOL    HW217721   5.751   0.386   2.698
 5608SOL     OW17722   4.534   6.942   4.957
 5608SOL    HW117723   4.512   6.999   4.878
 5608SOL    HW217724   4.574   6.856   4.926
 5609SOL     OW17725   2.337   4.671   0.746
 5609SOL    HW117726   2.298   4.581   0.725
 5609SOL    HW217727   2.296   4.740   0.687
 5610SOL     OW17728   4.880   6.865   0.621
 5610SOL    HW117729   4.910   6.943   0.675
 5610SOL    HW217730   4.808   6.816   0.669
 5611SOL     OW17731   1.562   5.380   2.466
 5611SOL    HW117732   1.476   5.363   2.514
 5611SOL    HW217733   1.616   5.297   2.464
 5612SOL     OW17734   4.015   2.181   6.816
 5612SOL    HW117735   4.040   2.208   6.723
 5612SOL    HW217736   4.012   2.081   6.822
 5613SOL     OW17737   5.193   4.009   3.317
 5613SOL    HW117738   5.171   3.981   3.223
 5613SOL    HW217739   5.241   4.097   3.315
 5614SOL     OW17740   4.358   2.400   4.239
 5614SOL    HW117741   4.412   2.481   4.218
 5614SOL    HW217742   4.343   2.348   4.155
 5615SOL     OW17743   0.857   0.688   5.754
 5615SOL    HW117744   0.890   0.627   5.826
 5615SOL    HW217745   0.836   0.635   5.672
 5616SOL     OW17746   2.145   1.375   5.185
 5616SOL    HW117747   2.051   1.374   5.218
 5616SOL    HW217748   2.204   1.329   5.252
 5617SOL     OW17749   2.302   6.746   6.371
 5617SOL    HW117750   2.223   6.702   6.413
 5617SOL    HW217751   2.289   6.845   6.370
 5618SOL     OW17752   6.280   3.236   3.727
 5618SOL    HW117753   6.368   3.196   3.753
 5618SOL    HW217754   6.225   3.251   3.810
 5619SOL     OW17755   2.947   3.922   6.546
 5619SOL    HW117756   2.943   4.022   6.545
 5619SOL    HW217757   2.917   3.889   6.635
 5620SOL     OW17758   3.900   3.563   0.839
 5620SOL    HW117759   3.843   3.568   0.921
 5620SOL    HW217760   3.995   3.547   0.865
 5621SOL     OW17761   1.033   2.454   5.737
 5621SOL    HW117762   1.113   2.394   5.734
 5621SOL    HW217763   1.062   2.548   5.753
 5622SOL     OW17764   4.561   0.184   5.920
 5622SOL    HW117765   4.548   0.267   5.866
 5622SOL    HW217766   4.510   0.191   6.005
 5623SOL     OW17767   2.084   6.025   6.355
 5623SOL    HW117768   2.018   6.099   6.370
 5623SOL    HW217769   2.087   6.001   6.258
 5624SOL     OW17770   0.907   4.548   3.511
 5624SOL    HW117771   0.991   4.503   3.541
 5624SOL    HW217772   0.918   4.578   3.416
 5625SOL     OW17773   5.794   1.877   4.331
 5625SOL    HW117774   5.802   1.816   4.252
 5625SOL    HW217775   5.865   1.947   4.326
 5626SOL     OW17776   2.941   6.879   4.860
 5626SOL    HW117777   2.848   6.858   4.891
 5626SOL    HW217778   2.994   6.794   4.855
 5627SOL     OW17779   1.091   5.854   0.242
 5627SOL    HW117780   1.074   5.942   0.198
 5627SOL    HW217781   1.092   5.781   0.173
 5628SOL     OW17782   1.449   2.942   5.722
 5628SOL    HW117783   1.524   2.923   5.659
 5628SOL    HW217784   1.485   2.953   5.815
 5629SOL     OW17785   3.396   3.587   2.013
 5629SOL    HW117786   3.460   3.653   2.051
 5629SOL    HW217787   3.445   3.502   1.990
 5630SOL     OW17788   1.261   4.846   0.361
 5630SOL    HW117789   1.343   4.789   0.370
 5630SOL    HW217790   1.275   4.913   0.287
 5631SOL     OW17791   4.351   1.532   6.817
 5631SOL    HW117792   4.450   1.526   6.807
 5631SOL    HW217793   4.328   1.575   6.904
 5632SOL     OW17794   4.177   2.578   6.088
 5632SOL    HW117795   4.114   2.599   6.012
 5632SOL    HW217796   4.270   2.603   6.062
 5633SOL     OW17797   6.075   2.341   3.849
 5633SOL    HW117798   6.147   2.313   3.786
 5633SOL    HW217799   6.115   2.375   3.934
 5634SOL     OW17800   2.189   6.204   5.263
 5634SOL    HW117801   2.101   6.171   5.228
 5634SOL    HW217802   2.207   6.162   5.352
 5635SOL     OW17803   2.243   3.880   5.363
 5635SOL    HW117804   2.313   3.825   5.409
 5635SOL    HW217805   2.281   3.917   5.278
 5636SOL     OW17806   3.342   6.346   2.356
 5636SOL    HW117807   3.259   6.351   2.412
 5636SOL    HW217808   3.422   6.349   2.415
 5637SOL     OW17809   5.115   0.385   4.173
 5637SOL    HW117810   5.140   0.309   4.233
 5637SOL    HW217811   5.097   0.466   4.229
 5638SOL     OW17812   5.482   3.462   1.502
 5638SOL    HW117813   5.550   3.466   1.575
 5638SOL    HW217814   5.439   3.552   1.493
 5639SOL     OW17815   0.702   0.679   0.244
 5639SOL    HW117816   0.704   0.644   0.150
 5639SOL    HW217817   0.646   0.763   0.247
 5640SOL     OW17818   2.899   0.636   3.922
 5640SOL    HW117819   2.929   0.553   3.875
 5640SOL    HW217820   2.811   0.666   3.884
 5641SOL     OW17821   0.665   4.751   5.816
 5641SOL    HW117822   0.659   4.696   5.733
 5641SOL    HW217823   0.603   4.829   5.809
 5642SOL     OW17824   2.342   6.554   6.739
 5642SOL    HW117825   2.413   6.487   6.719
 5642SOL    HW217826   2.361   6.598   6.826
 5643SOL     OW17827   4.605   1.476   5.011
 5643SOL    HW117828   4.648   1.492   4.922
 5643SOL    HW217829   4.676   1.455   5.079
 5644SOL     OW17830   2.955   6.721   5.415
 5644SOL    HW117831   2.955   6.769   5.502
 5644SOL    HW217832   2.868   6.738   5.367
 5645SOL     OW17833   6.424   3.624   3.723
 5645SOL    HW117834   6.504   3.642   3.666
 5645SOL    HW217835   6.346   3.598   3.665
 5646SOL     OW17836   2.183   5.190   2.990
 5646SOL    HW117837   2.236   5.274   2.992
 5646SOL    HW217838   2.162   5.160   3.083
 5647SOL     OW17839   5.660   6.140   1.737
 5647SOL    HW117840   5.653   6.141   1.637
 5647SOL    HW217841   5.646   6.233   1.772
 5648SOL     OW17842   2.387   5.754   2.670
 5648SOL    HW117843   2.420   5.830   2.725
 5648SOL    HW217844   2.401   5.774   2.573
 5649SOL     OW17845   0.863   6.863   4.134
 5649SOL    HW117846   0.792   6.848   4.066
 5649SOL    HW217847   0.890   6.960   4.134
 5650SOL     OW17848   0.528   4.490   0.494
 5650SOL    HW117849   0.547   4.527   0.585
 5650SOL    HW217850   0.442   4.439   0.497
 5651SOL     OW17851   1.903   1.013   0.501
 5651SOL    HW117852   1.918   1.057   0.412
 5651SOL    HW217853   1.805   1.013   0.521
 5652SOL     OW17854   0.207   5.409   1.777
 5652SOL    HW117855   0.126   5.360   1.745
 5652SOL    HW217856   0.191   5.442   1.870
 5653SOL     OW17857   0.421   6.143   0.279
 5653SOL    HW117858   0.353   6.131   0.352
 5653SOL    HW217859   0.455   6.236   0.280
 5654SOL     OW17860   1.137   5.433   4.414
 5654SOL    HW117861   1.145   5.355   4.352
 5654SOL    HW217862   1.048   5.430   4.460
 5655SOL     OW17863   6.529   2.503   3.968
 5655SOL    HW117864   6.515   2.511   4.066
 5655SOL    HW217865   6.570   2.414   3.947
 5656SOL     OW17866   6.689   3.586   6.308
 5656SOL    HW117867   6.625   3.511   6.326
 5656SOL    HW217868   6.730   3.616   6.395
 5657SOL     OW17869   4.638   4.289   4.934
 5657SOL    HW117870   4.634   4.241   5.021
 5657SOL    HW217871   4.545   4.305   4.899
 5658SOL     OW17872   2.557   2.995   6.389
 5658SOL    HW117873   2.612   3.049   6.452
 5658SOL    HW217874   2.468   3.038   6.378
 5659SOL     OW17875   3.532   3.843   5.917
 5659SOL    HW117876   3.576   3.867   6.003
 5659SOL    HW217877   3.555   3.749   5.892
 5660SOL     OW17878   4.354   0.272   6.539
 5660SOL    HW117879   4.386   0.366   6.552
 5660SOL    HW217880   4.410   0.227   6.469
 5661SOL     OW17881   0.969   5.243   5.914
 5661SOL    HW117882   0.899   5.294   5.963
 5661SOL    HW217883   1.059   5.283   5.933
 5662SOL     OW17884   2.169   6.706   2.744
 5662SOL    HW117885   2.086   6.695   2.690
 5662SOL    HW217886   2.230   6.771   2.699
 5663SOL     OW17887   1.499   2.856   0.695
 5663SOL    HW117888   1.582   2.801   0.711
 5663SOL    HW217889   1.443   2.812   0.625
 5664SOL     OW17890   5.447   4.173   4.669
 5664SOL    HW117891   5.490   4.151   4.757
 5664SOL    HW217892   5.408   4.090   4.630
 5665SOL     OW17893   1.425   6.159   0.251
 5665SOL    HW117894   1.523   6.148   0.232
 5665SOL    HW217895   1.392   6.079   0.302
 5666SOL     OW17896   6.189   0.773   3.769
 5666SOL    HW117897   6.167   0.813   3.858
 5666SOL    HW217898   6.259   0.702   3.780
 5667SOL     OW17899   1.705   4.663   4.115
 5667SOL    HW117900   1.647   4.623   4.045
 5667SOL    HW217901   1.698   4.763   4.111
 5668SOL     OW17902   6.188   2.797   2.453
 5668SOL    HW117903   6.134   2.741   2.516
 5668SOL    HW217904   6.179   2.893   2.480
 5669SOL     OW17905   6.469   4.495   0.071
 5669SOL    HW117906   6.409   4.415   0.067
 5669SOL    HW217907   6.543   4.477   0.136
 5670SOL     OW17908   1.650   3.697   3.054
 5670SOL    HW117909   1.566   3.724   3.102
 5670SOL    HW217910   1.711   3.649   3.117
 5671SOL     OW17911   5.930   5.519   4.659
 5671SOL    HW117912   5.835   5.540   4.679
 5671SOL    HW217913   5.988   5.595   4.689
 5672SOL     OW17914   4.726   3.875   5.681
 5672SOL    HW117915   4.785   3.950   5.649
 5672SOL    HW217916   4.649   3.913   5.732
 5673SOL     OW17917   0.712   6.704   1.485
 5673SOL    HW117918   0.749   6.796   1.472
 5673SOL    HW217919   0.769   6.654   1.551
 5674SOL     OW17920   2.187   4.722   4.536
 5674SOL    HW117921   2.282   4.691   4.545
 5674SOL    HW217922   2.147   4.732   4.627
 5675SOL     OW17923   3.666   1.434   0.244
 5675SOL    HW117924   3.721   1.445   0.161
 5675SOL    HW217925   3.647   1.337   0.259
 5676SOL     OW17926   2.606   2.450   1.909
 5676SOL    HW117927   2.627   2.386   1.835
 5676SOL    HW217928   2.563   2.402   1.985
 5677SOL     OW17929   6.756   0.743   0.547
 5677SOL    HW117930   6.668   0.727   0.591
 5677SOL    HW217931   6.787   0.658   0.503
 5678SOL     OW17932   3.881   1.341   2.293
 5678SOL    HW117933   3.871   1.432   2.335
 5678SOL    HW217934   3.926   1.350   2.204
 5679SOL     OW17935   5.941   2.110   4.567
 5679SOL    HW117936   5.929   2.011   4.579
 5679SOL    HW217937   5.973   2.150   4.653
 5680SOL     OW17938   1.575   4.872   5.613
 5680SOL    HW117939   1.585   4.902   5.518
 5680SOL    HW217940   1.486   4.828   5.625
 5681SOL     OW17941   0.578   3.710   3.144
 5681SOL    HW117942   0.631   3.778   3.194
 5681SOL    HW217943   0.634   3.670   3.072
 5682SOL     OW17944   2.803   5.874   3.193
 5682SOL    HW117945   2.870   5.919   3.134
 5682SOL    HW217946   2.850   5.811   3.255
 5683SOL     OW17947   4.013   2.643   6.746
 5683SOL    HW117948   4.050   2.565   6.797
 5683SOL    HW217949   4.086   2.708   6.726
 5684SOL     OW17950   2.407   4.132   6.315
 5684SOL    HW117951   2.450   4.068   6.252
 5684SOL    HW217952   2.434   4.226   6.290
 5685SOL     OW17953   1.732   2.272   4.087
 5685SOL    HW117954   1.791   2.315   4.019
 5685SOL    HW217955   1.775   2.278   4.177
 5686SOL     OW17956   3.188   1.184   5.823
 5686SOL    HW117957   3.207   1.281   5.812
 5686SOL    HW217958   3.214   1.135   5.740
 5687SOL     OW17959   0.294   6.078   5.366
 5687SOL    HW117960   0.284   6.165   5.413
 5687SOL    HW217961   0.263   6.087   5.272
 5688SOL     OW17962   2.341   2.842   3.511
 5688SOL    HW117963   2.356   2.744   3.524
 5688SOL    HW217964   2.321   2.885   3.599
 5689SOL     OW17965   2.164   0.776   1.833
 5689SOL    HW117966   2.223   0.800   1.910
 5689SOL    HW217967   2.098   0.849   1.818
 5690SOL     OW17968   0.662   5.264   6.631
 5690SOL    HW117969   0.676   5.173   6.671
 5690SOL    HW217970   0.638   5.329   6.703
 5691SOL     OW17971   3.164   1.006   2.147
 5691SOL    HW117972   3.240   0.946   2.174
 5691SOL    HW217973   3.098   0.954   2.093
 5692SOL     OW17974   4.737   5.157   0.582
 5692SOL    HW117975   4.658   5.098   0.566
 5692SOL    HW217976   4.747   5.173   0.681
 5693SOL     OW17977   3.887   1.136   0.923
 5693SOL    HW117978   3.856   1.145   0.828
 5693SOL    HW217979   3.863   1.046   0.958
 5694SOL     OW17980   0.382   0.156   2.606
 5694SOL    HW117981   0.315   0.099   2.559
 5694SOL    HW217982   0.469   0.154   2.556
 5695SOL     OW17983   1.158   0.754   2.144
 5695SOL    HW117984   1.151   0.759   2.244
 5695SOL    HW217985   1.191   0.842   2.109
 5696SOL     OW17986   1.601   0.739   4.067
 5696SOL    HW117987   1.540   0.697   4.000
 5696SOL    HW217988   1.547   0.767   4.147
 5697SOL     OW17989   6.419   2.147   1.788
 5697SOL    HW117990   6.510   2.163   1.825
 5697SOL    HW217991   6.350   2.171   1.857
 5698SOL     OW17992   1.900   3.709   3.734
 5698SOL    HW117993   1.881   3.749   3.644
 5698SOL    HW217994   1.990   3.740   3.766
 5699SOL     OW17995   2.584   2.182   3.331
 5699SOL    HW117996   2.672   2.207   3.289
 5699SOL    HW217997   2.535   2.120   3.270
 5700SOL     OW17998   6.865   0.245   1.899
 5700SOL    HW117999   6.887   0.342   1.908
 5700SOL    HW218000   6.779   0.225   1.947
 5701SOL     OW18001   6.980   1.409   0.994
 5701SOL    HW118002   0.045   1.441   1.012
 5701SOL    HW218003   6.982   1.334   0.929
 5702SOL     OW18004   1.811   6.524   4.528
 5702SOL    HW118005   1.772   6.511   4.437
 5702SOL    HW218006   1.818   6.622   4.548
 5703SOL     OW18007   0.269   3.898   6.283
 5703SOL    HW118008   0.248   3.990   6.252
 5703SOL    HW218009   0.188   3.840   6.272
 5704SOL     OW18010   5.441   4.367   3.490
 5704SOL    HW118011   5.391   4.298   3.437
 5704SOL    HW218012   5.378   4.441   3.515
 5705SOL     OW18013   5.874   6.183   6.323
 5705SOL    HW118014   5.817   6.172   6.405
 5705SOL    HW218015   5.918   6.273   6.325
 5706SOL     OW18016   5.477   2.747   0.914
 5706SOL    HW118017   5.492   2.663   0.863
 5706SOL    HW218018   5.503   2.734   1.009
 5707SOL     OW18019   5.089   6.952   1.121
 5707SOL    HW118020   5.131   6.868   1.155
 5707SOL    HW218021   5.060   7.009   1.199
 5708SOL     OW18022   5.195   5.638   3.393
 5708SOL    HW118023   5.272   5.598   3.342
 5708SOL    HW218024   5.205   5.738   3.394
 5709SOL     OW18025   1.230   1.018   2.075
 5709SOL    HW118026   1.183   1.047   2.159
 5709SOL    HW218027   1.201   1.076   1.999
 5710SOL     OW18028   2.969   2.569   0.821
 5710SOL    HW118029   3.026   2.651   0.817
 5710SOL    HW218030   2.971   2.522   0.733
 5711SOL     OW18031   5.340   0.673   2.082
 5711SOL    HW118032   5.286   0.598   2.121
 5711SOL    HW218033   5.340   0.665   1.982
 5712SOL     OW18034   6.385   6.045   1.076
 5712SOL    HW118035   6.300   6.048   1.130
 5712SOL    HW218036   6.442   6.124   1.100
 5713SOL     OW18037   2.566   5.465   0.320
 5713SOL    HW118038   2.476   5.473   0.279
 5713SOL    HW218039   2.604   5.556   0.337
 5714SOL     OW18040   6.972   6.360   1.825
 5714SOL    HW118041   0.029   6.322   1.788
 5714SOL    HW218042   6.990   6.451   1.863
 5715SOL     OW18043   0.386   6.446   1.084
 5715SOL    HW118044   0.446   6.367   1.071
 5715SOL    HW218045   0.431   6.515   1.140
 5716SOL     OW18046   1.146   4.682   6.423
 5716SOL    HW118047   1.076   4.621   6.385
 5716SOL    HW218048   1.112   4.776   6.420
 5717SOL     OW18049   2.312   5.037   2.571
 5717SOL    HW118050   2.300   5.011   2.667
 5717SOL    HW218051   2.249   5.112   2.549
 5718SOL     OW18052   0.725   2.700   0.327
 5718SOL    HW118053   0.822   2.709   0.348
 5718SOL    HW218054   0.672   2.757   0.389
 5719SOL     OW18055   2.766   3.174   1.074
 5719SOL    HW118056   2.816   3.154   0.990
 5719SOL    HW218057   2.702   3.101   1.093
 5720SOL     OW18058   2.034   5.947   5.413
 5720SOL    HW118059   2.089   6.008   5.470
 5720SOL    HW218060   1.981   6.001   5.347
 5721SOL     OW18061   5.514   4.223   0.773
 5721SOL    HW118062   5.437   4.170   0.808
 5721SOL    HW218063   5.596   4.165   0.771
 5722SOL     OW18064   0.525   1.210   5.017
 5722SOL    HW118065   0.479   1.185   5.102
 5722SOL    HW218066   0.474   1.174   4.939
 5723SOL     OW18067   3.909   3.219   0.026
 5723SOL    HW118068   4.002   3.239   7.023
 5723SOL    HW218069   3.847   3.220   6.975
 5724SOL     OW18070   6.355   2.873   3.473
 5724SOL    HW118071   6.383   2.779   3.451
 5724SOL    HW218072   6.323   2.918   3.389
 5725SOL     OW18073   5.488   5.055   2.843
 5725SOL    HW118074   5.505   5.036   2.940
 5725SOL    HW218075   5.495   5.154   2.827
 5726SOL     OW18076   5.478   3.937   3.421
 5726SOL    HW118077   5.484   3.935   3.321
 5726SOL    HW218078   5.384   3.958   3.448
 5727SOL     OW18079   7.001   2.700   4.587
 5727SOL    HW118080   6.964   2.639   4.516
 5727SOL    HW218081   0.069   2.678   4.603
 5728SOL     OW18082   4.999   5.920   5.077
 5728SOL    HW118083   4.931   5.914   5.004
 5728SOL    HW218084   5.062   5.994   5.058
 5729SOL     OW18085   2.200   1.987   6.111
 5729SOL    HW118086   2.169   1.960   6.020
 5729SOL    HW218087   2.228   2.084   6.109
 5730SOL     OW18088   6.967   4.296   5.821
 5730SOL    HW118089   6.890   4.268   5.879
 5730SOL    HW218090   0.025   4.278   5.868
 5731SOL     OW18091   6.978   6.983   1.356
 5731SOL    HW118092   0.015   7.026   1.293
 5731SOL    HW218093   7.015   6.895   1.386
 5732SOL     OW18094   1.224   6.227   4.304
 5732SOL    HW118095   1.142   6.192   4.261
 5732SOL    HW218096   1.203   6.312   4.353
 5733SOL     OW18097   3.896   6.538   5.046
 5733SOL    HW118098   3.979   6.542   4.991
 5733SOL    HW218099   3.818   6.568   4.991
 5734SOL     OW18100   1.601   6.183   4.553
 5734SOL    HW118101   1.667   6.117   4.520
 5734SOL    HW218102   1.604   6.265   4.495
 5735SOL     OW18103   3.108   1.478   1.542
 5735SOL    HW118104   3.195   1.474   1.591
 5735SOL    HW218105   3.124   1.478   1.444
 5736SOL     OW18106   0.932   4.881   0.105
 5736SOL    HW118107   0.934   4.929   0.192
 5736SOL    HW218108   0.861   4.920   0.047
 5737SOL     OW18109   5.231   5.754   6.183
 5737SOL    HW118110   5.296   5.702   6.238
 5737SOL    HW218111   5.195   5.830   6.237
 5738SOL     OW18112   1.907   3.352   6.548
 5738SOL    HW118113   1.989   3.396   6.509
 5738SOL    HW218114   1.826   3.404   6.522
 5739SOL     OW18115   1.702   1.323   0.592
 5739SOL    HW118116   1.722   1.318   0.690
 5739SOL    HW218117   1.672   1.234   0.559
 5740SOL     OW18118   4.150   5.681   6.661
 5740SOL    HW118119   4.163   5.589   6.699
 5740SOL    HW218120   4.124   5.744   6.735
 5741SOL     OW18121   6.330   5.599   4.903
 5741SOL    HW118122   6.393   5.523   4.916
 5741SOL    HW218123   6.382   5.684   4.891
 5742SOL     OW18124   6.454   6.561   2.519
 5742SOL    HW118125   6.377   6.519   2.568
 5742SOL    HW218126   6.481   6.645   2.567
 5743SOL     OW18127   2.563   7.026   5.033
 5743SOL    HW118128   2.508   6.976   5.100
 5743SOL    HW218129   2.621   0.065   5.080
 5744SOL     OW18130   5.649   1.255   0.035
 5744SOL    HW118131   5.624   1.179   7.003
 5744SOL    HW218132   5.569   1.311   0.053
 5745SOL     OW18133   1.609   1.892   4.613
 5745SOL    HW118134   1.671   1.817   4.630
 5745SOL    HW218135   1.561   1.877   4.526
 5746SOL     OW18136   5.003   1.980   7.020
 5746SOL    HW118137   4.913   2.025   7.012
 5746SOL    HW218138   4.996   1.903   0.055
 5747SOL     OW18139   0.434   5.524   3.164
 5747SOL    HW118140   0.482   5.532   3.077
 5747SOL    HW218141   0.351   5.470   3.150
 5748SOL     OW18142   2.319   5.153   1.864
 5748SOL    HW118143   2.224   5.123   1.869
 5748SOL    HW218144   2.340   5.181   1.770
 5749SOL     OW18145   2.225   2.045   3.240
 5749SOL    HW118146   2.209   2.088   3.151
 5749SOL    HW218147   2.164   2.086   3.308
 5750SOL     OW18148   6.423   5.211   4.244
 5750SOL    HW118149   6.414   5.141   4.173
 5750SOL    HW218150   6.479   5.175   4.319
 5751SOL     OW18151   2.205   3.251   5.520
 5751SOL    HW118152   2.260   3.286   5.444
 5751SOL    HW218153   2.152   3.325   5.559
 5752SOL     OW18154   6.456   6.395   6.257
 5752SOL    HW118155   6.417   6.442   6.178
 5752SOL    HW218156   6.472   6.299   6.234
 5753SOL     OW18157   3.452   2.991   7.015
 5753SOL    HW118158   3.425   2.898   0.013
 5753SOL    HW218159   3.393   3.057   0.036
 5754SOL     OW18160   5.582   5.350   1.789
 5754SOL    HW118161   5.637   5.279   1.834
 5754SOL    HW218162   5.500   5.308   1.748
 5755SOL     OW18163   3.590   3.861   6.578
 5755SOL    HW118164   3.651   3.824   6.508
 5755SOL    HW218165   3.495   3.837   6.556
 5756SOL     OW18166   6.650   4.834   3.685
 5756SOL    HW118167   6.685   4.828   3.778
 5756SOL    HW218168   6.725   4.828   3.620
 5757SOL     OW18169   6.406   5.532   1.197
 5757SOL    HW118170   6.320   5.556   1.151
 5757SOL    HW218171   6.460   5.616   1.211
 5758SOL     OW18172   1.794   2.190   4.910
 5758SOL    HW118173   1.774   2.259   4.980
 5758SOL    HW218174   1.885   2.207   4.872
 5759SOL     OW18175   5.315   1.593   6.087
 5759SOL    HW118176   5.247   1.638   6.146
 5759SOL    HW218177   5.399   1.576   6.139
 5760SOL     OW18178   1.566   5.201   2.199
 5760SOL    HW118179   1.646   5.218   2.256
 5760SOL    HW218180   1.515   5.123   2.236
 5761SOL     OW18181   4.697   6.339   5.138
 5761SOL    HW118182   4.671   6.359   5.232
 5761SOL    HW218183   4.730   6.245   5.131
 5762SOL     OW18184   5.580   6.572   1.343
 5762SOL    HW118185   5.680   6.579   1.351
 5762SOL    HW218186   5.537   6.638   1.405
 5763SOL     OW18187   1.481   0.657   0.939
 5763SOL    HW118188   1.526   0.617   1.018
 5763SOL    HW218189   1.529   0.741   0.913
 5764SOL     OW18190   5.731   4.229   5.499
 5764SOL    HW118191   5.681   4.285   5.434
 5764SOL    HW218192   5.829   4.236   5.481
 5765SOL     OW18193   6.091   4.361   0.012
 5765SOL    HW118194   6.045   4.274   0.031
 5765SOL    HW218195   6.049   4.433   0.067
 5766SOL     OW18196   3.217   1.890   1.933
 5766SOL    HW118197   3.204   1.867   2.029
 5766SOL    HW218198   3.207   1.989   1.921
 5767SOL     OW18199   0.327   6.582   0.860
 5767SOL    HW118200   0.377   6.514   0.806
 5767SOL    HW218201   0.318   6.550   0.954
 5768SOL     OW18202   6.383   1.262   3.208
 5768SOL    HW118203   6.380   1.354   3.170
 5768SOL    HW218204   6.385   1.195   3.133
 5769SOL     OW18205   2.444   6.021   4.172
 5769SOL    HW118206   2.410   6.097   4.116
 5769SOL    HW218207   2.370   5.989   4.232
 5770SOL     OW18208   6.493   0.147   1.611
 5770SOL    HW118209   6.425   0.205   1.566
 5770SOL    HW218210   6.583   0.166   1.572
 5771SOL     OW18211   1.479   0.535   1.209
 5771SOL    HW118212   1.549   0.529   1.280
 5771SOL    HW218213   1.462   0.445   1.170
 5772SOL     OW18214   5.760   3.367   0.976
 5772SOL    HW118215   5.684   3.307   1.002
 5772SOL    HW218216   5.818   3.384   1.055
 5773SOL     OW18217   5.443   6.265   4.236
 5773SOL    HW118218   5.348   6.258   4.207
 5773SOL    HW218219   5.486   6.344   4.192
 5774SOL     OW18220   2.153   5.525   3.756
 5774SOL    HW118221   2.251   5.518   3.778
 5774SOL    HW218222   2.106   5.570   3.831
 5775SOL     OW18223   0.266   6.674   5.955
 5775SOL    HW118224   0.237   6.729   6.033
 5775SOL    HW218225   0.365   6.663   5.957
 5776SOL     OW18226   4.827   0.106   5.880
 5776SOL    HW118227   4.742   0.155   5.897
 5776SOL    HW218228   4.841   0.097   5.781
 5777SOL     OW18229   0.358   1.126   4.572
 5777SOL    HW118230   0.444   1.141   4.523
 5777SOL    HW218231   0.282   1.122   4.506
 5778SOL     OW18232   1.358   6.706   3.339
 5778SOL    HW118233   1.306   6.765   3.400
 5778SOL    HW218234   1.385   6.623   3.388
 5779SOL     OW18235   4.018   1.306   2.048
 5779SOL    HW118236   4.074   1.232   2.087
 5779SOL    HW218237   4.071   1.391   2.048
 5780SOL     OW18238   6.931   4.217   1.392
 5780SOL    HW118239   6.897   4.175   1.308
 5780SOL    HW218240   0.002   4.198   1.402
 5781SOL     OW18241   2.111   5.077   5.216
 5781SOL    HW118242   2.050   5.058   5.140
 5781SOL    HW218243   2.180   5.005   5.222
 5782SOL     OW18244   2.340   1.248   1.904
 5782SOL    HW118245   2.331   1.209   1.812
 5782SOL    HW218246   2.428   1.220   1.943
 5783SOL     OW18247   1.441   0.298   1.056
 5783SOL    HW118248   1.479   0.206   1.067
 5783SOL    HW218249   1.492   0.347   0.987
 5784SOL     OW18250   0.649   5.986   0.267
 5784SOL    HW118251   0.566   6.040   0.277
 5784SOL    HW218252   0.704   5.993   0.350
 5785SOL     OW18253   2.016   2.044   0.165
 5785SOL    HW118254   2.008   2.021   0.068
 5785SOL    HW218255   2.112   2.050   0.191
 5786SOL     OW18256   1.762   3.637   1.783
 5786SOL    HW118257   1.695   3.610   1.714
 5786SOL    HW218258   1.818   3.558   1.808
 5787SOL     OW18259   5.750   2.415   4.791
 5787SOL    HW118260   5.826   2.474   4.764
 5787SOL    HW218261   5.774   2.320   4.772
 5788SOL     OW18262   2.889   1.182   2.016
 5788SOL    HW118263   2.942   1.239   1.953
 5788SOL    HW218264   2.927   1.090   2.018
 5789SOL     OW18265   4.513   4.303   6.903
 5789SOL    HW118266   4.597   4.316   6.956
 5789SOL    HW218267   4.442   4.365   6.937
 5790SOL     OW18268   5.495   5.501   4.387
 5790SOL    HW118269   5.595   5.493   4.383
 5790SOL    HW218270   5.461   5.534   4.299
 5791SOL     OW18271   3.990   1.026   2.651
 5791SOL    HW118272   4.038   0.973   2.581
 5791SOL    HW218273   3.997   1.123   2.629
 5792SOL     OW18274   5.160   3.916   3.066
 5792SOL    HW118275   5.075   3.864   3.073
 5792SOL    HW218276   5.210   3.888   2.983
 5793SOL     OW18277   5.097   2.361   5.358
 5793SOL    HW118278   5.053   2.407   5.281
 5793SOL    HW218279   5.045   2.376   5.441
 5794SOL     OW18280   3.773   6.716   6.404
 5794SOL    HW118281   3.674   6.712   6.414
 5794SOL    HW218282   3.802   6.658   6.328
 5795SOL     OW18283   1.363   5.641   1.546
 5795SOL    HW118284   1.395   5.593   1.627
 5795SOL    HW218285   1.278   5.598   1.513
 5796SOL     OW18286   4.356   2.606   6.937
 5796SOL    HW118287   4.452   2.632   6.949
 5796SOL    HW218288   4.297   2.680   6.970
 5797SOL     OW18289   5.272   2.476   0.614
 5797SOL    HW118290   5.245   2.558   0.565
 5797SOL    HW218291   5.199   2.449   0.676
 5798SOL     OW18292   1.773   3.990   5.550
 5798SOL    HW118293   1.679   4.011   5.579
 5798SOL    HW218294   1.773   3.904   5.499
 5799SOL     OW18295   1.732   6.590   3.122
 5799SOL    HW118296   1.742   6.601   3.221
 5799SOL    HW218297   1.808   6.635   3.076
 5800SOL     OW18298   0.772   6.354   0.732
 5800SOL    HW118299   0.811   6.304   0.655
 5800SOL    HW218300   0.794   6.305   0.817
 5801SOL     OW18301   1.910   2.091   2.780
 5801SOL    HW118302   1.968   2.031   2.836
 5801SOL    HW218303   1.926   2.186   2.805
 5802SOL     OW18304   6.986   1.302   2.125
 5802SOL    HW118305   6.969   1.347   2.038
 5802SOL    HW218306   6.950   1.209   2.123
 5803SOL     OW18307   0.692   5.173   3.678
 5803SOL    HW118308   0.714   5.094   3.621
 5803SOL    HW218309   0.776   5.215   3.712
 5804SOL     OW18310   6.568   0.534   3.574
 5804SOL    HW118311   6.562   0.619   3.521
 5804SOL    HW218312   6.661   0.526   3.612
 5805SOL     OW18313   2.088   2.575   1.105
 5805SOL    HW118314   2.064   2.603   1.198
 5805SOL    HW218315   2.040   2.632   1.039
 5806SOL     OW18316   0.379   3.460   2.942
 5806SOL    HW118317   0.467   3.458   2.990
 5806SOL    HW218318   0.395   3.476   2.845
 5807SOL     OW18319   0.818   0.015   1.171
 5807SOL    HW118320   0.867   6.981   1.110
 5807SOL    HW218321   0.883   0.073   1.220
 5808SOL     OW18322   5.992   0.086   5.006
 5808SOL    HW118323   5.999   0.186   5.012
 5808SOL    HW218324   6.084   0.046   5.008
 5809SOL     OW18325   0.394   2.276   5.780
 5809SOL    HW118326   0.452   2.347   5.821
 5809SOL    HW218327   0.360   2.215   5.852
 5810SOL     OW18328   4.127   7.023   4.979
 5810SOL    HW118329   4.123   6.990   5.073
 5810SOL    HW218330   4.134   0.095   4.978
 5811SOL     OW18331   3.122   3.664   6.004
 5811SOL    HW118332   3.157   3.756   5.988
 5811SOL    HW218333   3.031   3.669   6.045
 5812SOL     OW18334   5.634   2.728   0.569
 5812SOL    HW118335   5.584   2.751   0.486
 5812SOL    HW218336   5.584   2.659   0.620
 5813SOL     OW18337   4.917   6.744   1.401
 5813SOL    HW118338   4.938   6.768   1.495
 5813SOL    HW218339   5.000   6.751   1.345
 5814SOL     OW18340   5.591   1.845   2.041
 5814SOL    HW118341   5.634   1.911   2.103
 5814SOL    HW218342   5.494   1.866   2.034
 5815SOL     OW18343   6.551   1.667   3.852
 5815SOL    HW118344   6.565   1.575   3.817
 5815SOL    HW218345   6.453   1.683   3.864
 5816SOL     OW18346   0.048   4.219   2.832
 5816SOL    HW118347   0.074   4.308   2.794
 5816SOL    HW218348   0.102   4.200   2.914
 5817SOL     OW18349   5.893   4.288   3.483
 5817SOL    HW118350   5.897   4.221   3.557
 5817SOL    HW218351   5.944   4.255   3.404
 5818SOL     OW18352   2.043   0.574   5.617
 5818SOL    HW118353   2.038   0.666   5.578
 5818SOL    HW218354   2.045   0.580   5.717
 5819SOL     OW18355   4.120   5.215   0.250
 5819SOL    HW118356   4.081   5.174   0.168
 5819SOL    HW218357   4.218   5.230   0.237
 5820SOL     OW18358   6.174   5.213   2.308
 5820SOL    HW118359   6.157   5.141   2.375
 5820SOL    HW218360   6.090   5.230   2.255
 5821SOL     OW18361   6.429   0.630   1.238
 5821SOL    HW118362   6.476   0.662   1.155
 5821SOL    HW218363   6.488   0.646   1.317
 5822SOL     OW18364   1.629   2.978   2.549
 5822SOL    HW118365   1.692   3.054   2.537
 5822SOL    HW218366   1.632   2.919   2.468
 5823SOL     OW18367   1.742   6.293   4.075
 5823SOL    HW118368   1.661   6.314   4.021
 5823SOL    HW218369   1.805   6.371   4.073
 5824SOL     OW18370   0.813   6.786   1.924
 5824SOL    HW118371   0.837   6.725   1.848
 5824SOL    HW218372   0.726   6.756   1.963
 5825SOL     OW18373   5.912   0.271   4.441
 5825SOL    HW118374   5.852   0.345   4.411
 5825SOL    HW218375   5.857   0.202   4.490
 5826SOL     OW18376   0.716   6.957   4.810
 5826SOL    HW118377   0.669   7.015   4.876
 5826SOL    HW218378   0.687   6.982   4.717
 5827SOL     OW18379   2.189   4.642   5.220
 5827SOL    HW118380   2.094   4.659   5.192
 5827SOL    HW218381   2.200   4.545   5.241
 5828SOL     OW18382   4.366   6.609   4.334
 5828SOL    HW118383   4.266   6.609   4.339
 5828SOL    HW218384   4.400   6.516   4.342
 5829SOL     OW18385   2.630   1.091   3.684
 5829SOL    HW118386   2.665   1.031   3.612
 5829SOL    HW218387   2.685   1.174   3.689
 5830SOL     OW18388   3.626   5.585   4.752
 5830SOL    HW118389   3.615   5.492   4.788
 5830SOL    HW218390   3.579   5.592   4.664
 5831SOL     OW18391   1.535   1.927   5.250
 5831SOL    HW118392   1.545   1.832   5.277
 5831SOL    HW218393   1.440   1.945   5.226
 5832SOL     OW18394   2.346   5.025   1.000
 5832SOL    HW118395   2.425   4.964   1.009
 5832SOL    HW218396   2.369   5.100   0.937
 5833SOL     OW18397   4.365   3.800   6.791
 5833SOL    HW118398   4.464   3.791   6.791
 5833SOL    HW218399   4.338   3.875   6.851
 5834SOL     OW18400   5.358   3.801   6.866
 5834SOL    HW118401   5.401   3.751   6.940
 5834SOL    HW218402   5.400   3.775   6.779
 5835SOL     OW18403   5.443   1.076   2.368
 5835SOL    HW118404   5.391   0.990   2.371
 5835SOL    HW218405   5.536   1.059   2.400
 5836SOL     OW18406   4.011   6.962   2.356
 5836SOL    HW118407   4.038   6.871   2.322
 5836SOL    HW218408   4.088   7.025   2.343
 5837SOL     OW18409   3.150   4.415   0.020
 5837SOL    HW118410   3.135   4.318   0.002
 5837SOL    HW218411   3.220   4.450   6.985
 5838SOL     OW18412   3.265   2.059   0.274
 5838SOL    HW118413   3.250   1.989   0.205
 5838SOL    HW218414   3.307   2.139   0.232
 5839SOL     OW18415   1.649   2.071   0.880
 5839SOL    HW118416   1.723   2.035   0.938
 5839SOL    HW218417   1.687   2.137   0.815
 5840SOL     OW18418   1.224   3.203   3.089
 5840SOL    HW118419   1.186   3.268   3.154
 5840SOL    HW218420   1.298   3.246   3.037
 5841SOL     OW18421   5.061   2.351   0.736
 5841SOL    HW118422   5.025   2.264   0.772
 5841SOL    HW218423   4.985   2.412   0.714
 5842SOL     OW18424   2.887   1.454   0.885
 5842SOL    HW118425   2.938   1.540   0.885
 5842SOL    HW218426   2.818   1.455   0.813
 5843SOL     OW18427   1.825   3.387   1.478
 5843SOL    HW118428   1.913   3.344   1.460
 5843SOL    HW218429   1.825   3.480   1.442
 5844SOL     OW18430   0.709   0.533   4.694
 5844SOL    HW118431   0.624   0.505   4.739
 5844SOL    HW218432   0.691   0.614   4.637
 5845SOL     OW18433   1.174   6.337   1.737
 5845SOL    HW118434   1.127   6.254   1.765
 5845SOL    HW218435   1.198   6.332   1.640
 5846SOL     OW18436   6.482   4.247   5.926
 5846SOL    HW118437   6.486   4.252   5.826
 5846SOL    HW218438   6.428   4.324   5.961
 5847SOL     OW18439   2.727   3.515   0.769
 5847SOL    HW118440   2.709   3.613   0.773
 5847SOL    HW218441   2.645   3.464   0.793
 5848SOL     OW18442   2.564   5.003   3.136
 5848SOL    HW118443   2.656   4.971   3.114
 5848SOL    HW218444   2.554   5.099   3.107
 5849SOL     OW18445   2.686   6.197   5.532
 5849SOL    HW118446   2.768   6.142   5.545
 5849SOL    HW218447   2.700   6.260   5.456
 5850SOL     OW18448   0.769   1.924   2.154
 5850SOL    HW118449   0.822   1.840   2.142
 5850SOL    HW218450   0.711   1.938   2.074
 5851SOL     OW18451   6.124   3.664   4.651
 5851SOL    HW118452   6.071   3.580   4.644
 5851SOL    HW218453   6.198   3.652   4.717
 5852SOL     OW18454   5.022   4.897   2.917
 5852SOL    HW118455   4.965   4.854   2.847
 5852SOL    HW218456   5.055   4.827   2.980
 5853SOL     OW18457   3.555   4.504   5.453
 5853SOL    HW118458   3.508   4.562   5.385
 5853SOL    HW218459   3.615   4.440   5.406
 5854SOL     OW18460   3.001   5.297   6.021
 5854SOL    HW118461   2.949   5.306   6.107
 5854SOL    HW218462   2.997   5.383   5.971
 5855SOL     OW18463   2.067   2.896   4.049
 5855SOL    HW118464   2.056   2.803   4.014
 5855SOL    HW218465   2.124   2.894   4.131
 5856SOL     OW18466   1.453   6.563   3.537
 5856SOL    HW118467   1.362   6.553   3.576
 5856SOL    HW218468   1.497   6.473   3.531
 5857SOL     OW18469   6.867   4.142   6.609
 5857SOL    HW118470   6.965   4.152   6.626
 5857SOL    HW218471   6.853   4.071   6.540
 5858SOL     OW18472   2.087   0.667   3.578
 5858SOL    HW118473   2.054   0.759   3.596
 5858SOL    HW218474   2.162   0.645   3.640
 5859SOL     OW18475   5.876   6.991   2.394
 5859SOL    HW118476   5.850   0.020   2.316
 5859SOL    HW218477   5.880   0.019   2.476
 5860SOL     OW18478   0.144   2.744   3.735
 5860SOL    HW118479   0.242   2.765   3.736
 5860SOL    HW218480   0.131   2.647   3.714
 5861SOL     OW18481   4.731   1.104   5.141
 5861SOL    HW118482   4.799   1.173   5.165
 5861SOL    HW218483   4.761   1.015   5.175
 5862SOL     OW18484   6.525   4.990   3.445
 5862SOL    HW118485   6.496   5.084   3.464
 5862SOL    HW218486   6.560   4.949   3.529
 5863SOL     OW18487   3.867   0.015   5.356
 5863SOL    HW118488   3.796   6.993   5.406
 5863SOL    HW218489   3.919   6.979   5.299
 5864SOL     OW18490   2.995   3.751   2.371
 5864SOL    HW118491   3.072   3.773   2.311
 5864SOL    HW218492   2.980   3.827   2.435
 5865SOL     OW18493   6.008   1.079   5.782
 5865SOL    HW118494   6.034   1.086   5.878
 5865SOL    HW218495   6.090   1.085   5.725
 5866SOL     OW18496   3.506   3.158   2.596
 5866SOL    HW118497   3.517   3.067   2.635
 5866SOL    HW218498   3.428   3.204   2.640
 5867SOL     OW18499   3.263   1.768   1.615
 5867SOL    HW118500   3.226   1.787   1.706
 5867SOL    HW218501   3.320   1.685   1.620
 5868SOL     OW18502   1.236   1.131   6.608
 5868SOL    HW118503   1.152   1.099   6.565
 5868SOL    HW218504   1.307   1.061   6.598
 5869SOL     OW18505   1.294   5.154   4.525
 5869SOL    HW118506   1.216   5.202   4.485
 5869SOL    HW218507   1.364   5.140   4.454
 5870SOL     OW18508   4.413   4.577   4.381
 5870SOL    HW118509   4.431   4.606   4.475
 5870SOL    HW218510   4.476   4.502   4.357
 5871SOL     OW18511   3.363   3.402   3.528
 5871SOL    HW118512   3.308   3.484   3.543
 5871SOL    HW218513   3.359   3.376   3.432
 5872SOL     OW18514   3.921   5.975   1.902
 5872SOL    HW118515   3.827   5.943   1.889
 5872SOL    HW218516   3.945   5.970   1.999
 5873SOL     OW18517   4.054   4.766   2.169
 5873SOL    HW118518   3.954   4.764   2.169
 5873SOL    HW218519   4.088   4.740   2.259
 5874SOL     OW18520   3.158   5.047   5.920
 5874SOL    HW118521   3.078   5.107   5.911
 5874SOL    HW218522   3.165   5.014   6.014
 5875SOL     OW18523   2.744   1.096   0.686
 5875SOL    HW118524   2.783   1.104   0.778
 5875SOL    HW218525   2.648   1.124   0.688
 5876SOL     OW18526   3.630   3.450   1.890
 5876SOL    HW118527   3.681   3.531   1.919
 5876SOL    HW218528   3.693   3.375   1.872
 5877SOL     OW18529   5.800   4.283   1.006
 5877SOL    HW118530   5.899   4.281   0.989
 5877SOL    HW218531   5.753   4.234   0.932
 5878SOL     OW18532   2.649   5.029   2.178
 5878SOL    HW118533   2.578   5.043   2.247
 5878SOL    HW218534   2.720   5.098   2.187
 5879SOL     OW18535   0.114   4.187   6.669
 5879SOL    HW118536   0.196   4.131   6.658
 5879SOL    HW218537   0.123   4.271   6.616
 5880SOL     OW18538   2.428   5.858   1.127
 5880SOL    HW118539   2.362   5.836   1.056
 5880SOL    HW218540   2.417   5.954   1.155
 5881SOL     OW18541   0.461   5.454   4.026
 5881SOL    HW118542   0.447   5.544   4.067
 5881SOL    HW218543   0.419   5.384   4.084
 5882SOL     OW18544   4.472   0.423   1.467
 5882SOL    HW118545   4.421   0.343   1.499
 5882SOL    HW218546   4.465   0.496   1.535
 5883SOL     OW18547   6.820   3.090   6.707
 5883SOL    HW118548   6.879   3.010   6.712
 5883SOL    HW218549   6.740   3.069   6.650
 5884SOL     OW18550   0.781   1.153   2.802
 5884SOL    HW118551   0.863   1.166   2.746
 5884SOL    HW218552   0.726   1.236   2.800
 5885SOL     OW18553   6.538   6.261   1.223
 5885SOL    HW118554   6.511   6.356   1.239
 5885SOL    HW218555   6.520   6.207   1.305
 5886SOL     OW18556   0.803   1.842   5.456
 5886SOL    HW118557   0.862   1.798   5.524
 5886SOL    HW218558   0.859   1.898   5.395
 5887SOL     OW18559   3.240   0.992   4.163
 5887SOL    HW118560   3.156   1.025   4.119
 5887SOL    HW218561   3.319   1.027   4.114
 5888SOL     OW18562   1.899   6.450   3.685
 5888SOL    HW118563   1.885   6.545   3.712
 5888SOL    HW218564   1.827   6.393   3.724
 5889SOL     OW18565   2.346   0.229   1.206
 5889SOL    HW118566   2.262   0.268   1.245
 5889SOL    HW218567   2.374   0.284   1.127
 5890SOL     OW18568   2.372   5.361   5.625
 5890SOL    HW118569   2.303   5.357   5.553
 5890SOL    HW218570   2.404   5.455   5.636
 5891SOL     OW18571   3.522   2.960   0.394
 5891SOL    HW118572   3.546   3.000   0.483
 5891SOL    HW218573   3.556   3.019   0.321
 5892SOL     OW18574   0.288   5.869   1.401
 5892SOL    HW118575   0.372   5.829   1.364
 5892SOL    HW218576   0.311   5.938   1.470
 5893SOL     OW18577   1.128   1.690   4.092
 5893SOL    HW118578   1.169   1.781   4.093
 5893SOL    HW218579   1.058   1.686   4.020
 5894SOL     OW18580   1.371   3.482   2.898
 5894SOL    HW118581   1.399   3.387   2.911
 5894SOL    HW218582   1.451   3.536   2.872
 5895SOL     OW18583   5.684   3.601   4.031
 5895SOL    HW118584   5.749   3.578   3.959
 5895SOL    HW218585   5.629   3.679   4.003
 5896SOL     OW18586   3.621   1.830   0.189
 5896SOL    HW118587   3.613   1.819   0.288
 5896SOL    HW218588   3.529   1.829   0.148
 5897SOL     OW18589   3.534   0.091   0.846
 5897SOL    HW118590   3.535   0.188   0.870
 5897SOL    HW218591   3.521   0.037   0.929
 5898SOL     OW18592   1.683   0.202   2.642
 5898SOL    HW118593   1.709   0.275   2.704
 5898SOL    HW218594   1.738   0.120   2.662
 5899SOL     OW18595   5.952   6.565   4.708
 5899SOL    HW118596   5.910   6.612   4.630
 5899SOL    HW218597   6.005   6.487   4.675
 5900SOL     OW18598   4.917   4.669   3.317
 5900SOL    HW118599   4.924   4.599   3.247
 5900SOL    HW218600   4.828   4.664   3.363
 5901SOL     OW18601   2.459   6.875   6.603
 5901SOL    HW118602   2.536   6.855   6.664
 5901SOL    HW218603   2.450   6.801   6.536
 5902SOL     OW18604   6.731   2.543   0.161
 5902SOL    HW118605   6.703   2.616   0.099
 5902SOL    HW218606   6.814   2.572   0.210
 5903SOL     OW18607   5.781   3.731   6.793
 5903SOL    HW118608   5.714   3.801   6.767
 5903SOL    HW218609   5.873   3.768   6.784
 5904SOL     OW18610   0.244   3.766   2.392
 5904SOL    HW118611   0.314   3.694   2.391
 5904SOL    HW218612   0.210   3.780   2.299
 5905SOL     OW18613   6.957   6.487   2.402
 5905SOL    HW118614   6.942   6.583   2.425
 5905SOL    HW218615   6.886   6.431   2.444
 5906SOL     OW18616   5.394   1.290   3.758
 5906SOL    HW118617   5.461   1.318   3.689
 5906SOL    HW218618   5.398   1.190   3.769
 5907SOL     OW18619   0.388   6.079   1.810
 5907SOL    HW118620   0.454   6.124   1.869
 5907SOL    HW218621   0.387   6.124   1.721
 5908SOL     OW18622   0.543   2.771   5.062
 5908SOL    HW118623   0.469   2.705   5.066
 5908SOL    HW218624   0.584   2.770   4.970
 5909SOL     OW18625   0.513   6.057   0.628
 5909SOL    HW118626   0.437   6.051   0.562
 5909SOL    HW218627   0.600   6.055   0.579
 5910SOL     OW18628   1.666   2.233   3.485
 5910SOL    HW118629   1.573   2.220   3.453
 5910SOL    HW218630   1.676   2.196   3.577
 5911SOL     OW18631   6.598   5.469   6.573
 5911SOL    HW118632   6.612   5.548   6.633
 5911SOL    HW218633   6.504   5.470   6.538
 5912SOL     OW18634   6.372   1.654   4.790
 5912SOL    HW118635   6.453   1.695   4.833
 5912SOL    HW218636   6.401   1.582   4.727
 5913SOL     OW18637   5.834   2.393   0.294
 5913SOL    HW118638   5.925   2.388   0.336
 5913SOL    HW218639   5.819   2.485   0.257
 5914SOL     OW18640   0.770   6.338   6.346
 5914SOL    HW118641   0.714   6.313   6.267
 5914SOL    HW218642   0.838   6.268   6.363
 5915SOL     OW18643   3.822   0.281   6.606
 5915SOL    HW118644   3.857   0.243   6.520
 5915SOL    HW218645   3.792   0.375   6.591
 5916SOL     OW18646   1.661   6.724   2.451
 5916SOL    HW118647   1.645   6.628   2.472
 5916SOL    HW218648   1.658   6.738   2.352
 5917SOL     OW18649   3.106   4.147   6.937
 5917SOL    HW118650   3.162   4.088   6.996
 5917SOL    HW218651   3.149   4.154   6.847
 5918SOL     OW18652   3.132   6.606   6.236
 5918SOL    HW118653   3.153   6.642   6.145
 5918SOL    HW218654   3.046   6.556   6.233
 5919SOL     OW18655   3.665   2.922   3.091
 5919SOL    HW118656   3.602   2.905   3.016
 5919SOL    HW218657   3.759   2.909   3.059
 5920SOL     OW18658   6.745   0.065   6.057
 5920SOL    HW118659   6.761   6.996   6.080
 5920SOL    HW218660   6.831   0.108   6.031
 5921SOL     OW18661   3.486   4.484   6.441
 5921SOL    HW118662   3.447   4.520   6.356
 5921SOL    HW218663   3.447   4.394   6.460
 5922SOL     OW18664   6.045   3.796   2.877
 5922SOL    HW118665   5.955   3.771   2.842
 5922SOL    HW218666   6.095   3.713   2.902
 5923SOL     OW18667   6.766   1.114   1.197
 5923SOL    HW118668   6.761   1.093   1.294
 5923SOL    HW218669   6.814   1.041   1.149
 5924SOL     OW18670   6.091   0.030   2.680
 5924SOL    HW118671   5.994   0.056   2.687
 5924SOL    HW218672   6.144   0.080   2.749
 5925SOL     OW18673   4.844   5.717   0.872
 5925SOL    HW118674   4.897   5.796   0.904
 5925SOL    HW218675   4.817   5.660   0.949
 5926SOL     OW18676   4.019   4.859   2.767
 5926SOL    HW118677   4.104   4.889   2.725
 5926SOL    HW218678   3.954   4.834   2.694
 5927SOL     OW18679   1.275   3.807   1.677
 5927SOL    HW118680   1.265   3.854   1.589
 5927SOL    HW218681   1.256   3.710   1.665
 5928SOL     OW18682   3.662   0.535   0.885
 5928SOL    HW118683   3.564   0.522   0.903
 5928SOL    HW218684   3.708   0.446   0.891
 5929SOL     OW18685   6.925   1.086   5.452
 5929SOL    HW118686   6.914   1.012   5.519
 5929SOL    HW218687   6.980   1.159   5.492
 5930SOL     OW18688   1.673   3.669   2.067
 5930SOL    HW118689   1.737   3.654   1.992
 5930SOL    HW218690   1.724   3.697   2.149
 5931SOL     OW18691   5.677   5.755   2.811
 5931SOL    HW118692   5.711   5.818   2.741
 5931SOL    HW218693   5.598   5.796   2.856
 5932SOL     OW18694   3.091   0.593   6.161
 5932SOL    HW118695   3.128   0.603   6.253
 5932SOL    HW218696   3.037   0.674   6.138
 5933SOL     OW18697   6.545   5.030   4.416
 5933SOL    HW118698   6.590   4.945   4.444
 5933SOL    HW218699   6.481   5.059   4.487
 5934SOL     OW18700   3.267   3.779   5.641
 5934SOL    HW118701   3.306   3.692   5.671
 5934SOL    HW218702   3.242   3.834   5.721
 5935SOL     OW18703   0.494   6.125   4.792
 5935SOL    HW118704   0.446   6.132   4.704
 5935SOL    HW218705   0.460   6.197   4.853
 5936SOL     OW18706   3.427   3.223   2.996
 5936SOL    HW118707   3.368   3.191   2.922
 5936SOL    HW218708   3.426   3.156   3.070
 5937SOL     OW18709   6.874   3.122   1.913
 5937SOL    HW118710   6.878   3.134   2.012
 5937SOL    HW218711   6.938   3.185   1.869
 5938SOL     OW18712   6.505   4.856   5.104
 5938SOL    HW118713   6.513   4.956   5.094
 5938SOL    HW218714   6.592   4.820   5.139
 5939SOL     OW18715   3.618   0.253   4.437
 5939SOL    HW118716   3.531   0.302   4.431
 5939SOL    HW218717   3.602   0.155   4.428
 5940SOL     OW18718   4.876   5.801   2.592
 5940SOL    HW118719   4.877   5.895   2.559
 5940SOL    HW218720   4.891   5.738   2.516
 5941SOL     OW18721   6.680   1.898   1.961
 5941SOL    HW118722   6.585   1.876   1.940
 5941SOL    HW218723   6.687   1.995   1.987
 5942SOL     OW18724   6.279   3.471   6.216
 5942SOL    HW118725   6.329   3.475   6.129
 5942SOL    HW218726   6.339   3.436   6.288
 5943SOL     OW18727   3.793   3.683   0.599
 5943SOL    HW118728   3.823   3.672   0.694
 5943SOL    HW218729   3.762   3.595   0.564
 5944SOL     OW18730   0.772   3.581   6.546
 5944SOL    HW118731   0.814   3.501   6.589
 5944SOL    HW218732   0.673   3.579   6.561
 5945SOL     OW18733   0.508   5.711   5.579
 5945SOL    HW118734   0.520   5.612   5.572
 5945SOL    HW218735   0.591   5.756   5.546
 5946SOL     OW18736   3.973   4.905   0.193
 5946SOL    HW118737   4.027   4.932   0.113
 5946SOL    HW218738   3.910   4.978   0.217
 5947SOL     OW18739   3.426   3.058   4.560
 5947SOL    HW118740   3.360   3.117   4.607
 5947SOL    HW218741   3.457   2.986   4.623
 5948SOL     OW18742   5.124   3.706   2.120
 5948SOL    HW118743   5.034   3.698   2.163
 5948SOL    HW218744   5.113   3.715   2.021
 5949SOL     OW18745   6.465   5.808   1.203
 5949SOL    HW118746   6.514   5.876   1.150
 5949SOL    HW218747   6.368   5.832   1.207
 5950SOL     OW18748   5.350   2.582   5.734
 5950SOL    HW118749   5.310   2.614   5.820
 5950SOL    HW218750   5.305   2.628   5.658
 5951SOL     OW18751   1.115   4.379   5.787
 5951SOL    HW118752   1.125   4.344   5.693
 5951SOL    HW218753   1.103   4.478   5.785
 5952SOL     OW18754   4.182   5.200   1.746
 5952SOL    HW118755   4.186   5.140   1.826
 5952SOL    HW218756   4.204   5.293   1.773
 5953SOL     OW18757   6.032   2.345   5.492
 5953SOL    HW118758   6.099   2.388   5.551
 5953SOL    HW218759   5.966   2.294   5.547
 5954SOL     OW18760   0.502   6.009   4.437
 5954SOL    HW118761   0.570   6.072   4.398
 5954SOL    HW218762   0.549   5.928   4.473
 5955SOL     OW18763   5.443   4.239   1.286
 5955SOL    HW118764   5.510   4.303   1.249
 5955SOL    HW218765   5.380   4.287   1.347
 5956SOL     OW18766   4.956   2.746   4.654
 5956SOL    HW118767   5.007   2.662   4.673
 5956SOL    HW218768   4.884   2.757   4.722
 5957SOL     OW18769   1.142   1.100   2.648
 5957SOL    HW118770   1.102   1.008   2.641
 5957SOL    HW218771   1.157   1.122   2.745
 5958SOL     OW18772   4.350   6.676   2.497
 5958SOL    HW118773   4.322   6.710   2.587
 5958SOL    HW218774   4.429   6.727   2.465
 5959SOL     OW18775   4.733   2.186   4.972
 5959SOL    HW118776   4.797   2.263   4.972
 5959SOL    HW218777   4.639   2.219   4.973
 5960SOL     OW18778   3.497   6.662   6.535
 5960SOL    HW118779   3.437   6.601   6.484
 5960SOL    HW218780   3.460   6.755   6.532
 5961SOL     OW18781   3.366   1.590   2.778
 5961SOL    HW118782   3.398   1.685   2.787
 5961SOL    HW218783   3.279   1.588   2.731
 5962SOL     OW18784   5.404   6.390   0.209
 5962SOL    HW118785   5.381   6.377   0.113
 5962SOL    HW218786   5.366   6.315   0.263
 5963SOL     OW18787   3.742   4.983   6.982
 5963SOL    HW118788   3.772   5.003   0.047
 5963SOL    HW218789   3.813   4.932   6.933
 5964SOL     OW18790   2.013   6.373   2.755
 5964SOL    HW118791   1.980   6.446   2.696
 5964SOL    HW218792   1.947   6.357   2.829
 5965SOL     OW18793   1.732   6.825   6.913
 5965SOL    HW118794   1.802   6.760   6.881
 5965SOL    HW218795   1.753   6.916   6.879
 5966SOL     OW18796   2.255   0.856   5.212
 5966SOL    HW118797   2.315   0.870   5.133
 5966SOL    HW218798   2.293   0.906   5.291
 5967SOL     OW18799   2.334   1.822   4.487
 5967SOL    HW118800   2.323   1.844   4.584
 5967SOL    HW218801   2.329   1.723   4.474
 5968SOL     OW18802   5.663   2.361   0.510
 5968SOL    HW118803   5.727   2.370   0.587
 5968SOL    HW218804   5.713   2.330   0.429
 5969SOL     OW18805   5.244   0.896   6.574
 5969SOL    HW118806   5.294   0.933   6.496
 5969SOL    HW218807   5.239   0.965   6.646
 5970SOL     OW18808   0.866   3.000   0.614
 5970SOL    HW118809   0.879   2.903   0.634
 5970SOL    HW218810   0.873   3.014   0.515
 5971SOL     OW18811   6.422   6.949   3.683
 5971SOL    HW118812   6.459   6.856   3.683
 5971SOL    HW218813   6.340   6.952   3.740
 5972SOL     OW18814   5.179   5.209   0.945
 5972SOL    HW118815   5.254   5.148   0.973
 5972SOL    HW218816   5.117   5.159   0.884
 5973SOL     OW18817   1.809   3.241   2.937
 5973SOL    HW118818   1.872   3.225   2.860
 5973SOL    HW218819   1.767   3.331   2.927
 5974SOL     OW18820   3.998   0.995   6.834
 5974SOL    HW118821   4.073   0.978   6.898
 5974SOL    HW218822   3.950   0.909   6.816
 5975SOL     OW18823   5.367   4.524   0.298
 5975SOL    HW118824   5.302   4.449   0.312
 5975SOL    HW218825   5.427   4.531   0.377
 5976SOL     OW18826   3.626   3.588   5.876
 5976SOL    HW118827   3.708   3.573   5.931
 5976SOL    HW218828   3.545   3.561   5.930
 5977SOL     OW18829   0.156   5.342   0.314
 5977SOL    HW118830   0.155   5.351   0.215
 5977SOL    HW218831   0.158   5.433   0.356
 5978SOL     OW18832   3.568   5.605   6.781
 5978SOL    HW118833   3.662   5.627   6.807
 5978SOL    HW218834   3.546   5.652   6.695
 5979SOL     OW18835   6.521   0.338   1.818
 5979SOL    HW118836   6.537   0.287   1.733
 5979SOL    HW218837   6.572   0.424   1.816
 5980SOL     OW18838   3.568   2.914   1.644
 5980SOL    HW118839   3.496   2.890   1.579
 5980SOL    HW218840   3.526   2.951   1.727
 5981SOL     OW18841   4.771   2.332   0.399
 5981SOL    HW118842   4.750   2.236   0.417
 5981SOL    HW218843   4.830   2.340   0.319
 5982SOL     OW18844   5.891   1.753   2.493
 5982SOL    HW118845   5.984   1.717   2.494
 5982SOL    HW218846   5.843   1.721   2.574
 5983SOL     OW18847   6.905   0.677   4.873
 5983SOL    HW118848   6.832   0.737   4.904
 5983SOL    HW218849   6.956   0.722   4.799
 5984SOL     OW18850   6.432   6.572   3.367
 5984SOL    HW118851   6.345   6.531   3.338
 5984SOL    HW218852   6.413   6.659   3.414
 5985SOL     OW18853   6.178   2.519   2.971
 5985SOL    HW118854   6.246   2.572   3.022
 5985SOL    HW218855   6.191   2.422   2.988
 5986SOL     OW18856   4.393   3.783   5.320
 5986SOL    HW118857   4.334   3.792   5.400
 5986SOL    HW218858   4.383   3.691   5.281
 5987SOL     OW18859   6.512   0.816   4.861
 5987SOL    HW118860   6.523   0.859   4.771
 5987SOL    HW218861   6.554   0.873   4.931
 5988SOL     OW18862   2.861   1.819   0.040
 5988SOL    HW118863   2.940   1.761   0.019
 5988SOL    HW218864   2.854   1.831   0.140
 5989SOL     OW18865   0.642   6.129   6.943
 5989SOL    HW118866   0.700   6.159   7.019
 5989SOL    HW218867   0.555   6.095   6.978
 5990SOL     OW18868   3.702   4.468   1.675
 5990SOL    HW118869   3.698   4.479   1.576
 5990SOL    HW218870   3.659   4.546   1.720
 5991SOL     OW18871   5.542   5.992   0.910
 5991SOL    HW118872   5.621   6.023   0.858
 5991SOL    HW218873   5.557   6.006   1.008
 5992SOL     OW18874   3.052   6.816   1.843
 5992SOL    HW118875   3.070   6.911   1.819
 5992SOL    HW218876   3.029   6.810   1.941
 5993SOL     OW18877   6.295   2.741   0.747
 5993SOL    HW118878   6.314   2.777   0.838
 5993SOL    HW218879   6.325   2.646   0.741
 5994SOL     OW18880   0.111   2.970   1.056
 5994SOL    HW118881   0.141   2.882   1.095
 5994SOL    HW218882   0.086   2.957   0.960
 5995SOL     OW18883   4.885   3.634   1.665
 5995SOL    HW118884   4.819   3.688   1.613
 5995SOL    HW218885   4.869   3.646   1.763
 5996SOL     OW18886   2.703   5.603   1.550
 5996SOL    HW118887   2.770   5.668   1.587
 5996SOL    HW218888   2.752   5.526   1.508
 5997SOL     OW18889   6.578   6.910   3.186
 5997SOL    HW118890   6.575   6.891   3.088
 5997SOL    HW218891   6.603   6.826   3.235
 5998SOL     OW18892   6.445   0.658   1.986
 5998SOL    HW118893   6.375   0.597   2.023
 5998SOL    HW218894   6.414   0.697   1.899
 5999SOL     OW18895   3.491   4.182   1.140
 5999SOL    HW118896   3.494   4.225   1.230
 5999SOL    HW218897   3.443   4.094   1.147
 6000SOL     OW18898   0.138   5.616   0.407
 6000SOL    HW118899   0.207   5.678   0.371
 6000SOL    HW218900   0.069   5.668   0.457
 6001SOL     OW18901   5.158   6.290   5.208
 6001SOL    HW118902   5.160   6.213   5.145
 6001SOL    HW218903   5.103   6.364   5.168
 6002SOL     OW18904   6.729   6.705   5.013
 6002SOL    HW118905   6.789   6.676   5.087
 6002SOL    HW218906   6.771   6.683   4.925
 6003SOL     OW18907   6.290   2.990   4.579
 6003SOL    HW118908   6.198   2.965   4.552
 6003SOL    HW218909   6.356   2.940   4.523
 6004SOL     OW18910   4.984   2.321   3.776
 6004SOL    HW118911   5.016   2.343   3.869
 6004SOL    HW218912   5.052   2.265   3.730
 6005SOL     OW18913   4.585   4.114   5.499
 6005SOL    HW118914   4.518   4.137   5.427
 6005SOL    HW218915   4.538   4.070   5.575
 6006SOL     OW18916   3.612   6.663   5.825
 6006SOL    HW118917   3.542   6.697   5.888
 6006SOL    HW218918   3.582   6.679   5.731
 6007SOL     OW18919   0.843   4.502   5.530
 6007SOL    HW118920   0.748   4.497   5.499
 6007SOL    HW218921   0.894   4.424   5.496
 6008SOL     OW18922   2.283   4.646   5.496
 6008SOL    HW118923   2.250   4.738   5.473
 6008SOL    HW218924   2.275   4.587   5.416
 6009SOL     OW18925   4.531   5.379   2.885
 6009SOL    HW118926   4.510   5.329   2.969
 6009SOL    HW218927   4.497   5.473   2.893
 6010SOL     OW18928   0.190   4.039   4.808
 6010SOL    HW118929   0.231   4.051   4.898
 6010SOL    HW218930   0.121   4.110   4.793
 6011SOL     OW18931   5.438   1.461   2.821
 6011SOL    HW118932   5.527   1.498   2.794
 6011SOL    HW218933   5.427   1.370   2.782
 6012SOL     OW18934   6.377   0.514   6.368
 6012SOL    HW118935   6.314   0.497   6.443
 6012SOL    HW218936   6.460   0.557   6.403
 6013SOL     OW18937   5.394   0.899   2.751
 6013SOL    HW118938   5.404   0.855   2.662
 6013SOL    HW218939   5.334   0.979   2.743
 6014SOL     OW18940   3.618   3.213   4.420
 6014SOL    HW118941   3.561   3.152   4.475
 6014SOL    HW218942   3.581   3.220   4.328
 6015SOL     OW18943   6.383   2.336   4.427
 6015SOL    HW118944   6.311   2.327   4.496
 6015SOL    HW218945   6.382   2.256   4.367
 6016SOL     OW18946   4.988   1.849   4.685
 6016SOL    HW118947   4.992   1.939   4.643
 6016SOL    HW218948   4.954   1.782   4.618
 6017SOL     OW18949   6.800   3.425   5.067
 6017SOL    HW118950   6.850   3.474   5.139
 6017SOL    HW218951   6.823   3.464   4.978
 6018SOL     OW18952   3.204   1.054   5.046
 6018SOL    HW118953   3.179   1.012   5.133
 6018SOL    HW218954   3.287   1.010   5.011
 6019SOL     OW18955   0.756   4.014   6.322
 6019SOL    HW118956   0.840   4.047   6.281
 6019SOL    HW218957   0.777   3.950   6.396
 6020SOL     OW18958   0.822   4.992   0.367
 6020SOL    HW118959   0.727   5.010   0.390
 6020SOL    HW218960   0.880   5.064   0.405
 6021SOL     OW18961   3.882   0.412   2.648
 6021SOL    HW118962   3.901   0.504   2.613
 6021SOL    HW218963   3.891   0.412   2.748
 6022SOL     OW18964   6.333   1.010   3.066
 6022SOL    HW118965   6.294   0.950   2.996
 6022SOL    HW218966   6.264   1.033   3.134
 6023SOL     OW18967   4.631   0.751   1.041
 6023SOL    HW118968   4.588   0.700   1.115
 6023SOL    HW218969   4.563   0.769   0.970
 6024SOL     OW18970   0.338   4.602   0.862
 6024SOL    HW118971   0.340   4.701   0.876
 6024SOL    HW218972   0.255   4.576   0.813
 6025SOL     OW18973   2.574   1.424   4.054
 6025SOL    HW118974   2.625   1.355   4.105
 6025SOL    HW218975   2.476   1.413   4.071
 6026SOL     OW18976   6.452   3.983   4.250
 6026SOL    HW118977   6.506   4.062   4.281
 6026SOL    HW218978   6.375   3.968   4.312
 6027SOL     OW18979   5.746   3.737   6.078
 6027SOL    HW118980   5.838   3.772   6.062
 6027SOL    HW218981   5.704   3.711   5.991
 6028SOL     OW18982   5.527   5.201   0.013
 6028SOL    HW118983   5.533   5.274   6.973
 6028SOL    HW218984   5.448   5.216   0.072
 6029SOL     OW18985   2.844   0.792   2.835
 6029SOL    HW118986   2.752   0.824   2.858
 6029SOL    HW218987   2.847   0.765   2.739
 6030SOL     OW18988   4.976   3.667   4.776
 6030SOL    HW118989   4.924   3.729   4.717
 6030SOL    HW218990   4.925   3.652   4.861
 6031SOL     OW18991   0.743   6.002   3.958
 6031SOL    HW118992   0.646   6.021   3.943
 6031SOL    HW218993   0.757   5.971   4.052
 6032SOL     OW18994   3.294   6.595   3.796
 6032SOL    HW118995   3.353   6.532   3.746
 6032SOL    HW218996   3.218   6.623   3.738
 6033SOL     OW18997   2.148   2.850   2.723
 6033SOL    HW118998   2.160   2.815   2.630
 6033SOL    HW218999   2.071   2.803   2.767
 6034SOL     OW19000   1.363   0.403   0.005
 6034SOL    HW119001   1.279   0.364   6.995
 6034SOL    HW219002   1.403   0.339   0.071
 6035SOL     OW19003   1.174   0.743   2.851
 6035SOL    HW119004   1.083   0.776   2.827
 6035SOL    HW219005   1.175   0.643   2.849
 6036SOL     OW19006   6.026   4.063   1.257
 6036SOL    HW119007   5.983   4.154   1.259
 6036SOL    HW219008   5.981   4.007   1.188
 6037SOL     OW19009   4.241   1.627   0.997
 6037SOL    HW119010   4.252   1.540   1.043
 6037SOL    HW219011   4.289   1.699   1.048
 6038SOL     OW19012   0.950   2.179   6.678
 6038SOL    HW119013   0.908   2.269   6.678
 6038SOL    HW219014   1.032   2.180   6.736
 6039SOL     OW19015   3.567   4.036   3.825
 6039SOL    HW119016   3.657   4.048   3.784
 6039SOL    HW219017   3.573   4.052   3.924
 6040SOL     OW19018   1.553   1.808   6.973
 6040SOL    HW119019   1.617   1.874   6.933
 6040SOL    HW219020   1.546   1.729   6.913
 6041SOL     OW19021   2.747   2.313   5.809
 6041SOL    HW119022   2.670   2.367   5.773
 6041SOL    HW219023   2.804   2.281   5.733
 6042SOL     OW19024   3.404   6.173   3.579
 6042SOL    HW119025   3.421   6.075   3.582
 6042SOL    HW219026   3.353   6.196   3.496
 6043SOL     OW19027   2.047   0.578   3.993
 6043SOL    HW119028   2.082   0.522   3.918
 6043SOL    HW219029   2.124   0.614   4.046
 6044SOL     OW19030   2.158   1.818   1.488
 6044SOL    HW119031   2.215   1.769   1.555
 6044SOL    HW219032   2.159   1.916   1.508
 6045SOL     OW19033   5.134   2.994   3.260
 6045SOL    HW119034   5.044   3.014   3.298
 6045SOL    HW219035   5.125   2.925   3.188
 6046SOL     OW19036   3.629   2.527   1.732
 6046SOL    HW119037   3.612   2.594   1.805
 6046SOL    HW219038   3.648   2.438   1.773
 6047SOL     OW19039   5.980   1.664   0.528
 6047SOL    HW119040   5.929   1.601   0.471
 6047SOL    HW219041   5.932   1.751   0.534
 6048SOL     OW19042   5.484   5.321   5.060
 6048SOL    HW119043   5.392   5.282   5.051
 6048SOL    HW219044   5.500   5.387   4.988
 6049SOL     OW19045   5.298   5.070   5.827
 6049SOL    HW119046   5.287   5.138   5.755
 6049SOL    HW219047   5.395   5.059   5.847
 6050SOL     OW19048   3.203   5.718   0.916
 6050SOL    HW119049   3.162   5.627   0.908
 6050SOL    HW219050   3.151   5.772   0.981
 6051SOL     OW19051   0.263   1.684   2.881
 6051SOL    HW119052   0.316   1.624   2.821
 6051SOL    HW219053   0.165   1.663   2.870
 6052SOL     OW19054   5.457   6.820   1.027
 6052SOL    HW119055   5.554   6.844   1.035
 6052SOL    HW219056   5.424   6.846   0.936
 6053SOL     OW19057   4.420   1.473   6.177
 6053SOL    HW119058   4.437   1.467   6.079
 6053SOL    HW219059   4.438   1.566   6.209
 6054SOL     OW19060   3.666   5.123   0.959
 6054SOL    HW119061   3.603   5.086   0.891
 6054SOL    HW219062   3.638   5.215   0.985
 6055SOL     OW19063   3.276   5.604   6.817
 6055SOL    HW119064   3.375   5.616   6.821
 6055SOL    HW219065   3.251   5.563   6.729
 6056SOL     OW19066   5.848   3.940   5.060
 6056SOL    HW119067   5.933   3.891   5.080
 6056SOL    HW219068   5.836   3.946   4.961
 6057SOL     OW19069   5.052   0.294   2.593
 6057SOL    HW119070   5.070   0.344   2.678
 6057SOL    HW219071   5.009   0.206   2.615
 6058SOL     OW19072   5.953   3.191   0.340
 6058SOL    HW119073   5.998   3.125   0.400
 6058SOL    HW219074   6.001   3.193   0.252
 6059SOL     OW19075   5.334   4.236   5.995
 6059SOL    HW119076   5.400   4.276   6.059
 6059SOL    HW219077   5.247   4.284   6.002
 6060SOL     OW19078   3.024   3.343   0.161
 6060SOL    HW119079   2.942   3.347   0.218
 6060SOL    HW219080   3.106   3.349   0.219
 6061SOL     OW19081   3.923   4.764   0.859
 6061SOL    HW119082   3.986   4.707   0.913
 6061SOL    HW219083   3.950   4.761   0.763
 6062SOL     OW19084   2.781   2.173   0.077
 6062SOL    HW119085   2.794   2.265   0.042
 6062SOL    HW219086   2.683   2.152   0.083
 6063SOL     OW19087   4.099   4.094   5.769
 6063SOL    HW119088   4.159   4.171   5.747
 6063SOL    HW219089   4.009   4.128   5.796
 6064SOL     OW19090   0.189   0.596   0.480
 6064SOL    HW119091   0.261   0.527   0.484
 6064SOL    HW219092   0.115   0.572   0.542
 6065SOL     OW19093   1.170   5.042   2.171
 6065SOL    HW119094   1.136   4.969   2.230
 6065SOL    HW219095   1.227   5.003   2.098
 6066SOL     OW19096   5.182   0.989   3.412
 6066SOL    HW119097   5.213   1.057   3.345
 6066SOL    HW219098   5.188   0.898   3.373
 6067SOL     OW19099   6.163   6.737   5.471
 6067SOL    HW119100   6.216   6.705   5.393
 6067SOL    HW219101   6.066   6.741   5.446
 6068SOL     OW19102   4.866   1.487   4.776
 6068SOL    HW119103   4.782   1.533   4.744
 6068SOL    HW219104   4.899   1.425   4.705
 6069SOL     OW19105   0.007   2.759   5.744
 6069SOL    HW119106   7.022   2.856   5.720
 6069SOL    HW219107   6.951   2.709   5.723
 6070SOL     OW19108   3.434   2.147   1.863
 6070SOL    HW119109   3.509   2.212   1.875
 6070SOL    HW219110   3.438   2.108   1.771
 6071SOL     OW19111   6.727   6.114   4.958
 6071SOL    HW119112   6.685   6.073   5.039
 6071SOL    HW219113   6.800   6.176   4.986
 6072SOL     OW19114   1.094   1.915   0.919
 6072SOL    HW119115   1.025   1.877   0.856
 6072SOL    HW219116   1.155   1.975   0.867
 6073SOL     OW19117   4.814   2.891   0.844
 6073SOL    HW119118   4.823   2.912   0.747
 6073SOL    HW219119   4.874   2.952   0.897
 6074SOL     OW19120   1.100   6.702   2.411
 6074SOL    HW119121   1.006   6.731   2.425
 6074SOL    HW219122   1.154   6.722   2.492
 6075SOL     OW19123   4.305   6.599   6.590
 6075SOL    HW119124   4.270   6.673   6.532
 6075SOL    HW219125   4.262   6.513   6.563
 6076SOL     OW19126   2.557   5.016   4.160
 6076SOL    HW119127   2.618   5.072   4.103
 6076SOL    HW219128   2.463   5.031   4.132
 6077SOL     OW19129   6.306   6.680   1.112
 6077SOL    HW119130   6.247   6.732   1.174
 6077SOL    HW219131   6.249   6.627   1.049
 6078SOL     OW19132   4.268   4.224   0.557
 6078SOL    HW119133   4.240   4.263   0.470
 6078SOL    HW219134   4.240   4.285   0.631
 6079SOL     OW19135   4.510   4.582   6.761
 6079SOL    HW119136   4.499   4.516   6.687
 6079SOL    HW219137   4.540   4.535   6.844
 6080SOL     OW19138   1.232   4.639   1.105
 6080SOL    HW119139   1.226   4.645   1.005
 6080SOL    HW219140   1.150   4.594   1.141
 6081SOL     OW19141   0.371   3.704   5.359
 6081SOL    HW119142   0.300   3.644   5.395
 6081SOL    HW219143   0.373   3.790   5.411
 6082SOL     OW19144   4.182   0.346   1.684
 6082SOL    HW119145   4.247   0.283   1.642
 6082SOL    HW219146   4.207   0.362   1.779
 6083SOL     OW19147   5.095   6.740   0.059
 6083SOL    HW119148   5.165   6.745   7.016
 6083SOL    HW219149   5.051   6.650   0.056
 6084SOL     OW19150   0.639   6.551   2.165
 6084SOL    HW119151   0.626   6.469   2.219
 6084SOL    HW219152   0.722   6.543   2.110
 6085SOL     OW19153   6.221   6.564   7.020
 6085SOL    HW119154   6.293   6.500   0.020
 6085SOL    HW219155   6.261   6.638   6.967
 6086SOL     OW19156   3.973   3.596   6.723
 6086SOL    HW119157   4.024   3.626   6.643
 6086SOL    HW219158   3.910   3.523   6.696
 6087SOL     OW19159   4.528   6.547   0.166
 6087SOL    HW119160   4.458   6.499   0.114
 6087SOL    HW219161   4.524   6.518   0.262
 6088SOL     OW19162   4.987   6.208   4.674
 6088SOL    HW119163   5.027   6.245   4.590
 6088SOL    HW219164   5.003   6.272   4.749
 6089SOL     OW19165   6.319   2.094   2.338
 6089SOL    HW119166   6.377   2.130   2.265
 6089SOL    HW219167   6.223   2.107   2.314
 6090SOL     OW19168   3.282   5.394   3.930
 6090SOL    HW119169   3.320   5.383   4.022
 6090SOL    HW219170   3.275   5.491   3.907
 6091SOL     OW19171   2.471   0.744   1.485
 6091SOL    HW119172   2.441   0.657   1.524
 6091SOL    HW219173   2.547   0.780   1.539
 6092SOL     OW19174   4.283   0.166   2.068
 6092SOL    HW119175   4.369   0.184   2.115
 6092SOL    HW219176   4.271   0.067   2.056
 6093SOL     OW19177   1.551   1.660   2.209
 6093SOL    HW119178   1.497   1.625   2.286
 6093SOL    HW219179   1.505   1.740   2.170
 6094SOL     OW19180   0.754   6.806   4.388
 6094SOL    HW119181   0.818   6.824   4.313
 6094SOL    HW219182   0.805   6.773   4.468
 6095SOL     OW19183   4.315   5.702   6.965
 6095SOL    HW119184   4.229   5.659   6.990
 6095SOL    HW219185   4.302   5.801   6.956
 6096SOL     OW19186   5.724   6.232   2.229
 6096SOL    HW119187   5.816   6.236   2.268
 6096SOL    HW219188   5.707   6.315   2.175
 6097SOL     OW19189   1.319   6.171   2.016
 6097SOL    HW119190   1.323   6.265   2.051
 6097SOL    HW219191   1.411   6.132   2.014
 6098SOL     OW19192   6.878   0.613   5.472
 6098SOL    HW119193   6.971   0.641   5.498
 6098SOL    HW219194   6.869   0.514   5.483
 6099SOL     OW19195   5.691   6.275   5.700
 6099SOL    HW119196   5.607   6.240   5.743
 6099SOL    HW219197   5.769   6.258   5.761
 6100SOL     OW19198   0.580   5.861   2.867
 6100SOL    HW119199   0.536   5.915   2.939
 6100SOL    HW219200   0.511   5.820   2.808
 6101SOL     OW19201   6.435   1.978   1.552
 6101SOL    HW119202   6.416   2.028   1.636
 6101SOL    HW219203   6.385   2.020   1.476
 6102SOL     OW19204   4.600   6.350   2.517
 6102SOL    HW119205   4.666   6.317   2.449
 6102SOL    HW219206   4.513   6.369   2.472
 6103SOL     OW19207   6.600   1.627   1.317
 6103SOL    HW119208   6.681   1.587   1.275
 6103SOL    HW219209   6.627   1.692   1.388
 6104SOL     OW19210   6.263   1.509   5.012
 6104SOL    HW119211   6.305   1.548   4.930
 6104SOL    HW219212   6.165   1.494   4.995
 6105SOL     OW19213   2.735   5.546   5.724
 6105SOL    HW119214   2.724   5.543   5.824
 6105SOL    HW219215   2.823   5.587   5.701
 6106SOL     OW19216   0.793   3.724   0.140
 6106SOL    HW119217   0.721   3.793   0.128
 6106SOL    HW219218   0.811   3.712   0.237
 6107SOL     OW19219   4.935   5.191   4.844
 6107SOL    HW119220   4.843   5.231   4.844
 6107SOL    HW219221   4.939   5.119   4.912
 6108SOL     OW19222   1.374   1.331   2.070
 6108SOL    HW119223   1.400   1.281   2.153
 6108SOL    HW219224   1.283   1.371   2.083
 6109SOL     OW19225   5.272   0.401   3.397
 6109SOL    HW119226   5.336   0.359   3.333
 6109SOL    HW219227   5.314   0.407   3.487
 6110SOL     OW19228   0.610   2.114   6.035
 6110SOL    HW119229   0.518   2.107   5.995
 6110SOL    HW219230   0.630   2.209   6.058
 6111SOL     OW19231   1.437   3.593   1.961
 6111SOL    HW119232   1.386   3.665   1.914
 6111SOL    HW219233   1.523   3.630   1.996
 6112SOL     OW19234   3.199   0.418   2.397
 6112SOL    HW119235   3.296   0.404   2.375
 6112SOL    HW219236   3.154   0.466   2.322
 6113SOL     OW19237   2.367   4.474   6.885
 6113SOL    HW119238   2.329   4.502   6.797
 6113SOL    HW219239   2.352   4.376   6.898
 6114SOL     OW19240   4.895   1.846   1.456
 6114SOL    HW119241   4.864   1.888   1.371
 6114SOL    HW219242   4.995   1.844   1.458
 6115SOL     OW19243   0.654   1.138   5.472
 6115SOL    HW119244   0.692   1.183   5.553
 6115SOL    HW219245   0.728   1.112   5.411
 6116SOL     OW19246   3.837   2.298   5.314
 6116SOL    HW119247   3.828   2.318   5.412
 6116SOL    HW219248   3.746   2.280   5.276
 6117SOL     OW19249   1.315   1.971   2.956
 6117SOL    HW119250   1.341   1.989   2.861
 6117SOL    HW219251   1.378   1.903   2.995
 6118SOL     OW19252   6.195   1.190   0.906
 6118SOL    HW119253   6.242   1.264   0.858
 6118SOL    HW219254   6.180   1.113   0.843
 6119SOL     OW19255   0.377   2.178   0.220
 6119SOL    HW119256   0.430   2.262   0.205
 6119SOL    HW219257   0.425   2.100   0.180
 6120SOL     OW19258   2.548   6.963   5.301
 6120SOL    HW119259   2.491   6.881   5.298
 6120SOL    HW219260   2.491   0.017   5.290
 6121SOL     OW19261   0.591   3.648   5.609
 6121SOL    HW119262   0.648   3.723   5.575
 6121SOL    HW219263   0.546   3.677   5.694
 6122SOL     OW19264   5.147   6.042   5.453
 6122SOL    HW119265   5.084   6.119   5.441
 6122SOL    HW219266   5.159   5.996   5.365
 6123SOL     OW19267   5.260   1.412   5.734
 6123SOL    HW119268   5.246   1.402   5.832
 6123SOL    HW219269   5.234   1.328   5.687
 6124SOL     OW19270   2.188   0.093   5.143
 6124SOL    HW119271   2.225   0.114   5.052
 6124SOL    HW219272   2.156   0.177   5.186
 6125SOL     OW19273   2.529   4.488   0.289
 6125SOL    HW119274   2.540   4.457   0.383
 6125SOL    HW219275   2.455   4.436   0.246
 6126SOL     OW19276   0.546   2.436   5.209
 6126SOL    HW119277   0.626   2.470   5.259
 6126SOL    HW219278   0.475   2.409   5.274
 6127SOL     OW19279   4.389   1.331   1.677
 6127SOL    HW119280   4.388   1.330   1.577
 6127SOL    HW219281   4.385   1.426   1.709
 6128SOL     OW19282   5.507   5.780   0.415
 6128SOL    HW119283   5.559   5.865   0.418
 6128SOL    HW219284   5.558   5.711   0.364
 6129SOL     OW19285   1.966   4.547   3.346
 6129SOL    HW119286   2.033   4.619   3.329
 6129SOL    HW219287   1.921   4.564   3.434
 6130SOL     OW19288   5.378   2.577   2.069
 6130SOL    HW119289   5.300   2.531   2.026
 6130SOL    HW219290   5.355   2.673   2.085
 6131SOL     OW19291   0.096   2.204   2.277
 6131SOL    HW119292   0.116   2.240   2.186
 6131SOL    HW219293   0.116   2.106   2.279
 6132SOL     OW19294   3.538   1.792   6.830
 6132SOL    HW119295   3.624   1.750   6.800
 6132SOL    HW219296   3.462   1.729   6.814
 6133SOL     OW19297   1.669   2.449   3.729
 6133SOL    HW119298   1.602   2.519   3.751
 6133SOL    HW219299   1.644   2.403   3.644
 6134SOL     OW19300   5.640   6.398   6.140
 6134SOL    HW119301   5.674   6.321   6.086
 6134SOL    HW219302   5.549   6.377   6.175
 6135SOL     OW19303   6.345   0.218   0.009
 6135SOL    HW119304   6.265   0.171   6.999
 6135SOL    HW219305   6.319   0.265   0.094
 6136SOL     OW19306   1.531   3.073   1.258
 6136SOL    HW119307   1.518   3.172   1.263
 6136SOL    HW219308   1.450   3.031   1.217
 6137SOL     OW19309   0.884   4.267   3.576
 6137SOL    HW119310   0.845   4.358   3.570
 6137SOL    HW219311   0.978   4.269   3.541
 6138SOL     OW19312   4.038   0.358   2.111
 6138SOL    HW119313   4.008   0.379   2.204
 6138SOL    HW219314   4.083   0.269   2.110
 6139SOL     OW19315   1.012   6.651   5.956
 6139SOL    HW119316   0.992   6.557   5.985
 6139SOL    HW219317   0.976   6.715   6.025
 6140SOL     OW19318   1.347   0.184   3.438
 6140SOL    HW119319   1.410   0.194   3.515
 6140SOL    HW219320   1.377   0.243   3.362
 6141SOL     OW19321   0.528   0.482   6.297
 6141SOL    HW119322   0.627   0.498   6.305
 6141SOL    HW219323   0.511   0.415   6.224
 6142SOL     OW19324   0.903   1.225   0.415
 6142SOL    HW119325   0.912   1.126   0.401
 6142SOL    HW219326   0.979   1.272   0.371
 6143SOL     OW19327   6.957   3.767   0.074
 6143SOL    HW119328   7.016   3.687   0.082
 6143SOL    HW219329   6.887   3.765   0.146
 6144SOL     OW19330   4.571   4.378   3.236
 6144SOL    HW119331   4.603   4.301   3.181
 6144SOL    HW219332   4.474   4.365   3.258
 6145SOL     OW19333   5.908   4.265   3.994
 6145SOL    HW119334   5.993   4.287   4.042
 6145SOL    HW219335   5.852   4.205   4.052
 6146SOL     OW19336   3.921   0.488   4.141
 6146SOL    HW119337   4.021   0.481   4.145
 6146SOL    HW219338   3.883   0.487   4.234
 6147SOL     OW19339   1.872   3.245   4.530
 6147SOL    HW119340   1.865   3.335   4.488
 6147SOL    HW219341   1.956   3.240   4.585
 6148SOL     OW19342   4.095   5.065   7.023
 6148SOL    HW119343   4.159   5.006   6.973
 6148SOL    HW219344   4.060   5.136   6.962
 6149SOL     OW19345   2.148   7.012   2.040
 6149SOL    HW119346   2.082   6.937   2.040
 6149SOL    HW219347   2.100   0.070   2.016
 6150SOL     OW19348   6.445   4.206   6.868
 6150SOL    HW119349   6.536   4.163   6.861
 6150SOL    HW219350   6.423   4.221   6.964
 6151SOL     OW19351   5.602   4.927   4.458
 6151SOL    HW119352   5.635   4.846   4.409
 6151SOL    HW219353   5.574   4.902   4.550
 6152SOL     OW19354   1.078   5.781   4.151
 6152SOL    HW119355   1.036   5.867   4.182
 6152SOL    HW219356   1.142   5.749   4.221
 6153SOL     OW19357   4.791   5.531   0.656
 6153SOL    HW119358   4.847   5.458   0.694
 6153SOL    HW219359   4.825   5.619   0.690
 6154SOL     OW19360   4.856   3.686   2.589
 6154SOL    HW119361   4.882   3.762   2.530
 6154SOL    HW219362   4.837   3.606   2.532
 6155SOL     OW19363   2.588   0.912   2.893
 6155SOL    HW119364   2.532   0.944   2.817
 6155SOL    HW219365   2.617   0.991   2.948
 6156SOL     OW19366   5.436   3.937   1.630
 6156SOL    HW119367   5.495   4.007   1.590
 6156SOL    HW219368   5.485   3.891   1.704
 6157SOL     OW19369   0.653   2.267   3.442
 6157SOL    HW119370   0.729   2.292   3.381
 6157SOL    HW219371   0.580   2.225   3.389
 6158SOL     OW19372   3.201   2.320   6.115
 6158SOL    HW119373   3.184   2.264   6.034
 6158SOL    HW219374   3.260   2.397   6.090
 6159SOL     OW19375   5.166   2.824   0.081
 6159SOL    HW119376   5.240   2.760   0.103
 6159SOL    HW219377   5.094   2.776   0.031
 6160SOL     OW19378   0.027   0.132   6.227
 6160SOL    HW119379   0.100   0.196   6.203
 6160SOL    HW219380   6.995   0.174   6.295
 6161SOL     OW19381   5.227   2.673   6.236
 6161SOL    HW119382   5.263   2.589   6.195
 6161SOL    HW219383   5.246   2.673   6.334
 6162SOL     OW19384   5.884   6.727   3.294
 6162SOL    HW119385   5.821   6.742   3.371
 6162SOL    HW219386   5.914   6.632   3.293
 6163SOL     OW19387   5.002   6.230   2.857
 6163SOL    HW119388   4.957   6.230   2.768
 6163SOL    HW219389   5.002   6.138   2.895
 6164SOL     OW19390   3.635   4.012   4.084
 6164SOL    HW119391   3.629   3.913   4.075
 6164SOL    HW219392   3.598   4.040   4.173
 6165SOL     OW19393   3.939   2.533   0.155
 6165SOL    HW119394   4.024   2.586   0.151
 6165SOL    HW219395   3.911   2.509   0.062
 6166SOL     OW19396   6.738   2.087   6.978
 6166SOL    HW119397   6.757   2.131   6.890
 6166SOL    HW219398   6.737   2.157   0.022
 6167SOL     OW19399   1.591   4.930   3.101
 6167SOL    HW119400   1.548   5.019   3.087
 6167SOL    HW219401   1.690   4.939   3.092
 6168SOL     OW19402   6.402   2.621   3.394
 6168SOL    HW119403   6.463   2.553   3.434
 6168SOL    HW219404   6.311   2.612   3.434
 6169SOL     OW19405   1.116   0.667   6.461
 6169SOL    HW119406   1.077   0.649   6.552
 6169SOL    HW219407   1.165   0.585   6.430
 6170SOL     OW19408   3.370   4.463   6.886
 6170SOL    HW119409   3.405   4.377   6.848
 6170SOL    HW219410   3.446   4.527   6.899
 6171SOL     OW19411   1.218   4.047   2.322
 6171SOL    HW119412   1.201   4.076   2.416
 6171SOL    HW219413   1.134   4.009   2.283
 6172SOL     OW19414   0.305   0.625   2.167
 6172SOL    HW119415   0.296   0.611   2.265
 6172SOL    HW219416   0.301   0.723   2.146
 6173SOL     OW19417   1.035   5.064   2.537
 6173SOL    HW119418   1.135   5.064   2.532
 6173SOL    HW219419   0.999   4.994   2.475
 6174SOL     OW19420   6.066   4.735   2.724
 6174SOL    HW119421   6.031   4.647   2.692
 6174SOL    HW219422   6.087   4.793   2.645
 6175SOL     OW19423   5.555   6.086   2.613
 6175SOL    HW119424   5.559   6.118   2.708
 6175SOL    HW219425   5.587   5.992   2.609
 6176SOL     OW19426   6.142   3.503   6.691
 6176SOL    HW119427   6.117   3.519   6.595
 6176SOL    HW219428   6.071   3.448   6.734
 6177SOL     OW19429   4.958   1.259   1.458
 6177SOL    HW119430   4.993   1.352   1.467
 6177SOL    HW219431   4.988   1.204   1.537
 6178SOL     OW19432   4.657   4.900   1.539
 6178SOL    HW119433   4.623   4.988   1.571
 6178SOL    HW219434   4.726   4.866   1.603
 6179SOL     OW19435   0.012   3.709   4.984
 6179SOL    HW119436   6.958   3.665   4.945
 6179SOL    HW219437   0.093   3.655   4.963
 6180SOL     OW19438   3.484   0.016   0.497
 6180SOL    HW119439   3.568   7.018   0.547
 6180SOL    HW219440   3.448   6.963   0.451
 6181SOL     OW19441   4.801   6.362   0.253
 6181SOL    HW119442   4.826   6.308   0.333
 6181SOL    HW219443   4.713   6.406   0.269
 6182SOL     OW19444   5.168   5.370   5.168
 6182SOL    HW119445   5.082   5.388   5.217
 6182SOL    HW219446   5.218   5.297   5.214
 6183SOL     OW19447   1.928   0.373   2.768
 6183SOL    HW119448   1.984   0.424   2.834
 6183SOL    HW219449   1.831   0.386   2.790
 6184SOL     OW19450   1.874   7.018   0.109
 6184SOL    HW119451   1.810   0.009   0.035
 6184SOL    HW219452   1.827   7.023   0.197
 6185SOL     OW19453   1.036   3.810   6.735
 6185SOL    HW119454   1.052   3.722   6.691
 6185SOL    HW219455   1.054   3.802   6.833
 6186SOL     OW19456   5.514   0.237   4.554
 6186SOL    HW119457   5.584   0.254   4.623
 6186SOL    HW219458   5.551   0.176   4.483
 6187SOL     OW19459   4.979   4.937   3.646
 6187SOL    HW119460   5.012   4.965   3.736
 6187SOL    HW219461   4.907   4.868   3.657
 6188SOL     OW19462   2.150   6.290   1.312
 6188SOL    HW119463   2.242   6.328   1.298
 6188SOL    HW219464   2.157   6.192   1.328
 6189SOL     OW19465   5.271   4.809   3.241
 6189SOL    HW119466   5.275   4.709   3.236
 6189SOL    HW219467   5.247   4.837   3.334
 6190SOL     OW19468   5.532   3.906   6.403
 6190SOL    HW119469   5.437   3.881   6.386
 6190SOL    HW219470   5.574   3.938   6.318
 6191SOL     OW19471   5.596   2.337   0.973
 6191SOL    HW119472   5.612   2.240   0.988
 6191SOL    HW219473   5.680   2.388   0.995
 6192SOL     OW19474   3.072   3.633   0.437
 6192SOL    HW119475   3.025   3.586   0.512
 6192SOL    HW219476   3.083   3.730   0.461
 6193SOL     OW19477   4.723   0.242   2.052
 6193SOL    HW119478   4.763   0.333   2.062
 6193SOL    HW219479   4.738   0.209   1.959
 6194SOL     OW19480   2.129   0.155   0.780
 6194SOL    HW119481   2.046   0.099   0.773
 6194SOL    HW219482   2.173   0.161   0.691
 6195SOL     OW19483   4.253   5.074   5.695
 6195SOL    HW119484   4.211   5.008   5.633
 6195SOL    HW219485   4.284   5.028   5.777
 6196SOL     OW19486   0.410   2.825   6.042
 6196SOL    HW119487   0.348   2.884   5.990
 6196SOL    HW219488   0.366   2.799   6.128
 6197SOL     OW19489   2.932   4.185   0.998
 6197SOL    HW119490   2.878   4.177   1.082
 6197SOL    HW219491   3.029   4.192   1.021
 6198SOL     OW19492   3.663   6.060   2.964
 6198SOL    HW119493   3.590   6.032   2.903
 6198SOL    HW219494   3.724   5.983   2.982
 6199SOL     OW19495   0.232   0.130   0.829
 6199SOL    HW119496   0.271   0.038   0.832
 6199SOL    HW219497   0.306   0.197   0.825
 6200SOL     OW19498   2.644   1.368   6.678
 6200SOL    HW119499   2.690   1.416   6.753
 6200SOL    HW219500   2.574   1.427   6.639
 6201SOL     OW19501   2.371   4.968   5.734
 6201SOL    HW119502   2.341   4.873   5.738
 6201SOL    HW219503   2.428   4.989   5.813
 6202SOL     OW19504   4.141   1.835   1.563
 6202SOL    HW119505   4.122   1.923   1.519
 6202SOL    HW219506   4.213   1.848   1.632
 6203SOL     OW19507   5.178   0.133   3.864
 6203SOL    HW119508   5.225   0.046   3.873
 6203SOL    HW219509   5.240   0.207   3.891
 6204SOL     OW19510   0.568   4.819   5.293
 6204SOL    HW119511   0.594   4.773   5.208
 6204SOL    HW219512   0.470   4.839   5.291
 6205SOL     OW19513   5.175   5.456   6.695
 6205SOL    HW119514   5.164   5.396   6.616
 6205SOL    HW219515   5.130   5.543   6.678
 6206SOL     OW19516   0.119   0.375   2.138
 6206SOL    HW119517   0.089   0.288   2.178
 6206SOL    HW219518   0.211   0.396   2.171
 6207SOL     OW19519   1.572   4.141   4.725
 6207SOL    HW119520   1.479   4.121   4.755
 6207SOL    HW219521   1.637   4.095   4.785
 6208SOL     OW19522   6.168   0.513   5.808
 6208SOL    HW119523   6.165   0.532   5.906
 6208SOL    HW219524   6.248   0.456   5.787
 6209SOL     OW19525   3.624   6.131   0.271
 6209SOL    HW119526   3.670   6.110   0.184
 6209SOL    HW219527   3.673   6.205   0.317
 6210SOL     OW19528   5.549   4.323   3.142
 6210SOL    HW119529   5.581   4.229   3.126
 6210SOL    HW219530   5.601   4.364   3.217
 6211SOL     OW19531   2.734   6.981   6.406
 6211SOL    HW119532   2.818   0.007   6.413
 6211SOL    HW219533   2.757   6.883   6.409
 6212SOL     OW19534   0.197   5.890   3.329
 6212SOL    HW119535   0.131   5.818   3.348
 6212SOL    HW219536   0.287   5.850   3.312
 6213SOL     OW19537   5.636   0.169   6.282
 6213SOL    HW119538   5.657   0.225   6.202
 6213SOL    HW219539   5.586   0.224   6.349
 6214SOL     OW19540   5.864   5.123   2.992
 6214SOL    HW119541   5.916   5.066   3.057
 6214SOL    HW219542   5.887   5.096   2.899
 6215SOL     OW19543   3.585   1.537   6.980
 6215SOL    HW119544   3.570   1.451   6.930
 6215SOL    HW219545   3.683   1.558   6.980
 6216SOL     OW19546   6.375   1.845   1.977
 6216SOL    HW119547   6.338   1.792   1.901
 6216SOL    HW219548   6.364   1.794   2.062
 6217SOL     OW19549   5.338   2.654   1.650
 6217SOL    HW119550   5.276   2.697   1.716
 6217SOL    HW219551   5.306   2.561   1.630
 6218SOL     OW19552   3.646   4.964   3.795
 6218SOL    HW119553   3.584   4.920   3.860
 6218SOL    HW219554   3.706   5.027   3.843
 6219SOL     OW19555   1.447   1.580   4.745
 6219SOL    HW119556   1.383   1.642   4.701
 6219SOL    HW219557   1.515   1.633   4.796
 6220SOL     OW19558   1.673   4.392   5.394
 6220SOL    HW119559   1.722   4.477   5.374
 6220SOL    HW219560   1.721   4.315   5.352
 6221SOL     OW19561   5.036   5.041   5.260
 6221SOL    HW119562   5.044   5.020   5.357
 6221SOL    HW219563   4.954   5.097   5.245
 6222SOL     OW19564   0.877   6.633   1.277
 6222SOL    HW119565   0.856   6.537   1.262
 6222SOL    HW219566   0.831   6.665   1.359
 6223SOL     OW19567   5.908   3.197   4.402
 6223SOL    HW119568   5.960   3.129   4.351
 6223SOL    HW219569   5.957   3.285   4.400
 6224SOL     OW19570   1.714   1.788   6.325
 6224SOL    HW119571   1.746   1.754   6.236
 6224SOL    HW219572   1.677   1.712   6.379
 6225SOL     OW19573   3.229   3.588   1.551
 6225SOL    HW119574   3.214   3.571   1.648
 6225SOL    HW219575   3.326   3.579   1.530
 6226SOL     OW19576   5.904   1.473   3.846
 6226SOL    HW119577   5.998   1.488   3.814
 6226SOL    HW219578   5.843   1.539   3.803
 6227SOL     OW19579   3.202   4.383   6.365
 6227SOL    HW119580   3.179   4.402   6.460
 6227SOL    HW219581   3.238   4.467   6.322
 6228SOL     OW19582   6.998   2.081   3.141
 6228SOL    HW119583   0.065   2.075   3.108
 6228SOL    HW219584   6.935   2.075   3.064
 6229SOL     OW19585   1.699   1.755   3.136
 6229SOL    HW119586   1.734   1.666   3.107
 6229SOL    HW219587   1.610   1.771   3.092
 6230SOL     OW19588   1.832   1.443   4.802
 6230SOL    HW119589   1.929   1.457   4.781
 6230SOL    HW219590   1.807   1.348   4.782
 6231SOL     OW19591   6.681   5.110   1.279
 6231SOL    HW119592   6.635   5.187   1.234
 6231SOL    HW219593   6.709   5.137   1.371
 6232SOL     OW19594   0.059   1.004   0.125
 6232SOL    HW119595   0.071   1.088   0.177
 6232SOL    HW219596   0.146   0.955   0.120
 6233SOL     OW19597   5.506   1.881   6.517
 6233SOL    HW119598   5.588   1.861   6.571
 6233SOL    HW219599   5.433   1.914   6.578
 6234SOL     OW19600   0.724   1.264   4.848
 6234SOL    HW119601   0.807   1.297   4.894
 6234SOL    HW219602   0.651   1.252   4.915
 6235SOL     OW19603   1.640   6.774   3.330
 6235SOL    HW119604   1.557   6.747   3.379
 6235SOL    HW219605   1.615   6.812   3.241
 6236SOL     OW19606   0.287   4.981   1.170
 6236SOL    HW119607   0.212   4.930   1.211
 6236SOL    HW219608   0.371   4.927   1.174
 6237SOL     OW19609   4.602   6.025   0.567
 6237SOL    HW119610   4.563   6.089   0.501
 6237SOL    HW219611   4.674   6.071   0.620
 6238SOL     OW19612   4.640   5.143   2.747
 6238SOL    HW119613   4.726   5.142   2.797
 6238SOL    HW219614   4.575   5.202   2.793
 6239SOL     OW19615   2.786   6.477   2.114
 6239SOL    HW119616   2.752   6.409   2.179
 6239SOL    HW219617   2.708   6.520   2.067
 6240SOL     OW19618   2.828   1.769   0.770
 6240SOL    HW119619   2.809   1.806   0.861
 6240SOL    HW219620   2.884   1.834   0.719
 6241SOL     OW19621   2.374   1.064   2.669
 6241SOL    HW119622   2.428   1.144   2.642
 6241SOL    HW219623   2.277   1.082   2.651
 6242SOL     OW19624   5.467   1.410   3.441
 6242SOL    HW119625   5.480   1.311   3.437
 6242SOL    HW219626   5.369   1.431   3.438
 6243SOL     OW19627   5.894   6.681   3.769
 6243SOL    HW119628   5.985   6.647   3.744
 6243SOL    HW219629   5.880   6.771   3.728
 6244SOL     OW19630   2.080   2.246   1.929
 6244SOL    HW119631   2.042   2.180   1.865
 6244SOL    HW219632   2.175   2.265   1.905
 6245SOL     OW19633   3.075   4.336   1.747
 6245SOL    HW119634   3.097   4.253   1.798
 6245SOL    HW219635   3.001   4.385   1.794
 6246SOL     OW19636   2.698   2.635   6.637
 6246SOL    HW119637   2.759   2.710   6.665
 6246SOL    HW219638   2.695   2.630   6.537
 6247SOL     OW19639   0.183   6.719   3.649
 6247SOL    HW119640   0.265   6.673   3.685
 6247SOL    HW219641   0.114   6.650   3.626
 6248SOL     OW19642   0.964   3.891   1.194
 6248SOL    HW119643   1.015   3.971   1.163
 6248SOL    HW219644   0.902   3.860   1.122
 6249SOL     OW19645   0.423   4.480   0.082
 6249SOL    HW119646   0.482   4.507   0.157
 6249SOL    HW219647   0.436   4.382   0.063
 6250SOL     OW19648   6.520   6.344   0.430
 6250SOL    HW119649   6.527   6.244   0.433
 6250SOL    HW219650   6.423   6.370   0.434
 6251SOL     OW19651   4.012   6.662   1.106
 6251SOL    HW119652   3.983   6.723   1.179
 6251SOL    HW219653   3.940   6.594   1.089
 6252SOL     OW19654   2.061   6.101   4.681
 6252SOL    HW119655   2.018   6.173   4.736
 6252SOL    HW219656   2.113   6.143   4.607
 6253SOL     OW19657   2.173   4.295   2.455
 6253SOL    HW119658   2.202   4.212   2.501
 6253SOL    HW219659   2.210   4.375   2.503
 6254SOL     OW19660   5.287   1.014   7.020
 6254SOL    HW119661   5.335   1.028   6.934
 6254SOL    HW219662   5.198   0.971   7.003
 6255SOL     OW19663   1.348   0.913   1.798
 6255SOL    HW119664   1.292   0.847   1.849
 6255SOL    HW219665   1.346   1.002   1.845
 6256SOL     OW19666   4.203   5.205   2.862
 6256SOL    HW119667   4.274   5.164   2.918
 6256SOL    HW219668   4.142   5.260   2.920
 6257SOL     OW19669   5.650   2.456   1.322
 6257SOL    HW119670   5.581   2.426   1.388
 6257SOL    HW219671   5.685   2.376   1.272
 6258SOL     OW19672   4.503   0.946   2.957
 6258SOL    HW119673   4.408   0.939   2.988
 6258SOL    HW219674   4.561   0.974   3.034
 6259SOL     OW19675   2.886   1.624   1.382
 6259SOL    HW119676   2.973   1.600   1.425
 6259SOL    HW219677   2.902   1.679   1.300
 6260SOL     OW19678   3.126   4.016   0.497
 6260SOL    HW119679   3.094   4.111   0.495
 6260SOL    HW219680   3.224   4.013   0.478
 6261SOL     OW19681   3.435   6.612   6.801
 6261SOL    HW119682   3.492   6.681   6.844
 6261SOL    HW219683   3.444   6.618   6.702
 6262SOL     OW19684   1.847   4.204   0.816
 6262SOL    HW119685   1.855   4.142   0.894
 6262SOL    HW219686   1.883   4.159   0.734
 6263SOL     OW19687   0.362   5.864   6.361
 6263SOL    HW119688   0.389   5.942   6.304
 6263SOL    HW219689   0.305   5.896   6.436
 6264SOL     OW19690   1.798   0.387   1.162
 6264SOL    HW119691   1.801   0.343   1.251
 6264SOL    HW219692   1.890   0.385   1.121
 6265SOL     OW19693   3.028   4.586   1.436
 6265SOL    HW119694   3.094   4.533   1.489
 6265SOL    HW219695   3.044   4.683   1.450
 6266SOL     OW19696   4.075   0.804   4.606
 6266SOL    HW119697   4.091   0.861   4.687
 6266SOL    HW219698   4.098   0.856   4.524
 6267SOL     OW19699   3.358   6.878   0.337
 6267SOL    HW119700   3.379   6.782   0.316
 6267SOL    HW219701   3.315   6.921   0.257
 6268SOL     OW19702   2.584   6.092   3.064
 6268SOL    HW119703   2.610   6.042   3.146
 6268SOL    HW219704   2.544   6.180   3.090
 6269SOL     OW19705   6.521   5.712   1.995
 6269SOL    HW119706   6.494   5.623   2.031
 6269SOL    HW219707   6.612   5.706   1.953
 6270SOL     OW19708   1.851   0.173   6.019
 6270SOL    HW119709   1.838   0.270   6.040
 6270SOL    HW219710   1.931   0.138   6.068
 6271SOL     OW19711   6.647   2.819   6.008
 6271SOL    HW119712   6.630   2.742   5.946
 6271SOL    HW219713   6.597   2.804   6.094
 6272SOL     OW19714   0.801   3.039   4.687
 6272SOL    HW119715   0.821   3.125   4.735
 6272SOL    HW219716   0.858   2.966   4.725
 6273SOL     OW19717   1.454   0.556   2.146
 6273SOL    HW119718   1.391   0.615   2.094
 6273SOL    HW219719   1.452   0.464   2.108
 6274SOL     OW19720   2.515   5.600   5.372
 6274SOL    HW119721   2.489   5.652   5.453
 6274SOL    HW219722   2.602   5.554   5.388
 6275SOL     OW19723   2.893   6.613   5.740
 6275SOL    HW119724   2.907   6.709   5.713
 6275SOL    HW219725   2.808   6.579   5.700
 6276SOL     OW19726   1.625   5.181   3.305
 6276SOL    HW119727   1.652   5.183   3.401
 6276SOL    HW219728   1.635   5.272   3.265
 6277SOL     OW19729   4.348   2.434   2.873
 6277SOL    HW119730   4.424   2.476   2.823
 6277SOL    HW219731   4.293   2.378   2.811
 6278SOL     OW19732   4.719   0.364   5.036
 6278SOL    HW119733   4.799   0.331   4.985
 6278SOL    HW219734   4.749   0.401   5.124
 6279SOL     OW19735   3.673   1.176   0.288
 6279SOL    HW119736   3.696   1.150   0.382
 6279SOL    HW219737   3.732   1.127   0.224
 6280SOL     OW19738   0.364   2.847   5.370
 6280SOL    HW119739   0.412   2.909   5.308
 6280SOL    HW219740   0.426   2.820   5.445
 6281SOL     OW19741   2.649   6.337   5.812
 6281SOL    HW119742   2.667   6.332   5.714
 6281SOL    HW219743   2.650   6.432   5.841
 6282SOL     OW19744   1.351   6.989   4.626
 6282SOL    HW119745   1.275   6.971   4.688
 6282SOL    HW219746   1.414   0.028   4.668
 6283SOL     OW19747   6.316   2.736   4.989
 6283SOL    HW119748   6.326   2.828   4.952
 6283SOL    HW219749   6.237   2.733   5.050
 6284SOL     OW19750   1.748   5.507   4.989
 6284SOL    HW119751   1.751   5.422   5.042
 6284SOL    HW219752   1.839   5.528   4.954
 6285SOL     OW19753   1.410   3.076   4.108
 6285SOL    HW119754   1.504   3.087   4.139
 6285SOL    HW219755   1.385   3.153   4.049
 6286SOL     OW19756   6.707   1.296   3.957
 6286SOL    HW119757   6.804   1.319   3.957
 6286SOL    HW219758   6.658   1.357   3.896
 6287SOL     OW19759   4.670   4.257   2.458
 6287SOL    HW119760   4.637   4.169   2.491
 6287SOL    HW219761   4.703   4.247   2.364
 6288SOL     OW19762   5.521   3.839   1.848
 6288SOL    HW119763   5.453   3.833   1.921
 6288SOL    HW219764   5.594   3.902   1.874
 6289SOL     OW19765   1.652   2.694   3.424
 6289SOL    HW119766   1.617   2.650   3.341
 6289SOL    HW219767   1.725   2.637   3.462
 6290SOL     OW19768   5.634   4.033   4.360
 6290SOL    HW119769   5.654   3.946   4.406
 6290SOL    HW219770   5.553   4.074   4.402
 6291SOL     OW19771   4.074   3.735   3.790
 6291SOL    HW119772   4.055   3.773   3.699
 6291SOL    HW219773   4.171   3.715   3.798
 6292SOL     OW19774   0.353   2.894   3.101
 6292SOL    HW119775   0.362   2.880   3.200
 6292SOL    HW219776   0.281   2.835   3.066
 6293SOL     OW19777   4.283   6.878   0.183
 6293SOL    HW119778   4.369   6.841   0.146
 6293SOL    HW219779   4.264   6.966   0.140
 6294SOL     OW19780   3.654   5.164   3.261
 6294SOL    HW119781   3.729   5.159   3.326
 6294SOL    HW219782   3.623   5.072   3.239
 6295SOL     OW19783   5.361   5.791   5.527
 6295SOL    HW119784   5.287   5.858   5.523
 6295SOL    HW219785   5.388   5.764   5.435
 6296SOL     OW19786   6.810   0.517   3.701
 6296SOL    HW119787   6.765   0.550   3.784
 6296SOL    HW219788   6.899   0.561   3.691
 6297SOL     OW19789   5.381   0.035   5.492
 6297SOL    HW119790   5.299   0.083   5.461
 6297SOL    HW219791   5.450   0.035   5.419
 6298SOL     OW19792   1.682   3.731   6.197
 6298SOL    HW119793   1.689   3.800   6.125
 6298SOL    HW219794   1.587   3.703   6.208
 6299SOL     OW19795   6.348   2.314   6.337
 6299SOL    HW119796   6.356   2.326   6.436
 6299SOL    HW219797   6.264   2.264   6.316
 6300SOL     OW19798   5.497   0.609   4.749
 6300SOL    HW119799   5.504   0.565   4.659
 6300SOL    HW219800   5.509   0.707   4.739
 6301SOL     OW19801   2.634   6.829   1.277
 6301SOL    HW119802   2.548   6.875   1.302
 6301SOL    HW219803   2.701   6.898   1.250
 6302SOL     OW19804   1.075   1.252   3.515
 6302SOL    HW119805   1.019   1.260   3.598
 6302SOL    HW219806   1.135   1.173   3.522
 6303SOL     OW19807   2.572   0.648   5.010
 6303SOL    HW119808   2.629   0.730   5.005
 6303SOL    HW219809   2.560   0.621   5.105
 6304SOL     OW19810   2.792   0.763   1.317
 6304SOL    HW119811   2.855   0.839   1.307
 6304SOL    HW219812   2.818   0.709   1.398
 6305SOL     OW19813   6.469   6.518   1.240
 6305SOL    HW119814   6.474   6.554   1.333
 6305SOL    HW219815   6.413   6.579   1.184
 6306SOL     OW19816   0.174   3.449   4.490
 6306SOL    HW119817   0.243   3.509   4.531
 6306SOL    HW219818   0.162   3.474   4.394
 6307SOL     OW19819   3.083   4.958   5.655
 6307SOL    HW119820   3.121   4.955   5.748
 6307SOL    HW219821   3.093   5.051   5.619
 6308SOL     OW19822   1.568   1.511   5.170
 6308SOL    HW119823   1.572   1.592   5.229
 6308SOL    HW219824   1.646   1.510   5.108
 6309SOL     OW19825   4.866   3.395   3.706
 6309SOL    HW119826   4.818   3.327   3.761
 6309SOL    HW219827   4.876   3.479   3.759
 6310SOL     OW19828   2.202   4.703   3.894
 6310SOL    HW119829   2.141   4.734   3.821
 6310SOL    HW219830   2.172   4.613   3.927
 6311SOL     OW19831   6.271   0.658   4.960
 6311SOL    HW119832   6.349   0.704   4.917
 6311SOL    HW219833   6.304   0.579   5.012
 6312SOL     OW19834   4.441   4.968   5.924
 6312SOL    HW119835   4.450   4.869   5.931
 6312SOL    HW219836   4.522   5.006   5.880
 6313SOL     OW19837   1.563   6.323   3.444
 6313SOL    HW119838   1.499   6.249   3.466
 6313SOL    HW219839   1.603   6.306   3.353
 6314SOL     OW19840   3.660   6.330   1.909
 6314SOL    HW119841   3.712   6.269   1.849
 6314SOL    HW219842   3.623   6.406   1.856
 6315SOL     OW19843   4.593   2.717   6.945
 6315SOL    HW119844   4.592   2.796   7.007
 6315SOL    HW219845   4.611   2.748   6.852
 6316SOL     OW19846   4.397   2.097   6.424
 6316SOL    HW119847   4.483   2.068   6.465
 6316SOL    HW219848   4.349   2.157   6.487
 6317SOL     OW19849   5.499   6.527   3.144
 6317SOL    HW119850   5.596   6.529   3.121
 6317SOL    HW219851   5.466   6.432   3.140
 6318SOL     OW19852   2.428   2.185   5.210
 6318SOL    HW119853   2.472   2.169   5.121
 6318SOL    HW219854   2.470   2.125   5.278
 6319SOL     OW19855   0.418   3.133   3.836
 6319SOL    HW119856   0.438   3.199   3.908
 6319SOL    HW219857   0.391   3.182   3.753
 6320SOL     OW19858   6.117   4.437   3.539
 6320SOL    HW119859   6.023   4.415   3.514
 6320SOL    HW219860   6.179   4.399   3.471
 6321SOL     OW19861   2.838   5.234   0.946
 6321SOL    HW119862   2.797   5.316   0.984
 6321SOL    HW219863   2.865   5.250   0.851
 6322SOL     OW19864   1.444   2.204   5.981
 6322SOL    HW119865   1.375   2.137   6.010
 6322SOL    HW219866   1.535   2.164   5.992
 6323SOL     OW19867   3.350   2.559   1.699
 6323SOL    HW119868   3.309   2.472   1.673
 6323SOL    HW219869   3.449   2.555   1.684
 6324SOL     OW19870   4.276   0.635   5.621
 6324SOL    HW119871   4.305   0.706   5.685
 6324SOL    HW219872   4.177   0.638   5.611
 6325SOL     OW19873   1.523   2.755   1.941
 6325SOL    HW119874   1.605   2.712   1.979
 6325SOL    HW219875   1.512   2.846   1.981
 6326SOL     OW19876   5.240   5.876   1.071
 6326SOL    HW119877   5.271   5.969   1.053
 6326SOL    HW219878   5.141   5.870   1.058
 6327SOL     OW19879   6.912   6.688   5.227
 6327SOL    HW119880   6.862   6.684   5.314
 6327SOL    HW219881   6.939   6.782   5.208
 6328SOL     OW19882   2.157   3.715   6.699
 6328SOL    HW119883   2.212   3.723   6.782
 6328SOL    HW219884   2.084   3.648   6.714
 6329SOL     OW19885   0.866   1.494   3.678
 6329SOL    HW119886   0.882   1.524   3.584
 6329SOL    HW219887   0.771   1.462   3.687
 6330SOL     OW19888   4.790   0.832   0.597
 6330SOL    HW119889   4.786   0.926   0.563
 6330SOL    HW219890   4.882   0.811   0.628
 6331SOL     OW19891   6.796   2.610   0.720
 6331SOL    HW119892   6.696   2.610   0.724
 6331SOL    HW219893   6.832   2.548   0.790
 6332SOL     OW19894   6.064   5.171   1.893
 6332SOL    HW119895   6.086   5.076   1.914
 6332SOL    HW219896   6.140   5.230   1.921
 6333SOL     OW19897   3.857   5.145   3.478
 6333SOL    HW119898   3.866   5.211   3.553
 6333SOL    HW219899   3.858   5.052   3.514
 6334SOL     OW19900   2.134   0.020   2.989
 6334SOL    HW119901   2.072   6.982   2.946
 6334SOL    HW219902   2.192   0.062   2.920
 6335SOL     OW19903   5.748   2.030   0.211
 6335SOL    HW119904   5.830   2.082   0.232
 6335SOL    HW219905   5.688   2.084   0.152
 6336SOL     OW19906   0.204   2.430   4.912
 6336SOL    HW119907   0.284   2.372   4.929
 6336SOL    HW219908   0.206   2.509   4.973
 6337SOL     OW19909   5.145   3.607   6.466
 6337SOL    HW119910   5.075   3.577   6.403
 6337SOL    HW219911   5.208   3.531   6.485
 6338SOL     OW19912   2.926   2.288   2.554
 6338SOL    HW119913   2.863   2.293   2.477
 6338SOL    HW219914   3.020   2.297   2.520
 6339SOL     OW19915   0.432   2.494   3.524
 6339SOL    HW119916   0.507   2.466   3.464
 6339SOL    HW219917   0.369   2.418   3.537
 6340SOL     OW19918   2.393   5.584   3.177
 6340SOL    HW119919   2.348   5.590   3.266
 6340SOL    HW219920   2.492   5.595   3.189
 6341SOL     OW19921   6.707   4.513   3.854
 6341SOL    HW119922   6.729   4.421   3.887
 6341SOL    HW219923   6.776   4.578   3.887
 6342SOL     OW19924   2.504   2.429   2.347
 6342SOL    HW119925   2.601   2.407   2.339
 6342SOL    HW219926   2.481   2.439   2.444
 6343SOL     OW19927   5.028   2.632   0.282
 6343SOL    HW119928   4.954   2.698   0.289
 6343SOL    HW219929   4.999   2.554   0.226
 6344SOL     OW19930   6.591   3.050   5.917
 6344SOL    HW119931   6.627   3.109   5.990
 6344SOL    HW219932   6.599   2.954   5.945
 6345SOL     OW19933   4.395   1.285   2.524
 6345SOL    HW119934   4.381   1.306   2.428
 6345SOL    HW219935   4.493   1.293   2.546
 6346SOL     OW19936   6.497   3.622   3.284
 6346SOL    HW119937   6.566   3.586   3.347
 6346SOL    HW219938   6.445   3.545   3.246
 6347SOL     OW19939   3.118   0.370   1.544
 6347SOL    HW119940   3.071   0.444   1.592
 6347SOL    HW219941   3.052   0.319   1.489
 6348SOL     OW19942   0.693   3.810   4.994
 6348SOL    HW119943   0.674   3.859   4.909
 6348SOL    HW219944   0.674   3.869   5.072
 6349SOL     OW19945   2.563   1.197   2.036
 6349SOL    HW119946   2.567   1.112   2.088
 6349SOL    HW219947   2.656   1.232   2.021
 6350SOL     OW19948   1.668   5.249   3.581
 6350SOL    HW119949   1.741   5.233   3.647
 6350SOL    HW219950   1.579   5.234   3.624
 6351SOL     OW19951   6.606   2.623   2.273
 6351SOL    HW119952   6.528   2.603   2.213
 6351SOL    HW219953   6.572   2.652   2.362
 6352SOL     OW19954   1.226   5.415   3.642
 6352SOL    HW119955   1.275   5.449   3.561
 6352SOL    HW219956   1.277   5.442   3.724
 6353SOL     OW19957   6.657   0.534   6.477
 6353SOL    HW119958   6.680   0.472   6.552
 6353SOL    HW219959   6.735   0.593   6.458
 6354SOL     OW19960   0.839   6.572   2.662
 6354SOL    HW119961   0.840   6.608   2.756
 6354SOL    HW219962   0.830   6.648   2.598
 6355SOL     OW19963   0.585   4.107   4.828
 6355SOL    HW119964   0.512   4.045   4.858
 6355SOL    HW219965   0.632   4.143   4.909
 6356SOL     OW19966   5.385   4.510   2.134
 6356SOL    HW119967   5.344   4.419   2.124
 6356SOL    HW219968   5.321   4.570   2.182
 6357SOL     OW19969   4.529   2.547   0.263
 6357SOL    HW119970   4.475   2.479   0.314
 6357SOL    HW219971   4.560   2.618   0.326
 6358SOL     OW19972   6.909   2.475   4.451
 6358SOL    HW119973   6.854   2.396   4.424
 6358SOL    HW219974   7.005   2.457   4.430
 6359SOL     OW19975   6.949   0.265   5.167
 6359SOL    HW119976   0.012   0.299   5.193
 6359SOL    HW219977   6.901   0.336   5.115
 6360SOL     OW19978   2.495   4.588   3.896
 6360SOL    HW119979   2.557   4.666   3.886
 6360SOL    HW219980   2.402   4.621   3.914
 6361SOL     OW19981   4.662   6.603   6.605
 6361SOL    HW119982   4.632   6.697   6.585
 6361SOL    HW219983   4.689   6.596   6.701
 6362SOL     OW19984   6.046   4.823   0.098
 6362SOL    HW119985   6.051   4.849   0.002
 6362SOL    HW219986   6.130   4.775   0.124
 6363SOL     OW19987   2.057   5.719   3.928
 6363SOL    HW119988   2.050   5.776   3.846
 6363SOL    HW219989   2.101   5.770   4.001
 6364SOL     OW19990   3.048   1.970   5.617
 6364SOL    HW119991   3.125   1.989   5.678
 6364SOL    HW219992   3.081   1.957   5.524
 6365SOL     OW19993   4.819   6.904   4.332
 6365SOL    HW119994   4.776   6.987   4.296
 6365SOL    HW219995   4.875   6.928   4.411
 6366SOL     OW19996   0.851   5.534   5.257
 6366SOL    HW119997   0.799   5.454   5.288
 6366SOL    HW219998   0.928   5.549   5.318
 6367SOL     OW19999   4.964   0.454   3.915
 6367SOL    HW120000   5.059   0.459   3.946
 6367SOL    HW220001   4.907   0.418   3.989
 6368SOL     OW20002   3.291   0.075   4.139
 6368SOL    HW120003   3.285   0.063   4.040
 6368SOL    HW220004   3.381   0.110   4.163
 6369SOL     OW20005   3.227   4.959   4.180
 6369SOL    HW120006   3.241   4.975   4.082
 6369SOL    HW220007   3.131   4.972   4.203
 6370SOL     OW20008   0.714   2.451   2.320
 6370SOL    HW120009   0.779   2.421   2.390
 6370SOL    HW220010   0.630   2.397   2.326
 6371SOL     OW20011   4.903   3.054   3.410
 6371SOL    HW120012   4.953   3.100   3.483
 6371SOL    HW220013   4.832   2.996   3.449
 6372SOL     OW20014   3.328   6.790   1.753
 6372SOL    HW120015   3.377   6.839   1.825
 6372SOL    HW220016   3.245   6.749   1.791
 6373SOL     OW20017   6.477   4.425   5.102
 6373SOL    HW120018   6.538   4.350   5.124
 6373SOL    HW220019   6.471   4.488   5.180
 6374SOL     OW20020   3.510   3.458   3.923
 6374SOL    HW120021   3.544   3.545   3.958
 6374SOL    HW220022   3.444   3.475   3.849
 6375SOL     OW20023   0.952   1.218   3.025
 6375SOL    HW120024   0.871   1.208   2.967
 6375SOL    HW220025   1.034   1.197   2.972
 6376SOL     OW20026   0.124   1.499   5.265
 6376SOL    HW120027   0.162   1.473   5.176
 6376SOL    HW220028   0.024   1.507   5.257
 6377SOL     OW20029   6.702   0.497   5.853
 6377SOL    HW120030   6.637   0.488   5.929
 6377SOL    HW220031   6.657   0.474   5.767
 6378SOL     OW20032   5.097   4.752   3.499
 6378SOL    HW120033   5.039   4.716   3.426
 6378SOL    HW220034   5.045   4.818   3.554
 6379SOL     OW20035   1.846   5.046   4.262
 6379SOL    HW120036   1.850   5.064   4.360
 6379SOL    HW220037   1.872   5.128   4.212
 6380SOL     OW20038   1.198   1.346   5.544
 6380SOL    HW120039   1.257   1.266   5.547
 6380SOL    HW220040   1.110   1.321   5.503
 6381SOL     OW20041   2.998   3.119   2.239
 6381SOL    HW120042   2.992   3.219   2.236
 6381SOL    HW220043   2.915   3.082   2.283
 6382SOL     OW20044   1.502   2.644   6.708
 6382SOL    HW120045   1.598   2.672   6.698
 6382SOL    HW220046   1.443   2.724   6.700
 6383SOL     OW20047   1.969   2.056   3.979
 6383SOL    HW120048   2.044   2.046   4.045
 6383SOL    HW220049   2.006   2.085   3.891
 6384SOL     OW20050   6.440   4.897   1.686
 6384SOL    HW120051   6.436   4.967   1.757
 6384SOL    HW220052   6.348   4.882   1.650
 6385SOL     OW20053   6.399   4.574   4.287
 6385SOL    HW120054   6.429   4.536   4.199
 6385SOL    HW220055   6.314   4.530   4.314
 6386SOL     OW20056   2.389   4.891   0.567
 6386SOL    HW120057   2.473   4.896   0.622
 6386SOL    HW220058   2.398   4.819   0.499
 6387SOL     OW20059   0.902   2.028   6.441
 6387SOL    HW120060   0.940   2.005   6.351
 6387SOL    HW220061   0.964   2.092   6.487
 6388SOL     OW20062   3.910   4.498   1.331
 6388SOL    HW120063   3.966   4.535   1.257
 6388SOL    HW220064   3.966   4.443   1.392
 6389SOL     OW20065   0.606   6.311   2.278
 6389SOL    HW120066   0.635   6.247   2.349
 6389SOL    HW220067   0.536   6.269   2.220
 6390SOL     OW20068   0.064   2.647   3.171
 6390SOL    HW120069   0.117   2.648   3.086
 6390SOL    HW220070   0.104   2.714   3.234
 6391SOL     OW20071   3.116   1.048   0.363
 6391SOL    HW120072   3.035   1.033   0.420
 6391SOL    HW220073   3.095   1.021   0.269
 6392SOL     OW20074   1.945   6.486   4.104
 6392SOL    HW120075   1.991   6.492   4.192
 6392SOL    HW220076   2.011   6.503   4.031
 6393SOL     OW20077   5.684   6.645   1.694
 6393SOL    HW120078   5.730   6.682   1.613
 6393SOL    HW220079   5.585   6.655   1.684
 6394SOL     OW20080   2.664   5.030   0.980
 6394SOL    HW120081   2.717   5.113   0.960
 6394SOL    HW220082   2.703   4.985   1.061
 6395SOL     OW20083   5.995   1.637   1.038
 6395SOL    HW120084   6.077   1.599   1.080
 6395SOL    HW220085   5.915   1.588   1.072
 6396SOL     OW20086   5.599   2.836   6.205
 6396SOL    HW120087   5.610   2.845   6.304
 6396SOL    HW220088   5.503   2.846   6.181
 6397SOL     OW20089   6.661   1.827   6.912
 6397SOL    HW120090   6.681   1.924   6.929
 6397SOL    HW220091   6.743   1.773   6.933
 6398SOL     OW20092   3.335   0.995   1.697
 6398SOL    HW120093   3.346   1.031   1.790
 6398SOL    HW220094   3.394   1.047   1.635
 6399SOL     OW20095   1.418   5.636   6.605
 6399SOL    HW120096   1.336   5.618   6.659
 6399SOL    HW220097   1.438   5.556   6.547
 6400SOL     OW20098   2.269   5.903   3.169
 6400SOL    HW120099   2.187   5.919   3.115
 6400SOL    HW220100   2.291   5.806   3.171
 6401SOL     OW20101   0.167   4.445   3.938
 6401SOL    HW120102   0.214   4.475   3.854
 6401SOL    HW220103   0.126   4.355   3.922
 6402SOL     OW20104   2.607   0.816   2.489
 6402SOL    HW120105   2.519   0.837   2.530
 6402SOL    HW220106   2.593   0.762   2.406
 6403SOL     OW20107   0.846   5.684   6.706
 6403SOL    HW120108   0.752   5.716   6.699
 6403SOL    HW220109   0.847   5.586   6.727
 6404SOL     OW20110   4.108   1.652   3.473
 6404SOL    HW120111   4.102   1.651   3.373
 6404SOL    HW220112   4.201   1.627   3.501
 6405SOL     OW20113   1.950   1.872   3.010
 6405SOL    HW120114   2.008   1.953   3.027
 6405SOL    HW220115   1.880   1.867   3.081
 6406SOL     OW20116   1.382   1.505   3.344
 6406SOL    HW120117   1.473   1.472   3.320
 6406SOL    HW220118   1.382   1.605   3.345
 6407SOL     OW20119   3.187   6.820   4.216
 6407SOL    HW120120   3.127   6.807   4.137
 6407SOL    HW220121   3.232   6.909   4.209
 6408SOL     OW20122   6.061   2.630   0.010
 6408SOL    HW120123   5.990   2.562   7.019
 6408SOL    HW220124   6.051   2.707   6.975
 6409SOL     OW20125   6.790   4.167   2.774
 6409SOL    HW120126   6.844   4.200   2.852
 6409SOL    HW220127   6.750   4.078   2.795
 6410SOL     OW20128   2.089   1.821   0.721
 6410SOL    HW120129   2.104   1.751   0.651
 6410SOL    HW220130   1.996   1.813   0.756
 6411SOL     OW20131   0.778   2.332   3.196
 6411SOL    HW120132   0.696   2.302   3.148
 6411SOL    HW220133   0.772   2.431   3.213
 6412SOL     OW20134   0.026   3.202   5.382
 6412SOL    HW120135   0.115   3.242   5.360
 6412SOL    HW220136   7.020   3.240   5.468
 6413SOL     OW20137   6.117   4.922   2.015
 6413SOL    HW120138   6.148   4.845   1.959
 6413SOL    HW220139   6.174   4.929   2.096
 6414SOL     OW20140   5.903   1.130   1.731
 6414SOL    HW120141   5.941   1.221   1.715
 6414SOL    HW220142   5.833   1.135   1.802
 6415SOL     OW20143   2.938   2.247   2.879
 6415SOL    HW120144   2.938   2.227   2.781
 6415SOL    HW220145   2.848   2.282   2.905
 6416SOL     OW20146   1.031   0.982   6.475
 6416SOL    HW120147   1.002   0.889   6.495
 6416SOL    HW220148   1.069   0.987   6.382
 6417SOL     OW20149   0.874   6.149   3.000
 6417SOL    HW120150   0.910   6.190   2.916
 6417SOL    HW220151   0.905   6.203   3.079
 6418SOL     OW20152   6.837   5.082   2.558
 6418SOL    HW120153   6.826   5.099   2.460
 6418SOL    HW220154   6.876   4.991   2.572
 6419SOL     OW20155   3.430   5.547   1.874
 6419SOL    HW120156   3.525   5.516   1.869
 6419SOL    HW220157   3.377   5.507   1.799
 6420SOL     OW20158   3.181   3.394   6.175
 6420SOL    HW120159   3.115   3.346   6.117
 6420SOL    HW220160   3.187   3.489   6.146
 6421SOL     OW20161   6.257   1.605   1.148
 6421SOL    HW120162   6.252   1.548   1.230
 6421SOL    HW220163   6.300   1.692   1.171
 6422SOL     OW20164   6.894   0.083   3.475
 6422SOL    HW120165   6.861   0.143   3.547
 6422SOL    HW220166   6.945   0.007   3.516
 6423SOL     OW20167   4.903   4.163   1.294
 6423SOL    HW120168   4.977   4.095   1.290
 6423SOL    HW220169   4.942   4.254   1.301
 6424SOL     OW20170   6.754   4.280   6.264
 6424SOL    HW120171   6.656   4.260   6.259
 6424SOL    HW220172   6.803   4.200   6.300
 6425SOL     OW20173   6.868   4.774   3.540
 6425SOL    HW120174   6.873   4.766   3.639
 6425SOL    HW220175   6.960   4.766   3.501
 6426SOL     OW20176   0.923   2.850   4.278
 6426SOL    HW120177   0.841   2.864   4.334
 6426SOL    HW220178   0.961   2.760   4.296
 6427SOL     OW20179   1.525   3.681   6.829
 6427SOL    HW120180   1.608   3.737   6.836
 6427SOL    HW220181   1.445   3.739   6.841
 6428SOL     OW20182   6.560   3.788   1.344
 6428SOL    HW120183   6.528   3.728   1.417
 6428SOL    HW220184   6.588   3.876   1.382
 6429SOL     OW20185   1.575   1.014   4.849
 6429SOL    HW120186   1.553   0.970   4.762
 6429SOL    HW220187   1.499   1.071   4.879
 6430SOL     OW20188   4.592   0.689   1.818
 6430SOL    HW120189   4.527   0.713   1.746
 6430SOL    HW220190   4.584   0.754   1.894
 6431SOL     OW20191   5.691   6.900   3.919
 6431SOL    HW120192   5.622   6.964   3.951
 6431SOL    HW220193   5.648   6.814   3.892
 6432SOL     OW20194   4.193   4.413   0.342
 6432SOL    HW120195   4.264   4.397   0.273
 6432SOL    HW220196   4.184   4.511   0.358
 6433SOL     OW20197   3.152   4.910   1.212
 6433SOL    HW120198   3.098   4.958   1.143
 6433SOL    HW220199   3.215   4.975   1.256
 6434SOL     OW20200   1.400   3.838   1.223
 6434SOL    HW120201   1.470   3.772   1.250
 6434SOL    HW220202   1.431   3.889   1.143
 6435SOL     OW20203   3.613   5.330   0.047
 6435SOL    HW120204   3.603   5.290   0.138
 6435SOL    HW220205   3.617   5.430   0.055
 6436SOL     OW20206   1.880   3.189   3.560
 6436SOL    HW120207   1.824   3.114   3.527
 6436SOL    HW220208   1.904   3.249   3.483
 6437SOL     OW20209   1.701   1.623   0.070
 6437SOL    HW120210   1.635   1.695   0.046
 6437SOL    HW220211   1.652   1.539   0.090
 6438SOL     OW20212   0.378   4.078   5.325
 6438SOL    HW120213   0.397   4.168   5.364
 6438SOL    HW220214   0.279   4.068   5.311
 6439SOL     OW20215   0.674   6.592   0.636
 6439SOL    HW120216   0.577   6.572   0.618
 6439SOL    HW220217   0.717   6.512   0.679
 6440SOL     OW20218   2.299   2.027   1.956
 6440SOL    HW120219   2.334   1.994   2.044
 6440SOL    HW220220   2.200   2.040   1.962
 6441SOL     OW20221   1.407   0.734   2.385
 6441SOL    HW120222   1.434   0.694   2.297
 6441SOL    HW220223   1.315   0.703   2.409
 6442SOL     OW20224   2.721   1.649   4.065
 6442SOL    HW120225   2.663   1.567   4.068
 6442SOL    HW220226   2.679   1.720   4.120
 6443SOL     OW20227   3.329   3.057   0.877
 6443SOL    HW120228   3.296   2.963   0.884
 6443SOL    HW220229   3.424   3.062   0.907
 6444SOL     OW20230   0.326   2.481   3.141
 6444SOL    HW120231   0.331   2.566   3.194
 6444SOL    HW220232   0.386   2.488   3.062
 6445SOL     OW20233   4.314   2.411   5.355
 6445SOL    HW120234   4.288   2.472   5.279
 6445SOL    HW220235   4.247   2.338   5.363
 6446SOL     OW20236   0.245   1.359   5.926
 6446SOL    HW120237   0.289   1.361   6.016
 6446SOL    HW220238   0.159   1.409   5.930
 6447SOL     OW20239   0.551   5.859   2.319
 6447SOL    HW120240   0.646   5.867   2.289
 6447SOL    HW220241   0.505   5.788   2.266
 6448SOL     OW20242   6.400   4.124   2.236
 6448SOL    HW120243   6.368   4.140   2.329
 6448SOL    HW220244   6.494   4.158   2.227
 6449SOL     OW20245   3.843   4.003   1.633
 6449SOL    HW120246   3.844   4.031   1.537
 6449SOL    HW220247   3.843   4.084   1.692
 6450SOL     OW20248   6.473   2.872   1.842
 6450SOL    HW120249   6.565   2.901   1.817
 6450SOL    HW220250   6.472   2.774   1.860
 6451SOL     OW20251   3.115   6.448   5.635
 6451SOL    HW120252   3.175   6.446   5.714
 6451SOL    HW220253   3.033   6.502   5.656
 6452SOL     OW20254   3.915   6.857   4.873
 6452SOL    HW120255   3.989   6.915   4.906
 6452SOL    HW220256   3.829   6.887   4.914
 6453SOL     OW20257   1.281   6.942   6.997
 6453SOL    HW120258   1.306   6.874   0.038
 6453SOL    HW220259   1.209   6.904   6.938
 6454SOL     OW20260   2.735   1.342   3.809
 6454SOL    HW120261   2.824   1.382   3.787
 6454SOL    HW220262   2.685   1.404   3.870
 6455SOL     OW20263   0.806   2.377   4.621
 6455SOL    HW120264   0.730   2.436   4.648
 6455SOL    HW220265   0.889   2.407   4.667
 6456SOL     OW20266   1.440   0.410   3.296
 6456SOL    HW120267   1.480   0.472   3.363
 6456SOL    HW220268   1.483   0.426   3.207
 6457SOL     OW20269   5.639   1.702   1.185
 6457SOL    HW120270   5.636   1.605   1.207
 6457SOL    HW220271   5.548   1.741   1.196
 6458SOL     OW20272   0.756   6.315   2.679
 6458SOL    HW120273   0.743   6.258   2.598
 6458SOL    HW220274   0.800   6.401   2.652
 6459SOL     OW20275   5.488   5.494   0.433
 6459SOL    HW120276   5.530   5.410   0.401
 6459SOL    HW220277   5.509   5.507   0.530
 6460SOL     OW20278   4.040   4.877   6.520
 6460SOL    HW120279   3.990   4.962   6.502
 6460SOL    HW220280   4.033   4.855   6.618
 6461SOL     OW20281   2.925   5.535   5.013
 6461SOL    HW120282   2.883   5.491   4.934
 6461SOL    HW220283   2.979   5.468   5.064
 6462SOL     OW20284   2.179   3.179   5.182
 6462SOL    HW120285   2.176   3.245   5.107
 6462SOL    HW220286   2.239   3.103   5.158
 6463SOL     OW20287   2.942   4.803   6.373
 6463SOL    HW120288   2.907   4.738   6.441
 6463SOL    HW220289   2.930   4.765   6.281
 6464SOL     OW20290   0.632   4.786   4.053
 6464SOL    HW120291   0.615   4.699   4.008
 6464SOL    HW220292   0.666   4.853   3.987
 6465SOL     OW20293   5.826   2.245   3.517
 6465SOL    HW120294   5.897   2.197   3.466
 6465SOL    HW220295   5.810   2.335   3.476
 6466SOL     OW20296   6.718   2.902   4.915
 6466SOL    HW120297   6.741   2.926   5.009
 6466SOL    HW220298   6.690   2.806   4.910
 6467SOL     OW20299   2.325   1.253   6.518
 6467SOL    HW120300   2.354   1.316   6.446
 6467SOL    HW220301   2.270   1.179   6.478
 6468SOL     OW20302   3.773   6.199   1.354
 6468SOL    HW120303   3.781   6.111   1.400
 6468SOL    HW220304   3.861   6.246   1.355
 6469SOL     OW20305   5.811   1.085   5.495
 6469SOL    HW120306   5.760   1.171   5.499
 6469SOL    HW220307   5.899   1.099   5.451
 6470SOL     OW20308   6.793   5.535   6.297
 6470SOL    HW120309   6.834   5.447   6.274
 6470SOL    HW220310   6.723   5.522   6.368
 6471SOL     OW20311   6.922   5.767   6.253
 6471SOL    HW120312   6.893   5.672   6.255
 6471SOL    HW220313   7.018   5.772   6.226
 6472SOL     OW20314   1.061   5.594   0.948
 6472SOL    HW120315   0.967   5.619   0.928
 6472SOL    HW220316   1.114   5.677   0.969
 6473SOL     OW20317   2.406   1.417   5.770
 6473SOL    HW120318   2.432   1.325   5.799
 6473SOL    HW220319   2.425   1.482   5.844
 6474SOL     OW20320   1.819   4.148   5.979
 6474SOL    HW120321   1.721   4.163   5.970
 6474SOL    HW220322   1.862   4.155   5.888
 6475SOL     OW20323   6.349   6.077   3.928
 6475SOL    HW120324   6.366   6.152   3.864
 6475SOL    HW220325   6.434   6.051   3.973
 6476SOL     OW20326   5.003   4.149   2.347
 6476SOL    HW120327   4.928   4.160   2.282
 6476SOL    HW220328   5.022   4.236   2.391
 6477SOL     OW20329   6.509   4.821   0.310
 6477SOL    HW120330   6.557   4.806   0.396
 6477SOL    HW220331   6.575   4.831   0.235
 6478SOL     OW20332   3.398   5.827   2.075
 6478SOL    HW120333   3.412   5.792   2.167
 6478SOL    HW220334   3.389   5.751   2.011
 6479SOL     OW20335   4.195   4.961   2.447
 6479SOL    HW120336   4.227   4.982   2.539
 6479SOL    HW220337   4.114   5.016   2.426
 6480SOL     OW20338   3.829   2.836   5.852
 6480SOL    HW120339   3.871   2.917   5.893
 6480SOL    HW220340   3.763   2.796   5.917
 6481SOL     OW20341   3.324   2.299   1.615
 6481SOL    HW120342   3.372   2.212   1.610
 6481SOL    HW220343   3.228   2.285   1.591
 6482SOL     OW20344   6.826   0.618   6.994
 6482SOL    HW120345   6.790   0.699   6.948
 6482SOL    HW220346   6.923   0.607   6.973
 6483SOL     OW20347   2.647   6.331   2.306
 6483SOL    HW120348   2.682   6.239   2.287
 6483SOL    HW220349   2.677   6.359   2.397
 6484SOL     OW20350   4.422   6.998   2.426
 6484SOL    HW120351   4.425   0.059   2.472
 6484SOL    HW220352   4.488   6.936   2.467
 6485SOL     OW20353   1.556   3.187   3.544
 6485SOL    HW120354   1.581   3.260   3.607
 6485SOL    HW220355   1.611   3.105   3.565
 6486SOL     OW20356   1.253   4.178   3.883
 6486SOL    HW120357   1.267   4.180   3.785
 6486SOL    HW220358   1.164   4.136   3.903
 6487SOL     OW20359   6.337   5.779   4.587
 6487SOL    HW120360   6.409   5.744   4.648
 6487SOL    HW220361   6.377   5.801   4.498
 6488SOL     OW20362   3.343   5.865   5.570
 6488SOL    HW120363   3.323   5.942   5.631
 6488SOL    HW220364   3.295   5.877   5.483
 6489SOL     OW20365   1.992   2.807   6.765
 6489SOL    HW120366   2.020   2.902   6.779
 6489SOL    HW220367   2.055   2.763   6.701
 6490SOL     OW20368   3.894   2.407   0.398
 6490SOL    HW120369   3.917   2.459   0.316
 6490SOL    HW220370   3.920   2.311   0.385
 6491SOL     OW20371   4.020   1.518   6.825
 6491SOL    HW120372   4.052   1.423   6.818
 6491SOL    HW220373   4.083   1.570   6.882
 6492SOL     OW20374   5.944   6.896   0.038
 6492SOL    HW120375   5.851   6.884   0.003
 6492SOL    HW220376   6.010   6.880   6.992
 6493SOL     OW20377   1.777   6.378   5.261
 6493SOL    HW120378   1.741   6.339   5.345
 6493SOL    HW220379   1.877   6.374   5.262
 6494SOL     OW20380   0.418   0.347   3.155
 6494SOL    HW120381   0.352   0.317   3.087
 6494SOL    HW220382   0.490   0.400   3.111
 6495SOL     OW20383   4.919   5.731   3.809
 6495SOL    HW120384   4.996   5.767   3.863
 6495SOL    HW220385   4.933   5.633   3.793
 6496SOL     OW20386   0.039   6.203   2.134
 6496SOL    HW120387   6.993   6.145   2.099
 6496SOL    HW220388   0.060   6.176   2.228
 6497SOL     OW20389   2.569   3.376   0.949
 6497SOL    HW120390   2.639   3.311   0.978
 6497SOL    HW220391   2.479   3.343   0.977
 6498SOL     OW20392   2.346   5.027   3.871
 6498SOL    HW120393   2.371   5.113   3.916
 6498SOL    HW220394   2.407   4.954   3.901
 6499SOL     OW20395   5.040   0.692   5.146
 6499SOL    HW120396   5.056   0.715   5.050
 6499SOL    HW220397   5.118   0.723   5.201
 6500SOL     OW20398   6.153   3.988   3.446
 6500SOL    HW120399   6.138   3.990   3.544
 6500SOL    HW220400   6.217   3.914   3.423
 6501SOL     OW20401   6.317   3.211   1.356
 6501SOL    HW120402   6.303   3.257   1.268
 6501SOL    HW220403   6.284   3.270   1.430
 6502SOL     OW20404   0.331   4.252   3.717
 6502SOL    HW120405   0.382   4.189   3.776
 6502SOL    HW220406   0.237   4.219   3.709
 6503SOL     OW20407   5.648   6.535   3.786
 6503SOL    HW120408   5.561   6.536   3.737
 6503SOL    HW220409   5.708   6.606   3.749
 6504SOL     OW20410   4.076   6.741   6.189
 6504SOL    HW120411   4.136   6.673   6.147
 6504SOL    HW220412   3.995   6.753   6.131
 6505SOL     OW20413   6.134   4.448   1.039
 6505SOL    HW120414   6.230   4.423   1.033
 6505SOL    HW220415   6.102   4.478   0.950
 6506SOL     OW20416   0.999   3.049   1.126
 6506SOL    HW120417   0.907   3.011   1.134
 6506SOL    HW220418   1.039   3.061   1.217
 6507SOL     OW20419   1.356   5.918   0.366
 6507SOL    HW120420   1.430   5.858   0.397
 6507SOL    HW220421   1.298   5.868   0.301
 6508SOL     OW20422   2.433   1.775   3.566
 6508SOL    HW120423   2.485   1.690   3.573
 6508SOL    HW220424   2.349   1.758   3.515
 6509SOL     OW20425   1.552   2.699   4.778
 6509SOL    HW120426   1.514   2.789   4.801
 6509SOL    HW220427   1.559   2.690   4.679
 6510SOL     OW20428   0.184   5.035   6.413
 6510SOL    HW120429   0.206   4.968   6.484
 6510SOL    HW220430   0.088   5.025   6.387
 6511SOL     OW20431   6.087   0.331   4.948
 6511SOL    HW120432   6.178   0.294   4.965
 6511SOL    HW220433   6.083   0.370   4.856
 6512SOL     OW20434   4.865   6.979   3.026
 6512SOL    HW120435   4.908   6.938   3.107
 6512SOL    HW220436   4.905   6.940   2.943
 6513SOL     OW20437   3.408   6.618   4.220
 6513SOL    HW120438   3.375   6.524   4.234
 6513SOL    HW220439   3.331   6.677   4.199
 6514SOL     OW20440   5.047   0.130   4.365
 6514SOL    HW120441   5.028   0.073   4.445
 6514SOL    HW220442   4.987   0.103   4.289
 6515SOL     OW20443   6.922   4.838   4.104
 6515SOL    HW120444   7.014   4.798   4.106
 6515SOL    HW220445   6.916   4.905   4.030
 6516SOL     OW20446   0.233   1.513   6.689
 6516SOL    HW120447   0.261   1.558   6.603
 6516SOL    HW220448   0.253   1.573   6.766
 6517SOL     OW20449   6.833   1.709   0.484
 6517SOL    HW120450   6.800   1.634   0.427
 6517SOL    HW220451   6.909   1.755   0.438
 6518SOL     OW20452   0.799   6.203   0.153
 6518SOL    HW120453   0.751   6.130   0.202
 6518SOL    HW220454   0.892   6.211   0.189
 6519SOL     OW20455   2.675   1.722   3.805
 6519SOL    HW120456   2.690   1.719   3.904
 6519SOL    HW220457   2.740   1.786   3.764
 6520SOL     OW20458   6.393   5.724   3.091
 6520SOL    HW120459   6.318   5.770   3.043
 6520SOL    HW220460   6.375   5.626   3.094
 6521SOL     OW20461   1.228   1.053   4.327
 6521SOL    HW120462   1.227   0.974   4.266
 6521SOL    HW220463   1.323   1.075   4.352
 6522SOL     OW20464   2.318   5.547   6.669
 6522SOL    HW120465   2.274   5.457   6.677
 6522SOL    HW220466   2.401   5.539   6.615
 6523SOL     OW20467   2.840   1.358   6.461
 6523SOL    HW120468   2.758   1.369   6.516
 6523SOL    HW220469   2.903   1.433   6.479
 6524SOL     OW20470   3.718   3.309   4.123
 6524SOL    HW120471   3.763   3.223   4.098
 6524SOL    HW220472   3.620   3.294   4.137
 6525SOL     OW20473   1.430   2.615   2.686
 6525SOL    HW120474   1.411   2.690   2.750
 6525SOL    HW220475   1.375   2.627   2.604
 6526SOL     OW20476   0.851   6.748   5.233
 6526SOL    HW120477   0.948   6.736   5.209
 6526SOL    HW220478   0.844   6.798   5.319
 6527SOL     OW20479   1.362   1.170   4.929
 6527SOL    HW120480   1.297   1.101   4.960
 6527SOL    HW220481   1.318   1.228   4.860
 6528SOL     OW20482   0.124   0.825   4.215
 6528SOL    HW120483   0.217   0.802   4.243
 6528SOL    HW220484   0.116   0.813   4.116
 6529SOL     OW20485   5.748   1.813   3.094
 6529SOL    HW120486   5.808   1.848   3.023
 6529SOL    HW220487   5.668   1.769   3.052
 6530SOL     OW20488   6.626   3.077   0.740
 6530SOL    HW120489   6.614   2.983   0.707
 6530SOL    HW220490   6.629   3.077   0.840
 6531SOL     OW20491   5.579   2.459   3.963
 6531SOL    HW120492   5.602   2.383   4.024
 6531SOL    HW220493   5.557   2.540   4.017
 6532SOL     OW20494   6.437   1.534   0.122
 6532SOL    HW120495   6.512   1.581   0.170
 6532SOL    HW220496   6.475   1.456   0.071
 6533SOL     OW20497   5.690   6.530   1.079
 6533SOL    HW120498   5.643   6.609   1.119
 6533SOL    HW220499   5.639   6.499   0.998
 6534SOL     OW20500   2.531   3.933   1.160
 6534SOL    HW120501   2.602   3.999   1.136
 6534SOL    HW220502   2.563   3.841   1.141
 6535SOL     OW20503   0.285   2.635   5.052
 6535SOL    HW120504   0.258   2.699   4.980
 6535SOL    HW220505   0.235   2.657   5.136
 6536SOL     OW20506   6.177   2.610   6.578
 6536SOL    HW120507   6.190   2.512   6.590
 6536SOL    HW220508   6.079   2.631   6.580
 6537SOL     OW20509   6.596   6.722   6.584
 6537SOL    HW120510   6.614   6.667   6.502
 6537SOL    HW220511   6.649   6.686   6.661
 6538SOL     OW20512   3.915   3.976   0.276
 6538SOL    HW120513   4.015   3.989   0.272
 6538SOL    HW220514   3.892   3.883   0.248
 6539SOL     OW20515   2.173   2.032   6.537
 6539SOL    HW120516   2.222   2.072   6.460
 6539SOL    HW220517   2.102   2.095   6.568
 6540SOL     OW20518   3.951   1.813   4.419
 6540SOL    HW120519   3.936   1.906   4.455
 6540SOL    HW220520   3.942   1.814   4.320
 6541SOL     OW20521   2.894   2.203   5.035
 6541SOL    HW120522   2.836   2.257   4.974
 6541SOL    HW220523   2.987   2.240   5.033
 6542SOL     OW20524   6.108   5.086   3.152
 6542SOL    HW120525   6.119   5.026   3.072
 6542SOL    HW220526   6.115   5.031   3.235
 6543SOL     OW20527   6.247   5.080   6.990
 6543SOL    HW120528   6.160   5.107   6.949
 6543SOL    HW220529   6.248   5.108   0.058
 6544SOL     OW20530   0.270   6.329   4.210
 6544SOL    HW120531   0.278   6.388   4.130
 6544SOL    HW220532   0.230   6.380   4.286
 6545SOL     OW20533   4.985   1.246   6.211
 6545SOL    HW120534   4.907   1.291   6.256
 6545SOL    HW220535   4.953   1.163   6.165
 6546SOL     OW20536   4.462   4.221   6.182
 6546SOL    HW120537   4.377   4.253   6.140
 6546SOL    HW220538   4.450   4.127   6.216
 6547SOL     OW20539   4.381   2.051   6.153
 6547SOL    HW120540   4.401   2.073   6.249
 6547SOL    HW220541   4.380   2.135   6.099
 6548SOL     OW20542   0.475   4.529   6.226
 6548SOL    HW120543   0.536   4.469   6.277
 6548SOL    HW220544   0.474   4.620   6.269
 6549SOL     OW20545   4.117   2.067   1.437
 6549SOL    HW120546   4.118   2.029   1.345
 6549SOL    HW220547   4.050   2.141   1.442
 6550SOL     OW20548   0.435   5.789   3.529
 6550SOL    HW120549   0.472   5.716   3.587
 6550SOL    HW220550   0.446   5.764   3.433
 6551SOL     OW20551   2.444   4.443   1.783
 6551SOL    HW120552   2.409   4.483   1.698
 6551SOL    HW220553   2.423   4.345   1.785
 6552SOL     OW20554   2.221   5.773   5.277
 6552SOL    HW120555   2.179   5.818   5.197
 6552SOL    HW220556   2.179   5.809   5.361
 6553SOL     OW20557   0.336   2.983   1.423
 6553SOL    HW120558   0.401   3.040   1.473
 6553SOL    HW220559   0.335   3.010   1.327
 6554SOL     OW20560   5.929   1.487   5.701
 6554SOL    HW120561   5.902   1.393   5.720
 6554SOL    HW220562   5.855   1.533   5.652
 6555SOL     OW20563   1.683   0.718   2.170
 6555SOL    HW120564   1.628   0.636   2.185
 6555SOL    HW220565   1.743   0.705   2.091
 6556SOL     OW20566   4.788   4.552   4.908
 6556SOL    HW120567   4.871   4.596   4.941
 6556SOL    HW220568   4.810   4.460   4.876
 6557SOL     OW20569   5.804   5.838   0.476
 6557SOL    HW120570   5.835   5.754   0.432
 6557SOL    HW220571   5.879   5.905   0.475
 6558SOL     OW20572   6.346   5.678   0.839
 6558SOL    HW120573   6.441   5.708   0.842
 6558SOL    HW220574   6.343   5.582   0.808
 6559SOL     OW20575   4.813   3.605   1.304
 6559SOL    HW120576   4.884   3.632   1.239
 6559SOL    HW220577   4.803   3.505   1.303
 6560SOL     OW20578   3.656   2.913   1.289
 6560SOL    HW120579   3.733   2.897   1.350
 6560SOL    HW220580   3.689   2.932   1.197
 6561SOL     OW20581   4.142   3.660   2.251
 6561SOL    HW120582   4.140   3.674   2.152
 6561SOL    HW220583   4.149   3.748   2.297
 6562SOL     OW20584   6.639   4.537   6.128
 6562SOL    HW120585   6.668   4.451   6.170
 6562SOL    HW220586   6.545   4.558   6.155
 6563SOL     OW20587   0.486   5.793   6.896
 6563SOL    HW120588   0.448   5.849   6.970
 6563SOL    HW220589   0.565   5.742   6.930
 6564SOL     OW20590   1.092   3.608   2.178
 6564SOL    HW120591   1.191   3.613   2.191
 6564SOL    HW220592   1.072   3.574   2.085
 6565SOL     OW20593   5.649   2.733   5.064
 6565SOL    HW120594   5.668   2.639   5.036
 6565SOL    HW220595   5.735   2.780   5.084
 6566SOL     OW20596   3.382   0.292   1.443
 6566SOL    HW120597   3.424   0.376   1.409
 6566SOL    HW220598   3.292   0.312   1.481
 6567SOL     OW20599   5.103   2.943   1.279
 6567SOL    HW120600   5.021   2.969   1.329
 6567SOL    HW220601   5.161   2.886   1.337
 6568SOL     OW20602   4.689   4.796   1.896
 6568SOL    HW120603   4.709   4.736   1.974
 6568SOL    HW220604   4.736   4.762   1.815
 6569SOL     OW20605   2.388   5.243   0.825
 6569SOL    HW120606   2.379   5.343   0.824
 6569SOL    HW220607   2.400   5.210   0.731
 6570SOL     OW20608   4.920   7.014   2.034
 6570SOL    HW120609   4.853   0.047   1.990
 6570SOL    HW220610   5.004   7.013   1.980
 6571SOL     OW20611   2.429   6.313   3.089
 6571SOL    HW120612   2.361   6.375   3.051
 6571SOL    HW220613   2.383   6.240   3.139
 6572SOL     OW20614   6.013   4.318   5.463
 6572SOL    HW120615   6.084   4.248   5.455
 6572SOL    HW220616   6.042   4.387   5.530
 6573SOL     OW20617   3.677   0.722   2.510
 6573SOL    HW120618   3.601   0.728   2.576
 6573SOL    HW220619   3.763   0.737   2.558
 6574SOL     OW20620   2.341   6.340   1.945
 6574SOL    HW120621   2.246   6.348   1.976
 6574SOL    HW220622   2.342   6.331   1.845
 6575SOL     OW20623   0.633   1.223   2.087
 6575SOL    HW120624   0.619   1.182   1.997
 6575SOL    HW220625   0.724   1.262   2.092
 6576SOL     OW20626   0.976   6.211   6.674
 6576SOL    HW120627   0.917   6.157   6.615
 6576SOL    HW220628   1.070   6.177   6.668
 6577SOL     OW20629   0.537   1.647   3.583
 6577SOL    HW120630   0.452   1.657   3.532
 6577SOL    HW220631   0.533   1.562   3.637
 6578SOL     OW20632   6.212   5.400   3.478
 6578SOL    HW120633   6.158   5.345   3.413
 6578SOL    HW220634   6.186   5.376   3.571
 6579SOL     OW20635   6.806   3.696   3.804
 6579SOL    HW120636   6.828   3.600   3.784
 6579SOL    HW220637   6.889   3.751   3.798
 6580SOL     OW20638   5.936   0.905   1.223
 6580SOL    HW120639   5.915   0.956   1.139
 6580SOL    HW220640   6.028   0.929   1.254
 6581SOL     OW20641   3.634   1.251   5.324
 6581SOL    HW120642   3.623   1.332   5.267
 6581SOL    HW220643   3.731   1.223   5.325
 6582SOL     OW20644   1.131   7.008   2.503
 6582SOL    HW120645   1.213   6.976   2.549
 6582SOL    HW220646   1.141   6.999   2.404
 6583SOL     OW20647   5.167   1.887   6.086
 6583SOL    HW120648   5.166   1.978   6.126
 6583SOL    HW220649   5.109   1.826   6.140
 6584SOL     OW20650   5.987   1.944   6.373
 6584SOL    HW120651   6.016   1.996   6.454
 6584SOL    HW220652   5.893   1.967   6.350
 6585SOL     OW20653   6.979   1.574   0.168
 6585SOL    HW120654   6.978   1.475   0.185
 6585SOL    HW220655   0.043   1.601   0.138
 6586SOL     OW20656   6.573   2.625   5.655
 6586SOL    HW120657   6.571   2.529   5.628
 6586SOL    HW220658   6.546   2.634   5.751
 6587SOL     OW20659   2.520   5.686   4.361
 6587SOL    HW120660   2.573   5.609   4.395
 6587SOL    HW220661   2.579   5.766   4.352
 6588SOL     OW20662   1.640   4.185   1.102
 6588SOL    HW120663   1.643   4.209   1.199
 6588SOL    HW220664   1.713   4.119   1.082
 6589SOL     OW20665   4.497   0.517   6.572
 6589SOL    HW120666   4.515   0.573   6.654
 6589SOL    HW220667   4.566   0.537   6.503
 6590SOL     OW20668   0.212   1.568   4.621
 6590SOL    HW120669   0.288   1.618   4.663
 6590SOL    HW220670   0.128   1.621   4.630
 6591SOL     OW20671   5.859   6.672   2.807
 6591SOL    HW120672   5.905   6.706   2.724
 6591SOL    HW220673   5.837   6.750   2.866
 6592SOL     OW20674   4.415   0.306   4.527
 6592SOL    HW120675   4.355   0.247   4.581
 6592SOL    HW220676   4.361   0.352   4.457
 6593SOL     OW20677   2.602   2.375   3.714
 6593SOL    HW120678   2.557   2.455   3.755
 6593SOL    HW220679   2.689   2.358   3.760
 6594SOL     OW20680   4.478   0.924   0.075
 6594SOL    HW120681   4.529   0.851   0.028
 6594SOL    HW220682   4.509   0.931   0.169
 6595SOL     OW20683   1.249   3.961   1.432
 6595SOL    HW120684   1.304   3.957   1.348
 6595SOL    HW220685   1.181   4.034   1.424
 6596SOL     OW20686   4.009   0.495   5.872
 6596SOL    HW120687   4.002   0.557   5.950
 6596SOL    HW220688   3.996   0.546   5.787
 6597SOL     OW20689   1.004   6.420   4.651
 6597SOL    HW120690   1.046   6.434   4.562
 6597SOL    HW220691   0.908   6.450   4.648
 6598SOL     OW20692   1.678   5.244   5.129
 6598SOL    HW120693   1.626   5.287   5.203
 6598SOL    HW220694   1.619   5.232   5.049
 6599SOL     OW20695   4.315   4.564   6.037
 6599SOL    HW120696   4.378   4.641   6.027
 6599SOL    HW220697   4.304   4.541   6.134
 6600SOL     OW20698   5.255   4.743   4.884
 6600SOL    HW120699   5.353   4.749   4.900
 6600SOL    HW220700   5.223   4.824   4.835
 6601SOL     OW20701   0.280   0.416   0.163
 6601SOL    HW120702   0.346   0.417   0.088
 6601SOL    HW220703   0.217   0.493   0.154
 6602SOL     OW20704   0.481   2.661   0.946
 6602SOL    HW120705   0.393   2.677   0.901
 6602SOL    HW220706   0.471   2.587   1.012
 6603SOL     OW20707   2.113   3.353   4.111
 6603SOL    HW120708   2.162   3.327   4.195
 6603SOL    HW220709   2.081   3.271   4.065
 6604SOL     OW20710   2.621   5.902   1.768
 6604SOL    HW120711   2.613   5.802   1.763
 6604SOL    HW220712   2.680   5.926   1.846
 6605SOL     OW20713   5.150   5.375   0.513
 6605SOL    HW120714   5.174   5.447   0.448
 6605SOL    HW220715   5.149   5.413   0.606
 6606SOL     OW20716   4.980   0.485   2.403
 6606SOL    HW120717   4.925   0.460   2.323
 6606SOL    HW220718   5.003   0.403   2.455
 6607SOL     OW20719   1.598   1.477   2.000
 6607SOL    HW120720   1.614   1.554   2.061
 6607SOL    HW220721   1.513   1.430   2.026
 6608SOL     OW20722   5.376   3.312   2.785
 6608SOL    HW120723   5.372   3.398   2.734
 6608SOL    HW220724   5.360   3.330   2.882
 6609SOL     OW20725   5.305   0.636   6.996
 6609SOL    HW120726   5.208   0.618   7.016
 6609SOL    HW220727   5.313   0.677   6.906
 6610SOL     OW20728   1.790   0.339   7.007
 6610SOL    HW120729   1.747   0.330   0.069
 6610SOL    HW220730   1.884   0.369   7.018
 6611SOL     OW20731   6.623   2.777   3.252
 6611SOL    HW120732   6.559   2.708   3.287
 6611SOL    HW220733   6.709   2.772   3.303
 6612SOL     OW20734   1.593   5.185   6.766
 6612SOL    HW120735   1.543   5.199   6.681
 6612SOL    HW220736   1.552   5.239   6.839
 6613SOL     OW20737   5.497   5.705   3.552
 6613SOL    HW120738   5.420   5.656   3.592
 6613SOL    HW220739   5.582   5.655   3.571
 6614SOL     OW20740   4.658   6.494   6.317
 6614SOL    HW120741   4.729   6.557   6.286
 6614SOL    HW220742   4.640   6.511   6.414
 6615SOL     OW20743   0.436   3.607   4.787
 6615SOL    HW120744   0.357   3.573   4.838
 6615SOL    HW220745   0.488   3.670   4.845
 6616SOL     OW20746   4.249   1.663   5.938
 6616SOL    HW120747   4.316   1.590   5.926
 6616SOL    HW220748   4.208   1.656   6.029
 6617SOL     OW20749   3.660   6.966   3.895
 6617SOL    HW120750   3.679   0.035   3.883
 6617SOL    HW220751   3.706   6.933   3.978
 6618SOL     OW20752   1.054   3.536   1.929
 6618SOL    HW120753   0.961   3.555   1.898
 6618SOL    HW220754   1.075   3.439   1.915
 6619SOL     OW20755   4.378   6.810   4.151
 6619SOL    HW120756   4.451   6.828   4.086
 6619SOL    HW220757   4.390   6.719   4.190
 6620SOL     OW20758   1.590   2.870   5.966
 6620SOL    HW120759   1.630   2.952   6.006
 6620SOL    HW220760   1.660   2.819   5.915
 6621SOL     OW20761   2.676   4.042   0.526
 6621SOL    HW120762   2.607   3.981   0.567
 6621SOL    HW220763   2.763   4.031   0.573
 6622SOL     OW20764   6.201   6.025   1.269
 6622SOL    HW120765   6.225   6.096   1.335
 6622SOL    HW220766   6.193   5.937   1.317
 6623SOL     OW20767   3.897   3.004   1.860
 6623SOL    HW120768   3.913   2.905   1.855
 6623SOL    HW220769   3.978   3.052   1.827
 6624SOL     OW20770   2.594   6.007   4.833
 6624SOL    HW120771   2.593   5.932   4.767
 6624SOL    HW220772   2.545   6.086   4.795
 6625SOL     OW20773   5.698   1.394   6.449
 6625SOL    HW120774   5.772   1.333   6.421
 6625SOL    HW220775   5.713   1.485   6.411
 6626SOL     OW20776   3.322   5.328   3.208
 6626SOL    HW120777   3.250   5.261   3.229
 6626SOL    HW220778   3.331   5.392   3.284
 6627SOL     OW20779   2.007   0.622   5.909
 6627SOL    HW120780   1.915   0.656   5.891
 6627SOL    HW220781   2.004   0.558   5.986
 6628SOL     OW20782   4.882   4.780   2.727
 6628SOL    HW120783   4.904   4.813   2.635
 6628SOL    HW220784   4.843   4.688   2.721
 6629SOL     OW20785   3.185   6.097   0.839
 6629SOL    HW120786   3.268   6.060   0.798
 6629SOL    HW220787   3.208   6.143   0.925
 6630SOL     OW20788   3.459   1.203   0.101
 6630SOL    HW120789   3.516   1.210   0.183
 6630SOL    HW220790   3.364   1.220   0.125
 6631SOL     OW20791   4.506   0.209   2.193
 6631SOL    HW120792   4.513   0.126   2.248
 6631SOL    HW220793   4.590   0.221   2.141
 6632SOL     OW20794   0.205   1.685   1.162
 6632SOL    HW120795   0.215   1.588   1.138
 6632SOL    HW220796   0.178   1.736   1.081
 6633SOL     OW20797   1.142   5.635   6.440
 6633SOL    HW120798   1.231   5.623   6.483
 6633SOL    HW220799   1.136   5.726   6.399
 6634SOL     OW20800   6.513   3.125   6.261
 6634SOL    HW120801   6.613   3.124   6.263
 6634SOL    HW220802   6.482   3.161   6.173
 6635SOL     OW20803   4.037   5.283   3.299
 6635SOL    HW120804   4.122   5.231   3.293
 6635SOL    HW220805   3.981   5.248   3.374
 6636SOL     OW20806   1.165   3.417   5.401
 6636SOL    HW120807   1.183   3.515   5.408
 6636SOL    HW220808   1.130   3.383   5.489
 6637SOL     OW20809   1.024   0.541   0.188
 6637SOL    HW120810   1.090   0.469   0.210
 6637SOL    HW220811   0.944   0.531   0.247
 6638SOL     OW20812   3.133   5.188   4.643
 6638SOL    HW120813   3.182   5.234   4.717
 6638SOL    HW220814   3.035   5.207   4.651
 6639SOL     OW20815   5.781   5.527   6.249
 6639SOL    HW120816   5.733   5.594   6.305
 6639SOL    HW220817   5.715   5.477   6.193
 6640SOL     OW20818   0.015   1.696   4.329
 6640SOL    HW120819   7.005   1.627   4.390
 6640SOL    HW220820   6.978   1.772   4.320
 6641SOL     OW20821   3.298   3.825   6.613
 6641SOL    HW120822   3.304   3.902   6.549
 6641SOL    HW220823   3.214   3.834   6.667
 6642SOL     OW20824   2.206   5.284   6.892
 6642SOL    HW120825   2.305   5.287   6.899
 6642SOL    HW220826   2.179   5.219   6.821
 6643SOL     OW20827   6.378   4.777   6.520
 6643SOL    HW120828   6.349   4.746   6.610
 6643SOL    HW220829   6.432   4.706   6.475
 6644SOL     OW20830   3.019   4.741   1.788
 6644SOL    HW120831   2.970   4.655   1.802
 6644SOL    HW220832   2.961   4.818   1.816
 6645SOL     OW20833   6.858   4.948   0.256
 6645SOL    HW120834   6.933   4.991   0.205
 6645SOL    HW220835   6.800   4.898   0.192
 6646SOL     OW20836   4.242   5.475   4.300
 6646SOL    HW120837   4.324   5.533   4.295
 6646SOL    HW220838   4.164   5.524   4.261
 6647SOL     OW20839   3.091   0.903   2.498
 6647SOL    HW120840   3.129   0.853   2.576
 6647SOL    HW220841   3.123   0.998   2.500
 6648SOL     OW20842   4.017   5.767   2.835
 6648SOL    HW120843   4.065   5.849   2.801
 6648SOL    HW220844   4.049   5.687   2.785
 6649SOL     OW20845   5.267   2.438   6.145
 6649SOL    HW120846   5.359   2.416   6.113
 6649SOL    HW220847   5.200   2.393   6.087
 6650SOL     OW20848   3.969   1.335   3.185
 6650SOL    HW120849   3.890   1.274   3.193
 6650SOL    HW220850   3.938   1.430   3.191
 6651SOL     OW20851   1.618   2.461   0.758
 6651SOL    HW120852   1.580   2.411   0.680
 6651SOL    HW220853   1.703   2.418   0.788
 6652SOL     OW20854   6.818   4.057   1.170
 6652SOL    HW120855   6.847   3.965   1.196
 6652SOL    HW220856   6.742   4.052   1.105
 6653SOL     OW20857   3.879   3.944   2.949
 6653SOL    HW120858   3.807   4.011   2.929
 6653SOL    HW220859   3.917   3.963   3.040
 6654SOL     OW20860   1.928   2.757   0.942
 6654SOL    HW120861   1.890   2.843   0.975
 6654SOL    HW220862   2.013   2.775   0.891
 6655SOL     OW20863   2.836   6.855   2.071
 6655SOL    HW120864   2.748   6.899   2.089
 6655SOL    HW220865   2.821   6.768   2.024
 6656SOL     OW20866   6.637   0.774   2.760
 6656SOL    HW120867   6.686   0.687   2.772
 6656SOL    HW220868   6.605   0.781   2.666
 6657SOL     OW20869   4.233   6.814   6.430
 6657SOL    HW120870   4.190   6.777   6.347
 6657SOL    HW220871   4.163   6.856   6.487
 6658SOL     OW20872   6.147   0.896   5.155
 6658SOL    HW120873   6.112   0.806   5.127
 6658SOL    HW220874   6.243   0.887   5.183
 6659SOL     OW20875   2.781   2.524   0.217
 6659SOL    HW120876   2.708   2.497   0.280
 6659SOL    HW220877   2.776   2.622   0.199
 6660SOL     OW20878   0.171   6.580   1.544
 6660SOL    HW120879   0.234   6.514   1.584
 6660SOL    HW220880   0.150   6.651   1.611
 6661SOL     OW20881   6.400   5.343   3.777
 6661SOL    HW120882   6.312   5.363   3.735
 6661SOL    HW220883   6.464   5.312   3.706
 6662SOL     OW20884   1.923   1.205   0.294
 6662SOL    HW120885   1.844   1.216   0.234
 6662SOL    HW220886   1.988   1.279   0.278
 6663SOL     OW20887   6.859   5.421   3.636
 6663SOL    HW120888   6.816   5.463   3.716
 6663SOL    HW220889   6.958   5.415   3.651
 6664SOL     OW20890   1.651   0.087   1.550
 6664SOL    HW120891   1.619   7.022   1.569
 6664SOL    HW220892   1.593   0.129   1.480
 6665SOL     OW20893   0.838   0.016   3.536
 6665SOL    HW120894   0.765   0.076   3.506
 6665SOL    HW220895   0.804   6.950   3.547
 6666SOL     OW20896   6.570   1.707   4.983
 6666SOL    HW120897   6.555   1.612   5.008
 6666SOL    HW220898   6.634   1.750   5.048
 6667SOL     OW20899   6.061   5.381   5.186
 6667SOL    HW120900   6.121   5.372   5.106
 6667SOL    HW220901   6.106   5.343   5.266
 6668SOL     OW20902   0.191   5.542   1.992
 6668SOL    HW120903   0.180   5.638   2.019
 6668SOL    HW220904   0.267   5.502   2.044
 6669SOL     OW20905   2.312   4.610   3.614
 6669SOL    HW120906   2.242   4.652   3.672
 6669SOL    HW220907   2.357   4.536   3.664
 6670SOL     OW20908   3.570   4.635   6.641
 6670SOL    HW120909   3.555   4.582   6.557
 6670SOL    HW220910   3.516   4.719   6.637
 6671SOL     OW20911   5.645   4.603   0.200
 6671SOL    HW120912   5.551   4.613   0.232
 6671SOL    HW220913   5.662   4.665   0.123
 6672SOL     OW20914   1.151   0.643   5.441
 6672SOL    HW120915   1.156   0.597   5.530
 6672SOL    HW220916   1.057   0.640   5.407
 6673SOL     OW20917   5.177   5.686   2.618
 6673SOL    HW120918   5.134   5.601   2.645
 6673SOL    HW220919   5.107   5.755   2.600
 6674SOL     OW20920   0.807   5.967   5.815
 6674SOL    HW120921   0.727   5.965   5.874
 6674SOL    HW220922   0.887   5.934   5.865
 6675SOL     OW20923   5.418   3.991   1.176
 6675SOL    HW120924   5.438   4.086   1.202
 6675SOL    HW220925   5.319   3.980   1.165
 6676SOL     OW20926   0.726   3.249   5.146
 6676SOL    HW120927   0.693   3.241   5.052
 6676SOL    HW220928   0.652   3.228   5.210
 6677SOL     OW20929   0.210   2.999   0.316
 6677SOL    HW120930   0.147   3.010   0.239
 6677SOL    HW220931   0.185   3.064   0.388
 6678SOL     OW20932   1.023   2.890   6.456
 6678SOL    HW120933   1.072   2.827   6.395
 6678SOL    HW220934   0.925   2.872   6.450
 6679SOL     OW20935   1.163   1.804   4.965
 6679SOL    HW120936   1.212   1.727   5.005
 6679SOL    HW220937   1.202   1.827   4.876
 6680SOL     OW20938   3.722   5.546   5.866
 6680SOL    HW120939   3.713   5.525   5.768
 6680SOL    HW220940   3.812   5.586   5.883
 6681SOL     OW20941   5.335   5.753   6.654
 6681SOL    HW120942   5.413   5.779   6.711
 6681SOL    HW220943   5.363   5.752   6.558
 6682SOL     OW20944   0.539   4.561   2.716
 6682SOL    HW120945   0.542   4.464   2.694
 6682SOL    HW220946   0.513   4.573   2.812
 6683SOL     OW20947   5.104   1.901   5.325
 6683SOL    HW120948   5.126   1.978   5.265
 6683SOL    HW220949   5.185   1.876   5.378
 6684SOL     OW20950   1.761   6.940   2.576
 6684SOL    HW120951   1.727   6.861   2.525
 6684SOL    HW220952   1.777   6.914   2.671
 6685SOL     OW20953   5.669   2.020   6.369
 6685SOL    HW120954   5.597   1.967   6.414
 6685SOL    HW220955   5.628   2.077   6.297
 6686SOL     OW20956   6.274   4.009   4.477
 6686SOL    HW120957   6.265   3.909   4.474
 6686SOL    HW220958   6.185   4.051   4.456
 6687SOL     OW20959   1.486   1.325   1.256
 6687SOL    HW120960   1.449   1.349   1.345
 6687SOL    HW220961   1.461   1.231   1.233
 6688SOL     OW20962   0.718   4.330   2.490
 6688SOL    HW120963   0.623   4.300   2.488
 6688SOL    HW220964   0.721   4.429   2.504
 6689SOL     OW20965   4.553   3.398   1.027
 6689SOL    HW120966   4.524   3.477   1.081
 6689SOL    HW220967   4.573   3.321   1.088
 6690SOL     OW20968   2.402   2.462   1.625
 6690SOL    HW120969   2.374   2.552   1.659
 6690SOL    HW220970   2.399   2.396   1.700
 6691SOL     OW20971   2.267   5.787   1.374
 6691SOL    HW120972   2.365   5.772   1.386
 6691SOL    HW220973   2.222   5.701   1.350
 6692SOL     OW20974   3.023   4.344   5.406
 6692SOL    HW120975   3.109   4.365   5.453
 6692SOL    HW220976   3.014   4.404   5.326
 6693SOL     OW20977   4.900   3.555   6.205
 6693SOL    HW120978   4.925   3.650   6.186
 6693SOL    HW220979   4.868   3.512   6.122
 6694SOL     OW20980   4.496   6.429   0.460
 6694SOL    HW120981   4.545   6.450   0.544
 6694SOL    HW220982   4.413   6.484   0.456
 6695SOL     OW20983   0.595   1.672   6.608
 6695SOL    HW120984   0.520   1.665   6.542
 6695SOL    HW220985   0.557   1.681   6.700
 6696SOL     OW20986   2.069   2.912   1.430
 6696SOL    HW120987   2.156   2.899   1.383
 6696SOL    HW220988   2.034   3.003   1.409
 6697SOL     OW20989   4.756   1.538   2.687
 6697SOL    HW120990   4.690   1.604   2.723
 6697SOL    HW220991   4.849   1.571   2.704
 6698SOL     OW20992   3.792   2.874   0.681
 6698SOL    HW120993   3.829   2.845   0.593
 6698SOL    HW220994   3.729   2.805   0.715
 6699SOL     OW20995   3.580   4.635   6.914
 6699SOL    HW120996   3.663   4.580   6.923
 6699SOL    HW220997   3.575   4.673   6.821
 6700SOL     OW20998   0.483   5.794   1.155
 6700SOL    HW120999   0.412   5.849   1.112
 6700SOL    HW221000   0.443   5.707   1.185
 6701SOL     OW21001   6.392   2.126   0.888
 6701SOL    HW121002   6.482   2.166   0.869
 6701SOL    HW221003   6.333   2.139   0.808
 6702SOL     OW21004   3.134   1.853   0.413
 6702SOL    HW121005   3.164   1.938   0.370
 6702SOL    HW221006   3.214   1.797   0.436
 6703SOL     OW21007   6.229   2.086   6.559
 6703SOL    HW121008   6.195   2.021   6.626
 6703SOL    HW221009   6.294   2.040   6.498
 6704SOL     OW21010   4.317   2.266   2.375
 6704SOL    HW121011   4.340   2.338   2.310
 6704SOL    HW221012   4.240   2.212   2.339
 6705SOL     OW21013   6.923   2.233   2.000
 6705SOL    HW121014   6.824   2.220   1.992
 6705SOL    HW221015   6.943   2.331   2.001
 6706SOL     OW21016   1.009   3.538   0.567
 6706SOL    HW121017   1.079   3.474   0.535
 6706SOL    HW221018   0.956   3.494   0.640
 6707SOL     OW21019   6.203   6.051   4.483
 6707SOL    HW121020   6.116   6.008   4.459
 6707SOL    HW221021   6.222   6.037   4.580
 6708SOL     OW21022   1.604   5.587   2.630
 6708SOL    HW121023   1.606   5.511   2.564
 6708SOL    HW221024   1.561   5.667   2.587
 6709SOL     OW21025   3.916   6.454   1.712
 6709SOL    HW121026   3.871   6.369   1.683
 6709SOL    HW221027   3.964   6.438   1.798
 6710SOL     OW21028   2.459   2.372   5.961
 6710SOL    HW121029   2.493   2.387   6.053
 6710SOL    HW221030   2.510   2.429   5.896
 6711SOL     OW21031   5.048   4.146   6.578
 6711SOL    HW121032   5.004   4.236   6.573
 6711SOL    HW221033   5.125   4.143   6.513
 6712SOL     OW21034   3.928   5.613   0.391
 6712SOL    HW121035   4.001   5.661   0.341
 6712SOL    HW221036   3.959   5.521   0.414
 6713SOL     OW21037   2.692   1.753   1.758
 6713SOL    HW121038   2.689   1.780   1.854
 6713SOL    HW221039   2.709   1.833   1.701
 6714SOL     OW21040   4.849   6.846   5.042
 6714SOL    HW121041   4.755   6.813   5.044
 6714SOL    HW221042   4.884   6.854   5.135
 6715SOL     OW21043   1.194   1.732   0.555
 6715SOL    HW121044   1.165   1.637   0.555
 6715SOL    HW221045   1.119   1.790   0.525
 6716SOL     OW21046   1.820   6.094   1.001
 6716SOL    HW121047   1.867   6.147   0.931
 6716SOL    HW221048   1.886   6.038   1.052
 6717SOL     OW21049   3.688   3.451   0.505
 6717SOL    HW121050   3.641   3.478   0.420
 6717SOL    HW221051   3.620   3.434   0.576
 6718SOL     OW21052   3.434   5.943   6.327
 6718SOL    HW121053   3.449   5.987   6.415
 6718SOL    HW221054   3.519   5.900   6.296
 6719SOL     OW21055   0.579   6.806   5.784
 6719SOL    HW121056   0.567   6.722   5.837
 6719SOL    HW221057   0.586   6.784   5.687
 6720SOL     OW21058   2.077   6.071   1.710
 6720SOL    HW121059   2.030   6.146   1.756
 6720SOL    HW221060   2.122   6.013   1.778
 6721SOL     OW21061   5.222   6.392   4.460
 6721SOL    HW121062   5.225   6.292   4.455
 6721SOL    HW221063   5.188   6.419   4.550
 6722SOL     OW21064   5.018   3.230   0.519
 6722SOL    HW121065   5.115   3.212   0.500
 6722SOL    HW221066   4.997   3.325   0.499
 6723SOL     OW21067   2.233   6.556   3.168
 6723SOL    HW121068   2.140   6.526   3.189
 6723SOL    HW221069   2.293   6.534   3.245
 6724SOL     OW21070   2.622   4.676   5.723
 6724SOL    HW121071   2.605   4.577   5.720
 6724SOL    HW221072   2.578   4.715   5.803
 6725SOL     OW21073   0.990   4.621   2.475
 6725SOL    HW121074   1.035   4.592   2.559
 6725SOL    HW221075   1.057   4.627   2.401
 6726SOL     OW21076   2.125   3.216   4.634
 6726SOL    HW121077   2.158   3.143   4.694
 6726SOL    HW221078   2.170   3.302   4.658
 6727SOL     OW21079   5.099   3.749   6.675
 6727SOL    HW121080   5.109   3.694   6.592
 6727SOL    HW221081   5.187   3.788   6.700
 6728SOL     OW21082   3.854   2.066   4.523
 6728SOL    HW121083   3.878   2.082   4.427
 6728SOL    HW221084   3.760   2.032   4.528
 6729SOL     OW21085   0.041   0.584   2.303
 6729SOL    HW121086   0.054   0.674   2.260
 6729SOL    HW221087   0.031   0.515   2.232
 6730SOL     OW21088   2.613   0.249   0.154
 6730SOL    HW121089   2.701   0.251   0.106
 6730SOL    HW221090   2.617   0.310   0.233
 6731SOL     OW21091   2.655   4.292   1.393
 6731SOL    HW121092   2.709   4.350   1.455
 6731SOL    HW221093   2.643   4.202   1.435
 6732SOL     OW21094   2.201   6.308   0.249
 6732SOL    HW121095   2.252   6.354   0.177
 6732SOL    HW221096   2.138   6.372   0.293
 6733SOL     OW21097   4.408   5.403   5.834
 6733SOL    HW121098   4.315   5.368   5.837
 6733SOL    HW221099   4.452   5.374   5.749
 6734SOL     OW21100   1.280   3.649   5.698
 6734SOL    HW121101   1.265   3.740   5.737
 6734SOL    HW221102   1.370   3.645   5.656
 6735SOL     OW21103   0.091   4.934   5.758
 6735SOL    HW121104   0.048   5.024   5.768
 6735SOL    HW221105   0.056   4.873   5.829
 6736SOL     OW21106   2.675   3.296   1.620
 6736SOL    HW121107   2.702   3.356   1.696
 6736SOL    HW221108   2.709   3.203   1.637
 6737SOL     OW21109   1.727   1.476   2.572
 6737SOL    HW121110   1.821   1.475   2.608
 6737SOL    HW221111   1.680   1.393   2.601
 6738SOL     OW21112   2.095   1.648   2.441
 6738SOL    HW121113   2.009   1.668   2.488
 6738SOL    HW221114   2.080   1.644   2.343
 6739SOL     OW21115   3.963   6.087   4.740
 6739SOL    HW121116   3.933   6.149   4.813
 6739SOL    HW221117   3.886   6.030   4.711
 6740SOL     OW21118   1.499   1.092   4.437
 6740SOL    HW121119   1.536   1.125   4.350
 6740SOL    HW221120   1.534   1.150   4.512
 6741SOL     OW21121   5.630   0.963   6.039
 6741SOL    HW121122   5.684   0.977   5.957
 6741SOL    HW221123   5.552   1.025   6.039
 6742SOL     OW21124   6.464   5.403   5.243
 6742SOL    HW121125   6.378   5.362   5.276
 6742SOL    HW221126   6.524   5.421   5.320
 6743SOL     OW21127   4.102   3.453   1.011
 6743SOL    HW121128   4.108   3.359   1.043
 6743SOL    HW221129   4.043   3.505   1.073
 6744SOL     OW21130   4.343   4.220   5.645
 6744SOL    HW121131   4.320   4.281   5.721
 6744SOL    HW221132   4.372   4.273   5.566
 6745SOL     OW21133   0.908   5.133   3.039
 6745SOL    HW121134   0.919   5.084   3.126
 6745SOL    HW221135   0.885   5.229   3.058
 6746SOL     OW21136   0.805   1.916   1.231
 6746SOL    HW121137   0.728   1.976   1.253
 6746SOL    HW221138   0.837   1.871   1.314
 6747SOL     OW21139   5.423   6.045   4.602
 6747SOL    HW121140   5.358   5.976   4.568
 6747SOL    HW221141   5.481   6.075   4.526
 6748SOL     OW21142   0.893   0.414   2.388
 6748SOL    HW121143   0.883   0.509   2.359
 6748SOL    HW221144   0.851   0.354   2.321
 6749SOL     OW21145   3.870   0.551   0.013
 6749SOL    HW121146   3.905   0.620   0.076
 6749SOL    HW221147   3.831   0.475   0.066
 6750SOL     OW21148   2.624   2.317   4.587
 6750SOL    HW121149   2.708   2.295   4.536
 6750SOL    HW221150   2.603   2.242   4.650
 6751SOL     OW21151   2.472   2.551   4.571
 6751SOL    HW121152   2.445   2.584   4.661
 6751SOL    HW221153   2.521   2.464   4.581
 6752SOL     OW21154   5.456   3.335   0.953
 6752SOL    HW121155   5.473   3.386   1.036
 6752SOL    HW221156   5.394   3.258   0.972
 6753SOL     OW21157   4.106   1.771   6.496
 6753SOL    HW121158   4.008   1.779   6.478
 6753SOL    HW221159   4.128   1.676   6.518
 6754SOL     OW21160   6.083   1.554   6.441
 6754SOL    HW121161   6.094   1.463   6.401
 6754SOL    HW221162   6.157   1.570   6.507
 6755SOL     OW21163   5.170   2.146   3.610
 6755SOL    HW121164   5.184   2.113   3.703
 6755SOL    HW221165   5.259   2.154   3.564
 6756SOL     OW21166   5.195   4.491   4.114
 6756SOL    HW121167   5.158   4.429   4.045
 6756SOL    HW221168   5.193   4.584   4.080
 6757SOL     OW21169   5.458   6.146   1.927
 6757SOL    HW121170   5.478   6.097   2.012
 6757SOL    HW221171   5.543   6.166   1.880
 6758SOL     OW21172   5.227   3.132   2.417
 6758SOL    HW121173   5.197   3.227   2.426
 6758SOL    HW221174   5.288   3.124   2.338
 6759SOL     OW21175   1.340   5.115   2.829
 6759SOL    HW121176   1.274   5.087   2.900
 6759SOL    HW221177   1.433   5.104   2.864
 6760SOL     OW21178   0.069   4.223   4.169
 6760SOL    HW121179   0.074   4.197   4.073
 6760SOL    HW221180   0.152   4.271   4.195
 6761SOL     OW21181   5.136   2.948   5.533
 6761SOL    HW121182   5.099   2.979   5.621
 6761SOL    HW221183   5.162   2.851   5.541
 6762SOL     OW21184   6.753   4.319   3.648
 6762SOL    HW121185   6.694   4.312   3.568
 6762SOL    HW221186   6.747   4.412   3.685
 6763SOL     OW21187   6.271   6.715   5.722
 6763SOL    HW121188   6.201   6.758   5.779
 6763SOL    HW221189   6.239   6.710   5.628
 6764SOL     OW21190   3.097   3.812   6.827
 6764SOL    HW121191   3.036   3.733   6.818
 6764SOL    HW221192   3.095   3.845   6.921
 6765SOL     OW21193   6.673   3.924   2.858
 6765SOL    HW121194   6.712   3.856   2.919
 6765SOL    HW221195   6.653   3.881   2.769
 6766SOL     OW21196   1.951   0.823   5.221
 6766SOL    HW121197   1.971   0.801   5.316
 6766SOL    HW221198   2.023   0.882   5.184
 6767SOL     OW21199   0.764   2.514   6.366
 6767SOL    HW121200   0.721   2.444   6.422
 6767SOL    HW221201   0.843   2.474   6.318
 6768SOL     OW21202   0.612   0.042   4.075
 6768SOL    HW121203   0.595   6.989   4.132
 6768SOL    HW221204   0.562   0.120   4.114
 6769SOL     OW21205   2.010   2.733   5.551
 6769SOL    HW121206   1.960   2.716   5.466
 6769SOL    HW221207   2.077   2.806   5.535
 6770SOL     OW21208   0.575   1.779   3.184
 6770SOL    HW121209   0.597   1.681   3.176
 6770SOL    HW221210   0.644   1.825   3.239
 6771SOL     OW21211   3.710   2.100   3.822
 6771SOL    HW121212   3.634   2.035   3.817
 6771SOL    HW221213   3.748   2.101   3.914
 6772SOL     OW21214   6.637   1.476   2.835
 6772SOL    HW121215   6.716   1.479   2.896
 6772SOL    HW221216   6.565   1.419   2.876
 6773SOL     OW21217   0.163   6.036   1.937
 6773SOL    HW121218   0.122   6.112   1.987
 6773SOL    HW221219   0.254   6.062   1.905
 6774SOL     OW21220   1.957   2.555   5.764
 6774SOL    HW121221   1.974   2.612   5.684
 6774SOL    HW221222   2.037   2.499   5.782
 6775SOL     OW21223   0.431   2.242   5.047
 6775SOL    HW121224   0.492   2.164   5.058
 6775SOL    HW221225   0.466   2.320   5.099
 6776SOL     OW21226   3.735   4.061   2.372
 6776SOL    HW121227   3.653   4.109   2.340
 6776SOL    HW221228   3.734   4.057   2.472
 6777SOL     OW21229   5.570   5.347   1.167
 6777SOL    HW121230   5.543   5.273   1.228
 6777SOL    HW221231   5.647   5.318   1.111
 6778SOL     OW21232   0.326   4.850   2.736
 6778SOL    HW121233   0.406   4.855   2.676
 6778SOL    HW221234   0.278   4.764   2.721
 6779SOL     OW21235   5.792   4.185   5.981
 6779SOL    HW121236   5.725   4.111   5.978
 6779SOL    HW221237   5.746   4.271   6.002
 6780SOL     OW21238   2.943   2.003   2.619
 6780SOL    HW121239   2.889   1.927   2.583
 6780SOL    HW221240   2.912   2.089   2.578
 6781SOL     OW21241   0.333   1.338   3.848
 6781SOL    HW121242   0.415   1.384   3.881
 6781SOL    HW221243   0.319   1.254   3.901
 6782SOL     OW21244   6.726   1.887   3.265
 6782SOL    HW121245   6.687   1.925   3.348
 6782SOL    HW221246   6.739   1.959   3.197
 6783SOL     OW21247   1.684   4.657   5.257
 6783SOL    HW121248   1.614   4.594   5.222
 6783SOL    HW221249   1.640   4.744   5.282
 6784SOL     OW21250   2.069   4.032   1.241
 6784SOL    HW121251   2.058   4.024   1.340
 6784SOL    HW221252   2.100   3.945   1.204
 6785SOL     OW21253   5.149   4.918   4.290
 6785SOL    HW121254   5.216   4.982   4.251
 6785SOL    HW221255   5.154   4.831   4.241
 6786SOL     OW21256   6.403   2.396   6.940
 6786SOL    HW121257   6.410   2.360   0.006
 6786SOL    HW221258   6.494   2.417   6.906
 6787SOL     OW21259   3.793   2.065   6.533
 6787SOL    HW121260   3.758   2.130   6.466
 6787SOL    HW221261   3.737   2.069   6.616
 6788SOL     OW21262   6.570   4.450   3.302
 6788SOL    HW121263   6.540   4.423   3.394
 6788SOL    HW221264   6.655   4.403   3.280
 6789SOL     OW21265   6.306   3.852   3.927
 6789SOL    HW121266   6.345   3.907   4.002
 6789SOL    HW221267   6.223   3.806   3.960
 6790SOL     OW21268   0.890   5.086   5.556
 6790SOL    HW121269   0.825   5.148   5.513
 6790SOL    HW221270   0.879   4.994   5.518
 6791SOL     OW21271   3.398   0.527   3.467
 6791SOL    HW121272   3.382   0.459   3.395
 6791SOL    HW221273   3.396   0.482   3.556
 6792SOL     OW21274   4.183   6.659   5.372
 6792SOL    HW121275   4.269   6.657   5.321
 6792SOL    HW221276   4.182   6.740   5.431
 6793SOL     OW21277   1.490   3.658   0.439
 6793SOL    HW121278   1.578   3.613   0.449
 6793SOL    HW221279   1.427   3.626   0.510
 6794SOL     OW21280   4.890   1.764   5.449
 6794SOL    HW121281   4.958   1.817   5.398
 6794SOL    HW221282   4.916   1.668   5.450
 6795SOL     OW21283   1.026   1.135   1.313
 6795SOL    HW121284   1.083   1.189   1.252
 6795SOL    HW221285   1.053   1.150   1.408
 6796SOL     OW21286   6.588   0.727   3.041
 6796SOL    HW121287   6.662   0.756   3.103
 6796SOL    HW221288   6.591   0.781   2.957
 6797SOL     OW21289   1.008   2.592   0.988
 6797SOL    HW121290   0.960   2.505   0.980
 6797SOL    HW221291   0.941   2.667   0.989
 6798SOL     OW21292   5.210   0.398   1.410
 6798SOL    HW121293   5.295   0.362   1.372
 6798SOL    HW221294   5.196   0.492   1.379
 6799SOL     OW21295   5.814   0.621   3.358
 6799SOL    HW121296   5.894   0.645   3.412
 6799SOL    HW221297   5.807   0.522   3.350
 6800SOL     OW21298   0.364   1.927   1.487
 6800SOL    HW121299   0.361   1.955   1.391
 6800SOL    HW221300   0.376   2.008   1.544
 6801SOL     OW21301   0.789   5.851   5.558
 6801SOL    HW121302   0.804   5.900   5.644
 6801SOL    HW221303   0.823   5.757   5.568
 6802SOL     OW21304   2.954   4.819   2.192
 6802SOL    HW121305   2.976   4.759   2.115
 6802SOL    HW221306   2.862   4.798   2.226
 6803SOL     OW21307   5.158   4.881   5.991
 6803SOL    HW121308   5.204   4.792   5.986
 6803SOL    HW221309   5.198   4.943   5.923
 6804SOL     OW21310   3.324   5.117   3.023
 6804SOL    HW121311   3.374   5.163   3.096
 6804SOL    HW221312   3.388   5.092   2.950
 6805SOL     OW21313   6.921   4.149   5.586
 6805SOL    HW121314   6.916   4.223   5.653
 6805SOL    HW221315   6.922   4.188   5.494
 6806SOL     OW21316   6.831   1.850   2.605
 6806SOL    HW121317   6.840   1.950   2.600
 6806SOL    HW221318   6.916   1.808   2.573
 6807SOL     OW21319   3.050   3.895   2.072
 6807SOL    HW121320   2.979   3.888   2.142
 6807SOL    HW221321   3.109   3.814   2.077
 6808SOL     OW21322   3.275   1.212   4.437
 6808SOL    HW121323   3.287   1.114   4.454
 6808SOL    HW221324   3.324   1.237   4.354
 6809SOL     OW21325   5.510   3.147   1.633
 6809SOL    HW121326   5.426   3.200   1.618
 6809SOL    HW221327   5.487   3.051   1.649
 6810SOL     OW21328   2.360   0.326   3.749
 6810SOL    HW121329   2.430   0.286   3.808
 6810SOL    HW221330   2.331   0.258   3.681
 6811SOL     OW21331   6.819   1.407   1.305
 6811SOL    HW121332   6.803   1.310   1.292
 6811SOL    HW221333   6.815   1.454   1.217
 6812SOL     OW21334   3.617   3.870   5.100
 6812SOL    HW121335   3.531   3.922   5.104
 6812SOL    HW221336   3.656   3.865   5.191
 6813SOL     OW21337   6.049   4.158   1.658
 6813SOL    HW121338   6.139   4.176   1.618
 6813SOL    HW221339   6.045   4.196   1.750
 6814SOL     OW21340   5.212   1.122   6.731
 6814SOL    HW121341   5.262   1.188   6.675
 6814SOL    HW221342   5.151   1.171   6.793
 6815SOL     OW21343   1.833   5.060   5.694
 6815SOL    HW121344   1.752   5.046   5.637
 6815SOL    HW221345   1.869   4.972   5.724
 6816SOL     OW21346   0.845   0.883   2.888
 6816SOL    HW121347   0.800   0.833   2.814
 6816SOL    HW221348   0.829   0.981   2.877
 6817SOL     OW21349   3.688   2.104   2.288
 6817SOL    HW121350   3.702   2.167   2.212
 6817SOL    HW221351   3.731   2.016   2.269
 6818SOL     OW21352   1.867   6.837   5.407
 6818SOL    HW121353   1.780   6.883   5.427
 6818SOL    HW221354   1.925   6.838   5.489
 6819SOL     OW21355   4.868   4.737   1.688
 6819SOL    HW121356   4.844   4.686   1.605
 6819SOL    HW221357   4.959   4.709   1.719
 6820SOL     OW21358   2.862   5.808   1.622
 6820SOL    HW121359   2.819   5.855   1.700
 6820SOL    HW221360   2.900   5.876   1.559
 6821SOL     OW21361   3.958   2.678   5.347
 6821SOL    HW121362   4.038   2.630   5.313
 6821SOL    HW221363   3.985   2.765   5.387
 6822SOL     OW21364   6.739   2.759   6.563
 6822SOL    HW121365   6.769   2.741   6.657
 6822SOL    HW221366   6.699   2.850   6.558
 6823SOL     OW21367   6.086   3.481   6.420
 6823SOL    HW121368   5.998   3.502   6.378
 6823SOL    HW221369   6.155   3.467   6.348
 6824SOL     OW21370   0.547   1.437   5.556
 6824SOL    HW121371   0.518   1.486   5.638
 6824SOL    HW221372   0.480   1.451   5.483
 6825SOL     OW21373   5.783   4.789   1.344
 6825SOL    HW121374   5.691   4.817   1.317
 6825SOL    HW221375   5.829   4.865   1.389
 6826SOL     OW21376   0.134   3.785   3.377
 6826SOL    HW121377   0.142   3.856   3.447
 6826SOL    HW221378   0.074   3.712   3.410
 6827SOL     OW21379   4.318   5.821   4.629
 6827SOL    HW121380   4.294   5.898   4.688
 6827SOL    HW221381   4.241   5.757   4.627
 6828SOL     OW21382   2.802   1.838   2.462
 6828SOL    HW121383   2.705   1.862   2.467
 6828SOL    HW221384   2.840   1.872   2.376
 6829SOL     OW21385   4.466   6.838   4.470
 6829SOL    HW121386   4.445   6.753   4.422
 6829SOL    HW221387   4.388   6.899   4.465
 6830SOL     OW21388   4.858   0.455   3.223
 6830SOL    HW121389   4.796   0.384   3.190
 6830SOL    HW221390   4.908   0.422   3.303
 6831SOL     OW21391   1.429   1.765   6.339
 6831SOL    HW121392   1.516   1.803   6.308
 6831SOL    HW221393   1.372   1.837   6.378
 6832SOL     OW21394   3.045   2.578   0.231
 6832SOL    HW121395   3.095   2.505   0.278
 6832SOL    HW221396   2.952   2.548   0.213
 6833SOL     OW21397   3.352   4.865   5.982
 6833SOL    HW121398   3.299   4.942   5.947
 6833SOL    HW221399   3.401   4.891   6.065
 6834SOL     OW21400   5.577   0.205   0.787
 6834SOL    HW121401   5.490   0.241   0.821
 6834SOL    HW221402   5.641   0.194   0.863
 6835SOL     OW21403   2.462   1.563   4.651
 6835SOL    HW121404   2.561   1.579   4.654
 6835SOL    HW221405   2.433   1.551   4.556
 6836SOL     OW21406   2.196   4.341   6.066
 6836SOL    HW121407   2.154   4.414   6.120
 6836SOL    HW221408   2.285   4.371   6.032
 6837SOL     OW21409   0.814   6.937   1.502
 6837SOL    HW121410   0.899   6.986   1.488
 6837SOL    HW221411   0.737   6.995   1.476
 6838SOL     OW21412   2.916   3.905   5.113
 6838SOL    HW121413   3.010   3.869   5.109
 6838SOL    HW221414   2.918   3.999   5.148
 6839SOL     OW21415   5.841   2.427   3.795
 6839SOL    HW121416   5.774   2.403   3.866
 6839SOL    HW221417   5.921   2.368   3.804
 6840SOL     OW21418   2.685   7.013   5.523
 6840SOL    HW121419   2.626   6.968   5.590
 6840SOL    HW221420   2.655   6.990   5.431
 6841SOL     OW21421   4.108   5.667   1.233
 6841SOL    HW121422   4.182   5.686   1.168
 6841SOL    HW221423   4.042   5.741   1.230
 6842SOL     OW21424   0.150   3.635   6.002
 6842SOL    HW121425   0.127   3.683   6.087
 6842SOL    HW221426   0.248   3.615   6.000
 6843SOL     OW21427   3.302   2.036   2.364
 6843SOL    HW121428   3.330   2.057   2.270
 6843SOL    HW221429   3.234   1.963   2.362
 6844SOL     OW21430   4.710   4.640   3.907
 6844SOL    HW121431   4.791   4.592   3.873
 6844SOL    HW221432   4.648   4.575   3.951
 6845SOL     OW21433   5.049   4.524   1.981
 6845SOL    HW121434   4.963   4.473   1.972
 6845SOL    HW221435   5.082   4.517   2.075
 6846SOL     OW21436   3.628   2.876   2.634
 6846SOL    HW121437   3.598   2.885   2.539
 6846SOL    HW221438   3.727   2.883   2.639
 6847SOL     OW21439   6.395   3.319   1.786
 6847SOL    HW121440   6.485   3.280   1.805
 6847SOL    HW221441   6.401   3.419   1.788
 6848SOL     OW21442   0.847   6.447   3.499
 6848SOL    HW121443   0.755   6.476   3.523
 6848SOL    HW221444   0.890   6.401   3.577
 6849SOL     OW21445   3.550   6.397   3.956
 6849SOL    HW121446   3.631   6.342   3.976
 6849SOL    HW221447   3.577   6.491   3.939
 6850SOL     OW21448   5.420   2.940   2.923
 6850SOL    HW121449   5.465   2.986   3.000
 6850SOL    HW221450   5.323   2.927   2.944
 6851SOL     OW21451   1.620   5.212   5.461
 6851SOL    HW121452   1.561   5.196   5.540
 6851SOL    HW221453   1.611   5.307   5.432
 6852SOL     OW21454   1.060   4.181   1.509
 6852SOL    HW121455   1.146   4.232   1.505
 6852SOL    HW221456   1.001   4.208   1.432
 6853SOL     OW21457   0.609   3.979   5.212
 6853SOL    HW121458   0.682   3.978   5.279
 6853SOL    HW221459   0.521   3.993   5.258
 6854SOL     OW21460   6.531   2.545   6.645
 6854SOL    HW121461   6.434   2.571   6.650
 6854SOL    HW221462   6.574   2.592   6.568
 6855SOL     OW21463   2.810   6.822   2.338
 6855SOL    HW121464   2.859   6.812   2.252
 6855SOL    HW221465   2.738   6.753   2.344
 6856SOL     OW21466   5.983   4.125   5.224
 6856SOL    HW121467   6.011   4.131   5.129
 6856SOL    HW221468   5.895   4.078   5.231
 6857SOL     OW21469   3.584   1.955   5.816
 6857SOL    HW121470   3.592   2.001   5.905
 6857SOL    HW221471   3.554   1.860   5.831
 6858SOL     OW21472   3.904   2.918   5.200
 6858SOL    HW121473   3.809   2.945   5.215
 6858SOL    HW221474   3.913   2.819   5.210
 6859SOL     OW21475   3.325   0.416   0.705
 6859SOL    HW121476   3.253   0.346   0.705
 6859SOL    HW221477   3.361   0.425   0.798
 6860SOL     OW21478   5.377   4.024   0.483
 6860SOL    HW121479   5.443   4.087   0.444
 6860SOL    HW221480   5.423   3.939   0.509
 6861SOL     OW21481   5.877   4.968   0.252
 6861SOL    HW121482   5.829   4.888   0.289
 6861SOL    HW221483   5.953   4.937   0.195
 6862SOL     OW21484   2.996   5.453   4.285
 6862SOL    HW121485   2.917   5.479   4.341
 6862SOL    HW221486   3.038   5.371   4.322
 6863SOL     OW21487   5.814   2.742   4.472
 6863SOL    HW121488   5.808   2.713   4.567
 6863SOL    HW221489   5.726   2.778   4.442
 6864SOL     OW21490   3.069   6.248   4.698
 6864SOL    HW121491   3.008   6.180   4.739
 6864SOL    HW221492   3.025   6.289   4.618
 6865SOL     OW21493   6.725   3.966   4.100
 6865SOL    HW121494   6.683   3.909   4.029
 6865SOL    HW221495   6.657   3.985   4.171
 6866SOL     OW21496   6.742   3.435   2.430
 6866SOL    HW121497   6.757   3.401   2.523
 6866SOL    HW221498   6.668   3.383   2.387
 6867SOL     OW21499   2.336   4.188   2.138
 6867SOL    HW121500   2.319   4.286   2.128
 6867SOL    HW221501   2.383   4.171   2.224
 6868SOL     OW21502   2.024   5.670   4.278
 6868SOL    HW121503   2.091   5.596   4.275
 6868SOL    HW221504   1.954   5.655   4.208
 6869SOL     OW21505   5.643   2.506   5.357
 6869SOL    HW121506   5.708   2.580   5.340
 6869SOL    HW221507   5.624   2.500   5.455
 6870SOL     OW21508   5.514   3.633   3.070
 6870SOL    HW121509   5.614   3.639   3.072
 6870SOL    HW221510   5.474   3.722   3.093
 6871SOL     OW21511   5.588   5.608   1.270
 6871SOL    HW121512   5.581   5.520   1.224
 6871SOL    HW221513   5.507   5.663   1.250
 6872SOL     OW21514   2.156   3.618   7.027
 6872SOL    HW121515   2.152   3.606   0.099
 6872SOL    HW221516   2.177   3.531   6.983
 6873SOL     OW21517   6.321   3.863   6.495
 6873SOL    HW121518   6.387   3.854   6.570
 6873SOL    HW221519   6.243   3.803   6.512
 6874SOL     OW21520   0.259   2.564   4.669
 6874SOL    HW121521   0.241   2.506   4.748
 6874SOL    HW221522   0.262   2.660   4.698
 6875SOL     OW21523   2.198   0.975   3.137
 6875SOL    HW121524   2.205   1.040   3.061
 6875SOL    HW221525   2.288   0.938   3.158
 6876SOL     OW21526   4.139   6.047   7.026
 6876SOL    HW121527   4.202   6.104   6.973
 6876SOL    HW221528   4.114   5.966   6.973
 6877SOL     OW21529   2.380   3.838   0.135
 6877SOL    HW121530   2.419   3.915   0.185
 6877SOL    HW221531   2.289   3.817   0.170
 6878SOL     OW21532   2.015   1.694   5.809
 6878SOL    HW121533   2.097   1.705   5.752
 6878SOL    HW221534   2.003   1.597   5.831
 6879SOL     OW21535   0.945   2.337   6.266
 6879SOL    HW121536   0.943   2.308   6.170
 6879SOL    HW221537   1.023   2.295   6.312
 6880SOL     OW21538   2.155   4.036   4.790
 6880SOL    HW121539   2.102   3.951   4.787
 6880SOL    HW221540   2.204   4.042   4.877
 6881SOL     OW21541   0.147   3.722   2.137
 6881SOL    HW121542   0.238   3.739   2.100
 6881SOL    HW221543   0.121   3.627   2.119
 6882SOL     OW21544   2.011   0.620   5.011
 6882SOL    HW121545   2.109   0.626   4.993
 6882SOL    HW221546   1.993   0.645   5.106
 6883SOL     OW21547   4.046   0.568   1.569
 6883SOL    HW121548   4.053   0.636   1.641
 6883SOL    HW221549   4.090   0.483   1.599
 6884SOL     OW21550   1.952   5.323   4.198
 6884SOL    HW121551   2.041   5.278   4.213
 6884SOL    HW221552   1.903   5.328   4.285
 6885SOL     OW21553   2.809   5.914   4.528
 6885SOL    HW121554   2.790   5.846   4.600
 6885SOL    HW221555   2.855   5.870   4.452
 6886SOL     OW21556   5.711   1.019   2.404
 6886SOL    HW121557   5.723   0.933   2.453
 6886SOL    HW221558   5.754   1.093   2.455
 6887SOL     OW21559   5.848   0.971   4.481
 6887SOL    HW121560   5.861   0.888   4.535
 6887SOL    HW221561   5.762   1.014   4.505
 6888SOL     OW21562   5.734   0.516   4.590
 6888SOL    HW121563   5.727   0.427   4.635
 6888SOL    HW221564   5.743   0.502   4.491
 6889SOL     OW21565   1.574   4.583   5.949
 6889SOL    HW121566   1.538   4.505   6.000
 6889SOL    HW221567   1.593   4.556   5.855
 6890SOL     OW21568   2.348   6.642   1.438
 6890SOL    HW121569   2.424   6.595   1.483
 6890SOL    HW221570   2.377   6.673   1.348
 6891SOL     OW21571   1.690   4.134   3.321
 6891SOL    HW121572   1.631   4.099   3.394
 6891SOL    HW221573   1.754   4.063   3.293
 6892SOL     OW21574   3.070   0.282   3.934
 6892SOL    HW121575   3.098   0.194   3.895
 6892SOL    HW221576   3.132   0.307   4.008
 6893SOL     OW21577   4.785   6.080   3.092
 6893SOL    HW121578   4.728   6.081   3.010
 6893SOL    HW221579   4.879   6.055   3.067
 6894SOL     OW21580   6.034   4.838   6.846
 6894SOL    HW121581   5.984   4.752   6.841
 6894SOL    HW221582   6.009   4.895   6.768
 6895SOL     OW21583   2.626   4.277   6.589
 6895SOL    HW121584   2.687   4.253   6.664
 6895SOL    HW221585   2.536   4.235   6.604
 6896SOL     OW21586   3.666   0.501   2.915
 6896SOL    HW121587   3.618   0.421   2.880
 6896SOL    HW221588   3.761   0.477   2.936
 6897SOL     OW21589   3.633   4.081   0.650
 6897SOL    HW121590   3.712   4.034   0.612
 6897SOL    HW221591   3.657   4.119   0.739
 6898SOL     OW21592   4.323   1.781   2.068
 6898SOL    HW121593   4.235   1.814   2.036
 6898SOL    HW221594   4.340   1.690   2.032
 6899SOL     OW21595   4.456   6.441   6.759
 6899SOL    HW121596   4.391   6.489   6.817
 6899SOL    HW221597   4.477   6.497   6.678
 6900SOL     OW21598   5.028   0.350   6.266
 6900SOL    HW121599   5.011   0.436   6.313
 6900SOL    HW221600   5.103   0.301   6.312
 6901SOL     OW21601   1.638   7.026   6.669
 6901SOL    HW121602   1.544   0.014   6.701
 6901SOL    HW221603   1.643   6.939   6.621
 6902SOL     OW21604   6.999   6.208   0.195
 6902SOL    HW121605   0.052   6.242   0.245
 6902SOL    HW221606   6.980   6.267   0.117
 6903SOL     OW21607   4.223   4.946   0.644
 6903SOL    HW121608   4.212   4.982   0.737
 6903SOL    HW221609   4.202   4.849   0.643
 6904SOL     OW21610   6.255   1.264   3.681
 6904SOL    HW121611   6.238   1.305   3.591
 6904SOL    HW221612   6.283   1.169   3.670
 6905SOL     OW21613   5.989   6.684   0.835
 6905SOL    HW121614   6.079   6.728   0.827
 6905SOL    HW221615   5.984   6.633   0.921
 6906SOL     OW21616   3.859   0.828   3.028
 6906SOL    HW121617   3.891   0.915   2.990
 6906SOL    HW221618   3.769   0.806   2.991
 6907SOL     OW21619   3.603   1.687   1.637
 6907SOL    HW121620   3.611   1.778   1.598
 6907SOL    HW221621   3.585   1.693   1.735
 6908SOL     OW21622   1.535   6.377   5.082
 6908SOL    HW121623   1.570   6.317   5.009
 6908SOL    HW221624   1.607   6.394   5.148
 6909SOL     OW21625   4.658   4.247   0.596
 6909SOL    HW121626   4.701   4.158   0.614
 6909SOL    HW221627   4.587   4.264   0.664
 6910SOL     OW21628   6.315   1.432   1.569
 6910SOL    HW121629   6.225   1.457   1.604
 6910SOL    HW221630   6.385   1.455   1.637
 6911SOL     OW21631   4.076   0.965   5.073
 6911SOL    HW121632   4.041   0.951   5.166
 6911SOL    HW221633   4.024   0.907   5.010
 6912SOL     OW21634   5.299   4.699   0.834
 6912SOL    HW121635   5.204   4.684   0.808
 6912SOL    HW221636   5.306   4.700   0.934
 6913SOL     OW21637   5.500   5.012   4.742
 6913SOL    HW121638   5.433   5.033   4.814
 6913SOL    HW221639   5.493   5.081   4.669
 6914SOL     OW21640   5.880   5.425   0.641
 6914SOL    HW121641   5.906   5.471   0.556
 6914SOL    HW221642   5.801   5.472   0.680
 6915SOL     OW21643   0.570   4.823   3.102
 6915SOL    HW121644   0.646   4.826   3.037
 6915SOL    HW221645   0.592   4.760   3.176
 6916SOL     OW21646   6.444   3.223   6.909
 6916SOL    HW121647   6.451   3.234   7.008
 6916SOL    HW221648   6.392   3.140   6.888
 6917SOL     OW21649   5.030   6.625   5.810
 6917SOL    HW121650   5.063   6.568   5.734
 6917SOL    HW221651   5.083   6.710   5.812
 6918SOL     OW21652   6.896   3.342   4.094
 6918SOL    HW121653   6.883   3.287   4.176
 6918SOL    HW221654   6.990   3.333   4.061
 6919SOL     OW21655   2.087   6.122   2.558
 6919SOL    HW121656   2.147   6.164   2.490
 6919SOL    HW221657   2.142   6.082   2.631
 6920SOL     OW21658   5.155   6.126   4.431
 6920SOL    HW121659   5.061   6.116   4.401
 6920SOL    HW221660   5.205   6.041   4.415
 6921SOL     OW21661   6.832   0.652   3.397
 6921SOL    HW121662   6.737   0.684   3.403
 6921SOL    HW221663   6.833   0.552   3.396
 6922SOL     OW21664   2.437   6.328   0.756
 6922SOL    HW121665   2.469   6.326   0.661
 6922SOL    HW221666   2.455   6.239   0.799
 6923SOL     OW21667   4.754   0.730   3.870
 6923SOL    HW121668   4.753   0.642   3.824
 6923SOL    HW221669   4.761   0.803   3.802
 6924SOL     OW21670   6.977   5.259   1.696
 6924SOL    HW121671   6.943   5.200   1.770
 6924SOL    HW221672   6.908   5.264   1.624
 6925SOL     OW21673   4.493   6.341   2.904
 6925SOL    HW121674   4.528   6.425   2.946
 6925SOL    HW221675   4.396   6.354   2.881
 6926SOL     OW21676   2.928   3.760   4.346
 6926SOL    HW121677   2.909   3.804   4.258
 6926SOL    HW221678   2.945   3.663   4.332
 6927SOL     OW21679   4.718   4.159   6.233
 6927SOL    HW121680   4.639   4.220   6.223
 6927SOL    HW221681   4.798   4.213   6.260
 6928SOL     OW21682   4.747   1.037   6.370
 6928SOL    HW121683   4.732   1.100   6.294
 6928SOL    HW221684   4.825   0.977   6.348
 6929SOL     OW21685   4.137   5.984   0.264
 6929SOL    HW121686   4.120   6.001   0.167
 6929SOL    HW221687   4.161   6.070   0.309
 6930SOL     OW21688   0.863   0.046   2.590
 6930SOL    HW121689   0.961   0.032   2.576
 6930SOL    HW221690   0.842   0.042   2.687
 6931SOL     OW21691   1.620   0.961   1.666
 6931SOL    HW121692   1.674   1.002   1.739
 6931SOL    HW221693   1.523   0.962   1.692
 6932SOL     OW21694   2.845   1.873   0.365
 6932SOL    HW121695   2.764   1.930   0.380
 6932SOL    HW221696   2.928   1.928   0.374
 6933SOL     OW21697   4.151   5.341   5.760
 6933SOL    HW121698   4.053   5.340   5.777
 6933SOL    HW221699   4.188   5.248   5.770
 6934SOL     OW21700   5.130   3.029   0.270
 6934SOL    HW121701   5.143   2.971   0.189
 6934SOL    HW221702   5.166   3.120   0.251
 6935SOL     OW21703   4.498   6.318   3.739
 6935SOL    HW121704   4.497   6.309   3.640
 6935SOL    HW221705   4.593   6.331   3.770
 6936SOL     OW21706   1.297   2.996   1.180
 6936SOL    HW121707   1.297   2.900   1.208
 6936SOL    HW221708   1.253   3.004   1.090
 6937SOL     OW21709   4.470   7.011   6.127
 6937SOL    HW121710   4.390   6.954   6.147
 6937SOL    HW221711   4.488   7.009   6.029
 6938SOL     OW21712   5.151   3.161   5.350
 6938SOL    HW121713   5.074   3.216   5.316
 6938SOL    HW221714   5.118   3.093   5.415
 6939SOL     OW21715   0.192   4.434   2.669
 6939SOL    HW121716   0.113   4.450   2.610
 6939SOL    HW221717   0.276   4.451   2.617
 6940SOL     OW21718   4.899   0.726   6.161
 6940SOL    HW121719   4.984   0.690   6.123
 6940SOL    HW221720   4.919   0.783   6.241
 6941SOL     OW21721   4.122   3.305   3.745
 6941SOL    HW121722   4.053   3.253   3.795
 6941SOL    HW221723   4.204   3.313   3.802
 6942SOL     OW21724   6.954   2.868   0.813
 6942SOL    HW121725   6.909   2.797   0.759
 6942SOL    HW221726   6.940   2.850   0.910
 6943SOL     OW21727   5.675   6.145   5.996
 6943SOL    HW121728   5.594   6.153   5.937
 6943SOL    HW221729   5.708   6.050   5.993
 6944SOL     OW21730   1.119   5.231   6.350
 6944SOL    HW121731   1.213   5.262   6.337
 6944SOL    HW221732   1.093   5.171   6.274
 6945SOL     OW21733   6.426   2.523   6.170
 6945SOL    HW121734   6.378   2.599   6.214
 6945SOL    HW221735   6.385   2.436   6.199
 6946SOL     OW21736   5.887   4.069   2.617
 6946SOL    HW121737   5.884   4.105   2.710
 6946SOL    HW221738   5.861   4.141   2.552
 6947SOL     OW21739   3.375   6.837   2.962
 6947SOL    HW121740   3.459   6.812   3.010
 6947SOL    HW221741   3.397   6.901   2.888
 6948SOL     OW21742   4.630   0.883   6.546
 6948SOL    HW121743   4.538   0.853   6.520
 6948SOL    HW221744   4.665   0.947   6.479
 6949SOL     OW21745   5.307   6.637   3.314
 6949SOL    HW121746   5.357   6.714   3.354
 6949SOL    HW221747   5.364   6.592   3.246
 6950SOL     OW21748   2.203   1.156   2.939
 6950SOL    HW121749   2.205   1.109   2.851
 6950SOL    HW221750   2.239   1.249   2.928
 6951SOL     OW21751   6.239   5.717   6.030
 6951SOL    HW121752   6.289   5.650   6.086
 6951SOL    HW221753   6.152   5.677   6.001
 6952SOL     OW21754   0.450   5.201   4.629
 6952SOL    HW121755   0.448   5.116   4.682
 6952SOL    HW221756   0.358   5.224   4.598
 6953SOL     OW21757   4.427   1.418   5.890
 6953SOL    HW121758   4.518   1.454   5.870
 6953SOL    HW221759   4.427   1.319   5.876
 6954SOL     OW21760   6.527   2.991   4.190
 6954SOL    HW121761   6.568   3.073   4.231
 6954SOL    HW221762   6.513   3.006   4.092
 6955SOL     OW21763   0.325   6.158   1.535
 6955SOL    HW121764   0.360   6.252   1.534
 6955SOL    HW221765   0.227   6.160   1.557
 6956SOL     OW21766   4.518   5.131   1.749
 6956SOL    HW121767   4.538   5.141   1.847
 6956SOL    HW221768   4.431   5.082   1.738
 6957SOL     OW21769   0.321   4.690   1.899
 6957SOL    HW121770   0.280   4.781   1.891
 6957SOL    HW221771   0.353   4.660   1.810
 6958SOL     OW21772   2.561   2.829   6.172
 6958SOL    HW121773   2.549   2.891   6.250
 6958SOL    HW221774   2.545   2.879   6.087
 6959SOL     OW21775   4.098   1.458   4.956
 6959SOL    HW121776   4.081   1.514   4.875
 6959SOL    HW221777   4.143   1.373   4.928
 6960SOL     OW21778   0.182   4.560   6.898
 6960SOL    HW121779   0.152   4.523   6.987
 6960SOL    HW221780   0.233   4.490   6.849
 6961SOL     OW21781   1.204   1.346   3.179
 6961SOL    HW121782   1.250   1.418   3.230
 6961SOL    HW221783   1.231   1.257   3.216
 6962SOL     OW21784   5.132   4.670   1.778
 6962SOL    HW121785   5.107   4.592   1.836
 6962SOL    HW221786   5.136   4.753   1.834
 6963SOL     OW21787   0.784   4.896   2.043
 6963SOL    HW121788   0.696   4.850   2.049
 6963SOL    HW221789   0.826   4.899   2.134
 6964SOL     OW21790   4.685   5.252   4.939
 6964SOL    HW121791   4.628   5.170   4.933
 6964SOL    HW221792   4.627   5.332   4.954
 6965SOL     OW21793   6.569   2.846   6.259
 6965SOL    HW121794   6.483   2.838   6.309
 6965SOL    HW221795   6.621   2.924   6.294
 6966SOL     OW21796   4.754   2.418   2.645
 6966SOL    HW121797   4.777   2.321   2.651
 6966SOL    HW221798   4.837   2.471   2.630
 6967SOL     OW21799   1.225   2.000   6.012
 6967SOL    HW121800   1.240   2.001   5.913
 6967SOL    HW221801   1.127   2.002   6.031
 6968SOL     OW21802   4.224   5.931   1.373
 6968SOL    HW121803   4.199   5.835   1.363
 6968SOL    HW221804   4.239   5.952   1.470
 6969SOL     OW21805   3.340   1.683   0.402
 6969SOL    HW121806   3.291   1.625   0.337
 6969SOL    HW221807   3.438   1.667   0.394
 6970SOL     OW21808   4.084   4.699   0.591
 6970SOL    HW121809   4.078   4.614   0.643
 6970SOL    HW221810   4.103   4.678   0.495
 6971SOL     OW21811   6.354   2.499   2.175
 6971SOL    HW121812   6.256   2.491   2.161
 6971SOL    HW221813   6.378   2.594   2.197
 6972SOL     OW21814   5.580   4.642   4.615
 6972SOL    HW121815   5.643   4.705   4.658
 6972SOL    HW221816   5.559   4.567   4.678
 6973SOL     OW21817   2.182   5.179   4.218
 6973SOL    HW121818   2.184   5.079   4.215
 6973SOL    HW221819   2.270   5.213   4.252
 6974SOL     OW21820   3.340   4.179   3.922
 6974SOL    HW121821   3.368   4.190   4.017
 6974SOL    HW221822   3.413   4.133   3.871
 6975SOL     OW21823   3.575   0.629   5.792
 6975SOL    HW121824   3.572   0.723   5.759
 6975SOL    HW221825   3.623   0.572   5.726
 6976SOL     OW21826   2.498   5.205   6.385
 6976SOL    HW121827   2.411   5.211   6.336
 6976SOL    HW221828   2.498   5.123   6.443
 6977SOL     OW21829   3.313   1.400   2.489
 6977SOL    HW121830   3.320   1.314   2.539
 6977SOL    HW221831   3.268   1.384   2.401
 6978SOL     OW21832   0.350   0.493   1.939
 6978SOL    HW121833   0.332   0.566   1.873
 6978SOL    HW221834   0.327   0.524   2.031
 6979SOL     OW21835   0.700   4.633   2.492
 6979SOL    HW121836   0.678   4.632   2.590
 6979SOL    HW221837   0.800   4.630   2.480
 6980SOL     OW21838   2.549   1.065   3.938
 6980SOL    HW121839   2.584   1.133   4.002
 6980SOL    HW221840   2.590   1.079   3.848
 6981SOL     OW21841   2.126   5.217   0.720
 6981SOL    HW121842   2.129   5.118   0.712
 6981SOL    HW221843   2.186   5.247   0.794
 6982SOL     OW21844   1.500   0.297   4.101
 6982SOL    HW121845   1.564   0.328   4.171
 6982SOL    HW221846   1.411   0.278   4.142
 6983SOL     OW21847   6.780   0.281   4.707
 6983SOL    HW121848   6.719   0.229   4.768
 6983SOL    HW221849   6.875   0.256   4.726
 6984SOL     OW21850   1.843   2.313   5.811
 6984SOL    HW121851   1.817   2.301   5.907
 6984SOL    HW221852   1.874   2.407   5.796
 6985SOL     OW21853   4.293   5.750   2.388
 6985SOL    HW121854   4.247   5.796   2.464
 6985SOL    HW221855   4.286   5.651   2.400
 6986SOL     OW21856   1.749   5.972   5.594
 6986SOL    HW121857   1.746   5.999   5.498
 6986SOL    HW221858   1.795   5.884   5.602
 6987SOL     OW21859   0.281   2.718   6.246
 6987SOL    HW121860   0.199   2.736   6.302
 6987SOL    HW221861   0.348   2.669   6.300
 6988SOL     OW21862   5.203   1.497   3.764
 6988SOL    HW121863   5.295   1.459   3.753
 6988SOL    HW221864   5.154   1.445   3.833
 6989SOL     OW21865   1.235   1.666   3.777
 6989SOL    HW121866   1.287   1.615   3.846
 6989SOL    HW221867   1.214   1.606   3.700
 6990SOL     OW21868   4.620   3.159   7.025
 6990SOL    HW121869   4.583   3.220   0.067
 6990SOL    HW221870   4.544   3.121   6.970
 6991SOL     OW21871   2.522   4.776   5.278
 6991SOL    HW121872   2.488   4.696   5.229
 6991SOL    HW221873   2.619   4.763   5.301
 6992SOL     OW21874   5.975   6.465   4.244
 6992SOL    HW121875   6.060   6.412   4.239
 6992SOL    HW221876   5.969   6.525   4.165
 6993SOL     OW21877   0.138   0.542   3.103
 6993SOL    HW121878   0.080   0.461   3.113
 6993SOL    HW221879   0.116   0.608   3.175
 6994SOL     OW21880   1.539   3.104   6.108
 6994SOL    HW121881   1.510   3.188   6.153
 6994SOL    HW221882   1.460   3.044   6.096
 6995SOL     OW21883   5.194   5.517   4.045
 6995SOL    HW121884   5.144   5.442   4.090
 6995SOL    HW221885   5.291   5.494   4.040
 6996SOL     OW21886   2.718   0.589   5.246
 6996SOL    HW121887   2.688   0.675   5.288
 6996SOL    HW221888   2.763   0.532   5.315
 6997SOL     OW21889   4.602   5.992   4.766
 6997SOL    HW121890   4.576   5.939   4.685
 6997SOL    HW221891   4.551   5.960   4.846
 6998SOL     OW21892   1.793   3.320   2.391
 6998SOL    HW121893   1.781   3.296   2.294
 6998SOL    HW221894   1.824   3.239   2.441
 6999SOL     OW21895   2.512   2.115   5.827
 6999SOL    HW121896   2.550   2.040   5.880
 6999SOL    HW221897   2.508   2.198   5.883
 7000SOL     OW21898   0.739   6.437   2.923
 7000SOL    HW121899   0.761   6.373   2.850
 7000SOL    HW221900   0.822   6.459   2.974
 7001SOL     OW21901   2.389   3.104   5.692
 7001SOL    HW121902   2.342   3.116   5.604
 7001SOL    HW221903   2.338   3.151   5.764
 7002SOL     OW21904   1.249   5.113   3.537
 7002SOL    HW121905   1.285   5.121   3.444
 7002SOL    HW221906   1.260   5.200   3.584
 7003SOL     OW21907   3.154   6.930   0.850
 7003SOL    HW121908   3.074   6.888   0.807
 7003SOL    HW221909   3.127   6.975   0.935
 7004SOL     OW21910   1.565   4.445   1.473
 7004SOL    HW121911   1.548   4.521   1.536
 7004SOL    HW221912   1.498   4.449   1.399
 7005SOL     OW21913   5.564   6.396   6.823
 7005SOL    HW121914   5.599   6.484   6.792
 7005SOL    HW221915   5.638   6.346   6.869
 7006SOL     OW21916   4.676   4.340   4.683
 7006SOL    HW121917   4.659   4.303   4.774
 7006SOL    HW221918   4.627   4.427   4.672
 7007SOL     OW21919   4.661   6.545   3.059
 7007SOL    HW121920   4.625   6.567   3.150
 7007SOL    HW221921   4.713   6.459   3.064
 7008SOL     OW21922   2.167   4.997   4.829
 7008SOL    HW121923   2.173   5.003   4.730
 7008SOL    HW221924   2.111   4.918   4.855
 7009SOL     OW21925   6.561   5.420   2.527
 7009SOL    HW121926   6.487   5.466   2.576
 7009SOL    HW221927   6.525   5.339   2.480
 7010SOL     OW21928   3.778   4.774   6.300
 7010SOL    HW121929   3.847   4.844   6.279
 7010SOL    HW221930   3.817   4.709   6.366
 7011SOL     OW21931   1.950   6.918   5.677
 7011SOL    HW121932   2.032   6.975   5.672
 7011SOL    HW221933   1.872   6.975   5.705
 7012SOL     OW21934   1.290   0.306   1.917
 7012SOL    HW121935   1.265   0.360   1.998
 7012SOL    HW221936   1.272   0.209   1.936
 7013SOL     OW21937   1.006   0.174   1.300
 7013SOL    HW121938   1.006   0.141   1.395
 7013SOL    HW221939   1.086   0.232   1.286
 7014SOL     OW21940   2.967   4.360   1.268
 7014SOL    HW121941   2.994   4.450   1.301
 7014SOL    HW221942   2.898   4.371   1.196
 7015SOL     OW21943   4.853   2.761   2.538
 7015SOL    HW121944   4.872   2.856   2.511
 7015SOL    HW221945   4.765   2.733   2.501
 7016SOL     OW21946   4.480   4.762   1.388
 7016SOL    HW121947   4.543   4.797   1.457
 7016SOL    HW221948   4.437   4.839   1.340
 7017SOL     OW21949   2.961   1.647   3.514
 7017SOL    HW121950   3.039   1.674   3.570
 7017SOL    HW221951   2.930   1.725   3.460
 7018SOL     OW21952   0.171   3.939   4.312
 7018SOL    HW121953   0.150   3.914   4.218
 7018SOL    HW221954   0.105   3.895   4.373
 7019SOL     OW21955   2.894   5.247   6.549
 7019SOL    HW121956   2.954   5.177   6.510
 7019SOL    HW221957   2.949   5.310   6.605
 7020SOL     OW21958   5.467   0.423   6.684
 7020SOL    HW121959   5.439   0.338   6.728
 7020SOL    HW221960   5.557   0.451   6.718
 7021SOL     OW21961   2.451   1.059   5.144
 7021SOL    HW121962   2.382   1.099   5.205
 7021SOL    HW221963   2.456   1.112   5.060
 7022SOL     OW21964   5.708   3.609   0.533
 7022SOL    HW121965   5.695   3.546   0.456
 7022SOL    HW221966   5.692   3.561   0.619
 7023SOL     OW21967   6.183   2.051   1.990
 7023SOL    HW121968   6.264   1.993   1.993
 7023SOL    HW221969   6.135   2.037   1.903
 7024SOL     OW21970   1.749   6.111   6.564
 7024SOL    HW121971   1.758   6.111   6.465
 7024SOL    HW221972   1.838   6.094   6.606
 7025SOL     OW21973   3.206   2.072   6.475
 7025SOL    HW121974   3.305   2.083   6.480
 7025SOL    HW221975   3.162   2.149   6.521
 7026SOL     OW21976   3.412   1.992   1.614
 7026SOL    HW121977   3.505   1.968   1.586
 7026SOL    HW221978   3.354   1.910   1.608
 7027SOL     OW21979   3.763   5.825   3.763
 7027SOL    HW121980   3.766   5.849   3.666
 7027SOL    HW221981   3.727   5.902   3.815
 7028SOL     OW21982   4.501   6.817   3.673
 7028SOL    HW121983   4.463   6.729   3.645
 7028SOL    HW221984   4.521   6.872   3.592
 7029SOL     OW21985   3.792   6.368   0.044
 7029SOL    HW121986   3.868   6.397   7.013
 7029SOL    HW221987   3.717   6.434   0.037
 7030SOL     OW21988   6.962   3.323   5.622
 7030SOL    HW121989   7.017   3.398   5.657
 7030SOL    HW221990   6.866   3.337   5.647
 7031SOL     OW21991   1.880   5.371   4.456
 7031SOL    HW121992   1.973   5.359   4.491
 7031SOL    HW221993   1.825   5.422   4.522
 7032SOL     OW21994   5.508   0.132   2.838
 7032SOL    HW121995   5.422   0.095   2.872
 7032SOL    HW221996   5.550   0.067   2.775
 7033SOL     OW21997   0.366   1.129   4.058
 7033SOL    HW121998   0.430   1.053   4.044
 7033SOL    HW221999   0.408   1.197   4.118
 7034SOL     OW22000   5.630   0.276   3.045
 7034SOL    HW122001   5.561   0.244   2.980
 7034SOL    HW222002   5.676   0.357   3.008
 7035SOL     OW22003   0.132   6.498   2.721
 7035SOL    HW122004   0.191   6.559   2.667
 7035SOL    HW222005   0.166   6.404   2.714
 7036SOL     OW22006   6.731   5.433   1.783
 7036SOL    HW122007   6.800   5.500   1.809
 7036SOL    HW222008   6.753   5.345   1.827
 7037SOL     OW22009   0.990   6.092   5.346
 7037SOL    HW122010   0.915   6.028   5.360
 7037SOL    HW222011   0.991   6.160   5.419
 7038SOL     OW22012   1.157   4.389   3.556
 7038SOL    HW122013   1.217   4.309   3.547
 7038SOL    HW222014   1.198   4.454   3.620
 7039SOL     OW22015   3.743   0.554   6.597
 7039SOL    HW122016   3.690   0.592   6.521
 7039SOL    HW222017   3.801   0.625   6.636
 7040SOL     OW22018   4.385   2.639   6.510
 7040SOL    HW122019   4.414   2.581   6.587
 7040SOL    HW222020   4.297   2.606   6.475
 7041SOL     OW22021   1.246   1.641   2.840
 7041SOL    HW122022   1.300   1.569   2.795
 7041SOL    HW222023   1.150   1.613   2.844
 7042SOL     OW22024   4.211   5.209   6.465
 7042SOL    HW122025   4.218   5.254   6.376
 7042SOL    HW222026   4.125   5.158   6.470
 7043SOL     OW22027   1.579   1.882   3.335
 7043SOL    HW122028   1.628   1.837   3.410
 7043SOL    HW222029   1.610   1.844   3.248
 7044SOL     OW22030   4.850   4.496   3.126
 7044SOL    HW122031   4.886   4.421   3.071
 7044SOL    HW222032   4.754   4.478   3.147
 7045SOL     OW22033   5.296   6.344   1.101
 7045SOL    HW122034   5.265   6.337   1.007
 7045SOL    HW222035   5.310   6.440   1.125
 7046SOL     OW22036   4.131   0.553   4.663
 7046SOL    HW122037   4.103   0.645   4.637
 7046SOL    HW222038   4.231   0.549   4.672
 7047SOL     OW22039   0.701   1.192   4.041
 7047SOL    HW122040   0.789   1.147   4.024
 7047SOL    HW222041   0.718   1.283   4.078
 7048SOL     OW22042   6.672   5.956   0.706
 7048SOL    HW122043   6.681   6.056   0.706
 7048SOL    HW222044   6.616   5.927   0.630
 7049SOL     OW22045   2.151   1.080   0.993
 7049SOL    HW122046   2.210   1.106   1.069
 7049SOL    HW222047   2.161   0.982   0.975
 7050SOL     OW22048   3.522   4.062   4.329
 7050SOL    HW122049   3.503   3.980   4.382
 7050SOL    HW222050   3.569   4.129   4.387
 7051SOL     OW22051   0.151   0.023   1.207
 7051SOL    HW122052   0.182   0.117   1.219
 7051SOL    HW222053   0.217   6.989   1.251
 7052SOL     OW22054   0.053   1.944   4.555
 7052SOL    HW122055   0.042   1.852   4.593
 7052SOL    HW222056   0.136   1.947   4.499
 7053SOL     OW22057   0.386   4.053   6.851
 7053SOL    HW122058   0.466   3.997   6.874
 7053SOL    HW222059   0.361   4.037   6.755
 7054SOL     OW22060   6.128   6.721   1.341
 7054SOL    HW122061   6.130   6.658   1.418
 7054SOL    HW222062   6.118   6.815   1.374
 7055SOL     OW22063   4.864   0.156   5.304
 7055SOL    HW122064   4.821   0.092   5.239
 7055SOL    HW222065   4.852   0.250   5.271
 7056SOL     OW22066   5.927   4.810   3.215
 7056SOL    HW122067   5.874   4.771   3.290
 7056SOL    HW222068   5.957   4.736   3.154
 7057SOL     OW22069   0.520   4.303   3.499
 7057SOL    HW122070   0.445   4.300   3.565
 7057SOL    HW222071   0.572   4.218   3.503
 7058SOL     OW22072   0.522   5.264   4.949
 7058SOL    HW122073   0.503   5.246   4.852
 7058SOL    HW222074   0.608   5.315   4.957
 7059SOL     OW22075   0.514   0.073   1.974
 7059SOL    HW122076   0.571   0.032   1.903
 7059SOL    HW222077   0.487   0.165   1.946
 7060SOL     OW22078   3.327   6.836   1.395
 7060SOL    HW122079   3.288   6.917   1.437
 7060SOL    HW222080   3.424   6.831   1.416
 7061SOL     OW22081   0.104   1.615   3.122
 7061SOL    HW122082   0.167   1.677   3.075
 7061SOL    HW222083   0.154   1.533   3.151
 7062SOL     OW22084   5.907   1.520   5.389
 7062SOL    HW122085   5.959   1.602   5.413
 7062SOL    HW222086   5.970   1.443   5.377
 7063SOL     OW22087   1.944   6.411   1.500
 7063SOL    HW122088   1.986   6.347   1.435
 7063SOL    HW222089   1.969   6.505   1.476
 7064SOL     OW22090   4.239   2.316   2.022
 7064SOL    HW122091   4.321   2.373   2.028
 7064SOL    HW222092   4.179   2.351   1.950
 7065SOL     OW22093   4.438   3.959   1.307
 7065SOL    HW122094   4.522   3.975   1.360
 7065SOL    HW222095   4.451   3.881   1.246
 7066SOL     OW22096   3.791   0.189   0.701
 7066SOL    HW122097   3.732   0.112   0.726
 7066SOL    HW222098   3.772   0.216   0.607
 7067SOL     OW22099   1.000   3.976   5.603
 7067SOL    HW122100   1.016   3.896   5.544
 7067SOL    HW222101   1.050   4.055   5.567
 7068SOL     OW22102   1.267   2.243   3.308
 7068SOL    HW122103   1.291   2.178   3.381
 7068SOL    HW222104   1.192   2.302   3.339
 7069SOL     OW22105   6.472   4.001   5.591
 7069SOL    HW122106   6.500   3.957   5.506
 7069SOL    HW222107   6.539   3.980   5.662
 7070SOL     OW22108   6.381   4.880   5.444
 7070SOL    HW122109   6.297   4.900   5.494
 7070SOL    HW222110   6.358   4.828   5.361
 7071SOL     OW22111   1.246   5.726   5.245
 7071SOL    HW122112   1.330   5.721   5.300
 7071SOL    HW222113   1.270   5.747   5.150
 7072SOL     OW22114   6.458   6.165   5.805
 7072SOL    HW122115   6.377   6.172   5.747
 7072SOL    HW222116   6.480   6.068   5.820
 7073SOL     OW22117   0.275   1.019   5.425
 7073SOL    HW122118   0.328   1.081   5.367
 7073SOL    HW222119   0.190   1.062   5.452
 7074SOL     OW22120   3.110   2.626   1.434
 7074SOL    HW122121   3.067   2.702   1.483
 7074SOL    HW222122   3.048   2.547   1.435
 7075SOL     OW22123   1.680   5.723   4.079
 7075SOL    HW122124   1.600   5.666   4.097
 7075SOL    HW222125   1.762   5.666   4.078
 7076SOL     OW22126   3.614   2.077   6.756
 7076SOL    HW122127   3.589   1.983   6.734
 7076SOL    HW222128   3.679   2.077   6.833
 7077SOL     OW22129   1.940   6.129   5.188
 7077SOL    HW122130   1.922   6.071   5.109
 7077SOL    HW222131   1.855   6.146   5.238
 7078SOL     OW22132   6.338   6.806   3.436
 7078SOL    HW122133   6.370   6.895   3.468
 7078SOL    HW222134   6.276   6.819   3.358
 7079SOL     OW22135   6.395   5.912   5.970
 7079SOL    HW122136   6.491   5.887   5.975
 7079SOL    HW222137   6.338   5.836   6.003
 7080SOL     OW22138   4.063   1.980   3.856
 7080SOL    HW122139   4.018   1.929   3.783
 7080SOL    HW222140   4.060   1.928   3.941
 7081SOL     OW22141   2.951   1.400   5.226
 7081SOL    HW122142   2.945   1.500   5.237
 7081SOL    HW222143   2.926   1.376   5.132
 7082SOL     OW22144   5.691   1.435   6.723
 7082SOL    HW122145   5.766   1.387   6.769
 7082SOL    HW222146   5.694   1.415   6.625
 7083SOL     OW22147   3.082   1.162   6.118
 7083SOL    HW122148   2.997   1.214   6.125
 7083SOL    HW222149   3.106   1.150   6.021
 7084SOL     OW22150   6.648   6.323   5.670
 7084SOL    HW122151   6.592   6.268   5.732
 7084SOL    HW222152   6.694   6.394   5.722
 7085SOL     OW22153   2.252   1.981   3.670
 7085SOL    HW122154   2.182   2.027   3.616
 7085SOL    HW222155   2.310   1.925   3.610
 7086SOL     OW22156   4.869   1.146   6.637
 7086SOL    HW122157   4.939   1.212   6.610
 7086SOL    HW222158   4.814   1.120   6.558
 7087SOL     OW22159   0.873   3.738   4.342
 7087SOL    HW122160   0.845   3.663   4.282
 7087SOL    HW222161   0.794   3.768   4.396
 7088SOL     OW22162   5.200   3.356   4.471
 7088SOL    HW122163   5.271   3.286   4.482
 7088SOL    HW222164   5.137   3.328   4.398
 7089SOL     OW22165   3.345   2.525   5.985
 7089SOL    HW122166   3.437   2.498   5.958
 7089SOL    HW222167   3.296   2.559   5.905
 7090SOL     OW22168   1.549   1.661   5.590
 7090SOL    HW122169   1.622   1.675   5.657
 7090SOL    HW222170   1.582   1.600   5.518
 7091SOL     OW22171   0.664   0.963   0.313
 7091SOL    HW122172   0.629   1.040   0.260
 7091SOL    HW222173   0.638   0.973   0.409
 7092SOL     OW22174   3.549   3.924   0.219
 7092SOL    HW122175   3.614   3.848   0.209
 7092SOL    HW222176   3.580   4.002   0.165
 7093SOL     OW22177   3.260   4.059   4.267
 7093SOL    HW122178   3.344   4.084   4.315
 7093SOL    HW222179   3.184   4.057   4.332
 7094SOL     OW22180   0.644   6.359   5.888
 7094SOL    HW122181   0.733   6.315   5.876
 7094SOL    HW222182   0.580   6.323   5.820
 7095SOL     OW22183   1.975   3.107   6.707
 7095SOL    HW122184   1.916   3.105   6.787
 7095SOL    HW222185   1.965   3.195   6.660
 7096SOL     OW22186   4.984   2.093   4.170
 7096SOL    HW122187   4.897   2.094   4.119
 7096SOL    HW222188   5.008   1.998   4.191
 7097SOL     OW22189   0.100   0.885   1.893
 7097SOL    HW122190   0.197   0.905   1.903
 7097SOL    HW222191   0.088   0.790   1.867
 7098SOL     OW22192   1.534   5.967   5.757
 7098SOL    HW122193   1.611   5.950   5.695
 7098SOL    HW222194   1.566   5.967   5.851
 7099SOL     OW22195   1.358   1.307   5.285
 7099SOL    HW122196   1.273   1.354   5.311
 7099SOL    HW222197   1.422   1.373   5.245
 7100SOL     OW22198   4.824   3.884   0.923
 7100SOL    HW122199   4.914   3.870   0.964
 7100SOL    HW222200   4.753   3.869   0.993
 7101SOL     OW22201   3.106   0.190   4.471
 7101SOL    HW122202   3.073   0.283   4.487
 7101SOL    HW222203   3.063   0.127   4.536
 7102SOL     OW22204   4.084   1.301   1.334
 7102SOL    HW122205   4.078   1.381   1.274
 7102SOL    HW222206   4.179   1.286   1.361
 7103SOL     OW22207   3.558   6.181   6.899
 7103SOL    HW122208   3.649   6.144   6.911
 7103SOL    HW222209   3.558   6.278   6.923
 7104SOL     OW22210   1.580   2.937   3.254
 7104SOL    HW122211   1.666   2.959   3.207
 7104SOL    HW222212   1.595   2.858   3.314
 7105SOL     OW22213   3.223   3.362   4.559
 7105SOL    HW122214   3.126   3.342   4.551
 7105SOL    HW222215   3.262   3.379   4.469
 7106SOL     OW22216   3.565   3.191   4.909
 7106SOL    HW122217   3.583   3.248   4.989
 7106SOL    HW222218   3.542   3.098   4.939
 7107SOL     OW22219   2.651   1.285   0.398
 7107SOL    HW122220   2.738   1.259   0.357
 7107SOL    HW222221   2.606   1.203   0.434
 7108SOL     OW22222   5.050   6.305   1.279
 7108SOL    HW122223   5.114   6.352   1.218
 7108SOL    HW222224   5.093   6.222   1.315
 7109SOL     OW22225   3.576   0.016   6.284
 7109SOL    HW122226   3.559   0.113   6.265
 7109SOL    HW222227   3.515   7.013   6.356
 7110SOL     OW22228   5.184   4.988   3.933
 7110SOL    HW122229   5.235   5.063   3.891
 7110SOL    HW222230   5.103   5.024   3.980
 7111SOL     OW22231   1.546   3.789   4.141
 7111SOL    HW122232   1.475   3.786   4.212
 7111SOL    HW222233   1.553   3.883   4.106
 7112SOL     OW22234   1.391   6.072   3.953
 7112SOL    HW122235   1.469   6.039   3.901
 7112SOL    HW222236   1.382   6.019   4.037
 7113SOL     OW22237   3.928   3.970   4.401
 7113SOL    HW122238   3.921   4.019   4.488
 7113SOL    HW222239   3.982   3.887   4.414
 7114SOL     OW22240   4.021   0.756   1.780
 7114SOL    HW122241   3.944   0.701   1.812
 7114SOL    HW222242   3.988   0.846   1.751
 7115SOL     OW22243   5.200   2.094   1.304
 7115SOL    HW122244   5.108   2.134   1.302
 7115SOL    HW222245   5.211   2.041   1.388
 7116SOL     OW22246   5.806   4.150   3.741
 7116SOL    HW122247   5.774   4.059   3.716
 7116SOL    HW222248   5.872   4.144   3.816
 7117SOL     OW22249   6.859   5.915   3.447
 7117SOL    HW122250   6.779   5.874   3.403
 7117SOL    HW222251   6.893   5.990   3.390
 7118SOL     OW22252   5.368   3.701   1.471
 7118SOL    HW122253   5.286   3.666   1.517
 7118SOL    HW222254   5.403   3.780   1.521
 7119SOL     OW22255   5.927   1.192   2.985
 7119SOL    HW122256   5.926   1.291   2.990
 7119SOL    HW222257   5.978   1.163   2.904
 7120SOL     OW22258   4.848   1.135   3.244
 7120SOL    HW122259   4.832   1.135   3.145
 7120SOL    HW222260   4.913   1.207   3.268
 7121SOL     OW22261   2.412   6.755   3.704
 7121SOL    HW122262   2.407   6.709   3.615
 7121SOL    HW222263   2.461   6.697   3.769
 7122SOL     OW22264   6.698   1.132   0.214
 7122SOL    HW122265   6.638   1.063   0.253
 7122SOL    HW222266   6.750   1.092   0.138
 7123SOL     OW22267   2.944   5.944   1.860
 7123SOL    HW122268   2.920   5.863   1.914
 7123SOL    HW222269   3.043   5.959   1.865
 7124SOL     OW22270   0.617   5.105   0.688
 7124SOL    HW122271   0.553   5.180   0.676
 7124SOL    HW222272   0.683   5.128   0.759
 7125SOL     OW22273   6.219   6.576   1.563
 7125SOL    HW122274   6.304   6.535   1.530
 7125SOL    HW222275   6.240   6.657   1.618
 7126SOL     OW22276   2.168   3.958   0.337
 7126SOL    HW122277   2.089   3.989   0.284
 7126SOL    HW222278   2.247   4.015   0.316
 7127SOL     OW22279   3.534   5.220   4.114
 7127SOL    HW122280   3.471   5.281   4.163
 7127SOL    HW222281   3.627   5.255   4.123
 7128SOL     OW22282   3.496   4.927   0.842
 7128SOL    HW122283   3.473   4.833   0.867
 7128SOL    HW222284   3.571   4.926   0.775
 7129SOL     OW22285   3.089   0.538   0.988
 7129SOL    HW122286   3.010   0.548   1.048
 7129SOL    HW222287   3.159   0.605   1.013
 7130SOL     OW22288   3.058   5.129   3.900
 7130SOL    HW122289   3.104   5.041   3.903
 7130SOL    HW222290   3.104   5.189   3.834
 7131SOL     OW22291   2.912   1.346   2.242
 7131SOL    HW122292   2.892   1.279   2.170
 7131SOL    HW222293   2.872   1.435   2.217
 7132SOL     OW22294   3.904   3.592   2.812
 7132SOL    HW122295   3.891   3.588   2.911
 7132SOL    HW222296   3.987   3.543   2.786
 7133SOL     OW22297   4.650   5.570   3.153
 7133SOL    HW122298   4.681   5.657   3.191
 7133SOL    HW222299   4.612   5.513   3.225
 7134SOL     OW22300   6.069   6.133   3.947
 7134SOL    HW122301   6.027   6.116   4.036
 7134SOL    HW222302   6.168   6.142   3.958
 7135SOL     OW22303   1.429   0.804   4.271
 7135SOL    HW122304   1.435   0.845   4.362
 7135SOL    HW222305   1.373   0.721   4.275
 7136SOL     OW22306   2.181   1.553   0.623
 7136SOL    HW122307   2.131   1.470   0.597
 7136SOL    HW222308   2.261   1.528   0.677
 7137SOL     OW22309   4.335   0.948   4.666
 7137SOL    HW122310   4.352   0.900   4.580
 7137SOL    HW222311   4.376   1.039   4.661
 7138SOL     OW22312   3.323   2.716   1.245
 7138SOL    HW122313   3.230   2.691   1.270
 7138SOL    HW222314   3.361   2.779   1.313
 7139SOL     OW22315   4.917   3.236   1.859
 7139SOL    HW122316   5.012   3.206   1.862
 7139SOL    HW222317   4.859   3.170   1.907
 7140SOL     OW22318   6.007   3.946   4.725
 7140SOL    HW122319   6.026   3.869   4.663
 7140SOL    HW222320   5.963   4.020   4.675
 7141SOL     OW22321   2.931   0.346   0.891
 7141SOL    HW122322   2.990   0.423   0.913
 7141SOL    HW222323   2.886   0.362   0.803
 7142SOL     OW22324   4.246   6.484   3.692
 7142SOL    HW122325   4.324   6.426   3.713
 7142SOL    HW222326   4.203   6.515   3.777
 7143SOL     OW22327   1.926   4.045   6.219
 7143SOL    HW122328   1.873   4.118   6.176
 7143SOL    HW222329   1.913   4.048   6.318
 7144SOL     OW22330   0.360   1.292   2.881
 7144SOL    HW122331   0.334   1.202   2.845
 7144SOL    HW222332   0.379   1.284   2.978
 7145SOL     OW22333   4.264   6.576   6.907
 7145SOL    HW122334   4.257   6.624   6.820
 7145SOL    HW222335   4.267   6.642   6.982
 7146SOL     OW22336   3.053   6.395   0.661
 7146SOL    HW122337   3.074   6.324   0.593
 7146SOL    HW222338   3.057   6.355   0.753
 7147SOL     OW22339   6.747   0.073   3.219
 7147SOL    HW122340   6.683   7.026   3.201
 7147SOL    HW222341   6.783   0.064   3.312
 7148SOL     OW22342   1.008   6.128   1.802
 7148SOL    HW122343   0.950   6.177   1.867
 7148SOL    HW222344   1.053   6.052   1.848
 7149SOL     OW22345   6.574   0.949   3.742
 7149SOL    HW122346   6.486   0.914   3.708
 7149SOL    HW222347   6.625   0.990   3.667
 7150SOL     OW22348   4.960   3.009   1.036
 7150SOL    HW122349   5.023   2.958   1.095
 7150SOL    HW222350   4.953   3.103   1.068
 7151SOL     OW22351   1.615   5.899   1.045
 7151SOL    HW122352   1.518   5.911   1.025
 7151SOL    HW222353   1.667   5.975   1.006
 7152SOL     OW22354   0.709   3.506   4.545
 7152SOL    HW122355   0.793   3.537   4.590
 7152SOL    HW222356   0.671   3.580   4.490
 7153SOL     OW22357   4.012   6.844   5.177
 7153SOL    HW122358   3.984   6.791   5.097
 7153SOL    HW222359   4.058   6.784   5.243
 7154SOL     OW22360   3.832   5.617   4.407
 7154SOL    HW122361   3.808   5.602   4.311
 7154SOL    HW222362   3.850   5.529   4.450
 7155SOL     OW22363   1.138   6.063   2.168
 7155SOL    HW122364   1.086   5.990   2.123
 7155SOL    HW222365   1.202   6.102   2.103
 7156SOL     OW22366   6.676   5.180   5.288
 7156SOL    HW122367   6.761   5.211   5.247
 7156SOL    HW222368   6.619   5.137   5.218
 7157SOL     OW22369   6.017   5.650   0.129
 7157SOL    HW122370   6.053   5.600   0.051
 7157SOL    HW222371   5.947   5.714   0.098
 7158SOL     OW22372   6.781   6.771   3.004
 7158SOL    HW122373   6.844   6.711   3.053
 7158SOL    HW222374   6.816   6.865   3.008
 7159SOL     OW22375   0.062   4.927   1.308
 7159SOL    HW122376   0.103   4.959   1.394
 7159SOL    HW222377   0.037   4.831   1.317
 7160SOL     OW22378   6.740   6.748   1.569
 7160SOL    HW122379   6.714   6.810   1.495
 7160SOL    HW222380   6.837   6.724   1.559
 7161SOL     OW22381   3.462   3.212   3.706
 7161SOL    HW122382   3.446   3.251   3.615
 7161SOL    HW222383   3.556   3.230   3.734
 7162SOL     OW22384   3.855   4.969   4.532
 7162SOL    HW122385   3.810   4.950   4.445
 7162SOL    HW222386   3.926   4.900   4.548
 7163SOL     OW22387   3.912   7.018   3.391
 7163SOL    HW122388   3.920   6.990   3.487
 7163SOL    HW222389   3.998   0.034   3.362
 7164SOL     OW22390   2.041   1.220   3.191
 7164SOL    HW122391   2.115   1.221   3.124
 7164SOL    HW222392   2.069   1.168   3.271
 7165SOL     OW22393   6.163   1.161   0.464
 7165SOL    HW122394   6.257   1.187   0.440
 7165SOL    HW222395   6.142   1.195   0.556
 7166SOL     OW22396   4.679   4.573   1.366
 7166SOL    HW122397   4.679   4.477   1.394
 7166SOL    HW222398   4.586   4.609   1.370
 7167SOL     OW22399   4.898   3.697   5.328
 7167SOL    HW122400   4.838   3.650   5.263
 7167SOL    HW222401   4.858   3.785   5.352
 7168SOL     OW22402   1.243   1.453   4.155
 7168SOL    HW122403   1.198   1.541   4.138
 7168SOL    HW222404   1.183   1.379   4.124
 7169SOL     OW22405   1.577   3.231   5.845
 7169SOL    HW122406   1.489   3.238   5.798
 7169SOL    HW222407   1.573   3.157   5.912
 7170SOL     OW22408   4.898   5.180   2.908
 7170SOL    HW122409   4.926   5.086   2.926
 7170SOL    HW222410   4.875   5.225   2.994
 7171SOL     OW22411   4.435   3.175   5.676
 7171SOL    HW122412   4.417   3.164   5.578
 7171SOL    HW222413   4.386   3.106   5.728
 7172SOL     OW22414   1.439   6.649   0.556
 7172SOL    HW122415   1.487   6.573   0.512
 7172SOL    HW222416   1.487   6.675   0.639
 7173SOL     OW22417   6.711   5.035   4.187
 7173SOL    HW122418   6.656   5.017   4.268
 7173SOL    HW222419   6.773   4.959   4.171
 7174SOL     OW22420   2.079   5.290   0.129
 7174SOL    HW122421   2.104   5.288   0.032
 7174SOL    HW222422   2.154   5.328   0.183
 7175SOL     OW22423   5.617   3.482   0.749
 7175SOL    HW122424   5.661   3.433   0.825
 7175SOL    HW222425   5.545   3.541   0.786
 7176SOL     OW22426   6.895   4.661   2.344
 7176SOL    HW122427   6.962   4.719   2.295
 7176SOL    HW222428   6.940   4.577   2.373
 7177SOL     OW22429   1.390   6.125   3.535
 7177SOL    HW122430   1.295   6.095   3.522
 7177SOL    HW222431   1.452   6.054   3.500
 7178SOL     OW22432   1.642   3.068   5.263
 7178SOL    HW122433   1.683   3.047   5.352
 7178SOL    HW222434   1.561   3.124   5.276
 7179SOL     OW22435   3.069   3.468   5.818
 7179SOL    HW122436   3.090   3.548   5.874
 7179SOL    HW222437   3.006   3.494   5.745
 7180SOL     OW22438   0.881   5.431   6.808
 7180SOL    HW122439   0.906   5.363   6.739
 7180SOL    HW222440   0.951   5.434   6.879
 7181SOL     OW22441   3.870   0.882   1.054
 7181SOL    HW122442   3.782   0.836   1.065
 7181SOL    HW222443   3.935   0.845   1.121
 7182SOL     OW22444   2.217   4.390   5.358
 7182SOL    HW122445   2.313   4.364   5.349
 7182SOL    HW222446   2.160   4.308   5.354
 7183SOL     OW22447   2.150   5.258   2.608
 7183SOL    HW122448   2.077   5.315   2.645
 7183SOL    HW222449   2.216   5.315   2.558
 7184SOL     OW22450   1.449   6.550   4.116
 7184SOL    HW122451   1.373   6.489   4.094
 7184SOL    HW222452   1.417   6.645   4.111
 7185SOL     OW22453   5.261   2.981   6.562
 7185SOL    HW122454   5.340   2.941   6.609
 7185SOL    HW222455   5.180   2.971   6.620
 7186SOL     OW22456   6.961   6.539   5.521
 7186SOL    HW122457   7.023   6.612   5.493
 7186SOL    HW222458   6.905   6.571   5.598
 7187SOL     OW22459   1.564   4.753   1.894
 7187SOL    HW122460   1.629   4.825   1.920
 7187SOL    HW222461   1.500   4.739   1.969
 7188SOL     OW22462   5.833   0.175   2.214
 7188SOL    HW122463   5.755   0.230   2.244
 7188SOL    HW222464   5.910   0.235   2.193
 7189SOL     OW22465   6.283   0.896   6.100
 7189SOL    HW122466   6.190   0.865   6.121
 7189SOL    HW222467   6.280   0.965   6.028
 7190SOL     OW22468   5.295   4.267   3.213
 7190SOL    HW122469   5.390   4.298   3.206
 7190SOL    HW222470   5.256   4.260   3.121
 7191SOL     OW22471   1.131   3.586   2.943
 7191SOL    HW122472   1.221   3.568   2.904
 7191SOL    HW222473   1.080   3.500   2.950
 7192SOL     OW22474   2.425   5.301   5.913
 7192SOL    HW122475   2.473   5.216   5.935
 7192SOL    HW222476   2.426   5.315   5.814
 7193SOL     OW22477   3.165   1.856   4.750
 7193SOL    HW122478   3.235   1.910   4.703
 7193SOL    HW222479   3.126   1.909   4.824
 7194SOL     OW22480   2.243   1.440   1.258
 7194SOL    HW122481   2.294   1.526   1.265
 7194SOL    HW222482   2.226   1.420   1.161
 7195SOL     OW22483   6.963   5.348   0.496
 7195SOL    HW122484   6.943   5.251   0.504
 7195SOL    HW222485   0.017   5.362   0.440
 7196SOL     OW22486   2.947   3.432   3.226
 7196SOL    HW122487   2.916   3.338   3.239
 7196SOL    HW222488   2.956   3.477   3.315
 7197SOL     OW22489   6.630   1.917   4.823
 7197SOL    HW122490   6.681   1.972   4.889
 7197SOL    HW222491   6.580   1.845   4.871
 7198SOL     OW22492   1.589   6.787   5.748
 7198SOL    HW122493   1.677   6.742   5.761
 7198SOL    HW222494   1.516   6.719   5.754
 7199SOL     OW22495   6.883   0.613   2.719
 7199SOL    HW122496   6.932   0.650   2.798
 7199SOL    HW222497   6.938   0.541   2.676
 7200SOL     OW22498   2.234   1.033   0.535
 7200SOL    HW122499   2.172   0.983   0.595
 7200SOL    HW222500   2.222   1.002   0.441
 7201SOL     OW22501   1.586   5.003   2.810
 7201SOL    HW122502   1.649   5.074   2.841
 7201SOL    HW222503   1.609   4.976   2.716
 7202SOL     OW22504   3.863   0.157   6.348
 7202SOL    HW122505   3.768   0.145   6.318
 7202SOL    HW222506   3.918   0.196   6.274
 7203SOL     OW22507   6.253   0.292   0.599
 7203SOL    HW122508   6.278   0.360   0.668
 7203SOL    HW222509   6.179   0.329   0.542
 7204SOL     OW22510   6.388   0.576   3.794
 7204SOL    HW122511   6.410   0.530   3.708
 7204SOL    HW222512   6.401   0.512   3.870
 7205SOL     OW22513   1.626   5.459   2.876
 7205SOL    HW122514   1.625   5.531   2.945
 7205SOL    HW222515   1.597   5.497   2.788
 7206SOL     OW22516   0.216   1.411   1.142
 7206SOL    HW122517   0.264   1.362   1.069
 7206SOL    HW222518   0.220   1.357   1.226
 7207SOL     OW22519   3.457   6.559   1.069
 7207SOL    HW122520   3.380   6.622   1.060
 7207SOL    HW222521   3.474   6.513   0.982
 7208SOL     OW22522   3.913   6.720   4.621
 7208SOL    HW122523   3.913   6.785   4.697
 7208SOL    HW222524   3.931   6.628   4.656
 7209SOL     OW22525   4.080   3.485   4.099
 7209SOL    HW122526   4.082   3.584   4.085
 7209SOL    HW222527   4.096   3.464   4.196
 7210SOL     OW22528   4.505   1.122   3.532
 7210SOL    HW122529   4.547   1.033   3.513
 7210SOL    HW222530   4.490   1.171   3.446
 7211SOL     OW22531   1.185   6.507   4.436
 7211SOL    HW122532   1.149   6.544   4.350
 7211SOL    HW222533   1.270   6.554   4.460
 7212SOL     OW22534   6.781   5.755   4.885
 7212SOL    HW122535   6.823   5.707   4.808
 7212SOL    HW222536   6.835   5.836   4.908
 7213SOL     OW22537   5.673   0.026   5.658
 7213SOL    HW122538   5.611   6.983   5.624
 7213SOL    HW222539   5.764   0.011   5.620
 7214SOL     OW22540   2.130   5.329   4.579
 7214SOL    HW122541   2.112   5.351   4.674
 7214SOL    HW222542   2.162   5.234   4.572
 7215SOL     OW22543   1.122   3.406   4.355
 7215SOL    HW122544   1.204   3.395   4.299
 7215SOL    HW222545   1.067   3.322   4.351
 7216SOL     OW22546   2.518   6.305   6.930
 7216SOL    HW122547   2.605   6.340   6.962
 7216SOL    HW222548   2.526   6.278   6.834
 7217SOL     OW22549   1.767   4.361   2.356
 7217SOL    HW122550   1.844   4.383   2.296
 7217SOL    HW222551   1.711   4.290   2.314
 7218SOL     OW22552   4.934   2.188   5.678
 7218SOL    HW122553   5.011   2.125   5.671
 7218SOL    HW222554   4.870   2.155   5.747
 7219SOL     OW22555   4.546   6.946   3.420
 7219SOL    HW122556   4.482   6.990   3.356
 7219SOL    HW222557   4.635   6.990   3.413
 7220SOL     OW22558   6.305   0.841   2.856
 7220SOL    HW122559   6.271   0.886   2.774
 7220SOL    HW222560   6.386   0.787   2.834
 7221SOL     OW22561   5.866   4.404   5.247
 7221SOL    HW122562   5.814   4.345   5.184
 7221SOL    HW222563   5.912   4.347   5.315
 7222SOL     OW22564   6.502   6.738   0.741
 7222SOL    HW122565   6.410   6.770   0.719
 7222SOL    HW222566   6.500   6.639   0.758
 7223SOL     OW22567   3.082   1.404   6.624
 7223SOL    HW122568   3.039   1.315   6.633
 7223SOL    HW222569   3.021   1.475   6.661
 7224SOL     OW22570   5.698   1.056   4.825
 7224SOL    HW122571   5.671   1.149   4.798
 7224SOL    HW222572   5.792   1.058   4.860
 7225SOL     OW22573   1.853   5.817   0.465
 7225SOL    HW122574   1.950   5.832   0.481
 7225SOL    HW222575   1.841   5.753   0.389
 7226SOL     OW22576   0.354   6.776   0.192
 7226SOL    HW122577   0.430   6.766   0.257
 7226SOL    HW222578   0.312   6.866   0.204
 7227SOL     OW22579   0.700   1.703   0.095
 7227SOL    HW122580   0.704   1.783   0.155
 7227SOL    HW222581   0.632   1.639   0.130
 7228SOL     OW22582   0.029   6.614   1.981
 7228SOL    HW122583   0.064   6.666   1.903
 7228SOL    HW222584   6.982   6.664   2.024
 7229SOL     OW22585   1.228   0.289   4.218
 7229SOL    HW122586   1.207   0.203   4.172
 7229SOL    HW222587   1.232   0.274   4.317
 7230SOL     OW22588   4.609   5.502   3.887
 7230SOL    HW122589   4.626   5.592   3.926
 7230SOL    HW222590   4.519   5.500   3.845
 7231SOL     OW22591   6.136   1.755   6.284
 7231SOL    HW122592   6.073   1.821   6.324
 7231SOL    HW222593   6.128   1.668   6.334
 7232SOL     OW22594   4.466   4.612   2.664
 7232SOL    HW122595   4.503   4.704   2.674
 7232SOL    HW222596   4.458   4.590   2.566
 7233SOL     OW22597   0.064   2.651   5.245
 7233SOL    HW122598   0.073   2.744   5.281
 7233SOL    HW222599   7.023   2.650   5.172
 7234SOL     OW22600   6.327   1.745   1.731
 7234SOL    HW122601   6.359   1.831   1.692
 7234SOL    HW222602   6.263   1.701   1.669
 7235SOL     OW22603   5.240   3.696   4.732
 7235SOL    HW122604   5.141   3.697   4.747
 7235SOL    HW222605   5.285   3.670   4.817
 7236SOL     OW22606   3.895   1.629   2.811
 7236SOL    HW122607   3.843   1.544   2.817
 7236SOL    HW222608   3.971   1.626   2.876
 7237SOL     OW22609   6.210   6.219   5.685
 7237SOL    HW122610   6.192   6.222   5.587
 7237SOL    HW222611   6.179   6.132   5.722
 7238SOL     OW22612   2.528   1.802   2.284
 7238SOL    HW122613   2.556   1.717   2.240
 7238SOL    HW222614   2.448   1.786   2.341
 7239SOL     OW22615   1.604   1.273   2.798
 7239SOL    HW122616   1.590   1.179   2.765
 7239SOL    HW222617   1.692   1.280   2.843
 7240SOL     OW22618   2.866   4.007   0.788
 7240SOL    HW122619   2.875   4.078   0.858
 7240SOL    HW222620   2.955   3.964   0.773
 7241SOL     OW22621   3.646   6.969   5.504
 7241SOL    HW122622   3.577   6.994   5.436
 7241SOL    HW222623   3.616   7.000   5.594
 7242SOL     OW22624   5.933   4.603   6.808
 7242SOL    HW122625   5.858   4.549   6.846
 7242SOL    HW222626   6.016   4.548   6.804
 7243SOL     OW22627   0.839   5.331   0.123
 7243SOL    HW122628   0.865   5.284   0.039
 7243SOL    HW222629   0.743   5.311   0.144
 7244SOL     OW22630   5.851   1.906   1.151
 7244SOL    HW122631   5.928   1.868   1.101
 7244SOL    HW222632   5.777   1.839   1.153
 7245SOL     OW22633   0.369   2.194   4.777
 7245SOL    HW122634   0.291   2.137   4.804
 7245SOL    HW222635   0.423   2.216   4.858
 7246SOL     OW22636   5.784   0.047   4.811
 7246SOL    HW122637   5.852   0.059   4.883
 7246SOL    HW222638   5.766   6.976   4.798
 7247SOL     OW22639   2.654   6.122   1.972
 7247SOL    HW122640   2.561   6.088   1.957
 7247SOL    HW222641   2.666   6.146   2.069
 7248SOL     OW22642   4.105   1.098   3.837
 7248SOL    HW122643   4.035   1.137   3.777
 7248SOL    HW222644   4.161   1.033   3.786
 7249SOL     OW22645   5.512   4.557   0.516
 7249SOL    HW122646   5.575   4.618   0.565
 7249SOL    HW222647   5.463   4.501   0.582
 7250SOL     OW22648   2.769   5.032   6.048
 7250SOL    HW122649   2.793   5.062   6.141
 7250SOL    HW222650   2.831   5.075   5.983
 7251SOL     OW22651   6.968   6.657   4.773
 7251SOL    HW122652   6.935   6.737   4.724
 7251SOL    HW222653   0.001   6.685   4.847
 7252SOL     OW22654   3.284   3.263   4.881
 7252SOL    HW122655   3.216   3.192   4.900
 7252SOL    HW222656   3.355   3.226   4.820
 7253SOL     OW22657   3.081   6.171   0.504
 7253SOL    HW122658   3.024   6.159   0.422
 7253SOL    HW222659   3.068   6.093   0.565
 7254SOL     OW22660   3.818   5.604   3.897
 7254SOL    HW122661   3.724   5.589   3.930
 7254SOL    HW222662   3.822   5.688   3.844
 7255SOL     OW22663   3.195   3.681   2.178
 7255SOL    HW122664   3.121   3.614   2.178
 7255SOL    HW222665   3.265   3.654   2.112
 7256SOL     OW22666   4.329   4.873   3.901
 7256SOL    HW122667   4.378   4.792   3.868
 7256SOL    HW222668   4.367   4.900   3.990
 7257SOL     OW22669   5.505   2.285   3.225
 7257SOL    HW122670   5.533   2.378   3.201
 7257SOL    HW222671   5.549   2.220   3.164
 7258SOL     OW22672   3.597   0.310   5.009
 7258SOL    HW122673   3.497   0.317   5.003
 7258SOL    HW222674   3.621   0.241   5.077
 7259SOL     OW22675   2.436   4.089   0.227
 7259SOL    HW122676   2.529   4.125   0.237
 7259SOL    HW222677   2.370   4.162   0.246
 7260SOL     OW22678   3.201   1.957   2.642
 7260SOL    HW122679   3.248   2.029   2.592
 7260SOL    HW222680   3.102   1.973   2.638
 7261SOL     OW22681   2.123   3.222   1.848
 7261SOL    HW122682   2.149   3.146   1.908
 7261SOL    HW222683   2.169   3.305   1.879
 7262SOL     OW22684   5.615   2.012   4.951
 7262SOL    HW122685   5.676   1.938   4.978
 7262SOL    HW222686   5.523   1.994   4.987
 7263SOL     OW22687   1.349   6.093   1.216
 7263SOL    HW122688   1.327   6.147   1.135
 7263SOL    HW222689   1.441   6.117   1.247
 7264SOL     OW22690   6.562   0.767   6.644
 7264SOL    HW122691   6.464   0.785   6.635
 7264SOL    HW222692   6.585   0.683   6.596
 7265SOL     OW22693   4.996   4.999   5.514
 7265SOL    HW122694   5.045   4.930   5.567
 7265SOL    HW222695   4.968   5.074   5.574
 7266SOL     OW22696   4.836   0.503   2.075
 7266SOL    HW122697   4.740   0.505   2.103
 7266SOL    HW222698   4.860   0.591   2.033
 7267SOL     OW22699   0.389   3.764   4.296
 7267SOL    HW122700   0.342   3.720   4.372
 7267SOL    HW222701   0.337   3.846   4.268
 7268SOL     OW22702   4.003   6.328   1.280
 7268SOL    HW122703   3.933   6.331   1.208
 7268SOL    HW222704   4.060   6.409   1.274
 7269SOL     OW22705   1.002   5.805   2.112
 7269SOL    HW122706   1.065   5.747   2.164
 7269SOL    HW222707   0.990   5.768   2.020
 7270SOL     OW22708   2.220   1.487   2.649
 7270SOL    HW122709   2.279   1.413   2.616
 7270SOL    HW222710   2.191   1.543   2.571
 7271SOL     OW22711   0.149   3.896   3.107
 7271SOL    HW122712   0.217   3.859   3.044
 7271SOL    HW222713   0.151   3.844   3.192
 7272SOL     OW22714   4.570   2.563   2.781
 7272SOL    HW122715   4.650   2.513   2.750
 7272SOL    HW222716   4.531   2.615   2.705
 7273SOL     OW22717   5.632   4.396   1.202
 7273SOL    HW122718   5.600   4.489   1.184
 7273SOL    HW222719   5.703   4.371   1.136
 7274SOL     OW22720   6.765   5.058   5.636
 7274SOL    HW122721   6.846   5.101   5.596
 7274SOL    HW222722   6.684   5.110   5.610
 7275SOL     OW22723   6.977   0.358   0.242
 7275SOL    HW122724   6.944   0.327   0.153
 7275SOL    HW222725   0.020   0.427   0.230
 7276SOL     OW22726   2.102   2.438   4.124
 7276SOL    HW122727   2.033   2.464   4.056
 7276SOL    HW222728   2.106   2.508   4.195
 7277SOL     OW22729   4.488   1.897   4.791
 7277SOL    HW122730   4.585   1.874   4.804
 7277SOL    HW222731   4.479   1.995   4.774
 7278SOL     OW22732   3.299   1.261   3.412
 7278SOL    HW122733   3.287   1.358   3.389
 7278SOL    HW222734   3.276   1.247   3.508
 7279SOL     OW22735   5.020   4.906   0.342
 7279SOL    HW122736   5.108   4.859   0.348
 7279SOL    HW222737   5.023   4.990   0.395
 7280SOL     OW22738   5.629   2.134   5.334
 7280SOL    HW122739   5.636   2.168   5.428
 7280SOL    HW222740   5.708   2.166   5.282
 7281SOL     OW22741   3.566   6.718   2.094
 7281SOL    HW122742   3.510   6.802   2.097
 7281SOL    HW222743   3.508   6.639   2.113
 7282SOL     OW22744   6.917   5.528   2.051
 7282SOL    HW122745   6.928   5.557   2.146
 7282SOL    HW222746   7.006   5.521   2.006
 7283SOL     OW22747   4.067   5.373   2.604
 7283SOL    HW122748   3.993   5.428   2.643
 7283SOL    HW222749   4.100   5.309   2.673
 7284SOL     OW22750   6.570   1.392   3.710
 7284SOL    HW122751   6.647   1.416   3.650
 7284SOL    HW222752   6.519   1.316   3.669
 7285SOL     OW22753   4.829   2.904   2.211
 7285SOL    HW122754   4.845   2.957   2.294
 7285SOL    HW222755   4.807   2.966   2.135
 7286SOL     OW22756   0.671   1.123   0.797
 7286SOL    HW122757   0.712   1.214   0.802
 7286SOL    HW222758   0.702   1.067   0.874
 7287SOL     OW22759   1.355   2.825   3.916
 7287SOL    HW122760   1.405   2.772   3.984
 7287SOL    HW222761   1.269   2.858   3.955
 7288SOL     OW22762   3.115   2.144   3.270
 7288SOL    HW122763   3.136   2.158   3.174
 7288SOL    HW222764   3.102   2.047   3.288
 7289SOL     OW22765   6.014   2.106   1.229
 7289SOL    HW122766   5.997   2.192   1.181
 7289SOL    HW222767   5.952   2.036   1.194
 7290SOL     OW22768   3.507   1.495   4.828
 7290SOL    HW122769   3.505   1.446   4.741
 7290SOL    HW222770   3.440   1.456   4.890
 7291SOL     OW22771   4.301   0.975   0.478
 7291SOL    HW122772   4.238   1.052   0.462
 7291SOL    HW222773   4.250   0.889   0.478
 7292SOL     OW22774   1.973   6.807   3.189
 7292SOL    HW122775   1.955   6.740   3.261
 7292SOL    HW222776   1.968   6.763   3.100
 7293SOL     OW22777   1.722   0.724   5.064
 7293SOL    HW122778   1.818   0.744   5.086
 7293SOL    HW222779   1.664   0.792   5.107
 7294SOL     OW22780   2.523   5.661   1.290
 7294SOL    HW122781   2.620   5.656   1.313
 7294SOL    HW222782   2.510   5.725   1.214
 7295SOL     OW22783   6.480   5.204   2.393
 7295SOL    HW122784   6.447   5.233   2.303
 7295SOL    HW222785   6.485   5.105   2.397
 7296SOL     OW22786   4.617   5.070   2.022
 7296SOL    HW122787   4.548   5.050   2.091
 7296SOL    HW222788   4.636   4.989   1.968
 7297SOL     OW22789   3.530   6.266   1.239
 7297SOL    HW122790   3.468   6.306   1.307
 7297SOL    HW222791   3.617   6.243   1.283
 7298SOL     OW22792   4.794   5.754   6.533
 7298SOL    HW122793   4.795   5.665   6.579
 7298SOL    HW222794   4.803   5.741   6.434
 7299SOL     OW22795   1.448   3.050   0.005
 7299SOL    HW122796   1.446   2.953   7.009
 7299SOL    HW222797   1.356   3.089   7.019
 7300SOL     OW22798   0.639   5.214   1.637
 7300SOL    HW122799   0.677   5.124   1.616
 7300SOL    HW222800   0.705   5.285   1.614
 7301SOL     OW22801   5.238   6.696   5.516
 7301SOL    HW122802   5.320   6.715   5.570
 7301SOL    HW222803   5.255   6.616   5.458
 7302SOL     OW22804   5.134   2.209   5.966
 7302SOL    HW122805   5.175   2.232   5.878
 7302SOL    HW222806   5.072   2.132   5.955
 7303SOL     OW22807   2.708   1.294   1.152
 7303SOL    HW122808   2.693   1.331   1.244
 7303SOL    HW222809   2.627   1.310   1.096
 7304SOL     OW22810   2.847   5.491   1.803
 7304SOL    HW122811   2.825   5.574   1.853
 7304SOL    HW222812   2.929   5.505   1.747
 7305SOL     OW22813   6.223   2.108   0.657
 7305SOL    HW122814   6.148   2.056   0.614
 7305SOL    HW222815   6.195   2.203   0.668
 7306SOL     OW22816   2.177   1.861   1.197
 7306SOL    HW122817   2.124   1.792   1.148
 7306SOL    HW222818   2.208   1.824   1.284
 7307SOL     OW22819   1.582   6.641   1.786
 7307SOL    HW122820   1.506   6.576   1.784
 7307SOL    HW222821   1.558   6.718   1.845
 7308SOL     OW22822   5.124   1.207   2.479
 7308SOL    HW122823   5.156   1.130   2.533
 7308SOL    HW222824   5.147   1.293   2.525
 7309SOL     OW22825   1.770   5.384   3.206
 7309SOL    HW122826   1.827   5.312   3.168
 7309SOL    HW222827   1.736   5.442   3.131
 7310SOL     OW22828   1.991   3.214   0.458
 7310SOL    HW122829   2.038   3.153   0.522
 7310SOL    HW222830   1.941   3.283   0.509
 7311SOL     OW22831   6.650   6.576   6.364
 7311SOL    HW122832   6.723   6.517   6.329
 7311SOL    HW222833   6.564   6.553   6.319
 7312SOL     OW22834   6.955   2.422   5.288
 7312SOL    HW122835   6.857   2.443   5.289
 7312SOL    HW222836   7.004   2.495   5.240
 7313SOL     OW22837   2.900   0.904   1.946
 7313SOL    HW122838   2.825   0.856   1.993
 7313SOL    HW222839   2.874   0.919   1.851
 7314SOL     OW22840   0.143   4.299   0.205
 7314SOL    HW122841   0.097   4.222   0.164
 7314SOL    HW222842   0.194   4.350   0.135
 7315SOL     OW22843   1.231   4.872   2.394
 7315SOL    HW122844   1.217   4.777   2.366
 7315SOL    HW222845   1.228   4.877   2.494
 7316SOL     OW22846   3.627   2.018   0.654
 7316SOL    HW122847   3.605   1.979   0.565
 7316SOL    HW222848   3.696   1.960   0.699
 7317SOL     OW22849   3.665   1.946   1.559
 7317SOL    HW122850   3.692   2.028   1.610
 7317SOL    HW222851   3.699   1.952   1.465
 7318SOL     OW22852   3.809   6.715   0.578
 7318SOL    HW122853   3.724   6.763   0.599
 7318SOL    HW222854   3.870   6.718   0.657
 7319SOL     OW22855   6.286   4.686   0.171
 7319SOL    HW122856   6.352   4.614   0.148
 7319SOL    HW222857   6.334   4.773   0.178
 7320SOL     OW22858   6.858   2.783   1.055
 7320SOL    HW122859   6.907   2.697   1.058
 7320SOL    HW222860   6.785   2.782   1.123
 7321SOL     OW22861   1.436   0.181   6.781
 7321SOL    HW122862   1.458   0.237   6.702
 7321SOL    HW222863   1.445   0.235   6.865
 7322SOL     OW22864   0.299   2.782   2.507
 7322SOL    HW122865   0.290   2.819   2.599
 7322SOL    HW222866   0.369   2.835   2.457
 7323SOL     OW22867   1.237   1.677   1.844
 7323SOL    HW122868   1.140   1.693   1.821
 7323SOL    HW222869   1.293   1.691   1.762
 7324SOL     OW22870   5.665   4.689   3.287
 7324SOL    HW122871   5.588   4.726   3.340
 7324SOL    HW222872   5.681   4.593   3.314
 7325SOL     OW22873   4.289   1.017   6.286
 7325SOL    HW122874   4.322   0.946   6.223
 7325SOL    HW222875   4.304   1.107   6.245
 7326SOL     OW22876   2.591   0.755   0.112
 7326SOL    HW122877   2.514   0.692   0.125
 7326SOL    HW222878   2.639   0.731   0.027
 7327SOL     OW22879   6.959   3.771   2.681
 7327SOL    HW122880   6.870   3.802   2.648
 7327SOL    HW222881   7.021   3.759   2.604
 7328SOL     OW22882   4.454   4.758   4.994
 7328SOL    HW122883   4.436   4.667   4.956
 7328SOL    HW222884   4.378   4.819   4.972
 7329SOL     OW22885   2.906   3.079   0.847
 7329SOL    HW122886   2.851   3.037   0.775
 7329SOL    HW222887   2.980   3.132   0.804
 7330SOL     OW22888   3.412   2.940   1.379
 7330SOL    HW122889   3.371   3.031   1.367
 7330SOL    HW222890   3.503   2.939   1.338
 7331SOL     OW22891   4.843   0.497   2.797
 7331SOL    HW122892   4.822   0.422   2.860
 7331SOL    HW222893   4.792   0.578   2.823
 7332SOL     OW22894   2.845   4.142   6.819
 7332SOL    HW122895   2.812   4.053   6.851
 7332SOL    HW222896   2.927   4.168   6.870
 7333SOL     OW22897   6.859   2.500   1.614
 7333SOL    HW122898   6.833   2.406   1.592
 7333SOL    HW222899   6.852   2.556   1.532
 7334SOL     OW22900   2.998   0.328   5.396
 7334SOL    HW122901   2.937   0.264   5.349
 7334SOL    HW222902   3.085   0.335   5.347
 7335SOL     OW22903   6.877   2.596   2.419
 7335SOL    HW122904   6.801   2.646   2.461
 7335SOL    HW222905   6.950   2.661   2.396
 7336SOL     OW22906   1.333   6.304   1.000
 7336SOL    HW122907   1.388   6.240   0.946
 7336SOL    HW222908   1.250   6.328   0.949
 7337SOL     OW22909   2.456   2.513   2.612
 7337SOL    HW122910   2.458   2.584   2.682
 7337SOL    HW222911   2.362   2.491   2.589
 7338SOL     OW22912   5.931   3.126   1.878
 7338SOL    HW122913   5.971   3.218   1.876
 7338SOL    HW222914   5.912   3.096   1.785
 7339SOL     OW22915   6.545   5.221   4.758
 7339SOL    HW122916   6.550   5.287   4.683
 7339SOL    HW222917   6.486   5.145   4.732
 7340SOL     OW22918   2.737   0.440   0.394
 7340SOL    HW122919   2.822   0.387   0.402
 7340SOL    HW222920   2.760   0.538   0.387
 7341SOL     OW22921   6.446   5.010   4.034
 7341SOL    HW122922   6.514   4.980   4.101
 7341SOL    HW222923   6.425   4.933   3.972
 7342SOL     OW22924   6.885   0.427   0.583
 7342SOL    HW122925   6.813   0.367   0.619
 7342SOL    HW222926   6.861   0.454   0.490
 7343SOL     OW22927   6.382   4.442   2.207
 7343SOL    HW122928   6.478   4.469   2.209
 7343SOL    HW222929   6.373   4.348   2.240
 7344SOL     OW22930   1.685   6.432   6.999
 7344SOL    HW122931   1.754   6.477   6.942
 7344SOL    HW222932   1.670   6.338   6.967
 7345SOL     OW22933   4.281   5.068   6.162
 7345SOL    HW122934   4.284   4.993   6.227
 7345SOL    HW222935   4.324   5.040   6.076
 7346SOL     OW22936   3.973   4.767   1.860
 7346SOL    HW122937   4.034   4.784   1.937
 7346SOL    HW222938   4.017   4.797   1.776
 7347SOL     OW22939   6.128   1.545   2.152
 7347SOL    HW122940   6.059   1.615   2.132
 7347SOL    HW222941   6.212   1.589   2.181
 7348SOL     OW22942   1.451   1.781   3.649
 7348SOL    HW122943   1.382   1.721   3.690
 7348SOL    HW222944   1.461   1.863   3.706
 7349SOL     OW22945   3.591   1.574   0.443
 7349SOL    HW122946   3.613   1.521   0.362
 7349SOL    HW222947   3.575   1.513   0.520
 7350SOL     OW22948   1.501   2.311   3.198
 7350SOL    HW122949   1.538   2.233   3.149
 7350SOL    HW222950   1.403   2.297   3.213
 7351SOL     OW22951   4.534   4.824   7.015
 7351SOL    HW122952   4.578   4.752   6.961
 7351SOL    HW222953   4.563   4.913   6.981
 7352SOL     OW22954   0.514   2.049   2.770
 7352SOL    HW122955   0.516   1.954   2.801
 7352SOL    HW222956   0.466   2.105   2.838
 7353SOL     OW22957   5.705   1.522   4.518
 7353SOL    HW122958   5.746   1.535   4.428
 7353SOL    HW222959   5.726   1.600   4.577
 7354SOL     OW22960   6.175   5.952   5.795
 7354SOL    HW122961   6.196   5.934   5.699
 7354SOL    HW222962   6.252   5.924   5.853
 7355SOL     OW22963   1.455   5.510   1.798
 7355SOL    HW122964   1.395   5.432   1.815
 7355SOL    HW222965   1.485   5.549   1.885
 7356SOL     OW22966   6.475   1.569   6.360
 7356SOL    HW122967   6.533   1.650   6.357
 7356SOL    HW222968   6.397   1.586   6.421
 7357SOL     OW22969   5.799   2.171   6.613
 7357SOL    HW122970   5.760   2.155   6.522
 7357SOL    HW222971   5.730   2.153   6.683
 7358SOL     OW22972   3.193   1.510   4.372
 7358SOL    HW122973   3.098   1.497   4.343
 7358SOL    HW222974   3.223   1.430   4.424
 7359SOL     OW22975   3.936   3.083   3.183
 7359SOL    HW122976   4.034   3.074   3.201
 7359SOL    HW222977   3.885   3.024   3.246
 7360SOL     OW22978   1.039   2.666   5.229
 7360SOL    HW122979   1.105   2.618   5.172
 7360SOL    HW222980   1.067   2.661   5.325
 7361SOL     OW22981   5.151   5.962   2.163
 7361SOL    HW122982   5.226   5.992   2.222
 7361SOL    HW222983   5.092   6.041   2.142
 7362SOL     OW22984   2.091   5.522   5.668
 7362SOL    HW122985   2.012   5.542   5.726
 7362SOL    HW222986   2.088   5.425   5.641
 7363SOL     OW22987   4.987   3.373   6.983
 7363SOL    HW122988   5.080   3.354   6.952
 7363SOL    HW222989   4.978   3.349   0.052
 7364SOL     OW22990   4.345   6.326   1.387
 7364SOL    HW122991   4.419   6.353   1.448
 7364SOL    HW222992   4.304   6.407   1.345
 7365SOL     OW22993   2.522   0.181   2.310
 7365SOL    HW122994   2.579   0.132   2.243
 7365SOL    HW222995   2.426   0.156   2.296
 7366SOL     OW22996   0.105   4.882   6.914
 7366SOL    HW122997   0.082   4.833   6.830
 7366SOL    HW222998   0.162   4.961   6.891
 7367SOL     OW22999   4.781   3.943   1.826
 7367SOL    HW123000   4.850   3.917   1.758
 7367SOL    HW223001   4.827   3.967   1.912
 7368SOL     OW23002   2.996   3.280   4.927
 7368SOL    HW123003   2.988   3.351   4.997
 7368SOL    HW223004   3.004   3.190   4.971
 7369SOL     OW23005   5.174   3.684   0.859
 7369SOL    HW123006   5.194   3.604   0.804
 7369SOL    HW223007   5.138   3.757   0.800
 7370SOL     OW23008   2.647   6.827   0.973
 7370SOL    HW123009   2.651   6.902   1.039
 7370SOL    HW223010   2.726   6.767   0.986
 7371SOL     OW23011   2.965   5.027   4.161
 7371SOL    HW123012   2.970   5.079   4.075
 7371SOL    HW223013   2.885   4.967   4.158
 7372SOL     OW23014   3.184   0.289   5.626
 7372SOL    HW123015   3.104   0.295   5.567
 7372SOL    HW223016   3.267   0.300   5.572
 7373SOL     OW23017   3.668   0.502   2.328
 7373SOL    HW123018   3.680   0.494   2.229
 7373SOL    HW223019   3.648   0.597   2.352
 7374SOL     OW23020   1.154   3.135   6.479
 7374SOL    HW123021   1.136   3.037   6.468
 7374SOL    HW223022   1.253   3.151   6.470
 7375SOL     OW23023   1.274   0.580   4.309
 7375SOL    HW123024   1.283   0.482   4.290
 7375SOL    HW223025   1.251   0.594   4.405
 7376SOL     OW23026   2.810   3.043   7.003
 7376SOL    HW123027   2.872   3.122   7.001
 7376SOL    HW223028   2.717   3.074   6.982
 7377SOL     OW23029   4.721   4.579   2.103
 7377SOL    HW123030   4.622   4.592   2.104
 7377SOL    HW223031   4.745   4.514   2.030
 7378SOL     OW23032   7.018   1.061   4.614
 7378SOL    HW123033   0.018   1.077   4.519
 7378SOL    HW223034   0.033   1.130   4.672
 7379SOL     OW23035   4.225   1.495   2.134
 7379SOL    HW123036   4.203   1.567   2.200
 7379SOL    HW223037   4.300   1.439   2.170
 7380SOL     OW23038   0.185   3.236   6.038
 7380SOL    HW123039   0.237   3.199   6.115
 7380SOL    HW223040   0.246   3.290   5.980
 7381SOL     OW23041   4.662   2.221   2.198
 7381SOL    HW123042   4.656   2.128   2.163
 7381SOL    HW223043   4.667   2.220   2.298
 7382SOL     OW23044   0.325   4.839   4.196
 7382SOL    HW123045   0.256   4.877   4.257
 7382SOL    HW223046   0.382   4.773   4.246
 7383SOL     OW23047   0.052   6.396   3.264
 7383SOL    HW123048   0.052   6.420   3.361
 7383SOL    HW223049   0.104   6.312   3.250
 7384SOL     OW23050   5.300   6.732   2.432
 7384SOL    HW123051   5.355   6.711   2.352
 7384SOL    HW223052   5.291   6.831   2.443
 7385SOL     OW23053   4.619   6.145   1.491
 7385SOL    HW123054   4.600   6.111   1.399
 7385SOL    HW223055   4.682   6.222   1.486
 7386SOL     OW23056   0.729   2.408   5.719
 7386SOL    HW123057   0.692   2.498   5.739
 7386SOL    HW223058   0.826   2.416   5.696
 7387SOL     OW23059   4.396   5.170   3.983
 7387SOL    HW123060   4.312   5.188   4.034
 7387SOL    HW223061   4.472   5.222   4.023
 7388SOL     OW23062   6.789   4.236   3.973
 7388SOL    HW123063   6.828   4.289   4.048
 7388SOL    HW223064   6.752   4.150   4.009
 7389SOL     OW23065   2.028   4.616   6.892
 7389SOL    HW123066   1.945   4.666   6.916
 7389SOL    HW223067   2.096   4.628   6.965
 7390SOL     OW23068   0.710   1.168   5.949
 7390SOL    HW123069   0.635   1.104   5.935
 7390SOL    HW223070   0.689   1.230   6.025
 7391SOL     OW23071   6.465   3.390   6.383
 7391SOL    HW123072   6.457   3.394   6.482
 7391SOL    HW223073   6.483   3.296   6.355
 7392SOL     OW23074   1.276   4.950   4.204
 7392SOL    HW123075   1.346   4.997   4.258
 7392SOL    HW223076   1.234   4.878   4.259
 7393SOL     OW23077   0.080   5.283   2.281
 7393SOL    HW123078   0.142   5.342   2.229
 7393SOL    HW223079   0.079   5.311   2.377
 7394SOL     OW23080   3.848   3.159   6.337
 7394SOL    HW123081   3.877   3.161   6.433
 7394SOL    HW223082   3.928   3.164   6.278
 7395SOL     OW23083   0.525   0.168   0.077
 7395SOL    HW123084   0.577   0.089   0.045
 7395SOL    HW223085   0.459   0.140   0.146
 7396SOL     OW23086   1.181   0.417   6.589
 7396SOL    HW123087   1.242   0.491   6.619
 7396SOL    HW223088   1.173   0.349   6.662
 7397SOL     OW23089   6.769   4.660   5.175
 7397SOL    HW123090   6.773   4.757   5.154
 7397SOL    HW223091   6.765   4.648   5.275
 7398SOL     OW23092   4.593   4.737   4.205
 7398SOL    HW123093   4.634   4.773   4.289
 7398SOL    HW223094   4.507   4.692   4.226
 7399SOL     OW23095   5.640   3.960   6.159
 7399SOL    HW123096   5.673   3.866   6.154
 7399SOL    HW223097   5.579   3.978   6.082
 7400SOL     OW23098   3.066   5.029   6.467
 7400SOL    HW123099   3.025   4.945   6.433
 7400SOL    HW223100   3.162   5.032   6.441
 7401SOL     OW23101   0.249   1.766   3.688
 7401SOL    HW123102   0.276   1.706   3.612
 7401SOL    HW223103   0.275   1.860   3.667
 7402SOL     OW23104   2.380   0.232   3.429
 7402SOL    HW123105   2.427   0.154   3.390
 7402SOL    HW223106   2.281   0.223   3.414
 7403SOL     OW23107   2.161   3.339   2.895
 7403SOL    HW123108   2.161   3.383   2.985
 7403SOL    HW223109   2.127   3.404   2.827
 7404SOL     OW23110   1.125   0.574   1.177
 7404SOL    HW123111   1.162   0.634   1.106
 7404SOL    HW223112   1.059   0.626   1.233
 7405SOL     OW23113   2.776   5.475   5.409
 7405SOL    HW123114   2.756   5.457   5.505
 7405SOL    HW223115   2.775   5.390   5.357
 7406SOL     OW23116   1.421   3.986   2.006
 7406SOL    HW123117   1.373   4.071   2.028
 7406SOL    HW223118   1.498   3.974   2.068
 7407SOL     OW23119   1.303   6.235   5.408
 7407SOL    HW123120   1.272   6.143   5.433
 7407SOL    HW223121   1.260   6.263   5.322
 7408SOL     OW23122   1.386   4.398   5.392
 7408SOL    HW123123   1.367   4.418   5.296
 7408SOL    HW223124   1.482   4.373   5.403
 7409SOL     OW23125   1.550   0.601   4.838
 7409SOL    HW123126   1.487   0.536   4.881
 7409SOL    HW223127   1.623   0.623   4.903
 7410SOL     OW23128   6.807   5.543   1.180
 7410SOL    HW123129   6.827   5.610   1.251
 7410SOL    HW223130   6.890   5.521   1.129
 7411SOL     OW23131   2.752   6.359   4.826
 7411SOL    HW123132   2.810   6.293   4.875
 7411SOL    HW223133   2.657   6.329   4.830
 7412SOL     OW23134   1.765   1.125   1.282
 7412SOL    HW123135   1.671   1.136   1.249
 7412SOL    HW223136   1.779   1.031   1.312
 7413SOL     OW23137   5.977   3.843   4.418
 7413SOL    HW123138   6.056   3.783   4.407
 7413SOL    HW223139   5.999   3.934   4.382
 7414SOL     OW23140   6.584   6.424   2.099
 7414SOL    HW123141   6.538   6.336   2.112
 7414SOL    HW223142   6.596   6.442   2.002
 7415SOL     OW23143   2.141   2.975   3.333
 7415SOL    HW123144   2.073   2.940   3.398
 7415SOL    HW223145   2.232   2.962   3.371
 7416SOL     OW23146   3.666   1.312   4.262
 7416SOL    HW123147   3.669   1.234   4.324
 7416SOL    HW223148   3.577   1.356   4.267
 7417SOL     OW23149   1.372   0.149   0.089
 7417SOL    HW123150   1.371   0.069   0.029
 7417SOL    HW223151   1.278   0.172   0.116
 7418SOL     OW23152   2.873   3.986   1.408
 7418SOL    HW123153   2.910   4.064   1.457
 7418SOL    HW223154   2.906   3.901   1.450
 7419SOL     OW23155   5.448   1.534   5.113
 7419SOL    HW123156   5.468   1.612   5.054
 7419SOL    HW223157   5.480   1.450   5.069
 7420SOL     OW23158   6.614   6.123   1.915
 7420SOL    HW123159   6.568   6.061   1.978
 7420SOL    HW223160   6.548   6.157   1.848
 7421SOL     OW23161   3.740   3.752   1.704
 7421SOL    HW123162   3.772   3.722   1.794
 7421SOL    HW223163   3.774   3.845   1.686
 7422SOL     OW23164   0.309   3.435   0.615
 7422SOL    HW123165   0.223   3.484   0.601
 7422SOL    HW223166   0.334   3.439   0.711
 7423SOL     OW23167   1.935   4.795   6.179
 7423SOL    HW123168   1.949   4.847   6.095
 7423SOL    HW223169   1.926   4.859   6.256
 7424SOL     OW23170   5.532   0.978   4.436
 7424SOL    HW123171   5.502   0.930   4.353
 7424SOL    HW223172   5.485   1.066   4.441
 7425SOL     OW23173   3.976   4.509   5.975
 7425SOL    HW123174   4.043   4.573   5.937
 7425SOL    HW223175   3.975   4.425   5.920
 7426SOL     OW23176   0.950   1.487   6.019
 7426SOL    HW123177   0.914   1.438   5.940
 7426SOL    HW223178   0.974   1.421   6.090
 7427SOL     OW23179   3.017   5.999   5.151
 7427SOL    HW123180   3.042   5.924   5.089
 7427SOL    HW223181   2.943   5.968   5.211
 7428SOL     OW23182   3.603   2.507   5.881
 7428SOL    HW123183   3.560   2.498   5.791
 7428SOL    HW223184   3.699   2.480   5.875
 7429SOL     OW23185   0.295   0.571   2.418
 7429SOL    HW123186   0.285   0.475   2.391
 7429SOL    HW223187   0.249   0.586   2.505
 7430SOL     OW23188   6.503   3.594   5.440
 7430SOL    HW123189   6.452   3.589   5.526
 7430SOL    HW223190   6.500   3.688   5.405
 7431SOL     OW23191   0.601   3.492   2.175
 7431SOL    HW123192   0.673   3.558   2.153
 7431SOL    HW223193   0.525   3.502   2.110
 7432SOL     OW23194   0.245   6.463   3.980
 7432SOL    HW123195   0.311   6.494   3.912
 7432SOL    HW223196   0.153   6.492   3.953
 7433SOL     OW23197   6.247   5.116   0.652
 7433SOL    HW123198   6.173   5.162   0.701
 7433SOL    HW223199   6.211   5.033   0.608
 7434SOL     OW23200   2.910   1.904   6.787
 7434SOL    HW123201   3.004   1.939   6.780
 7434SOL    HW223202   2.880   1.908   6.883
 7435SOL     OW23203   2.977   6.157   6.383
 7435SOL    HW123204   3.034   6.111   6.314
 7435SOL    HW223205   2.920   6.090   6.430
 7436SOL     OW23206   5.272   3.315   6.940
 7436SOL    HW123207   5.301   3.221   6.958
 7436SOL    HW223208   5.353   3.374   6.936
 7437SOL     OW23209   0.502   5.536   6.005
 7437SOL    HW123210   0.496   5.577   6.096
 7437SOL    HW223211   0.598   5.531   5.977
 7438SOL     OW23212   0.553   4.526   2.160
 7438SOL    HW123213   0.534   4.457   2.090
 7438SOL    HW223214   0.640   4.505   2.204
 7439SOL     OW23215   2.161   6.804   3.835
 7439SOL    HW123216   2.246   6.768   3.798
 7439SOL    HW223217   2.084   6.746   3.807
 7440SOL     OW23218   1.079   2.738   4.529
 7440SOL    HW123219   1.126   2.654   4.502
 7440SOL    HW223220   0.980   2.721   4.533
 7441SOL     OW23221   5.373   1.035   3.828
 7441SOL    HW123222   5.351   0.950   3.780
 7441SOL    HW223223   5.381   1.017   3.927
 7442SOL     OW23224   1.341   1.544   6.190
 7442SOL    HW123225   1.275   1.487   6.239
 7442SOL    HW223226   1.354   1.630   6.241
 7443SOL     OW23227   1.116   1.357   6.298
 7443SOL    HW123228   1.029   1.337   6.343
 7443SOL    HW223229   1.183   1.385   6.367
 7444SOL     OW23230   0.424   3.389   5.943
 7444SOL    HW123231   0.510   3.350   5.978
 7444SOL    HW223232   0.442   3.437   5.857
 7445SOL     OW23233   5.145   1.469   1.346
 7445SOL    HW123234   5.202   1.390   1.326
 7445SOL    HW223235   5.177   1.548   1.293
 7446SOL     OW23236   6.588   3.563   1.132
 7446SOL    HW123237   6.574   3.612   1.046
 7446SOL    HW223238   6.586   3.628   1.208
 7447SOL     OW23239   1.461   4.347   0.222
 7447SOL    HW123240   1.465   4.344   0.322
 7447SOL    HW223241   1.366   4.360   0.193
 7448SOL     OW23242   5.624   0.192   5.386
 7448SOL    HW123243   5.658   0.286   5.393
 7448SOL    HW223244   5.652   0.140   5.467
 7449SOL     OW23245   5.121   2.175   1.971
 7449SOL    HW123246   5.178   2.218   2.042
 7449SOL    HW223247   5.054   2.116   2.014
 7450SOL     OW23248   4.481   2.103   2.909
 7450SOL    HW123249   4.441   2.019   2.872
 7450SOL    HW223250   4.431   2.182   2.875
 7451SOL     OW23251   1.733   1.197   4.726
 7451SOL    HW123252   1.783   1.149   4.653
 7451SOL    HW223253   1.688   1.131   4.785
 7452SOL     OW23254   2.348   0.079   4.902
 7452SOL    HW123255   2.295   0.001   4.867
 7452SOL    HW223256   2.434   0.046   4.941
 7453SOL     OW23257   5.723   6.547   5.119
 7453SOL    HW123258   5.781   6.626   5.137
 7453SOL    HW223259   5.631   6.565   5.154
 7454SOL     OW23260   0.950   3.854   1.765
 7454SOL    HW123261   0.960   3.831   1.668
 7454SOL    HW223262   1.016   3.926   1.789
 7455SOL     OW23263   5.038   2.746   0.693
 7455SOL    HW123264   5.101   2.739   0.616
 7455SOL    HW223265   4.945   2.761   0.658
 7456SOL     OW23266   1.382   3.597   5.029
 7456SOL    HW123267   1.434   3.513   5.045
 7456SOL    HW223268   1.345   3.596   4.936
 7457SOL     OW23269   5.707   1.181   5.181
 7457SOL    HW123270   5.716   1.246   5.256
 7457SOL    HW223271   5.636   1.212   5.118
 7458SOL     OW23272   3.043   0.601   0.040
 7458SOL    HW123273   2.998   0.610   0.129
 7458SOL    HW223274   2.979   0.562   7.002
 7459SOL     OW23275   4.982   0.182   5.598
 7459SOL    HW123276   4.923   0.107   5.571
 7459SOL    HW223277   4.957   0.265   5.548
 7460SOL     OW23278   0.948   4.635   0.634
 7460SOL    HW123279   0.892   4.714   0.660
 7460SOL    HW223280   0.986   4.650   0.543
 7461SOL     OW23281   5.626   0.903   5.397
 7461SOL    HW123282   5.684   0.980   5.422
 7461SOL    HW223283   5.617   0.900   5.297
 7462SOL     OW23284   2.292   2.005   2.237
 7462SOL    HW123285   2.338   1.943   2.301
 7462SOL    HW223286   2.222   2.056   2.286
 7463SOL     OW23287   4.264   3.224   1.619
 7463SOL    HW123288   4.190   3.179   1.668
 7463SOL    HW223289   4.241   3.320   1.604
 7464SOL     OW23290   4.484   6.297   0.898
 7464SOL    HW123291   4.402   6.351   0.915
 7464SOL    HW223292   4.510   6.248   0.981
 7465SOL     OW23293   2.376   0.346   1.884
 7465SOL    HW123294   2.363   0.426   1.826
 7465SOL    HW223295   2.288   0.311   1.914
 7466SOL     OW23296   0.193   0.410   6.718
 7466SOL    HW123297   0.238   0.402   6.629
 7466SOL    HW223298   0.146   0.324   6.739
 7467SOL     OW23299   0.496   2.177   0.959
 7467SOL    HW123300   0.412   2.130   0.984
 7467SOL    HW223301   0.473   2.266   0.919
 7468SOL     OW23302   5.500   1.758   2.989
 7468SOL    HW123303   5.435   1.683   3.002
 7468SOL    HW223304   5.450   1.843   2.977
 7469SOL     OW23305   1.099   0.816   0.228
 7469SOL    HW123306   1.068   0.728   0.194
 7469SOL    HW223307   1.183   0.844   0.181
 7470SOL     OW23308   0.180   1.933   2.209
 7470SOL    HW123309   0.134   1.869   2.147
 7470SOL    HW223310   0.271   1.954   2.173
 7471SOL     OW23311   6.353   6.439   5.389
 7471SOL    HW123312   6.367   6.393   5.301
 7471SOL    HW223313   6.312   6.528   5.374
 7472SOL     OW23314   4.223   7.014   4.418
 7472SOL    HW123315   4.126   6.987   4.413
 7472SOL    HW223316   4.247   0.040   4.337
 7473SOL     OW23317   6.579   3.275   4.256
 7473SOL    HW123318   6.612   3.339   4.186
 7473SOL    HW223319   6.611   3.305   4.346
 7474SOL     OW23320   3.703   1.188   4.013
 7474SOL    HW123321   3.676   1.229   4.100
 7474SOL    HW223322   3.737   1.095   4.029
 7475SOL     OW23323   3.788   0.405   1.624
 7475SOL    HW123324   3.874   0.355   1.617
 7475SOL    HW223325   3.804   0.503   1.611
 7476SOL     OW23326   4.108   5.637   4.600
 7476SOL    HW123327   4.038   5.653   4.530
 7476SOL    HW223328   4.066   5.597   4.681
 7477SOL     OW23329   4.249   0.947   3.669
 7477SOL    HW123330   4.203   0.879   3.613
 7477SOL    HW223331   4.337   0.971   3.628
 7478SOL     OW23332   2.804   3.829   6.772
 7478SOL    HW123333   2.827   3.866   6.862
 7478SOL    HW223334   2.815   3.729   6.774
 7479SOL     OW23335   4.459   0.454   0.547
 7479SOL    HW123336   4.500   0.381   0.491
 7479SOL    HW223337   4.531   0.515   0.580
 7480SOL     OW23338   5.851   5.755   1.242
 7480SOL    HW123339   5.912   5.685   1.281
 7480SOL    HW223340   5.756   5.726   1.254
 7481SOL     OW23341   6.016   4.552   0.795
 7481SOL    HW123342   5.928   4.509   0.775
 7481SOL    HW223343   6.002   4.628   0.859
 7482SOL     OW23344   4.857   1.024   2.705
 7482SOL    HW123345   4.869   1.062   2.613
 7482SOL    HW223346   4.767   1.050   2.739
 7483SOL     OW23347   3.828   1.873   4.726
 7483SOL    HW123348   3.861   1.926   4.648
 7483SOL    HW223349   3.736   1.840   4.707
 7484SOL     OW23350   1.752   6.450   1.683
 7484SOL    HW123351   1.793   6.450   1.592
 7484SOL    HW223352   1.690   6.528   1.691
 7485SOL     OW23353   3.200   5.612   5.485
 7485SOL    HW123354   3.183   5.689   5.546
 7485SOL    HW223355   3.114   5.578   5.448
 7486SOL     OW23356   3.235   6.021   5.324
 7486SOL    HW123357   3.154   6.013   5.266
 7486SOL    HW223358   3.218   6.087   5.397
 7487SOL     OW23359   3.000   6.465   3.452
 7487SOL    HW123360   3.081   6.485   3.397
 7487SOL    HW223361   2.929   6.425   3.395
 7488SOL     OW23362   3.127   6.940   5.799
 7488SOL    HW123363   3.144   7.020   5.856
 7488SOL    HW223364   3.192   6.938   5.723
 7489SOL     OW23365   4.443   2.213   4.030
 7489SOL    HW123366   4.475   2.160   3.951
 7489SOL    HW223367   4.520   2.260   4.072
 7490SOL     OW23368   6.928   0.841   0.770
 7490SOL    HW123369   7.025   0.857   0.753
 7490SOL    HW223370   6.888   0.792   0.692
 7491SOL     OW23371   0.157   5.680   6.488
 7491SOL    HW123372   0.204   5.747   6.429
 7491SOL    HW223373   0.161   5.590   6.446
 7492SOL     OW23374   2.049   2.949   5.286
 7492SOL    HW123375   1.998   2.898   5.217
 7492SOL    HW223376   2.112   3.013   5.242
 7493SOL     OW23377   5.948   4.034   6.428
 7493SOL    HW123378   5.876   4.098   6.401
 7493SOL    HW223379   5.919   3.941   6.409
 7494SOL     OW23380   5.913   0.741   1.945
 7494SOL    HW123381   5.850   0.683   1.895
 7494SOL    HW223382   5.879   0.756   2.038
 7495SOL     OW23383   2.679   1.682   0.516
 7495SOL    HW123384   2.672   1.736   0.600
 7495SOL    HW223385   2.744   1.725   0.454
 7496SOL     OW23386   1.020   5.085   6.158
 7496SOL    HW123387   1.009   5.107   6.061
 7496SOL    HW223388   1.014   4.986   6.170
 7497SOL     OW23389   2.379   4.753   2.532
 7497SOL    HW123390   2.474   4.722   2.535
 7497SOL    HW223391   2.376   4.852   2.547
 7498SOL     OW23392   2.729   1.222   4.742
 7498SOL    HW123393   2.631   1.230   4.763
 7498SOL    HW223394   2.760   1.130   4.764
 7499SOL     OW23395   5.155   6.752   4.509
 7499SOL    HW123396   5.141   6.757   4.608
 7499SOL    HW223397   5.235   6.696   4.490
 7500SOL     OW23398   4.759   5.894   1.967
 7500SOL    HW123399   4.769   5.804   1.925
 7500SOL    HW223400   4.783   5.965   1.900
 7501SOL     OW23401   1.205   3.550   3.750
 7501SOL    HW123402   1.173   3.491   3.676
 7501SOL    HW223403   1.183   3.508   3.838
 7502SOL     OW23404   2.249   0.924   4.803
 7502SOL    HW123405   2.186   0.889   4.734
 7502SOL    HW223406   2.208   0.914   4.894
 7503SOL     OW23407   2.855   0.824   6.765
 7503SOL    HW123408   2.927   0.825   6.835
 7503SOL    HW223409   2.897   0.815   6.674
 7504SOL     OW23410   3.944   6.619   3.342
 7504SOL    HW123411   3.909   6.563   3.267
 7504SOL    HW223412   4.019   6.677   3.308
 7505SOL     OW23413   1.784   1.104   5.263
 7505SOL    HW123414   1.770   1.010   5.294
 7505SOL    HW223415   1.776   1.108   5.163
 7506SOL     OW23416   3.400   0.911   2.346
 7506SOL    HW123417   3.411   0.863   2.433
 7506SOL    HW223418   3.490   0.928   2.305
 7507SOL     OW23419   0.139   6.435   6.043
 7507SOL    HW123420   0.151   6.431   6.142
 7507SOL    HW223421   0.183   6.517   6.007
 7508SOL     OW23422   5.534   6.397   3.519
 7508SOL    HW123423   5.526   6.473   3.454
 7508SOL    HW223424   5.616   6.344   3.498
 7509SOL     OW23425   5.435   4.170   6.729
 7509SOL    HW123426   5.395   4.079   6.738
 7509SOL    HW223427   5.533   4.166   6.749
 7510SOL     OW23428   3.401   4.080   4.691
 7510SOL    HW123429   3.457   4.130   4.624
 7510SOL    HW223430   3.461   4.043   4.762
 7511SOL     OW23431   1.736   0.257   2.363
 7511SOL    HW123432   1.771   0.190   2.297
 7511SOL    HW223433   1.789   0.253   2.447
 7512SOL     OW23434   2.420   3.102   1.339
 7512SOL    HW123435   2.505   3.072   1.383
 7512SOL    HW223436   2.355   3.026   1.339
 7513SOL     OW23437   1.286   2.364   5.822
 7513SOL    HW123438   1.342   2.299   5.874
 7513SOL    HW223439   1.261   2.441   5.881
 7514SOL     OW23440   2.899   6.219   1.846
 7514SOL    HW123441   2.922   6.125   1.870
 7514SOL    HW223442   2.802   6.235   1.864
 7515SOL     OW23443   0.468   0.062   2.958
 7515SOL    HW123444   0.428   0.056   3.049
 7515SOL    HW223445   0.456   0.154   2.922
 7516SOL     OW23446   0.219   0.171   4.311
 7516SOL    HW123447   0.142   0.107   4.322
 7516SOL    HW223448   0.201   0.232   4.234
 7517SOL     OW23449   0.368   3.554   1.276
 7517SOL    HW123450   0.292   3.605   1.236
 7517SOL    HW223451   0.334   3.495   1.350
 7518SOL     OW23452   4.137   5.736   3.189
 7518SOL    HW123453   4.111   5.679   3.111
 7518SOL    HW223454   4.234   5.759   3.183
 7519SOL     OW23455   1.197   6.662   4.965
 7519SOL    HW123456   1.181   6.644   4.868
 7519SOL    HW223457   1.148   6.744   4.993
 7520SOL     OW23458   1.879   6.652   3.399
 7520SOL    HW123459   1.792   6.701   3.394
 7520SOL    HW223460   1.915   6.659   3.492
 7521SOL     OW23461   4.545   4.341   5.228
 7521SOL    HW123462   4.586   4.250   5.234
 7521SOL    HW223463   4.446   4.334   5.236
 7522SOL     OW23464   2.099   1.421   0.187
 7522SOL    HW123465   2.138   1.378   0.106
 7522SOL    HW223466   2.169   1.430   0.258
 7523SOL     OW23467   5.755   0.242   5.817
 7523SOL    HW123468   5.717   0.164   5.766
 7523SOL    HW223469   5.730   0.327   5.771
 7524SOL     OW23470   0.372   1.847   5.769
 7524SOL    HW123471   0.437   1.852   5.693
 7524SOL    HW223472   0.408   1.787   5.840
 7525SOL     OW23473   1.780   0.692   0.204
 7525SOL    HW123474   1.783   0.602   0.160
 7525SOL    HW223475   1.802   0.682   0.301
 7526SOL     OW23476   3.741   3.231   4.694
 7526SOL    HW123477   3.702   3.230   4.602
 7526SOL    HW223478   3.675   3.195   4.760
 7527SOL     OW23479   5.337   4.223   2.630
 7527SOL    HW123480   5.390   4.148   2.592
 7527SOL    HW223481   5.395   4.304   2.639
 7528SOL     OW23482   4.541   2.809   0.380
 7528SOL    HW123483   4.555   2.870   0.458
 7528SOL    HW223484   4.516   2.863   0.300
 7529SOL     OW23485   4.308   1.289   3.609
 7529SOL    HW123486   4.318   1.314   3.705
 7529SOL    HW223487   4.363   1.207   3.590
 7530SOL     OW23488   6.948   3.945   2.404
 7530SOL    HW123489   7.002   3.946   2.320
 7530SOL    HW223490   6.851   3.955   2.382
 7531SOL     OW23491   4.348   1.801   3.813
 7531SOL    HW123492   4.257   1.781   3.777
 7531SOL    HW223493   4.345   1.799   3.913
 7532SOL     OW23494   5.694   5.965   2.106
 7532SOL    HW123495   5.763   5.949   2.035
 7532SOL    HW223496   5.714   6.051   2.152
 7533SOL     OW23497   3.389   1.346   4.199
 7533SOL    HW123498   3.384   1.436   4.156
 7533SOL    HW223499   3.365   1.275   4.132
 7534SOL     OW23500   4.027   6.085   5.587
 7534SOL    HW123501   3.949   6.106   5.529
 7534SOL    HW223502   4.023   6.141   5.670
 7535SOL     OW23503   2.413   2.414   5.469
 7535SOL    HW123504   2.331   2.465   5.442
 7535SOL    HW223505   2.483   2.424   5.399
 7536SOL     OW23506   4.315   5.367   4.583
 7536SOL    HW123507   4.306   5.392   4.487
 7536SOL    HW223508   4.270   5.279   4.598
 7537SOL     OW23509   1.799   4.354   4.640
 7537SOL    HW123510   1.810   4.431   4.578
 7537SOL    HW223511   1.880   4.296   4.638
 7538SOL     OW23512   3.267   3.160   2.809
 7538SOL    HW123513   3.194   3.222   2.780
 7538SOL    HW223514   3.266   3.078   2.750
 7539SOL     OW23515   1.952   3.263   5.304
 7539SOL    HW123516   1.910   3.195   5.364
 7539SOL    HW223517   2.042   3.231   5.274
 7540SOL     OW23518   2.821   1.327   6.998
 7540SOL    HW123519   2.823   1.408   6.939
 7540SOL    HW223520   2.726   1.296   7.009
 7541SOL     OW23521   6.187   2.417   5.683
 7541SOL    HW123522   6.254   2.344   5.700
 7541SOL    HW223523   6.158   2.456   5.770
 7542SOL     OW23524   1.317   0.046   5.944
 7542SOL    HW123525   1.376   0.076   6.019
 7542SOL    HW223526   1.225   0.028   5.980
 7543SOL     OW23527   4.308   2.966   0.512
 7543SOL    HW123528   4.267   3.055   0.491
 7543SOL    HW223529   4.240   2.908   0.558
 7544SOL     OW23530   1.438   2.226   2.859
 7544SOL    HW123531   1.422   2.152   2.794
 7544SOL    HW223532   1.361   2.232   2.922
 7545SOL     OW23533   4.705   0.035   2.666
 7545SOL    HW123534   4.687   6.964   2.674
 7545SOL    HW223535   4.625   0.086   2.697
 7546SOL     OW23536   5.338   0.942   0.235
 7546SOL    HW123537   5.334   0.973   0.140
 7546SOL    HW223538   5.303   1.013   0.295
 7547SOL     OW23539   4.034   0.576   0.578
 7547SOL    HW123540   3.941   0.576   0.614
 7547SOL    HW223541   4.059   0.484   0.550
 7548SOL     OW23542   2.428   1.635   1.336
 7548SOL    HW123543   2.462   1.667   1.424
 7548SOL    HW223544   2.465   1.693   1.263
 7549SOL     OW23545   5.308   1.584   2.478
 7549SOL    HW123546   5.234   1.581   2.411
 7549SOL    HW223547   5.273   1.552   2.567
 7550SOL     OW23548   1.894   6.096   2.243
 7550SOL    HW123549   1.983   6.052   2.229
 7550SOL    HW223550   1.822   6.027   2.239
 7551SOL     OW23551   4.660   3.764   6.834
 7551SOL    HW123552   4.623   3.715   6.913
 7551SOL    HW223553   4.753   3.730   6.815
 7552SOL     OW23554   2.207   5.486   4.066
 7552SOL    HW123555   2.239   5.485   4.161
 7552SOL    HW223556   2.192   5.393   4.034
 7553SOL     OW23557   4.130   4.723   5.907
 7553SOL    HW123558   4.081   4.799   5.951
 7553SOL    HW223559   4.204   4.692   5.967
 7554SOL     OW23560   4.818   1.620   0.867
 7554SOL    HW123561   4.771   1.533   0.852
 7554SOL    HW223562   4.859   1.620   0.959
 7555SOL     OW23563   0.541   5.421   5.451
 7555SOL    HW123564   0.594   5.352   5.402
 7555SOL    HW223565   0.458   5.442   5.400
 7556SOL     OW23566   0.938   3.541   4.697
 7556SOL    HW123567   0.914   3.594   4.779
 7556SOL    HW223568   1.019   3.582   4.654
 7557SOL     OW23569   5.225   4.113   6.341
 7557SOL    HW123570   5.155   4.155   6.283
 7557SOL    HW223571   5.311   4.162   6.329
 7558SOL     OW23572   1.803   2.909   4.131
 7558SOL    HW123573   1.899   2.922   4.105
 7558SOL    HW223574   1.753   2.869   4.054
 7559SOL     OW23575   6.505   5.032   0.633
 7559SOL    HW123576   6.538   5.039   0.539
 7559SOL    HW223577   6.405   5.038   0.634
 7560SOL     OW23578   4.907   6.913   0.923
 7560SOL    HW123579   4.971   6.919   0.999
 7560SOL    HW223580   4.887   7.005   0.889
 7561SOL     OW23581   0.311   3.435   0.896
 7561SOL    HW123582   0.376   3.460   0.969
 7561SOL    HW223583   0.218   3.444   0.931
 7562SOL     OW23584   5.323   6.470   5.393
 7562SOL    HW123585   5.375   6.457   5.478
 7562SOL    HW223586   5.256   6.397   5.383
 7563SOL     OW23587   2.756   0.300   1.732
 7563SOL    HW123588   2.749   0.354   1.816
 7563SOL    HW223589   2.711   0.349   1.657
 7564SOL     OW23590   5.328   7.015   2.978
 7564SOL    HW123591   5.367   6.923   2.975
 7564SOL    HW223592   5.284   0.002   3.066
 7565SOL     OW23593   4.958   5.080   6.464
 7565SOL    HW123594   4.911   5.075   6.552
 7565SOL    HW223595   5.034   5.145   6.470
 7566SOL     OW23596   0.067   5.462   4.187
 7566SOL    HW123597   7.003   5.456   4.145
 7566SOL    HW223598   0.133   5.416   4.128
 7567SOL     OW23599   2.395   4.444   5.925
 7567SOL    HW123600   2.433   4.400   5.844
 7567SOL    HW223601   2.344   4.525   5.898
 7568SOL     OW23602   5.516   5.898   3.352
 7568SOL    HW123603   5.423   5.924   3.379
 7568SOL    HW223604   5.566   5.866   3.433
 7569SOL     OW23605   4.359   5.882   6.696
 7569SOL    HW123606   4.307   5.797   6.684
 7569SOL    HW223607   4.454   5.861   6.717
 7570SOL     OW23608   6.251   4.848   4.494
 7570SOL    HW123609   6.256   4.917   4.566
 7570SOL    HW223610   6.298   4.765   4.524
 7571SOL     OW23611   5.851   3.899   2.057
 7571SOL    HW123612   5.837   3.924   1.961
 7571SOL    HW223613   5.839   3.800   2.068
 7572SOL     OW23614   4.461   1.022   4.133
 7572SOL    HW123615   4.403   0.967   4.073
 7572SOL    HW223616   4.514   0.962   4.193
 7573SOL     OW23617   0.019   5.497   4.672
 7573SOL    HW123618   0.070   5.533   4.750
 7573SOL    HW223619   0.070   5.516   4.588
 7574SOL     OW23620   5.995   1.131   3.628
 7574SOL    HW123621   6.056   1.201   3.665
 7574SOL    HW223622   5.951   1.166   3.545
 7575SOL     OW23623   4.044   1.192   6.040
 7575SOL    HW123624   3.990   1.267   6.079
 7575SOL    HW223625   4.105   1.228   5.969
 7576SOL     OW23626   5.922   4.540   0.125
 7576SOL    HW123627   5.973   4.624   0.105
 7576SOL    HW223628   5.824   4.560   0.126
 7577SOL     OW23629   6.398   1.113   4.800
 7577SOL    HW123630   6.396   1.141   4.895
 7577SOL    HW223631   6.442   1.024   4.792
 7578SOL     OW23632   2.052   6.477   4.349
 7578SOL    HW123633   2.151   6.491   4.343
 7578SOL    HW223634   2.023   6.483   4.445
 7579SOL     OW23635   3.950   2.165   2.491
 7579SOL    HW123636   3.951   2.227   2.570
 7579SOL    HW223637   3.889   2.088   2.509
 7580SOL     OW23638   2.174   3.839   2.730
 7580SOL    HW123639   2.223   3.798   2.807
 7580SOL    HW223640   2.076   3.844   2.751
 7581SOL     OW23641   5.419   1.497   0.330
 7581SOL    HW123642   5.452   1.494   0.236
 7581SOL    HW223643   5.434   1.588   0.368
 7582SOL     OW23644   3.621   1.497   0.738
 7582SOL    HW123645   3.647   1.406   0.770
 7582SOL    HW223646   3.702   1.544   0.703
 7583SOL     OW23647   6.073   4.041   2.130
 7583SOL    HW123648   6.007   3.987   2.077
 7583SOL    HW223649   6.033   4.130   2.150
 7584SOL     OW23650   2.706   6.570   1.346
 7584SOL    HW123651   2.672   6.662   1.325
 7584SOL    HW223652   2.673   6.542   1.436
 7585SOL     OW23653   2.238   4.282   6.618
 7585SOL    HW123654   2.193   4.303   6.705
 7585SOL    HW223655   2.314   4.220   6.634
 7586SOL     OW23656   2.720   0.037   2.956
 7586SOL    HW123657   2.780   6.985   2.946
 7586SOL    HW223658   2.743   0.105   2.887
 7587SOL     OW23659   1.757   2.144   0.070
 7587SOL    HW123660   1.853   2.166   0.089
 7587SOL    HW223661   1.751   2.051   0.032
 7588SOL     OW23662   0.842   5.181   1.876
 7588SOL    HW123663   0.805   5.088   1.882
 7588SOL    HW223664   0.803   5.228   1.797
 7589SOL     OW23665   5.947   6.044   0.419
 7589SOL    HW123666   5.960   6.055   0.320
 7589SOL    HW223667   5.944   6.135   0.462
 7590SOL     OW23668   2.547   1.997   5.376
 7590SOL    HW123669   2.485   1.990   5.454
 7590SOL    HW223670   2.591   1.908   5.362
 7591SOL     OW23671   0.218   5.069   0.338
 7591SOL    HW123672   0.135   5.061   0.283
 7591SOL    HW223673   0.249   5.164   0.339
 7592SOL     OW23674   6.426   4.856   6.984
 7592SOL    HW123675   6.389   4.803   6.909
 7592SOL    HW223676   6.378   4.943   6.991
 7593SOL     OW23677   5.353   2.592   6.932
 7593SOL    HW123678   5.295   2.555   7.005
 7593SOL    HW223679   5.296   2.619   6.855
 7594SOL     OW23680   0.847   5.605   3.507
 7594SOL    HW123681   0.939   5.615   3.546
 7594SOL    HW223682   0.802   5.694   3.502
 7595SOL     OW23683   0.126   3.439   6.300
 7595SOL    HW123684   0.147   3.467   6.206
 7595SOL    HW223685   0.201   3.382   6.335
 7596SOL     OW23686   5.123   4.740   2.573
 7596SOL    HW123687   5.159   4.806   2.639
 7596SOL    HW223688   5.083   4.663   2.621
 7597SOL     OW23689   3.288   5.539   2.132
 7597SOL    HW123690   3.299   5.539   2.033
 7597SOL    HW223691   3.239   5.457   2.161
 7598SOL     OW23692   6.824   0.285   2.860
 7598SOL    HW123693   6.778   0.215   2.805
 7598SOL    HW223694   6.760   0.359   2.882
 7599SOL     OW23695   6.012   1.438   3.113
 7599SOL    HW123696   6.063   1.490   3.181
 7599SOL    HW223697   5.914   1.457   3.123
 7600SOL     OW23698   1.418   0.126   2.615
 7600SOL    HW123699   1.369   0.201   2.569
 7600SOL    HW223700   1.516   0.147   2.617
 7601SOL     OW23701   2.183   6.077   3.623
 7601SOL    HW123702   2.249   6.111   3.689
 7601SOL    HW223703   2.127   6.154   3.590
 7602SOL     OW23704   2.384   4.350   4.625
 7602SOL    HW123705   2.352   4.363   4.719
 7602SOL    HW223706   2.348   4.264   4.589
 7603SOL     OW23707   1.056   6.102   0.120
 7603SOL    HW123708   1.151   6.118   0.093
 7603SOL    HW223709   0.999   6.096   0.038
 7604SOL     OW23710   3.392   5.779   4.161
 7604SOL    HW123711   3.366   5.845   4.091
 7604SOL    HW223712   3.446   5.824   4.232
 7605SOL     OW23713   1.190   5.159   6.837
 7605SOL    HW123714   1.263   5.181   6.772
 7605SOL    HW223715   1.187   5.060   6.851
 7606SOL     OW23716   0.484   2.887   2.024
 7606SOL    HW123717   0.424   2.883   1.944
 7606SOL    HW223718   0.566   2.940   2.001
 7607SOL     OW23719   4.825   0.058   0.282
 7607SOL    HW123720   4.818   0.002   0.365
 7607SOL    HW223721   4.809   0.001   0.202
 7608SOL     OW23722   2.989   3.921   3.351
 7608SOL    HW123723   2.904   3.963   3.318
 7608SOL    HW223724   3.004   3.948   3.446
 7609SOL     OW23725   0.339   3.646   4.055
 7609SOL    HW123726   0.377   3.680   4.141
 7609SOL    HW223727   0.403   3.667   3.980
 7610SOL     OW23728   5.531   1.008   1.376
 7610SOL    HW123729   5.506   0.912   1.366
 7610SOL    HW223730   5.624   1.015   1.413
 7611SOL     OW23731   1.273   1.830   6.957
 7611SOL    HW123732   1.268   1.923   6.993
 7611SOL    HW223733   1.368   1.801   6.953
 7612SOL     OW23734   3.960   1.446   3.871
 7612SOL    HW123735   4.008   1.392   3.802
 7612SOL    HW223736   3.996   1.422   3.962
 7613SOL     OW23737   4.686   1.335   1.333
 7613SOL    HW123738   4.765   1.339   1.395
 7613SOL    HW223739   4.644   1.244   1.338
 7614SOL     OW23740   3.981   2.169   1.978
 7614SOL    HW123741   4.008   2.233   1.906
 7614SOL    HW223742   3.892   2.196   2.015
 7615SOL     OW23743   4.456   4.923   6.568
 7615SOL    HW123744   4.530   4.887   6.625
 7615SOL    HW223745   4.469   5.021   6.556
 7616SOL     OW23746   0.562   3.927   4.163
 7616SOL    HW123747   0.609   3.889   4.084
 7616SOL    HW223748   0.508   3.856   4.208
 7617SOL     OW23749   3.074   5.991   3.450
 7617SOL    HW123750   3.029   5.913   3.408
 7617SOL    HW223751   3.066   5.985   3.550
 7618SOL     OW23752   1.369   2.403   6.600
 7618SOL    HW123753   1.447   2.340   6.594
 7618SOL    HW223754   1.397   2.486   6.648
 7619SOL     OW23755   5.628   3.002   5.312
 7619SOL    HW123756   5.534   3.009   5.347
 7619SOL    HW223757   5.651   2.906   5.297
 7620SOL     OW23758   3.692   6.952   0.668
 7620SOL    HW123759   3.618   6.965   0.735
 7620SOL    HW223760   3.779   6.948   0.716
 7621SOL     OW23761   1.039   0.687   0.540
 7621SOL    HW123762   1.008   0.615   0.478
 7621SOL    HW223763   1.002   0.775   0.509
 7622SOL     OW23764   4.754   2.902   1.635
 7622SOL    HW123765   4.691   2.935   1.705
 7622SOL    HW223766   4.706   2.893   1.547
 7623SOL     OW23767   4.228   6.070   6.545
 7623SOL    HW123768   4.304   6.133   6.526
 7623SOL    HW223769   4.260   5.994   6.600
 7624SOL     OW23770   0.450   2.144   3.328
 7624SOL    HW123771   0.358   2.170   3.300
 7624SOL    HW223772   0.452   2.047   3.350
 7625SOL     OW23773   5.704   1.140   0.893
 7625SOL    HW123774   5.733   1.083   0.816
 7625SOL    HW223775   5.782   1.154   0.955
 7626SOL     OW23776   0.583   6.728   5.223
 7626SOL    HW123777   0.574   6.818   5.180
 7626SOL    HW223778   0.679   6.710   5.243
 7627SOL     OW23779   6.355   3.124   1.017
 7627SOL    HW123780   6.266   3.160   1.045
 7627SOL    HW223781   6.348   3.025   1.004
 7628SOL     OW23782   2.597   0.416   1.543
 7628SOL    HW123783   2.581   0.328   1.498
 7628SOL    HW223784   2.510   0.452   1.578
 7629SOL     OW23785   6.249   6.323   2.491
 7629SOL    HW123786   6.249   6.241   2.548
 7629SOL    HW223787   6.308   6.309   2.411
 7630SOL     OW23788   6.460   6.596   2.234
 7630SOL    HW123789   6.471   6.589   2.333
 7630SOL    HW223790   6.510   6.522   2.189
 7631SOL     OW23791   0.948   1.661   5.584
 7631SOL    HW123792   1.021   1.610   5.630
 7631SOL    HW223793   0.901   1.601   5.519
 7632SOL     OW23794   4.511   2.117   0.933
 7632SOL    HW123795   4.494   2.054   0.857
 7632SOL    HW223796   4.528   2.209   0.896
 7633SOL     OW23797   5.196   3.923   0.031
 7633SOL    HW123798   5.246   3.857   7.003
 7633SOL    HW223799   5.129   3.970   7.002
 7634SOL     OW23800   1.381   0.984   2.513
 7634SOL    HW123801   1.283   1.004   2.519
 7634SOL    HW223802   1.396   0.885   2.519
 7635SOL     OW23803   2.390   5.873   5.743
 7635SOL    HW123804   2.402   5.916   5.832
 7635SOL    HW223805   2.297   5.890   5.710
 7636SOL     OW23806   1.139   1.302   3.938
 7636SOL    HW123807   1.144   1.390   3.891
 7636SOL    HW223808   1.183   1.232   3.882
 7637SOL     OW23809   1.503   6.799   3.973
 7637SOL    HW123810   1.517   6.895   3.949
 7637SOL    HW223811   1.580   6.765   4.027
 7638SOL     OW23812   5.867   5.752   1.620
 7638SOL    HW123813   5.807   5.687   1.666
 7638SOL    HW223814   5.948   5.705   1.587
 7639SOL     OW23815   1.080   1.637   6.473
 7639SOL    HW123816   1.023   1.626   6.392
 7639SOL    HW223817   1.072   1.731   6.507
 7640SOL     OW23818   2.724   2.700   0.841
 7640SOL    HW123819   2.801   2.637   0.843
 7640SOL    HW223820   2.714   2.744   0.930
 7641SOL     OW23821   0.534   4.791   2.097
 7641SOL    HW123822   0.556   4.700   2.131
 7641SOL    HW223823   0.467   4.784   2.022
 7642SOL     OW23824   2.756   1.695   2.880
 7642SOL    HW123825   2.807   1.778   2.902
 7642SOL    HW223826   2.680   1.718   2.820
 7643SOL     OW23827   4.403   2.447   3.581
 7643SOL    HW123828   4.435   2.460   3.675
 7643SOL    HW223829   4.320   2.393   3.581
 7644SOL     OW23830   6.705   2.801   2.518
 7644SOL    HW123831   6.735   2.875   2.578
 7644SOL    HW223832   6.698   2.834   2.424
 7645SOL     OW23833   4.867   5.166   6.710
 7645SOL    HW123834   4.906   5.117   6.788
 7645SOL    HW223835   4.889   5.263   6.716
 7646SOL     OW23836   1.868   2.141   2.491
 7646SOL    HW123837   1.841   2.092   2.574
 7646SOL    HW223838   1.843   2.238   2.499
 7647SOL     OW23839   1.972   3.250   2.105
 7647SOL    HW123840   2.006   3.241   2.012
 7647SOL    HW223841   1.992   3.342   2.139
 7648SOL     OW23842   4.418   1.457   3.320
 7648SOL    HW123843   4.341   1.402   3.286
 7648SOL    HW223844   4.393   1.495   3.409
 7649SOL     OW23845   1.124   0.721   2.418
 7649SOL    HW123846   1.102   0.716   2.516
 7649SOL    HW223847   1.041   0.711   2.364
 7650SOL     OW23848   6.417   3.084   2.192
 7650SOL    HW123849   6.358   3.061   2.114
 7650SOL    HW223850   6.455   3.176   2.179
 7651SOL     OW23851   2.352   0.496   0.209
 7651SOL    HW123852   2.370   0.477   0.112
 7651SOL    HW223853   2.379   0.417   0.264
 7652SOL     OW23854   6.191   3.487   3.638
 7652SOL    HW123855   6.235   3.403   3.670
 7652SOL    HW223856   6.095   3.488   3.666
 7653SOL     OW23857   2.453   1.779   0.879
 7653SOL    HW123858   2.365   1.752   0.917
 7653SOL    HW223859   2.520   1.706   0.893
 7654SOL     OW23860   4.807   2.420   3.353
 7654SOL    HW123861   4.858   2.469   3.425
 7654SOL    HW223862   4.710   2.445   3.358
 7655SOL     OW23863   3.811   0.024   4.323
 7655SOL    HW123864   3.779   0.117   4.344
 7655SOL    HW223865   3.847   7.010   4.407
 7656SOL     OW23866   0.137   5.772   5.711
 7656SOL    HW123867   0.180   5.701   5.767
 7656SOL    HW223868   0.183   5.776   5.623
 7657SOL     OW23869   3.139   2.123   2.997
 7657SOL    HW123870   3.121   2.026   2.982
 7657SOL    HW223871   3.061   2.177   2.964
 7658SOL     OW23872   4.456   0.646   6.066
 7658SOL    HW123873   4.544   0.601   6.077
 7658SOL    HW223874   4.410   0.611   5.985
 7659SOL     OW23875   5.950   7.017   1.024
 7659SOL    HW123876   5.972   7.016   1.122
 7659SOL    HW223877   6.008   0.056   0.977
 7660SOL     OW23878   5.293   5.543   3.622
 7660SOL    HW123879   5.247   5.565   3.536
 7660SOL    HW223880   5.224   5.530   3.694
 7661SOL     OW23881   5.752   2.243   4.437
 7661SOL    HW123882   5.822   2.185   4.478
 7661SOL    HW223883   5.665   2.228   4.484
 7662SOL     OW23884   1.517   2.553   2.215
 7662SOL    HW123885   1.438   2.507   2.254
 7662SOL    HW223886   1.579   2.485   2.175
 7663SOL     OW23887   0.034   5.482   6.824
 7663SOL    HW123888   0.116   5.424   6.829
 7663SOL    HW223889   6.981   5.425   6.809
 7664SOL     OW23890   3.156   6.285   2.543
 7664SOL    HW123891   3.207   6.342   2.607
 7664SOL    HW223892   3.080   6.241   2.591
 7665SOL     OW23893   2.805   0.209   3.954
 7665SOL    HW123894   2.790   0.146   4.031
 7665SOL    HW223895   2.900   0.239   3.954
 7666SOL     OW23896   0.063   6.596   1.127
 7666SOL    HW123897   7.001   6.589   1.083
 7666SOL    HW223898   0.086   6.508   1.170
 7667SOL     OW23899   4.692   6.355   7.020
 7667SOL    HW123900   4.730   6.291   6.953
 7667SOL    HW223901   4.743   6.349   0.078
 7668SOL     OW23902   3.383   4.192   1.820
 7668SOL    HW123903   3.301   4.174   1.875
 7668SOL    HW223904   3.463   4.196   1.879
 7669SOL     OW23905   5.145   1.028   4.388
 7669SOL    HW123906   5.171   0.976   4.470
 7669SOL    HW223907   5.187   1.119   4.391
 7670SOL     OW23908   1.182   5.467   6.683
 7670SOL    HW123909   1.106   5.414   6.646
 7670SOL    HW223910   1.174   5.474   6.782
 7671SOL     OW23911   4.686   1.499   4.403
 7671SOL    HW123912   4.592   1.501   4.370
 7671SOL    HW223913   4.721   1.405   4.399
 7672SOL     OW23914   5.927   0.237   3.750
 7672SOL    HW123915   5.937   0.332   3.780
 7672SOL    HW223916   6.016   0.191   3.756
 7673SOL     OW23917   1.220   4.844   0.664
 7673SOL    HW123918   1.314   4.878   0.670
 7673SOL    HW223919   1.202   4.807   0.573
 7674SOL     OW23920   6.508   2.041   4.616
 7674SOL    HW123921   6.414   2.073   4.623
 7674SOL    HW223922   6.535   1.997   4.703
 7675SOL     OW23923   5.093   0.452   1.900
 7675SOL    HW123924   5.128   0.369   1.859
 7675SOL    HW223925   5.087   0.440   2.000
 7676SOL     OW23926   1.016   1.413   6.861
 7676SOL    HW123927   1.088   1.446   6.801
 7676SOL    HW223928   0.997   1.316   6.842
 7677SOL     OW23929   1.711   3.185   2.122
 7677SOL    HW123930   1.783   3.233   2.073
 7677SOL    HW223931   1.734   3.088   2.129
 7678SOL     OW23932   1.327   0.855   6.383
 7678SOL    HW123933   1.364   0.874   6.292
 7678SOL    HW223934   1.264   0.778   6.377
 7679SOL     OW23935   1.051   5.235   4.882
 7679SOL    HW123936   1.066   5.217   4.979
 7679SOL    HW223937   0.955   5.217   4.859
 7680SOL     OW23938   3.123   3.407   6.771
 7680SOL    HW123939   3.196   3.474   6.787
 7680SOL    HW223940   3.151   3.343   6.700
 7681SOL     OW23941   2.930   0.966   0.531
 7681SOL    HW123942   2.849   1.008   0.571
 7681SOL    HW223943   2.903   0.892   0.469
 7682SOL     OW23944   2.536   6.554   2.021
 7682SOL    HW123945   2.519   6.578   1.926
 7682SOL    HW223946   2.484   6.472   2.045
 7683SOL     OW23947   6.635   2.829   2.970
 7683SOL    HW123948   6.619   2.799   3.064
 7683SOL    HW223949   6.551   2.819   2.916
 7684SOL     OW23950   5.357   2.605   6.613
 7684SOL    HW123951   5.358   2.508   6.638
 7684SOL    HW223952   5.415   2.619   6.532
 7685SOL     OW23953   3.727   2.595   0.526
 7685SOL    HW123954   3.638   2.612   0.483
 7685SOL    HW223955   3.778   2.527   0.474
 7686SOL     OW23956   4.439   0.173   2.865
 7686SOL    HW123957   4.492   0.203   2.944
 7686SOL    HW223958   4.356   0.229   2.857
 7687SOL     OW23959   5.155   5.782   5.799
 7687SOL    HW123960   5.058   5.772   5.776
 7687SOL    HW223961   5.206   5.705   5.760
 7688SOL     OW23962   6.780   6.653   5.694
 7688SOL    HW123963   6.816   6.708   5.769
 7688SOL    HW223964   6.681   6.660   5.693
 7689SOL     OW23965   4.756   5.923   4.376
 7689SOL    HW123966   4.659   5.914   4.401
 7689SOL    HW223967   4.813   5.904   4.455
 7690SOL     OW23968   5.198   5.033   3.115
 7690SOL    HW123969   5.137   5.029   3.036
 7690SOL    HW223970   5.220   4.941   3.146
 7691SOL     OW23971   4.804   2.875   3.845
 7691SOL    HW123972   4.889   2.881   3.792
 7691SOL    HW223973   4.744   2.805   3.805
 7692SOL     OW23974   1.272   6.399   1.249
 7692SOL    HW123975   1.316   6.371   1.164
 7692SOL    HW223976   1.326   6.367   1.327
 7693SOL     OW23977   4.126   1.269   6.859
 7693SOL    HW123978   4.077   1.198   6.808
 7693SOL    HW223979   4.216   1.284   6.817
 7694SOL     OW23980   0.598   4.531   3.951
 7694SOL    HW123981   0.573   4.451   4.006
 7694SOL    HW223982   0.694   4.525   3.924
 7695SOL     OW23983   3.808   0.269   0.952
 7695SOL    HW123984   3.906   0.283   0.970
 7695SOL    HW223985   3.796   0.236   0.859
 7696SOL     OW23986   6.916   2.134   4.469
 7696SOL    HW123987   6.975   2.070   4.519
 7696SOL    HW223988   6.872   2.087   4.393
 7697SOL     OW23989   2.231   1.514   3.372
 7697SOL    HW123990   2.215   1.551   3.464
 7697SOL    HW223991   2.233   1.414   3.377
 7698SOL     OW23992   6.594   3.124   4.666
 7698SOL    HW123993   6.554   3.037   4.636
 7698SOL    HW223994   6.617   3.119   4.763
 7699SOL     OW23995   2.237   5.614   0.035
 7699SOL    HW123996   2.310   5.613   6.994
 7699SOL    HW223997   2.148   5.614   7.016
 7700SOL     OW23998   4.634   0.010   5.201
 7700SOL    HW123999   4.609   7.006   5.109
 7700SOL    HW224000   4.662   6.959   5.257
 7701SOL     OW24001   6.346   0.741   5.870
 7701SOL    HW124002   6.306   0.778   5.954
 7701SOL    HW224003   6.292   0.663   5.839
 7702SOL     OW24004   3.517   6.506   6.163
 7702SOL    HW124005   3.486   6.421   6.119
 7702SOL    HW224006   3.464   6.522   6.246
 7703SOL     OW24007   6.864   1.474   5.257
 7703SOL    HW124008   6.789   1.486   5.191
 7703SOL    HW224009   6.865   1.379   5.288
 7704SOL     OW24010   4.240   4.496   7.011
 7704SOL    HW124011   4.152   4.450   7.027
 7704SOL    HW224012   4.295   4.490   0.067
 7705SOL     OW24013   3.512   4.935   5.158
 7705SOL    HW124014   3.426   4.964   5.116
 7705SOL    HW224015   3.587   4.949   5.093
 7706SOL     OW24016   5.719   6.864   5.337
 7706SOL    HW124017   5.768   6.899   5.258
 7706SOL    HW224018   5.770   6.787   5.377
 7707SOL     OW24019   6.950   5.308   6.264
 7707SOL    HW124020   6.908   5.240   6.204
 7707SOL    HW224021   6.970   5.266   6.353
 7708SOL     OW24022   5.193   5.864   4.825
 7708SOL    HW124023   5.107   5.912   4.811
 7708SOL    HW224024   5.175   5.773   4.863
 7709SOL     OW24025   4.548   2.481   2.246
 7709SOL    HW124026   4.509   2.514   2.160
 7709SOL    HW224027   4.575   2.385   2.236
 7710SOL     OW24028   2.475   6.861   0.756
 7710SOL    HW124029   2.538   6.835   0.829
 7710SOL    HW224030   2.412   6.931   0.790
 7711SOL     OW24031   5.904   6.315   5.920
 7711SOL    HW124032   5.982   6.370   5.889
 7711SOL    HW224033   5.938   6.241   5.978
 7712SOL     OW24034   6.042   4.962   1.408
 7712SOL    HW124035   6.050   5.039   1.472
 7712SOL    HW224036   6.008   4.995   1.320
 7713SOL     OW24037   1.879   3.994   0.295
 7713SOL    HW124038   1.889   3.921   0.362
 7713SOL    HW224039   1.844   3.956   0.210
 7714SOL     OW24040   6.334   4.236   4.593
 7714SOL    HW124041   6.304   4.149   4.553
 7714SOL    HW224042   6.434   4.243   4.586
 7715SOL     OW24043   5.148   0.997   0.965
 7715SOL    HW124044   5.141   1.022   1.062
 7715SOL    HW224045   5.197   1.068   0.915
 7716SOL     OW24046   4.620   2.581   2.496
 7716SOL    HW124047   4.590   2.550   2.406
 7716SOL    HW224048   4.661   2.505   2.546
 7717SOL     OW24049   2.818   1.355   4.996
 7717SOL    HW124050   2.792   1.344   4.900
 7717SOL    HW224051   2.754   1.305   5.054
 7718SOL     OW24052   1.868   1.652   2.870
 7718SOL    HW124053   1.912   1.727   2.919
 7718SOL    HW224054   1.784   1.625   2.918
 7719SOL     OW24055   0.142   3.186   4.607
 7719SOL    HW124056   0.042   3.185   4.611
 7719SOL    HW224057   0.174   3.271   4.566
 7720SOL     OW24058   6.511   6.457   0.797
 7720SOL    HW124059   6.589   6.420   0.747
 7720SOL    HW224060   6.427   6.411   0.766
 7721SOL     OW24061   2.208   4.168   3.208
 7721SOL    HW124062   2.179   4.136   3.118
 7721SOL    HW224063   2.127   4.187   3.264
 7722SOL     OW24064   6.301   5.216   2.974
 7722SOL    HW124065   6.211   5.191   3.009
 7722SOL    HW224066   6.370   5.200   3.045
 7723SOL     OW24067   7.009   3.118   0.672
 7723SOL    HW124068   6.991   3.113   0.573
 7723SOL    HW224069   6.968   3.039   0.717
 7724SOL     OW24070   1.849   4.571   1.812
 7724SOL    HW124071   1.918   4.598   1.744
 7724SOL    HW224072   1.766   4.627   1.798
 7725SOL     OW24073   5.235   2.244   3.163
 7725SOL    HW124074   5.328   2.277   3.181
 7725SOL    HW224075   5.179   2.257   3.244
 7726SOL     OW24076   0.359   4.687   3.353
 7726SOL    HW124077   0.445   4.657   3.394
 7726SOL    HW224078   0.323   4.614   3.294
 7727SOL     OW24079   6.129   2.024   3.999
 7727SOL    HW124080   6.191   2.095   4.030
 7727SOL    HW224081   6.102   1.967   4.077
 7728SOL     OW24082   1.806   3.020   3.125
 7728SOL    HW124083   1.851   2.936   3.096
 7728SOL    HW224084   1.829   3.094   3.063
 7729SOL     OW24085   5.318   2.396   1.040
 7729SOL    HW124086   5.416   2.413   1.041
 7729SOL    HW224087   5.281   2.405   1.133
 7730SOL     OW24088   4.899   6.381   3.056
 7730SOL    HW124089   4.908   6.331   3.142
 7730SOL    HW224090   4.938   6.327   2.981
 7731SOL     OW24091   6.468   1.034   0.341
 7731SOL    HW124092   6.459   0.977   0.423
 7731SOL    HW224093   6.404   1.002   0.271
 7732SOL     OW24094   5.251   5.748   0.467
 7732SOL    HW124095   5.351   5.759   0.465
 7732SOL    HW224096   5.222   5.693   0.389
 7733SOL     OW24097   4.028   7.009   1.526
 7733SOL    HW124098   4.092   7.008   1.603
 7733SOL    HW224099   4.016   0.075   1.493
 7734SOL     OW24100   1.683   3.247   3.313
 7734SOL    HW124101   1.659   3.170   3.254
 7734SOL    HW224102   1.656   3.226   3.407
 7735SOL     OW24103   5.027   4.599   6.911
 7735SOL    HW124104   5.106   4.621   6.969
 7735SOL    HW224105   4.945   4.642   6.948
 7736SOL     OW24106   4.976   4.523   0.461
 7736SOL    HW124107   5.063   4.556   0.425
 7736SOL    HW224108   4.985   4.499   0.557
 7737SOL     OW24109   4.719   2.095   1.136
 7737SOL    HW124110   4.758   2.013   1.178
 7737SOL    HW224111   4.625   2.077   1.109
 7738SOL     OW24112   2.506   6.048   0.827
 7738SOL    HW124113   2.486   5.975   0.762
 7738SOL    HW224114   2.456   6.032   0.912
 7739SOL     OW24115   1.026   2.509   0.676
 7739SOL    HW124116   0.971   2.478   0.753
 7739SOL    HW224117   1.061   2.430   0.626
 7740SOL     OW24118   0.039   6.936   2.394
 7740SOL    HW124119   0.126   6.926   2.346
 7740SOL    HW224120   0.052   6.989   2.477
 7741SOL     OW24121   1.870   5.511   4.026
 7741SOL    HW124122   1.959   5.547   4.002
 7741SOL    HW224123   1.881   5.425   4.077
 7742SOL     OW24124   6.110   2.014   2.995
 7742SOL    HW124125   6.084   2.091   3.053
 7742SOL    HW224126   6.209   2.012   2.984
 7743SOL     OW24127   4.229   3.360   5.822
 7743SOL    HW124128   4.223   3.263   5.796
 7743SOL    HW224129   4.138   3.400   5.823
 7744SOL     OW24130   6.471   6.518   3.927
 7744SOL    HW124131   6.491   6.545   4.022
 7744SOL    HW224132   6.504   6.425   3.911
 7745SOL     OW24133   3.690   2.702   6.052
 7745SOL    HW124134   3.736   2.682   6.139
 7745SOL    HW224135   3.651   2.617   6.015
 7746SOL     OW24136   1.908   0.003   0.692
 7746SOL    HW124137   1.905   6.934   0.666
 7746SOL    HW224138   1.927   0.059   0.611
 7747SOL     OW24139   5.126   6.411   0.889
 7747SOL    HW124140   5.057   6.397   0.960
 7747SOL    HW224141   5.155   6.507   0.890
 7748SOL     OW24142   2.525   3.635   6.323
 7748SOL    HW124143   2.480   3.685   6.249
 7748SOL    HW224144   2.611   3.680   6.345
 7749SOL     OW24145   4.644   3.561   5.922
 7749SOL    HW124146   4.695   3.632   5.971
 7749SOL    HW224147   4.568   3.604   5.873
 7750SOL     OW24148   0.654   6.284   1.493
 7750SOL    HW124149   0.644   6.188   1.519
 7750SOL    HW224150   0.573   6.335   1.521
 7751SOL     OW24151   1.004   1.742   1.740
 7751SOL    HW124152   1.014   1.758   1.642
 7751SOL    HW224153   0.989   1.830   1.787
 7752SOL     OW24154   4.902   0.785   4.306
 7752SOL    HW124155   4.881   0.855   4.238
 7752SOL    HW224156   4.923   0.828   4.394
 7753SOL     OW24157   2.322   1.545   5.056
 7753SOL    HW124158   2.258   1.479   5.097
 7753SOL    HW224159   2.294   1.564   4.962
 7754SOL     OW24160   4.128   6.235   1.573
 7754SOL    HW124161   4.150   6.260   1.479
 7754SOL    HW224162   4.092   6.315   1.621
 7755SOL     OW24163   2.099   4.434   6.429
 7755SOL    HW124164   2.009   4.392   6.448
 7755SOL    HW224165   2.168   4.390   6.486
 7756SOL     OW24166   2.420   5.961   1.597
 7756SOL    HW124167   2.376   5.872   1.599
 7756SOL    HW224168   2.495   5.963   1.662
 7757SOL     OW24169   0.560   4.366   3.206
 7757SOL    HW124170   0.473   4.395   3.166
 7757SOL    HW224171   0.551   4.366   3.306
 7758SOL     OW24172   1.250   0.825   5.210
 7758SOL    HW124173   1.215   0.775   5.289
 7758SOL    HW224174   1.300   0.905   5.241
 7759SOL     OW24175   3.040   2.276   6.563
 7759SOL    HW124176   2.955   2.233   6.591
 7759SOL    HW224177   3.025   2.332   6.482
 7760SOL     OW24178   4.373   2.419   1.638
 7760SOL    HW124179   4.427   2.339   1.615
 7760SOL    HW224180   4.432   2.500   1.641
 7761SOL     OW24181   4.740   5.435   4.607
 7761SOL    HW124182   4.714   5.341   4.586
 7761SOL    HW224183   4.660   5.484   4.642
 7762SOL     OW24184   0.045   0.872   3.632
 7762SOL    HW124185   0.005   0.945   3.687
 7762SOL    HW224186   0.090   0.912   3.552
 7763SOL     OW24187   2.757   0.250   4.654
 7763SOL    HW124188   2.803   0.313   4.717
 7763SOL    HW224189   2.820   0.178   4.626
 7764SOL     OW24190   3.234   3.910   5.424
 7764SOL    HW124191   3.287   3.994   5.427
 7764SOL    HW224192   3.250   3.858   5.509
 7765SOL     OW24193   6.449   3.473   4.576
 7765SOL    HW124194   6.546   3.459   4.559
 7765SOL    HW224195   6.405   3.385   4.595
 7766SOL     OW24196   0.563   4.626   0.268
 7766SOL    HW124197   0.545   4.565   0.345
 7766SOL    HW224198   0.620   4.703   0.299
 7767SOL     OW24199   2.873   0.747   2.576
 7767SOL    HW124200   2.951   0.799   2.541
 7767SOL    HW224201   2.788   0.782   2.536
 7768SOL     OW24202   4.095   4.766   3.014
 7768SOL    HW124203   4.067   4.808   2.928
 7768SOL    HW224204   4.160   4.692   2.996
 7769SOL     OW24205   3.428   2.365   5.340
 7769SOL    HW124206   3.353   2.348   5.275
 7769SOL    HW224207   3.509   2.394   5.289
 7770SOL     OW24208   1.204   3.563   4.816
 7770SOL    HW124209   1.121   3.568   4.872
 7770SOL    HW224210   1.202   3.478   4.763
 7771SOL     OW24211   3.232   2.818   6.277
 7771SOL    HW124212   3.235   2.779   6.186
 7771SOL    HW224213   3.319   2.800   6.324
 7772SOL     OW24214   4.852   0.918   1.517
 7772SOL    HW124215   4.830   0.961   1.429
 7772SOL    HW224216   4.896   0.830   1.500
 7773SOL     OW24217   2.655   5.956   0.248
 7773SOL    HW124218   2.679   5.859   0.255
 7773SOL    HW224219   2.706   6.008   0.315
 7774SOL     OW24220   4.683   1.778   2.856
 7774SOL    HW124221   4.681   1.695   2.913
 7774SOL    HW224222   4.743   1.845   2.899
 7775SOL     OW24223   3.229   0.682   0.370
 7775SOL    HW124224   3.194   0.745   0.301
 7775SOL    HW224225   3.247   0.593   0.328
 7776SOL     OW24226   1.279   0.013   5.522
 7776SOL    HW124227   1.335   0.036   5.601
 7776SOL    HW224228   1.294   6.945   5.497
 7777SOL     OW24229   4.916   5.545   3.368
 7777SOL    HW124230   5.004   5.513   3.402
 7777SOL    HW224231   4.929   5.628   3.314
 7778SOL     OW24232   6.144   4.169   2.883
 7778SOL    HW124233   6.205   4.099   2.847
 7778SOL    HW224234   6.184   4.260   2.867
 7779SOL     OW24235   3.211   5.984   1.931
 7779SOL    HW124236   3.210   6.067   1.986
 7779SOL    HW224237   3.287   5.926   1.960
 7780SOL     OW24238   6.471   5.978   5.396
 7780SOL    HW124239   6.492   5.962   5.300
 7780SOL    HW224240   6.527   5.917   5.453
 7781SOL     OW24241   1.710   3.221   0.431
 7781SOL    HW124242   1.749   3.135   0.399
 7781SOL    HW224243   1.682   3.212   0.527
 7782SOL     OW24244   6.207   4.726   3.551
 7782SOL    HW124245   6.122   4.769   3.581
 7782SOL    HW224246   6.190   4.630   3.531
 7783SOL     OW24247   1.190   0.944   4.969
 7783SOL    HW124248   1.092   0.963   4.962
 7783SOL    HW224249   1.208   0.884   5.047
 7784SOL     OW24250   2.396   2.678   2.807
 7784SOL    HW124251   2.372   2.769   2.840
 7784SOL    HW224252   2.385   2.611   2.880
 7785SOL     OW24253   0.916   6.178   2.322
 7785SOL    HW124254   0.996   6.136   2.281
 7785SOL    HW224255   0.934   6.275   2.340
 7786SOL     OW24256   4.328   0.255   6.060
 7786SOL    HW124257   4.321   0.281   6.157
 7786SOL    HW224258   4.313   0.336   6.003
 7787SOL     OW24259   2.855   2.827   1.080
 7787SOL    HW124260   2.931   2.881   1.119
 7787SOL    HW224261   2.770   2.878   1.090
 7788SOL     OW24262   0.544   4.554   1.353
 7788SOL    HW124263   0.569   4.569   1.257
 7788SOL    HW224264   0.450   4.586   1.367
 7789SOL     OW24265   3.365   0.949   6.466
 7789SOL    HW124266   3.325   1.039   6.451
 7789SOL    HW224267   3.347   0.920   6.559
 7790SOL     OW24268   5.477   4.743   1.971
 7790SOL    HW124269   5.551   4.710   2.030
 7790SOL    HW224270   5.402   4.678   1.973
 7791SOL     OW24271   2.409   5.405   2.204
 7791SOL    HW124272   2.333   5.341   2.193
 7791SOL    HW224273   2.488   5.357   2.241
 7792SOL     OW24274   0.994   1.770   2.134
 7792SOL    HW124275   1.021   1.807   2.044
 7792SOL    HW224276   1.034   1.827   2.206
 7793SOL     OW24277   4.560   1.152   6.949
 7793SOL    HW124278   4.578   1.082   7.019
 7793SOL    HW224279   4.556   1.242   6.993
 7794SOL     OW24280   0.882   5.725   2.708
 7794SOL    HW124281   0.892   5.761   2.801
 7794SOL    HW224282   0.799   5.762   2.666
 7795SOL     OW24283   3.450   5.269   6.383
 7795SOL    HW124284   3.532   5.296   6.332
 7795SOL    HW224285   3.374   5.254   6.319
 7796SOL     OW24286   3.353   3.055   6.084
 7796SOL    HW124287   3.279   3.076   6.020
 7796SOL    HW224288   3.316   3.001   6.160
 7797SOL     OW24289   1.194   6.164   3.254
 7797SOL    HW124290   1.221   6.172   3.158
 7797SOL    HW224291   1.097   6.185   3.263
 7798SOL     OW24292   0.896   2.355   0.900
 7798SOL    HW124293   0.810   2.341   0.850
 7798SOL    HW224294   0.903   2.288   0.974
 7799SOL     OW24295   2.430   6.233   3.405
 7799SOL    HW124296   2.466   6.140   3.408
 7799SOL    HW224297   2.361   6.240   3.334
 7800SOL     OW24298   0.132   6.318   1.199
 7800SOL    HW124299   0.209   6.326   1.263
 7800SOL    HW224300   0.167   6.297   1.107
 7801SOL     OW24301   1.747   2.620   2.444
 7801SOL    HW124302   1.724   2.639   2.540
 7801SOL    HW224303   1.747   2.706   2.392
 7802SOL     OW24304   6.826   3.782   5.346
 7802SOL    HW124305   6.785   3.833   5.270
 7802SOL    HW224306   6.794   3.819   5.432
 7803SOL     OW24307   4.745   2.225   5.452
 7803SOL    HW124308   4.802   2.221   5.534
 7803SOL    HW224309   4.792   2.179   5.377
 7804SOL     OW24310   2.607   2.038   5.008
 7804SOL    HW124311   2.573   1.985   4.931
 7804SOL    HW224312   2.691   1.997   5.043
 7805SOL     OW24313   5.271   3.097   1.087
 7805SOL    HW124314   5.329   3.035   1.035
 7805SOL    HW224315   5.209   3.044   1.145
 7806SOL     OW24316   6.814   2.173   5.480
 7806SOL    HW124317   6.864   2.246   5.525
 7806SOL    HW224318   6.828   2.087   5.530
 7807SOL     OW24319   2.179   5.172   5.863
 7807SOL    HW124320   2.149   5.190   5.769
 7807SOL    HW224321   2.263   5.222   5.881
 7808SOL     OW24322   5.632   3.997   2.867
 7808SOL    HW124323   5.731   3.984   2.878
 7808SOL    HW224324   5.614   4.048   2.782
 7809SOL     OW24325   4.734   5.355   3.698
 7809SOL    HW124326   4.709   5.348   3.601
 7809SOL    HW224327   4.675   5.423   3.742
 7810SOL     OW24328   4.050   6.439   5.477
 7810SOL    HW124329   4.112   6.443   5.555
 7810SOL    HW224330   4.060   6.522   5.422
 7811SOL     OW24331   1.467   5.845   2.589
 7811SOL    HW124332   1.476   5.880   2.683
 7811SOL    HW224333   1.443   5.921   2.528
 7812SOL     OW24334   2.532   2.740   5.488
 7812SOL    HW124335   2.497   2.647   5.499
 7812SOL    HW224336   2.463   2.797   5.443
 7813SOL     OW24337   5.673   1.556   0.823
 7813SOL    HW124338   5.675   1.604   0.911
 7813SOL    HW224339   5.766   1.529   0.798
 7814SOL     OW24340   0.130   3.220   2.229
 7814SOL    HW124341   0.141   3.232   2.328
 7814SOL    HW224342   0.220   3.214   2.186
 7815SOL     OW24343   6.106   2.739   5.426
 7815SOL    HW124344   6.167   2.666   5.458
 7815SOL    HW224345   6.112   2.746   5.327
 7816SOL     OW24346   0.547   1.527   4.906
 7816SOL    HW124347   0.587   1.436   4.892
 7816SOL    HW224348   0.561   1.582   4.824
 7817SOL     OW24349   2.878   2.958   6.338
 7817SOL    HW124350   2.829   2.995   6.417
 7817SOL    HW224351   2.946   2.892   6.370
 7818SOL     OW24352   5.365   1.212   2.124
 7818SOL    HW124353   5.460   1.228   2.098
 7818SOL    HW224354   5.362   1.173   2.216
 7819SOL     OW24355   1.264   3.853   3.918
 7819SOL    HW124356   1.341   3.915   3.933
 7819SOL    HW224357   1.253   3.794   3.998
 7820SOL     OW24358   1.700   0.447   5.724
 7820SOL    HW124359   1.762   0.375   5.691
 7820SOL    HW224360   1.606   0.421   5.705
 7821SOL     OW24361   6.142   5.493   6.949
 7821SOL    HW124362   6.119   5.396   6.949
 7821SOL    HW224363   6.229   5.507   6.901
 7822SOL     OW24364   1.182   0.836   4.727
 7822SOL    HW124365   1.124   0.901   4.678
 7822SOL    HW224366   1.192   0.866   4.822
 7823SOL     OW24367   1.613   4.354   6.805
 7823SOL    HW124368   1.648   4.404   6.885
 7823SOL    HW224369   1.669   4.273   6.790
 7824SOL     OW24370   5.223   2.719   2.316
 7824SOL    HW124371   5.126   2.697   2.318
 7824SOL    HW224372   5.237   2.808   2.272
 7825SOL     OW24373   3.349   3.172   1.758
 7825SOL    HW124374   3.411   3.244   1.730
 7825SOL    HW224375   3.342   3.104   1.685
 7826SOL     OW24376   6.526   0.682   0.181
 7826SOL    HW124377   6.606   0.713   0.130
 7826SOL    HW224378   6.464   0.635   0.119
 7827SOL     OW24379   5.434   5.115   1.332
 7827SOL    HW124380   5.364   5.187   1.330
 7827SOL    HW224381   5.446   5.084   1.427
 7828SOL     OW24382   0.553   6.235   1.078
 7828SOL    HW124383   0.637   6.247   1.026
 7828SOL    HW224384   0.553   6.145   1.121
 7829SOL     OW24385   3.277   2.945   1.607
 7829SOL    HW124386   3.257   2.862   1.660
 7829SOL    HW224387   3.323   2.919   1.522
 7830SOL     OW24388   6.012   3.122   0.007
 7830SOL    HW124389   6.058   3.211   0.008
 7830SOL    HW224390   5.962   3.112   6.948
 7831SOL     OW24391   1.438   3.305   0.367
 7831SOL    HW124392   1.406   3.319   0.273
 7831SOL    HW224393   1.525   3.255   0.365
 7832SOL     OW24394   2.202   2.356   5.270
 7832SOL    HW124395   2.146   2.333   5.350
 7832SOL    HW224396   2.283   2.297   5.267
 7833SOL     OW24397   0.722   6.893   0.569
 7833SOL    HW124398   0.716   6.799   0.602
 7833SOL    HW224399   0.788   6.899   0.495
 7834SOL     OW24400   1.059   0.768   1.404
 7834SOL    HW124401   0.978   0.811   1.364
 7834SOL    HW224402   1.114   0.838   1.451
 7835SOL     OW24403   2.210   3.098   4.864
 7835SOL    HW124404   2.187   3.193   4.883
 7835SOL    HW224405   2.272   3.063   4.934
 7836SOL     OW24406   2.644   6.684   6.908
 7836SOL    HW124407   2.656   6.677   6.809
 7836SOL    HW224408   2.684   6.603   6.951
 7837SOL     OW24409   6.135   6.834   3.274
 7837SOL    HW124410   6.168   6.885   3.195
 7837SOL    HW224411   6.066   6.767   3.245
 7838SOL     OW24412   4.325   6.407   4.799
 7838SOL    HW124413   4.298   6.384   4.705
 7838SOL    HW224414   4.371   6.327   4.840
 7839SOL     OW24415   6.341   5.025   4.710
 7839SOL    HW124416   6.259   5.062   4.666
 7839SOL    HW224417   6.323   5.009   4.807
 7840SOL     OW24418   5.244   2.774   4.080
 7840SOL    HW124419   5.217   2.783   4.176
 7840SOL    HW224420   5.181   2.827   4.023
 7841SOL     OW24421   0.018   1.395   6.350
 7841SOL    HW124422   7.008   1.420   6.439
 7841SOL    HW224423   7.022   1.300   6.330
 7842SOL     OW24424   1.955   1.447   2.710
 7842SOL    HW124425   2.054   1.448   2.697
 7842SOL    HW224426   1.929   1.515   2.778
 7843SOL     OW24427   5.464   3.688   0.856
 7843SOL    HW124428   5.523   3.670   0.935
 7843SOL    HW224429   5.368   3.675   0.883
 7844SOL     OW24430   4.056   0.669   3.227
 7844SOL    HW124431   4.140   0.721   3.209
 7844SOL    HW224432   3.980   0.708   3.176
 7845SOL     OW24433   6.448   1.341   4.350
 7845SOL    HW124434   6.397   1.276   4.294
 7845SOL    HW224435   6.391   1.423   4.365
 7846SOL     OW24436   2.915   0.059   1.770
 7846SOL    HW124437   2.874   0.148   1.752
 7846SOL    HW224438   2.857   7.015   1.731
 7847SOL     OW24439   6.777   0.553   0.353
 7847SOL    HW124440   6.693   0.563   0.299
 7847SOL    HW224441   6.848   0.510   0.298
 7848SOL     OW24442   4.403   3.747   1.674
 7848SOL    HW124443   4.351   3.783   1.751
 7848SOL    HW224444   4.449   3.822   1.627
 7849SOL     OW24445   5.991   3.085   4.654
 7849SOL    HW124446   5.989   3.122   4.561
 7849SOL    HW224447   6.007   2.987   4.651
 7850SOL     OW24448   0.484   0.893   5.548
 7850SOL    HW124449   0.549   0.966   5.528
 7850SOL    HW224450   0.395   0.916   5.510
 7851SOL     OW24451   6.003   7.002   0.576
 7851SOL    HW124452   6.102   6.996   0.564
 7851SOL    HW224453   5.967   0.049   0.519
 7852SOL     OW24454   2.740   6.447   0.005
 7852SOL    HW124455   2.809   6.383   0.037
 7852SOL    HW224456   2.744   6.530   0.060
 7853SOL     OW24457   2.747   2.784   0.166
 7853SOL    HW124458   2.815   2.806   0.095
 7853SOL    HW224459   2.656   2.781   0.125
 7854SOL     OW24460   3.561   3.895   1.911
 7854SOL    HW124461   3.597   3.803   1.924
 7854SOL    HW224462   3.606   3.958   1.974
 7855SOL     OW24463   4.530   5.520   6.815
 7855SOL    HW124464   4.550   5.554   6.907
 7855SOL    HW224465   4.431   5.505   6.806
 7856SOL     OW24466   5.690   3.568   5.275
 7856SOL    HW124467   5.603   3.520   5.289
 7856SOL    HW224468   5.720   3.555   5.181
 7857SOL     OW24469   6.116   1.508   5.931
 7857SOL    HW124470   6.052   1.501   5.855
 7857SOL    HW224471   6.137   1.604   5.949
 7858SOL     OW24472   6.039   4.170   3.277
 7858SOL    HW124473   6.119   4.151   3.334
 7858SOL    HW224474   6.024   4.095   3.213
 7859SOL     OW24475   0.910   4.858   5.889
 7859SOL    HW124476   0.844   4.787   5.864
 7859SOL    HW224477   0.896   4.885   5.984
 7860SOL     OW24478   4.029   6.780   1.390
 7860SOL    HW124479   4.029   6.871   1.431
 7860SOL    HW224480   3.964   6.722   1.439
 7861SOL     OW24481   4.513   5.083   0.808
 7861SOL    HW124482   4.427   5.088   0.858
 7861SOL    HW224483   4.540   4.987   0.798
 7862SOL     OW24484   2.987   4.224   1.488
 7862SOL    HW124485   2.963   4.284   1.564
 7862SOL    HW224486   2.980   4.274   1.402
 7863SOL     OW24487   6.507   5.954   2.115
 7863SOL    HW124488   6.481   5.934   2.210
 7863SOL    HW224489   6.520   5.868   2.065
 7864SOL     OW24490   0.747   5.407   4.386
 7864SOL    HW124491   0.813   5.466   4.340
 7864SOL    HW224492   0.779   5.312   4.382
 7865SOL     OW24493   3.695   6.381   3.313
 7865SOL    HW124494   3.659   6.440   3.385
 7865SOL    HW224495   3.622   6.325   3.275
 7866SOL     OW24496   2.675   2.093   3.801
 7866SOL    HW124497   2.596   2.045   3.840
 7866SOL    HW224498   2.669   2.090   3.701
 7867SOL     OW24499   6.291   4.726   1.887
 7867SOL    HW124500   6.255   4.633   1.884
 7867SOL    HW224501   6.360   4.737   1.816
 7868SOL     OW24502   5.383   6.228   0.833
 7868SOL    HW124503   5.425   6.140   0.853
 7868SOL    HW224504   5.314   6.217   0.762
 7869SOL     OW24505   0.763   3.168   1.727
 7869SOL    HW124506   0.779   3.105   1.651
 7869SOL    HW224507   0.844   3.225   1.742
 7870SOL     OW24508   6.597   4.751   4.208
 7870SOL    HW124509   6.536   4.675   4.231
 7870SOL    HW224510   6.642   4.733   4.121
 7871SOL     OW24511   5.229   3.223   3.097
 7871SOL    HW124512   5.174   3.223   3.180
 7871SOL    HW224513   5.204   3.144   3.040
 7872SOL     OW24514   6.963   3.493   2.755
 7872SOL    HW124515   6.950   3.592   2.750
 7872SOL    HW224516   6.876   3.447   2.736
 7873SOL     OW24517   0.261   5.718   5.480
 7873SOL    HW124518   0.245   5.730   5.382
 7873SOL    HW224519   0.360   5.710   5.497
 7874SOL     OW24520   6.066   1.550   0.257
 7874SOL    HW124521   6.020   1.483   0.316
 7874SOL    HW224522   6.020   1.553   0.168
 7875SOL     OW24523   4.585   3.229   6.389
 7875SOL    HW124524   4.494   3.269   6.393
 7875SOL    HW224525   4.635   3.252   6.473
 7876SOL     OW24526   6.802   0.223   3.682
 7876SOL    HW124527   6.709   0.248   3.656
 7876SOL    HW224528   6.857   0.306   3.693
 7877SOL     OW24529   6.943   2.453   3.042
 7877SOL    HW124530   6.993   2.525   3.092
 7877SOL    HW224531   6.975   2.450   2.948
 7878SOL     OW24532   4.724   4.449   2.673
 7878SOL    HW124533   4.708   4.381   2.602
 7878SOL    HW224534   4.662   4.526   2.661
 7879SOL     OW24535   4.842   6.959   3.958
 7879SOL    HW124536   4.872   0.011   3.906
 7879SOL    HW224537   4.742   6.959   3.965
 7880SOL     OW24538   0.239   6.632   6.305
 7880SOL    HW124539   0.150   6.591   6.329
 7880SOL    HW224540   0.266   6.697   6.376
 7881SOL     OW24541   0.071   3.932   5.131
 7881SOL    HW124542   0.060   3.837   5.103
 7881SOL    HW224543   7.019   3.985   5.103
 7882SOL     OW24544   0.241   3.222   2.898
 7882SOL    HW124545   0.227   3.291   2.827
 7882SOL    HW224546   0.323   3.245   2.951
 7883SOL     OW24547   2.596   1.149   3.039
 7883SOL    HW124548   2.619   1.124   3.133
 7883SOL    HW224549   2.624   1.244   3.022
 7884SOL     OW24550   1.821   4.424   3.792
 7884SOL    HW124551   1.737   4.459   3.835
 7884SOL    HW224552   1.814   4.325   3.780
 7885SOL     OW24553   6.144   5.673   2.751
 7885SOL    HW124554   6.210   5.603   2.776
 7885SOL    HW224555   6.163   5.757   2.801
 7886SOL     OW24556   4.617   2.734   1.889
 7886SOL    HW124557   4.667   2.733   1.976
 7886SOL    HW224558   4.599   2.829   1.863
 7887SOL     OW24559   3.850   3.210   0.443
 7887SOL    HW124560   3.911   3.189   0.520
 7887SOL    HW224561   3.825   3.306   0.446
 7888SOL     OW24562   5.897   1.328   4.069
 7888SOL    HW124563   5.902   1.383   3.986
 7888SOL    HW224564   5.864   1.236   4.046
 7889SOL     OW24565   5.874   4.929   0.942
 7889SOL    HW124566   5.820   4.987   0.882
 7889SOL    HW224567   5.855   4.833   0.922
 7890SOL     OW24568   0.966   3.149   4.378
 7890SOL    HW124569   1.007   3.058   4.383
 7890SOL    HW224570   0.956   3.187   4.470
 7891SOL     OW24571   0.200   2.070   3.900
 7891SOL    HW124572   0.284   2.120   3.917
 7891SOL    HW224573   0.220   1.988   3.847
 7892SOL     OW24574   1.297   3.294   5.815
 7892SOL    HW124575   1.340   3.384   5.807
 7892SOL    HW224576   1.274   3.276   5.911
 7893SOL     OW24577   6.171   0.884   1.953
 7893SOL    HW124578   6.210   0.906   2.043
 7893SOL    HW224579   6.086   0.833   1.965
 7894SOL     OW24580   2.536   1.179   5.851
 7894SOL    HW124581   2.550   1.090   5.895
 7894SOL    HW224582   2.624   1.219   5.828
 7895SOL     OW24583   3.513   5.781   3.316
 7895SOL    HW124584   3.524   5.879   3.299
 7895SOL    HW224585   3.588   5.732   3.271
 7896SOL     OW24586   4.179   2.573   1.173
 7896SOL    HW124587   4.177   2.533   1.265
 7896SOL    HW224588   4.205   2.670   1.180
 7897SOL     OW24589   3.997   4.027   6.921
 7897SOL    HW124590   4.018   3.932   6.947
 7897SOL    HW224591   4.027   4.043   6.827
 7898SOL     OW24592   5.064   0.578   4.353
 7898SOL    HW124593   5.008   0.656   4.323
 7898SOL    HW224594   5.117   0.605   4.434
 7899SOL     OW24595   5.199   4.846   1.389
 7899SOL    HW124596   5.258   4.892   1.456
 7899SOL    HW224597   5.104   4.872   1.405
 7900SOL     OW24598   0.667   3.484   0.347
 7900SOL    HW124599   0.695   3.569   0.392
 7900SOL    HW224600   0.568   3.473   0.355
 7901SOL     OW24601   5.437   1.184   6.004
 7901SOL    HW124602   5.349   1.231   6.004
 7901SOL    HW224603   5.473   1.179   5.911
 7902SOL     OW24604   0.543   6.545   2.706
 7902SOL    HW124605   0.475   6.476   2.678
 7902SOL    HW224606   0.622   6.499   2.746
 7903SOL     OW24607   2.026   1.788   4.660
 7903SOL    HW124608   2.026   1.886   4.678
 7903SOL    HW224609   2.095   1.743   4.718
 7904SOL     OW24610   5.770   0.780   2.490
 7904SOL    HW124611   5.766   0.742   2.583
 7904SOL    HW224612   5.852   0.746   2.445
 7905SOL     OW24613   5.675   0.455   0.165
 7905SOL    HW124614   5.640   0.548   0.157
 7905SOL    HW224615   5.651   0.403   0.083
 7906SOL     OW24616   1.272   5.214   0.852
 7906SOL    HW124617   1.323   5.177   0.774
 7906SOL    HW224618   1.175   5.191   0.843
 7907SOL     OW24619   6.237   0.083   3.475
 7907SOL    HW124620   6.286   0.081   3.387
 7907SOL    HW224621   6.160   0.021   3.472
 7908SOL     OW24622   0.628   0.182   6.469
 7908SOL    HW124623   0.546   0.237   6.450
 7908SOL    HW224624   0.689   0.187   6.390
 7909SOL     OW24625   5.626   3.772   2.243
 7909SOL    HW124626   5.662   3.864   2.226
 7909SOL    HW224627   5.690   3.704   2.206
 7910SOL     OW24628   1.989   3.800   0.924
 7910SOL    HW124629   2.068   3.801   0.985
 7910SOL    HW224630   1.956   3.706   0.914
 7911SOL     OW24631   1.297   4.373   0.715
 7911SOL    HW124632   1.313   4.355   0.812
 7911SOL    HW224633   1.385   4.376   0.667
 7912SOL     OW24634   5.762   5.428   0.160
 7912SOL    HW124635   5.713   5.356   0.211
 7912SOL    HW224636   5.843   5.456   0.212
 7913SOL     OW24637   0.619   3.609   0.815
 7913SOL    HW124638   0.662   3.699   0.806
 7913SOL    HW224639   0.527   3.612   0.777
 7914SOL     OW24640   6.165   5.390   4.936
 7914SOL    HW124641   6.213   5.477   4.933
 7914SOL    HW224642   6.102   5.383   4.859
 7915SOL     OW24643   3.393   7.018   2.764
 7915SOL    HW124644   3.316   0.049   2.791
 7915SOL    HW224645   3.463   0.045   2.719
 7916SOL     OW24646   1.288   0.364   4.678
 7916SOL    HW124647   1.219   0.422   4.635
 7916SOL    HW224648   1.291   0.382   4.776
 7917SOL     OW24649   3.716   3.172   0.217
 7917SOL    HW124650   3.775   3.191   0.296
 7917SOL    HW224651   3.771   3.175   0.134
 7918SOL     OW24652   2.109   0.792   4.582
 7918SOL    HW124653   2.055   0.760   4.659
 7918SOL    HW224654   2.108   0.724   4.509
 7919SOL     OW24655   0.863   5.084   2.767
 7919SOL    HW124656   0.920   5.003   2.751
 7919SOL    HW224657   0.860   5.105   2.865
 7920SOL     OW24658   4.181   0.599   1.244
 7920SOL    HW124659   4.243   0.677   1.255
 7920SOL    HW224660   4.090   0.624   1.277
 7921SOL     OW24661   4.929   1.591   1.527
 7921SOL    HW124662   5.022   1.591   1.491
 7921SOL    HW224663   4.881   1.674   1.499
 7922SOL     OW24664   0.740   5.610   0.415
 7922SOL    HW124665   0.831   5.574   0.393
 7922SOL    HW224666   0.679   5.597   0.337
 7923SOL     OW24667   3.524   1.278   6.884
 7923SOL    HW124668   3.514   1.235   6.974
 7923SOL    HW224669   3.481   1.219   6.815
 7924SOL     OW24670   6.296   0.061   1.333
 7924SOL    HW124671   6.369   7.023   1.313
 7924SOL    HW224672   6.216   0.012   1.370
 7925SOL     OW24673   2.543   6.375   1.026
 7925SOL    HW124674   2.473   6.446   1.031
 7925SOL    HW224675   2.546   6.339   0.932
 7926SOL     OW24676   4.952   6.682   6.431
 7926SOL    HW124677   4.893   6.762   6.431
 7926SOL    HW224678   4.964   6.650   6.337
 7927SOL     OW24679   5.219   6.990   2.459
 7927SOL    HW124680   5.135   6.999   2.513
 7927SOL    HW224681   5.269   0.049   2.460
 7928SOL     OW24682   6.332   1.000   3.615
 7928SOL    HW124683   6.294   0.943   3.688
 7928SOL    HW224684   6.296   0.970   3.527
 7929SOL     OW24685   4.343   3.656   6.062
 7929SOL    HW124686   4.339   3.680   5.965
 7929SOL    HW224687   4.360   3.558   6.072
 7930SOL     OW24688   4.099   5.819   5.551
 7930SOL    HW124689   4.005   5.801   5.522
 7930SOL    HW224690   4.120   5.916   5.541
 7931SOL     OW24691   2.927   2.151   0.676
 7931SOL    HW124692   2.963   2.061   0.652
 7931SOL    HW224693   3.000   2.219   0.668
 7932SOL     OW24694   6.824   5.357   1.448
 7932SOL    HW124695   6.898   5.402   1.398
 7932SOL    HW224696   6.759   5.425   1.480
 7933SOL     OW24697   6.932   1.239   6.071
 7933SOL    HW124698   6.858   1.269   6.132
 7933SOL    HW224699   6.900   1.243   5.976
 7934SOL     OW24700   1.211   4.626   0.839
 7934SOL    HW124701   1.236   4.559   0.769
 7934SOL    HW224702   1.148   4.693   0.800
 7935SOL     OW24703   5.653   3.908   2.550
 7935SOL    HW124704   5.627   3.910   2.454
 7935SOL    HW224705   5.735   3.964   2.564
 7936SOL     OW24706   3.370   6.336   4.246
 7936SOL    HW124707   3.399   6.319   4.152
 7936SOL    HW224708   3.273   6.314   4.255
 7937SOL     OW24709   2.547   5.934   6.174
 7937SOL    HW124710   2.616   6.000   6.144
 7937SOL    HW224711   2.458   5.959   6.135
 7938SOL     OW24712   4.443   6.728   4.717
 7938SOL    HW124713   4.479   6.635   4.709
 7938SOL    HW224714   4.466   6.779   4.634
 7939SOL     OW24715   0.395   1.720   4.723
 7939SOL    HW124716   0.485   1.729   4.681
 7939SOL    HW224717   0.381   1.795   4.788
 7940SOL     OW24718   4.904   1.346   2.957
 7940SOL    HW124719   4.953   1.312   3.037
 7940SOL    HW224720   4.955   1.324   2.874
 7941SOL     OW24721   4.126   6.621   1.653
 7941SOL    HW124722   4.030   6.591   1.647
 7941SOL    HW224723   4.153   6.623   1.749
 7942SOL     OW24724   0.788   3.744   1.407
 7942SOL    HW124725   0.856   3.774   1.474
 7942SOL    HW224726   0.821   3.762   1.315
 7943SOL     OW24727   2.349   5.403   6.159
 7943SOL    HW124728   2.425   5.457   6.197
 7943SOL    HW224729   2.373   5.374   6.066
 7944SOL     OW24730   0.850   2.634   1.529
 7944SOL    HW124731   0.944   2.650   1.559
 7944SOL    HW224732   0.814   2.553   1.575
 7945SOL     OW24733   5.434   5.138   2.531
 7945SOL    HW124734   5.388   5.223   2.554
 7945SOL    HW224735   5.371   5.079   2.481
 7946SOL     OW24736   3.860   1.206   5.619
 7946SOL    HW124737   3.946   1.233   5.662
 7946SOL    HW224738   3.788   1.201   5.688
 7947SOL     OW24739   1.229   3.043   5.174
 7947SOL    HW124740   1.139   3.005   5.197
 7947SOL    HW224741   1.299   2.974   5.191
 7948SOL     OW24742   1.773   5.207   2.406
 7948SOL    HW124743   1.846   5.150   2.369
 7948SOL    HW224744   1.793   5.231   2.501
 7949SOL     OW24745   4.259   4.867   6.350
 7949SOL    HW124746   4.318   4.903   6.422
 7949SOL    HW224747   4.171   4.839   6.389
 7950SOL     OW24748   6.010   5.180   5.572
 7950SOL    HW124749   5.981   5.268   5.534
 7950SOL    HW224750   6.087   5.195   5.635
 7951SOL     OW24751   3.182   5.719   2.505
 7951SOL    HW124752   3.112   5.649   2.491
 7951SOL    HW224753   3.192   5.774   2.422
 7952SOL     OW24754   5.247   3.261   0.178
 7952SOL    HW124755   5.292   3.335   0.227
 7952SOL    HW224756   5.238   3.285   0.081
 7953SOL     OW24757   3.687   1.819   0.450
 7953SOL    HW124758   3.647   1.732   0.479
 7953SOL    HW224759   3.786   1.815   0.461
 7954SOL     OW24760   3.538   2.688   0.280
 7954SOL    HW124761   3.516   2.775   0.323
 7954SOL    HW224762   3.486   2.615   0.324
 7955SOL     OW24763   1.647   1.646   6.566
 7955SOL    HW124764   1.637   1.546   6.575
 7955SOL    HW224765   1.559   1.690   6.582
 7956SOL     OW24766   6.700   0.514   1.621
 7956SOL    HW124767   6.707   0.566   1.706
 7956SOL    HW224768   6.661   0.571   1.549
 7957SOL     OW24769   4.869   0.473   5.247
 7957SOL    HW124770   4.966   0.484   5.225
 7957SOL    HW224771   4.824   0.562   5.240
 7958SOL     OW24772   5.694   3.495   6.713
 7958SOL    HW124773   5.675   3.493   6.615
 7958SOL    HW224774   5.732   3.585   6.737
 7959SOL     OW24775   4.849   1.013   6.034
 7959SOL    HW124776   4.821   0.922   6.004
 7959SOL    HW224777   4.913   1.052   5.968
 7960SOL     OW24778   6.882   0.957   6.775
 7960SOL    HW124779   6.880   0.929   6.679
 7960SOL    HW224780   6.885   1.057   6.780
 7961SOL     OW24781   6.614   0.184   6.941
 7961SOL    HW124782   6.517   0.193   6.967
 7961SOL    HW224783   6.665   0.261   6.979
 7962SOL     OW24784   6.607   6.810   5.922
 7962SOL    HW124785   6.559   6.800   5.835
 7962SOL    HW224786   6.560   6.877   5.980
 7963SOL     OW24787   6.644   4.759   4.490
 7963SOL    HW124788   6.733   4.718   4.471
 7963SOL    HW224789   6.573   4.709   4.441
 7964SOL     OW24790   6.349   3.614   1.857
 7964SOL    HW124791   6.401   3.699   1.867
 7964SOL    HW224792   6.300   3.595   1.942
 7965SOL     OW24793   4.211   1.959   0.110
 7965SOL    HW124794   4.184   2.055   0.120
 7965SOL    HW224795   4.138   1.909   0.065
 7966SOL     OW24796   4.122   4.234   5.227
 7966SOL    HW124797   4.041   4.196   5.183
 7966SOL    HW224798   4.166   4.299   5.165
 7967SOL     OW24799   1.505   5.105   1.948
 7967SOL    HW124800   1.431   5.040   1.964
 7967SOL    HW224801   1.529   5.149   2.035
 7968SOL     OW24802   6.640   1.917   4.416
 7968SOL    HW124803   6.669   1.972   4.338
 7968SOL    HW224804   6.643   1.972   4.499
 7969SOL     OW24805   4.558   6.098   0.010
 7969SOL    HW124806   4.658   6.105   0.013
 7969SOL    HW224807   4.529   6.012   0.052
 7970SOL     OW24808   6.423   3.045   2.709
 7970SOL    HW124809   6.418   2.947   2.727
 7970SOL    HW224810   6.369   3.094   2.778
 7971SOL     OW24811   3.189   1.502   1.243
 7971SOL    HW124812   3.240   1.565   1.184
 7971SOL    HW224813   3.104   1.475   1.198
 7972SOL     OW24814   3.788   3.226   2.787
 7972SOL    HW124815   3.732   3.297   2.745
 7972SOL    HW224816   3.772   3.225   2.885
 7973SOL     OW24817   6.447   3.864   3.189
 7973SOL    HW124818   6.444   3.942   3.250
 7973SOL    HW224819   6.487   3.785   3.236
 7974SOL     OW24820   6.294   1.479   5.509
 7974SOL    HW124821   6.293   1.567   5.557
 7974SOL    HW224822   6.293   1.495   5.410
 7975SOL     OW24823   5.160   1.590   0.557
 7975SOL    HW124824   5.243   1.589   0.503
 7975SOL    HW224825   5.156   1.674   0.612
 7976SOL     OW24826   0.942   0.024   0.464
 7976SOL    HW124827   0.953   0.032   0.365
 7976SOL    HW224828   0.943   0.115   0.506
 7977SOL     OW24829   5.436   6.264   3.127
 7977SOL    HW124830   5.477   6.204   3.196
 7977SOL    HW224831   5.427   6.214   3.041
 7978SOL     OW24832   6.915   4.720   0.947
 7978SOL    HW124833   6.939   4.780   0.871
 7978SOL    HW224834   6.889   4.775   1.026
 7979SOL     OW24835   1.687   3.734   4.597
 7979SOL    HW124836   1.592   3.704   4.601
 7979SOL    HW224837   1.715   3.744   4.502
 7980SOL     OW24838   3.374   4.651   5.807
 7980SOL    HW124839   3.350   4.712   5.882
 7980SOL    HW224840   3.390   4.705   5.724
 7981SOL     OW24841   1.939   5.172   3.216
 7981SOL    HW124842   1.937   5.075   3.191
 7981SOL    HW224843   1.914   5.182   3.313
 7982SOL     OW24844   1.310   2.069   6.259
 7982SOL    HW124845   1.269   2.029   6.178
 7982SOL    HW224846   1.410   2.062   6.253
 7983SOL     OW24847   5.255   1.237   0.815
 7983SOL    HW124848   5.201   1.291   0.749
 7983SOL    HW224849   5.349   1.271   0.816
 7984SOL     OW24850   0.854   1.522   1.852
 7984SOL    HW124851   0.840   1.462   1.774
 7984SOL    HW224852   0.893   1.609   1.821
 7985SOL     OW24853   2.018   2.346   5.493
 7985SOL    HW124854   1.929   2.384   5.470
 7985SOL    HW224855   2.018   2.316   5.588
 7986SOL     OW24856   3.413   1.113   4.008
 7986SOL    HW124857   3.499   1.159   3.986
 7986SOL    HW224858   3.390   1.050   3.934
 7987SOL     OW24859   1.270   3.703   0.873
 7987SOL    HW124860   1.234   3.699   0.966
 7987SOL    HW224861   1.344   3.637   0.862
 7988SOL     OW24862   0.279   1.259   1.608
 7988SOL    HW124863   0.331   1.336   1.571
 7988SOL    HW224864   0.268   1.270   1.707
 7989SOL     OW24865   0.971   4.059   0.481
 7989SOL    HW124866   0.955   4.144   0.532
 7989SOL    HW224867   1.068   4.035   0.486
 7990SOL     OW24868   2.817   5.906   5.306
 7990SOL    HW124869   2.835   5.808   5.294
 7990SOL    HW224870   2.724   5.919   5.339
 7991SOL     OW24871   5.221   1.458   5.255
 7991SOL    HW124872   5.293   1.467   5.186
 7991SOL    HW224873   5.163   1.540   5.253
 7992SOL     OW24874   2.285   0.577   0.504
 7992SOL    HW124875   2.344   0.500   0.480
 7992SOL    HW224876   2.274   0.636   0.424
 7993SOL     OW24877   6.985   6.696   1.406
 7993SOL    HW124878   0.032   6.642   1.445
 7993SOL    HW224879   6.921   6.635   1.360
 7994SOL     OW24880   5.245   0.679   2.885
 7994SOL    HW124881   5.183   0.651   2.811
 7994SOL    HW224882   5.307   0.749   2.851
 7995SOL     OW24883   0.661   4.513   1.765
 7995SOL    HW124884   0.584   4.570   1.736
 7995SOL    HW224885   0.633   4.455   1.841
 7996SOL     OW24886   3.627   6.824   3.105
 7996SOL    HW124887   3.633   6.773   3.191
 7996SOL    HW224888   3.696   6.790   3.041
 7997SOL     OW24889   0.775   1.975   6.793
 7997SOL    HW124890   0.841   1.900   6.797
 7997SOL    HW224891   0.809   2.047   6.733
 7998SOL     OW24892   2.717   0.799   0.399
 7998SOL    HW124893   2.667   0.797   0.486
 7998SOL    HW224894   2.670   0.858   0.334
 7999SOL     OW24895   1.294   1.677   5.297
 7999SOL    HW124896   1.196   1.684   5.279
 7999SOL    HW224897   1.314   1.709   5.390
 8000SOL     OW24898   5.651   6.247   6.497
 8000SOL    HW124899   5.580   6.280   6.435
 8000SOL    HW224900   5.617   6.169   6.549
 8001SOL     OW24901   4.910   0.553   1.203
 8001SOL    HW124902   4.890   0.591   1.112
 8001SOL    HW224903   4.828   0.507   1.238
 8002SOL     OW24904   0.569   0.644   6.020
 8002SOL    HW124905   0.569   0.689   6.109
 8002SOL    HW224906   0.559   0.713   5.948
 8003SOL     OW24907   1.929   6.621   2.599
 8003SOL    HW124908   1.987   6.634   2.518
 8003SOL    HW224909   1.833   6.635   2.573
 8004SOL     OW24910   0.903   2.776   4.003
 8004SOL    HW124911   0.893   2.784   4.102
 8004SOL    HW224912   0.890   2.681   3.975
 8005SOL     OW24913   2.332   0.225   3.130
 8005SOL    HW124914   2.288   0.199   3.044
 8005SOL    HW224915   2.416   0.173   3.141
 8006SOL     OW24916   3.689   5.068   4.740
 8006SOL    HW124917   3.719   5.025   4.655
 8006SOL    HW224918   3.599   5.033   4.766
 8007SOL     OW24919   6.146   1.304   6.303
 8007SOL    HW124920   6.214   1.261   6.244
 8007SOL    HW224921   6.071   1.340   6.247
 8008SOL     OW24922   4.102   6.454   0.210
 8008SOL    HW124923   4.084   6.548   0.182
 8008SOL    HW224924   4.016   6.411   0.239
 8009SOL     OW24925   4.677   1.389   0.861
 8009SOL    HW124926   4.600   1.443   0.828
 8009SOL    HW224927   4.644   1.302   0.897
 8010SOL     OW24928   2.491   2.481   5.075
 8010SOL    HW124929   2.408   2.524   5.111
 8010SOL    HW224930   2.562   2.483   5.146
 8011SOL     OW24931   3.463   1.781   2.176
 8011SOL    HW124932   3.428   1.747   2.263
 8011SOL    HW224933   3.412   1.864   2.150
 8012SOL     OW24934   0.889   3.097   5.534
 8012SOL    HW124935   0.867   3.191   5.559
 8012SOL    HW224936   0.958   3.060   5.596
 8013SOL     OW24937   1.753   2.139   3.724
 8013SOL    HW124938   1.821   2.068   3.707
 8013SOL    HW224939   1.786   2.200   3.797
 8014SOL     OW24940   2.074   0.790   3.300
 8014SOL    HW124941   2.114   0.807   3.390
 8014SOL    HW224942   2.103   0.863   3.237
 8015SOL     OW24943   2.273   0.018   5.625
 8015SOL    HW124944   2.221   0.095   5.661
 8015SOL    HW224945   2.320   0.045   5.541
 8016SOL     OW24946   4.500   1.702   5.553
 8016SOL    HW124947   4.497   1.673   5.649
 8016SOL    HW224948   4.408   1.693   5.513
 8017SOL     OW24949   6.868   0.024   0.341
 8017SOL    HW124950   6.863   0.051   0.437
 8017SOL    HW224951   6.780   7.013   0.312
 8018SOL     OW24952   4.076   1.326   0.306
 8018SOL    HW124953   4.175   1.332   0.319
 8018SOL    HW224954   4.043   1.239   0.342
 8019SOL     OW24955   3.380   3.571   1.084
 8019SOL    HW124956   3.330   3.625   1.152
 8019SOL    HW224957   3.318   3.546   1.010
 8020SOL     OW24958   6.743   0.121   5.147
 8020SOL    HW124959   6.836   0.153   5.162
 8020SOL    HW224960   6.686   0.146   5.225
 8021SOL     OW24961   1.747   2.374   2.538
 8021SOL    HW124962   1.740   2.462   2.491
 8021SOL    HW224963   1.718   2.385   2.633
 8022SOL     OW24964   5.360   1.201   1.842
 8022SOL    HW124965   5.331   1.284   1.890
 8022SOL    HW224966   5.330   1.121   1.893
 8023SOL     OW24967   5.115   6.316   3.441
 8023SOL    HW124968   5.198   6.260   3.454
 8023SOL    HW224969   5.080   6.344   3.530
 8024SOL     OW24970   1.790   6.409   6.327
 8024SOL    HW124971   1.785   6.438   6.231
 8024SOL    HW224972   1.717   6.455   6.379
 8025SOL     OW24973   2.150   4.994   1.658
 8025SOL    HW124974   2.164   4.932   1.581
 8025SOL    HW224975   2.132   5.086   1.623
 8026SOL     OW24976   0.695   5.007   6.679
 8026SOL    HW124977   0.599   4.981   6.664
 8026SOL    HW224978   0.753   4.964   6.610
 8027SOL     OW24979   3.782   5.978   6.049
 8027SOL    HW124980   3.833   5.981   6.136
 8027SOL    HW224981   3.842   5.947   5.976
 8028SOL     OW24982   3.337   5.384   4.215
 8028SOL    HW124983   3.286   5.307   4.254
 8028SOL    HW224984   3.297   5.470   4.247
 8029SOL     OW24985   6.044   1.278   1.339
 8029SOL    HW124986   6.080   1.241   1.425
 8029SOL    HW224987   6.106   1.255   1.264
 8030SOL     OW24988   6.164   4.679   1.254
 8030SOL    HW124989   6.189   4.768   1.290
 8030SOL    HW224990   6.230   4.610   1.286
 8031SOL     OW24991   6.012   0.596   3.087
 8031SOL    HW124992   6.031   0.569   2.992
 8031SOL    HW224993   5.971   0.518   3.135
 8032SOL     OW24994   5.550   2.924   1.252
 8032SOL    HW124995   5.551   3.019   1.220
 8032SOL    HW224996   5.469   2.909   1.308
 8033SOL     OW24997   3.553   4.510   0.411
 8033SOL    HW124998   3.642   4.473   0.437
 8033SOL    HW224999   3.520   4.465   0.328
 8034SOL     OW25000   5.846   6.887   5.078
 8034SOL    HW125001   5.795   6.863   4.995
 8034SOL    HW225002   5.889   6.977   5.065
 8035SOL     OW25003   4.688   1.519   3.021
 8035SOL    HW125004   4.765   1.464   2.991
 8035SOL    HW225005   4.694   1.534   3.120
 8036SOL     OW25006   6.237   2.779   3.902
 8036SOL    HW125007   6.314   2.717   3.917
 8036SOL    HW225008   6.152   2.727   3.900
 8037SOL     OW25009   1.421   3.131   6.490
 8037SOL    HW125010   1.448   3.121   6.586
 8037SOL    HW225011   1.458   3.055   6.437
 8038SOL     OW25012   5.779   5.756   2.389
 8038SOL    HW125013   5.684   5.765   2.359
 8038SOL    HW225014   5.839   5.749   2.309
 8039SOL     OW25015   0.975   2.017   5.665
 8039SOL    HW125016   0.892   2.028   5.720
 8039SOL    HW225017   1.043   1.967   5.718
 8040SOL     OW25018   1.385   5.676   5.908
 8040SOL    HW125019   1.411   5.763   5.867
 8040SOL    HW225020   1.461   5.640   5.963
 8041SOL     OW25021   3.362   1.886   3.299
 8041SOL    HW125022   3.389   1.829   3.221
 8041SOL    HW225023   3.263   1.878   3.313
 8042SOL     OW25024   4.581   4.472   6.169
 8042SOL    HW125025   4.551   4.382   6.200
 8042SOL    HW225026   4.542   4.543   6.229
 8043SOL     OW25027   4.990   4.626   1.120
 8043SOL    HW125028   4.921   4.594   1.056
 8043SOL    HW225029   5.022   4.549   1.176
 8044SOL     OW25030   3.638   3.554   1.207
 8044SOL    HW125031   3.642   3.457   1.232
 8044SOL    HW225032   3.549   3.573   1.165
 8045SOL     OW25033   0.627   0.812   2.670
 8045SOL    HW125034   0.559   0.884   2.655
 8045SOL    HW225035   0.606   0.733   2.614
 8046SOL     OW25036   0.339   5.372   2.231
 8046SOL    HW125037   0.414   5.417   2.278
 8046SOL    HW225038   0.335   5.276   2.260
 8047SOL     OW25039   4.068   0.019   5.721
 8047SOL    HW125040   4.051   0.078   5.642
 8047SOL    HW225041   4.072   0.075   5.804
 8048SOL     OW25042   3.568   3.542   0.258
 8048SOL    HW125043   3.520   3.491   0.187
 8048SOL    HW225044   3.633   3.605   0.217
 8049SOL     OW25045   1.744   6.970   0.921
 8049SOL    HW125046   1.777   7.025   0.845
 8049SOL    HW225047   1.800   6.888   0.930
 8050SOL     OW25048   1.669   4.413   4.355
 8050SOL    HW125049   1.595   4.422   4.289
 8050SOL    HW225050   1.678   4.317   4.381
 8051SOL     OW25051   3.837   5.918   4.179
 8051SOL    HW125052   3.790   5.914   4.267
 8051SOL    HW225053   3.874   5.828   4.157
 8052SOL     OW25054   1.890   1.648   1.991
 8052SOL    HW125055   1.800   1.639   1.949
 8052SOL    HW225056   1.879   1.661   2.090
 8053SOL     OW25057   2.893   3.369   6.323
 8053SOL    HW125058   2.981   3.389   6.279
 8053SOL    HW225059   2.831   3.327   6.256
 8054SOL     OW25060   5.354   4.188   4.953
 8054SOL    HW125061   5.341   4.287   4.945
 8054SOL    HW225062   5.451   4.166   4.941
 8055SOL     OW25063   0.473   0.406   5.600
 8055SOL    HW125064   0.519   0.331   5.646
 8055SOL    HW225065   0.385   0.424   5.645
 8056SOL     OW25066   2.319   0.577   3.441
 8056SOL    HW125067   2.228   0.615   3.454
 8056SOL    HW225068   2.385   0.631   3.493
 8057SOL     OW25069   2.206   2.522   1.921
 8057SOL    HW125070   2.145   2.572   1.859
 8057SOL    HW225071   2.170   2.430   1.935
 8058SOL     OW25072   2.927   0.003   3.760
 8058SOL    HW125073   3.019   0.033   3.733
 8058SOL    HW225074   2.869   0.083   3.776
 8059SOL     OW25075   2.809   2.362   6.295
 8059SOL    HW125076   2.826   2.354   6.197
 8059SOL    HW225077   2.885   2.410   6.338
 8060SOL     OW25078   6.763   0.462   6.193
 8060SOL    HW125079   6.701   0.493   6.121
 8060SOL    HW225080   6.729   0.492   6.282
 8061SOL     OW25081   0.381   0.884   1.998
 8061SOL    HW125082   0.475   0.857   2.017
 8061SOL    HW225083   0.365   0.976   2.034
 8062SOL     OW25084   4.216   5.654   5.046
 8062SOL    HW125085   4.204   5.589   4.971
 8062SOL    HW225086   4.184   5.744   5.017
 8063SOL     OW25087   3.592   0.788   2.939
 8063SOL    HW125088   3.622   0.693   2.933
 8063SOL    HW225089   3.493   0.794   2.924
 8064SOL     OW25090   6.219   3.510   0.132
 8064SOL    HW125091   6.232   3.421   0.176
 8064SOL    HW225092   6.308   3.554   0.120
 8065SOL     OW25093   3.506   0.007   4.510
 8065SOL    HW125094   3.420   7.008   4.554
 8065SOL    HW225095   3.547   6.955   4.466
 8066SOL     OW25096   0.105   0.972   4.850
 8066SOL    HW125097   0.012   0.976   4.887
 8066SOL    HW225098   0.102   0.939   4.756
 8067SOL     OW25099   5.044   3.192   3.602
 8067SOL    HW125100   4.982   3.258   3.645
 8067SOL    HW225101   5.132   3.237   3.583
 8068SOL     OW25102   0.213   4.374   1.528
 8068SOL    HW125103   0.162   4.320   1.461
 8068SOL    HW225104   0.250   4.455   1.483
 8069SOL     OW25105   2.897   5.211   2.516
 8069SOL    HW125106   2.879   5.150   2.594
 8069SOL    HW225107   2.918   5.156   2.435
 8070SOL     OW25108   5.016   4.753   0.769
 8070SOL    HW125109   5.022   4.655   0.785
 8070SOL    HW225110   4.990   4.770   0.674
 8071SOL     OW25111   3.997   6.757   5.722
 8071SOL    HW125112   3.977   6.850   5.752
 8071SOL    HW225113   4.064   6.716   5.785
 8072SOL     OW25114   2.210   3.193   0.048
 8072SOL    HW125115   2.244   3.276   0.003
 8072SOL    HW225116   2.110   3.189   0.039
 8073SOL     OW25117   2.770   0.229   6.700
 8073SOL    HW125118   2.794   0.132   6.701
 8073SOL    HW225119   2.854   0.284   6.698
 8074SOL     OW25120   1.750   2.103   0.614
 8074SOL    HW125121   1.677   2.158   0.573
 8074SOL    HW225122   1.803   2.059   0.541
 8075SOL     OW25123   6.925   6.359   6.999
 8075SOL    HW125124   7.012   6.390   6.961
 8075SOL    HW225125   6.882   6.295   6.936
 8076SOL     OW25126   0.009   0.016   6.645
 8076SOL    HW125127   0.060   0.024   6.731
 8076SOL    HW225128   0.032   6.957   6.601
 8077SOL     OW25129   4.157   5.851   1.843
 8077SOL    HW125130   4.074   5.895   1.876
 8077SOL    HW225131   4.193   5.902   1.765
 8078SOL     OW25132   1.175   1.268   1.103
 8078SOL    HW125133   1.118   1.342   1.138
 8078SOL    HW225134   1.196   1.285   1.006
 8079SOL     OW25135   1.219   1.283   4.666
 8079SOL    HW125136   1.275   1.310   4.588
 8079SOL    HW225137   1.195   1.365   4.719
 8080SOL     OW25138   1.102   3.357   2.462
 8080SOL    HW125139   1.148   3.435   2.504
 8080SOL    HW225140   1.045   3.311   2.531
 8081SOL     OW25141   5.979   4.811   4.969
 8081SOL    HW125142   5.966   4.740   4.900
 8081SOL    HW225143   5.932   4.783   5.054
 8082SOL     OW25144   2.439   1.319   2.523
 8082SOL    HW125145   2.491   1.389   2.572
 8082SOL    HW225146   2.409   1.356   2.435
 8083SOL     OW25147   5.245   2.422   4.526
 8083SOL    HW125148   5.283   2.355   4.590
 8083SOL    HW225149   5.224   2.378   4.439
 8084SOL     OW25150   2.181   0.252   5.993
 8084SOL    HW125151   2.178   0.255   5.893
 8084SOL    HW225152   2.165   0.158   6.024
 8085SOL     OW25153   0.499   5.588   3.701
 8085SOL    HW125154   0.452   5.507   3.663
 8085SOL    HW225155   0.591   5.562   3.730
 8086SOL     OW25156   0.604   1.058   1.863
 8086SOL    HW125157   0.623   0.975   1.915
 8086SOL    HW225158   0.528   1.040   1.799
 8087SOL     OW25159   1.031   0.569   6.944
 8087SOL    HW125160   1.011   0.596   0.010
 8087SOL    HW225161   1.097   0.493   6.944
 8088SOL     OW25162   5.455   6.817   6.483
 8088SOL    HW125163   5.490   6.883   6.416
 8088SOL    HW225164   5.404   6.745   6.435
 8089SOL     OW25165   5.877   2.788   6.316
 8089SOL    HW125166   5.886   2.887   6.327
 8089SOL    HW225167   5.858   2.766   6.221
 8090SOL     OW25168   3.955   1.868   0.025
 8090SOL    HW125169   3.929   1.820   0.109
 8090SOL    HW225170   3.878   1.924   7.021
 8091SOL     OW25171   1.777   4.623   4.504
 8091SOL    HW125172   1.748   4.546   4.447
 8091SOL    HW225173   1.843   4.678   4.454
 8092SOL     OW25174   4.641   1.856   5.345
 8092SOL    HW125175   4.733   1.839   5.380
 8092SOL    HW225176   4.574   1.817   5.409
 8093SOL     OW25177   3.037   6.000   3.067
 8093SOL    HW125178   3.134   6.019   3.057
 8093SOL    HW225179   3.007   5.938   2.994
 8094SOL     OW25180   1.384   3.704   4.635
 8094SOL    HW125181   1.397   3.617   4.589
 8094SOL    HW225182   1.325   3.692   4.715
 8095SOL     OW25183   1.204   4.169   5.186
 8095SOL    HW125184   1.295   4.176   5.145
 8095SOL    HW225185   1.185   4.252   5.239
 8096SOL     OW25186   1.538   0.110   2.027
 8096SOL    HW125187   1.527   0.161   2.112
 8096SOL    HW225188   1.635   0.095   2.009
 8097SOL     OW25189   3.450   6.961   5.289
 8097SOL    HW125190   3.470   6.882   5.231
 8097SOL    HW225191   3.352   6.962   5.310
 8098SOL     OW25192   0.617   6.227   3.731
 8098SOL    HW125193   0.716   6.233   3.742
 8098SOL    HW225194   0.582   6.151   3.786
 8099SOL     OW25195   4.079   5.577   3.719
 8099SOL    HW125196   4.007   5.597   3.652
 8099SOL    HW225197   4.045   5.510   3.785
 8100SOL     OW25198   5.825   1.192   6.333
 8100SOL    HW125199   5.880   1.110   6.353
 8100SOL    HW225200   5.858   1.234   6.248
 8101SOL     OW25201   2.563   5.703   0.854
 8101SOL    HW125202   2.612   5.749   0.928
 8101SOL    HW225203   2.503   5.768   0.808
 8102SOL     OW25204   1.283   3.303   4.689
 8102SOL    HW125205   1.304   3.262   4.778
 8102SOL    HW225206   1.316   3.243   4.616
 8103SOL     OW25207   3.672   0.921   2.297
 8103SOL    HW125208   3.753   0.979   2.305
 8103SOL    HW225209   3.684   0.840   2.354
 8104SOL     OW25210   1.786   6.587   5.705
 8104SOL    HW125211   1.799   6.627   5.796
 8104SOL    HW225212   1.865   6.532   5.681
 8105SOL     OW25213   6.771   2.035   3.006
 8105SOL    HW125214   6.778   2.106   2.936
 8105SOL    HW225215   6.733   1.952   2.965
 8106SOL     OW25216   2.780   6.353   4.222
 8106SOL    HW125217   2.868   6.340   4.176
 8106SOL    HW225218   2.756   6.270   4.272
 8107SOL     OW25219   1.544   5.492   4.345
 8107SOL    HW125220   1.521   5.551   4.422
 8107SOL    HW225221   1.634   5.451   4.360
 8108SOL     OW25222   6.945   1.242   6.784
 8108SOL    HW125223   6.878   1.305   6.821
 8108SOL    HW225224   0.007   1.260   6.825
 8109SOL     OW25225   6.843   3.585   6.557
 8109SOL    HW125226   6.941   3.606   6.564
 8109SOL    HW225227   6.825   3.500   6.607
 8110SOL     OW25228   4.389   4.669   0.910
 8110SOL    HW125229   4.310   4.722   0.940
 8110SOL    HW225230   4.402   4.591   0.970
 8111SOL     OW25231   5.577   1.010   3.372
 8111SOL    HW125232   5.556   0.914   3.351
 8111SOL    HW225233   5.563   1.065   3.290
 8112SOL     OW25234   0.466   2.965   4.829
 8112SOL    HW125235   0.538   3.033   4.815
 8112SOL    HW225236   0.508   2.875   4.840
 8113SOL     OW25237   6.585   2.825   1.180
 8113SOL    HW125238   6.564   2.728   1.179
 8113SOL    HW225239   6.536   2.869   1.255
 8114SOL     OW25240   1.452   4.482   2.385
 8114SOL    HW125241   1.431   4.405   2.325
 8114SOL    HW225242   1.519   4.454   2.453
 8115SOL     OW25243   3.022   6.821   6.672
 8115SOL    HW125244   3.073   6.777   6.599
 8115SOL    HW225245   3.085   6.848   6.745
 8116SOL     OW25246   3.619   5.341   0.667
 8116SOL    HW125247   3.702   5.298   0.630
 8116SOL    HW225248   3.645   5.413   0.732
 8117SOL     OW25249   2.327   6.787   2.959
 8117SOL    HW125250   2.333   6.721   3.034
 8117SOL    HW225251   2.274   6.747   2.884
 8118SOL     OW25252   6.388   4.355   6.646
 8118SOL    HW125253   6.319   4.305   6.594
 8118SOL    HW225254   6.414   4.301   6.726
 8119SOL     OW25255   5.305   6.115   6.152
 8119SOL    HW125256   5.266   6.060   6.226
 8119SOL    HW225257   5.340   6.054   6.081
 8120SOL     OW25258   2.273   5.445   0.551
 8120SOL    HW125259   2.285   5.347   0.533
 8120SOL    HW225260   2.191   5.478   0.505
 8121SOL     OW25261   1.108   4.123   2.954
 8121SOL    HW125262   1.162   4.043   2.929
 8121SOL    HW225263   1.169   4.195   2.988
 8122SOL     OW25264   1.100   4.589   2.743
 8122SOL    HW125265   1.048   4.513   2.781
 8122SOL    HW225266   1.185   4.601   2.795
 8123SOL     OW25267   1.007   1.922   0.116
 8123SOL    HW125268   1.097   1.962   0.133
 8123SOL    HW225269   1.016   1.844   0.054
 8124SOL     OW25270   5.498   6.040   4.061
 8124SOL    HW125271   5.512   6.047   4.160
 8124SOL    HW225272   5.428   6.106   4.033
 8125SOL     OW25273   0.888   0.575   2.767
 8125SOL    HW125274   0.914   0.599   2.860
 8125SOL    HW225275   0.813   0.510   2.769
 8126SOL     OW25276   4.320   5.037   3.656
 8126SOL    HW125277   4.402   5.022   3.602
 8126SOL    HW225278   4.342   5.025   3.753
 8127SOL     OW25279   2.458   2.511   6.990
 8127SOL    HW125280   2.378   2.461   7.020
 8127SOL    HW225281   2.538   2.451   6.990
 8128SOL     OW25282   3.303   2.443   1.388
 8128SOL    HW125283   3.320   2.405   1.479
 8128SOL    HW225284   3.232   2.513   1.394
 8129SOL     OW25285   1.547   2.178   0.261
 8129SOL    HW125286   1.527   2.102   0.322
 8129SOL    HW225287   1.619   2.152   0.197
 8130SOL     OW25288   1.629   5.843   0.118
 8130SOL    HW125289   1.553   5.788   0.151
 8130SOL    HW225290   1.618   5.860   0.020
 8131SOL     OW25291   2.879   2.546   1.100
 8131SOL    HW125292   2.913   2.517   1.010
 8131SOL    HW225293   2.855   2.643   1.097
 8132SOL     OW25294   6.516   0.162   4.023
 8132SOL    HW125295   6.454   0.091   4.056
 8132SOL    HW225296   6.567   0.128   3.944
 8133SOL     OW25297   4.006   5.356   2.049
 8133SOL    HW125298   4.015   5.261   2.079
 8133SOL    HW225299   3.977   5.413   2.126
 8134SOL     OW25300   6.119   1.121   6.026
 8134SOL    HW125301   6.194   1.172   6.069
 8134SOL    HW225302   6.064   1.077   6.097
 8135SOL     OW25303   2.078   0.322   2.139
 8135SOL    HW125304   2.073   0.303   2.041
 8135SOL    HW225305   2.019   0.400   2.161
 8136SOL     OW25306   5.455   5.520   2.792
 8136SOL    HW125307   5.489   5.606   2.755
 8136SOL    HW225308   5.526   5.475   2.845
 8137SOL     OW25309   3.184   1.298   5.326
 8137SOL    HW125310   3.211   1.204   5.303
 8137SOL    HW225311   3.108   1.326   5.267
 8138SOL     OW25312   5.309   1.248   1.309
 8138SOL    HW125313   5.377   1.224   1.378
 8138SOL    HW225314   5.355   1.263   1.221
 8139SOL     OW25315   0.151   1.528   2.596
 8139SOL    HW125316   0.085   1.551   2.668
 8139SOL    HW225317   0.107   1.470   2.528
 8140SOL     OW25318   4.394   1.207   4.671
 8140SOL    HW125319   4.447   1.290   4.691
 8140SOL    HW225320   4.321   1.229   4.606
 8141SOL     OW25321   4.003   5.165   5.432
 8141SOL    HW125322   4.037   5.257   5.449
 8141SOL    HW225323   3.903   5.163   5.445
 8142SOL     OW25324   6.263   4.464   0.754
 8142SOL    HW125325   6.324   4.499   0.683
 8142SOL    HW225326   6.188   4.529   0.768
 8143SOL     OW25327   6.243   4.188   6.062
 8143SOL    HW125328   6.225   4.269   6.006
 8143SOL    HW225329   6.227   4.209   6.158
 8144SOL     OW25330   5.322   6.858   6.929
 8144SOL    HW125331   5.268   6.937   6.900
 8144SOL    HW225332   5.366   6.879   7.016
 8145SOL     OW25333   6.046   5.844   2.551
 8145SOL    HW125334   6.082   5.777   2.616
 8145SOL    HW225335   6.028   5.800   2.464
 8146SOL     OW25336   3.455   0.930   5.726
 8146SOL    HW125337   3.427   1.018   5.687
 8146SOL    HW225338   3.423   0.856   5.666
 8147SOL     OW25339   4.876   1.647   3.512
 8147SOL    HW125340   4.925   1.656   3.425
 8147SOL    HW225341   4.778   1.654   3.496
 8148SOL     OW25342   5.580   3.138   2.750
 8148SOL    HW125343   5.503   3.202   2.744
 8148SOL    HW225344   5.546   3.049   2.780
 8149SOL     OW25345   3.430   5.681   2.624
 8149SOL    HW125346   3.438   5.581   2.621
 8149SOL    HW225347   3.334   5.707   2.612
 8150SOL     OW25348   0.188   4.975   0.618
 8150SOL    HW125349   0.205   5.008   0.525
 8150SOL    HW225350   0.115   4.907   0.617
 8151SOL     OW25351   0.952   2.344   3.549
 8151SOL    HW125352   0.945   2.278   3.624
 8151SOL    HW225353   0.891   2.421   3.566
 8152SOL     OW25354   1.852   1.202   2.902
 8152SOL    HW125355   1.928   1.193   2.967
 8152SOL    HW225356   1.886   1.242   2.817
 8153SOL     OW25357   2.872   0.360   2.212
 8153SOL    HW125358   2.823   0.343   2.298
 8153SOL    HW225359   2.894   0.273   2.169
 8154SOL     OW25360   2.494   6.301   4.025
 8154SOL    HW125361   2.592   6.322   4.031
 8154SOL    HW225362   2.441   6.382   4.049
 8155SOL     OW25363   2.972   3.072   1.974
 8155SOL    HW125364   2.958   3.082   2.072
 8155SOL    HW225365   3.058   3.023   1.957
 8156SOL     OW25366   5.348   0.599   5.032
 8156SOL    HW125367   5.306   0.603   4.941
 8156SOL    HW225368   5.447   0.614   5.023
 8157SOL     OW25369   5.932   4.484   6.520
 8157SOL    HW125370   5.956   4.396   6.560
 8157SOL    HW225371   5.909   4.548   6.594
 8158SOL     OW25372   1.475   5.693   1.288
 8158SOL    HW125373   1.437   5.693   1.381
 8158SOL    HW225374   1.430   5.763   1.233
 8159SOL     OW25375   1.996   5.396   2.285
 8159SOL    HW125376   2.074   5.339   2.258
 8159SOL    HW225377   1.970   5.374   2.379
 8160SOL     OW25378   4.892   2.410   1.208
 8160SOL    HW125379   4.821   2.386   1.143
 8160SOL    HW225380   4.944   2.489   1.174
 8161SOL     OW25381   4.726   1.094   0.554
 8161SOL    HW125382   4.642   1.074   0.605
 8161SOL    HW225383   4.768   1.177   0.590
 8162SOL     OW25384   6.011   0.435   0.966
 8162SOL    HW125385   6.010   0.336   0.953
 8162SOL    HW225386   5.942   0.461   1.033
 8163SOL     OW25387   2.691   4.199   5.375
 8163SOL    HW125388   2.591   4.194   5.383
 8163SOL    HW225389   2.721   4.135   5.304
 8164SOL     OW25390   5.358   2.808   1.430
 8164SOL    HW125391   5.373   2.758   1.516
 8164SOL    HW225392   5.337   2.743   1.357
 8165SOL     OW25393   1.406   4.471   1.241
 8165SOL    HW125394   1.331   4.527   1.206
 8165SOL    HW225395   1.484   4.477   1.178
 8166SOL     OW25396   2.274   0.123   2.233
 8166SOL    HW125397   2.226   0.210   2.243
 8166SOL    HW225398   2.228   0.067   2.164
 8167SOL     OW25399   5.787   2.465   3.350
 8167SOL    HW125400   5.812   2.504   3.261
 8167SOL    HW225401   5.826   2.521   3.423
 8168SOL     OW25402   3.722   1.233   3.174
 8168SOL    HW125403   3.657   1.242   3.098
 8168SOL    HW225404   3.673   1.203   3.256
 8169SOL     OW25405   4.439   3.971   0.495
 8169SOL    HW125406   4.494   3.927   0.566
 8169SOL    HW225407   4.372   4.032   0.537
 8170SOL     OW25408   0.914   6.195   3.869
 8170SOL    HW125409   0.997   6.148   3.838
 8170SOL    HW225410   0.848   6.128   3.903
 8171SOL     OW25411   0.359   1.627   6.489
 8171SOL    HW125412   0.323   1.719   6.504
 8171SOL    HW225413   0.315   1.587   6.409
 8172SOL     OW25414   0.121   0.262   0.513
 8172SOL    HW125415   0.071   0.303   0.590
 8172SOL    HW225416   0.064   0.266   0.431
 8173SOL     OW25417   3.778   2.600   6.933
 8173SOL    HW125418   3.845   2.574   6.863
 8173SOL    HW225419   3.696   2.636   6.888
 8174SOL     OW25420   5.477   1.684   0.697
 8174SOL    HW125421   5.550   1.627   0.735
 8174SOL    HW225422   5.488   1.778   0.728
 8175SOL     OW25423   6.997   2.269   6.324
 8175SOL    HW125424   0.065   2.274   6.294
 8175SOL    HW225425   6.942   2.334   6.272
 8176SOL     OW25426   2.843   5.751   1.998
 8176SOL    HW125427   2.768   5.695   2.032
 8176SOL    HW225428   2.921   5.743   2.059
 8177SOL     OW25429   1.177   6.747   4.222
 8177SOL    HW125430   1.197   6.814   4.294
 8177SOL    HW225431   1.195   6.789   4.133
 8178SOL     OW25432   1.799   6.813   6.530
 8178SOL    HW125433   1.811   6.773   6.621
 8178SOL    HW225434   1.823   6.910   6.532
 8179SOL     OW25435   3.108   2.825   0.354
 8179SOL    HW125436   3.084   2.741   0.305
 8179SOL    HW225437   3.195   2.861   0.318
 8180SOL     OW25438   0.510   6.858   4.275
 8180SOL    HW125439   0.458   6.895   4.352
 8180SOL    HW225440   0.601   6.833   4.305
 8181SOL     OW25441   2.938   1.927   2.921
 8181SOL    HW125442   2.873   1.989   2.966
 8181SOL    HW225443   2.929   1.937   2.821
 8182SOL     OW25444   3.281   2.061   5.715
 8182SOL    HW125445   3.312   2.120   5.640
 8182SOL    HW225446   3.361   2.033   5.769
 8183SOL     OW25447   1.024   3.481   5.101
 8183SOL    HW125448   1.106   3.425   5.113
 8183SOL    HW225449   0.953   3.450   5.165
 8184SOL     OW25450   0.122   0.707   5.463
 8184SOL    HW125451   0.136   0.641   5.389
 8184SOL    HW225452   0.152   0.797   5.433
 8185SOL     OW25453   3.193   1.278   2.246
 8185SOL    HW125454   3.100   1.315   2.245
 8185SOL    HW225455   3.190   1.181   2.224
 8186SOL     OW25456   2.926   5.837   5.826
 8186SOL    HW125457   2.916   5.933   5.853
 8186SOL    HW225458   2.955   5.832   5.730
 8187SOL     OW25459   1.225   2.195   5.419
 8187SOL    HW125460   1.187   2.111   5.379
 8187SOL    HW225461   1.272   2.172   5.504
 8188SOL     OW25462   5.875   2.013   2.655
 8188SOL    HW125463   5.800   2.027   2.590
 8188SOL    HW225464   5.907   2.101   2.687
 8189SOL     OW25465   5.941   4.509   2.669
 8189SOL    HW125466   5.906   4.472   2.755
 8189SOL    HW225467   5.969   4.434   2.609
 8190SOL     OW25468   5.228   3.376   3.388
 8190SOL    HW125469   5.306   3.379   3.451
 8190SOL    HW225470   5.154   3.431   3.426
 8191SOL     OW25471   0.750   5.505   3.761
 8191SOL    HW125472   0.787   5.533   3.672
 8191SOL    HW225473   0.810   5.435   3.801
 8192SOL     OW25474   2.612   5.610   2.143
 8192SOL    HW125475   2.630   5.564   2.230
 8192SOL    HW225476   2.565   5.546   2.081
 8193SOL     OW25477   4.688   6.775   5.307
 8193SOL    HW125478   4.615   6.734   5.362
 8193SOL    HW225479   4.772   6.721   5.318
 8194SOL     OW25480   6.600   0.829   6.920
 8194SOL    HW125481   6.625   0.826   6.823
 8194SOL    HW225482   6.507   0.865   6.929
 8195SOL     OW25483   6.758   6.979   6.825
 8195SOL    HW125484   6.709   0.029   6.865
 8195SOL    HW225485   6.840   7.012   6.778
 8196SOL     OW25486   3.672   6.376   6.476
 8196SOL    HW125487   3.675   6.431   6.560
 8196SOL    HW225488   3.623   6.427   6.406
 8197SOL     OW25489   6.860   0.683   6.416
 8197SOL    HW125490   6.821   0.775   6.421
 8197SOL    HW225491   6.936   0.683   6.352
 8198SOL     OW25492   2.491   6.745   3.207
 8198SOL    HW125493   2.408   6.795   3.232
 8198SOL    HW225494   2.569   6.807   3.206
 8199SOL     OW25495   0.287   3.439   0.058
 8199SOL    HW125496   0.188   3.425   0.055
 8199SOL    HW225497   0.328   3.369   0.117
 8200SOL     OW25498   5.225   4.071   1.518
 8200SOL    HW125499   5.296   4.008   1.551
 8200SOL    HW225500   5.201   4.048   1.424
 8201SOL     OW25501   5.848   7.000   3.724
 8201SOL    HW125502   5.891   0.062   3.712
 8201SOL    HW225503   5.799   6.998   3.811
 8202SOL     OW25504   1.399   4.758   3.132
 8202SOL    HW125505   1.475   4.822   3.115
 8202SOL    HW225506   1.333   4.801   3.193
 8203SOL     OW25507   5.164   3.914   1.924
 8203SOL    HW125508   5.219   3.846   1.972
 8203SOL    HW225509   5.213   4.000   1.919
 8204SOL     OW25510   3.238   6.568   2.653
 8204SOL    HW125511   3.323   6.615   2.676
 8204SOL    HW225512   3.193   6.539   2.738
 8205SOL     OW25513   5.733   5.162   1.917
 8205SOL    HW125514   5.733   5.196   2.011
 8205SOL    HW225515   5.706   5.066   1.916
 8206SOL     OW25516   4.147   2.194   5.406
 8206SOL    HW125517   4.202   2.121   5.446
 8206SOL    HW225518   4.062   2.205   5.457
 8207SOL     OW25519   3.516   4.965   6.179
 8207SOL    HW125520   3.588   4.919   6.232
 8207SOL    HW225521   3.535   5.063   6.176
 8208SOL     OW25522   1.959   4.837   1.357
 8208SOL    HW125523   1.891   4.902   1.392
 8208SOL    HW225524   2.050   4.879   1.363
 8209SOL     OW25525   1.408   0.627   5.118
 8209SOL    HW125526   1.449   0.612   5.208
 8209SOL    HW225527   1.382   0.723   5.109
 8210SOL     OW25528   2.087   1.707   0.332
 8210SOL    HW125529   2.108   1.610   0.346
 8210SOL    HW225530   2.117   1.735   0.241
 8211SOL     OW25531   3.233   2.964   4.226
 8211SOL    HW125532   3.330   2.940   4.229
 8211SOL    HW225533   3.193   2.955   4.317
 8212SOL     OW25534   2.421   7.018   1.325
 8212SOL    HW125535   2.404   0.065   1.261
 8212SOL    HW225536   2.341   7.004   1.383
 8213SOL     OW25537   4.358   4.536   1.840
 8213SOL    HW125538   4.272   4.492   1.814
 8213SOL    HW225539   4.415   4.471   1.890
 8214SOL     OW25540   3.251   5.605   4.326
 8214SOL    HW125541   3.306   5.661   4.264
 8214SOL    HW225542   3.169   5.655   4.353
 8215SOL     OW25543   3.993   6.456   6.922
 8215SOL    HW125544   3.957   6.542   6.957
 8215SOL    HW225545   4.058   6.474   6.849
 8216SOL     OW25546   4.775   6.081   1.732
 8216SOL    HW125547   4.867   6.107   1.700
 8216SOL    HW225548   4.708   6.100   1.661
 8217SOL     OW25549   2.972   5.322   3.191
 8217SOL    HW125550   2.968   5.245   3.127
 8217SOL    HW225551   2.909   5.306   3.267
 8218SOL     OW25552   1.653   0.437   5.142
 8218SOL    HW125553   1.664   0.535   5.124
 8218SOL    HW225554   1.702   0.385   5.072
 8219SOL     OW25555   3.866   3.945   0.553
 8219SOL    HW125556   3.837   3.849   0.555
 8219SOL    HW225557   3.889   3.972   0.460
 8220SOL     OW25558   3.680   3.795   4.287
 8220SOL    HW125559   3.777   3.778   4.306
 8220SOL    HW225560   3.629   3.796   4.373
 8221SOL     OW25561   6.311   3.345   3.328
 8221SOL    HW125562   6.214   3.345   3.352
 8221SOL    HW225563   6.323   3.303   3.238
 8222SOL     OW25564   6.478   2.562   1.249
 8222SOL    HW125565   6.506   2.470   1.220
 8222SOL    HW225566   6.378   2.565   1.258
 8223SOL     OW25567   0.077   6.053   5.035
 8223SOL    HW125568   0.102   5.971   4.983
 8223SOL    HW225569   0.160   6.093   5.074
 8224SOL     OW25570   5.618   2.272   0.097
 8224SOL    HW125571   5.691   2.307   0.155
 8224SOL    HW225572   5.535   2.259   0.152
 8225SOL     OW25573   5.036   1.860   0.243
 8225SOL    HW125574   5.007   1.771   0.278
 8225SOL    HW225575   5.114   1.893   0.296
 8226SOL     OW25576   3.660   0.266   0.475
 8226SOL    HW125577   3.611   0.351   0.497
 8226SOL    HW225578   3.594   0.191   0.471
 8227SOL     OW25579   5.169   2.262   2.638
 8227SOL    HW125580   5.092   2.304   2.589
 8227SOL    HW225581   5.163   2.284   2.735
 8228SOL     OW25582   1.707   0.902   5.448
 8228SOL    HW125583   1.666   0.944   5.529
 8228SOL    HW225584   1.638   0.846   5.402
 8229SOL     OW25585   4.060   4.606   1.109
 8229SOL    HW125586   4.133   4.672   1.091
 8229SOL    HW225587   4.095   4.513   1.096
 8230SOL     OW25588   4.369   0.900   5.724
 8230SOL    HW125589   4.301   0.972   5.712
 8230SOL    HW225590   4.449   0.919   5.668
 8231SOL     OW25591   2.646   1.393   2.876
 8231SOL    HW125592   2.686   1.476   2.916
 8231SOL    HW225593   2.622   1.410   2.780
 8232SOL     OW25594   4.308   6.408   2.528
 8232SOL    HW125595   4.319   6.508   2.524
 8232SOL    HW225596   4.245   6.379   2.456
 8233SOL     OW25597   0.624   0.643   5.550
 8233SOL    HW125598   0.599   0.556   5.593
 8233SOL    HW225599   0.546   0.704   5.550
 8234SOL     OW25600   2.131   2.587   0.293
 8234SOL    HW125601   2.117   2.510   0.230
 8234SOL    HW225602   2.222   2.581   0.333
 8235SOL     OW25603   6.931   5.670   0.559
 8235SOL    HW125604   6.933   5.665   0.659
 8235SOL    HW225605   6.847   5.629   0.525
 8236SOL     OW25606   0.975   6.428   6.999
 8236SOL    HW125607   1.001   6.449   0.065
 8236SOL    HW225608   0.894   6.369   6.999
 8237SOL     OW25609   4.494   5.177   6.480
 8237SOL    HW125610   4.401   5.178   6.443
 8237SOL    HW225611   4.560   5.188   6.406
 8238SOL     OW25612   1.725   4.699   0.704
 8238SOL    HW125613   1.650   4.710   0.769
 8238SOL    HW225614   1.809   4.676   0.754
 8239SOL     OW25615   0.571   1.759   5.145
 8239SOL    HW125616   0.542   1.771   5.240
 8239SOL    HW225617   0.500   1.708   5.095
 8240SOL     OW25618   3.546   3.852   4.526
 8240SOL    HW125619   3.582   3.880   4.615
 8240SOL    HW225620   3.504   3.762   4.534
 8241SOL     OW25621   2.184   4.019   6.377
 8241SOL    HW125622   2.111   4.034   6.311
 8241SOL    HW225623   2.261   4.079   6.356
 8242SOL     OW25624   0.438   3.255   4.097
 8242SOL    HW125625   0.349   3.242   4.141
 8242SOL    HW225626   0.506   3.280   4.166
 8243SOL     OW25627   0.878   4.702   4.750
 8243SOL    HW125628   0.852   4.793   4.719
 8243SOL    HW225629   0.972   4.704   4.784
 8244SOL     OW25630   1.229   0.454   3.972
 8244SOL    HW125631   1.231   0.437   4.071
 8244SOL    HW225632   1.187   0.543   3.954
 8245SOL     OW25633   5.519   1.344   3.994
 8245SOL    HW125634   5.465   1.340   3.910
 8245SOL    HW225635   5.461   1.319   4.072
 8246SOL     OW25636   1.642   4.598   6.476
 8246SOL    HW125637   1.607   4.525   6.535
 8246SOL    HW225638   1.715   4.562   6.417
 8247SOL     OW25639   3.306   5.537   3.014
 8247SOL    HW125640   3.341   5.456   3.060
 8247SOL    HW225641   3.380   5.604   3.002
 8248SOL     OW25642   0.966   5.515   3.276
 8248SOL    HW125643   0.922   5.551   3.358
 8248SOL    HW225644   1.027   5.585   3.238
 8249SOL     OW25645   2.701   1.943   6.258
 8249SOL    HW125646   2.781   1.882   6.261
 8249SOL    HW225647   2.668   1.951   6.164
 8250SOL     OW25648   1.896   1.461   6.277
 8250SOL    HW125649   1.954   1.440   6.199
 8250SOL    HW225650   1.805   1.487   6.244
 8251SOL     OW25651   0.110   2.067   4.810
 8251SOL    HW125652   0.074   2.159   4.825
 8251SOL    HW225653   0.073   2.030   4.725
 8252SOL     OW25654   1.657   2.288   6.739
 8252SOL    HW125655   1.694   2.303   6.647
 8252SOL    HW225656   1.578   2.227   6.733
 8253SOL     OW25657   4.304   6.093   0.770
 8253SOL    HW125658   4.398   6.123   0.784
 8253SOL    HW225659   4.271   6.046   0.852
 8254SOL     OW25660   5.337   5.332   6.896
 8254SOL    HW125661   5.295   5.376   6.817
 8254SOL    HW225662   5.320   5.233   6.892
 8255SOL     OW25663   0.512   6.325   6.512
 8255SOL    HW125664   0.546   6.249   6.568
 8255SOL    HW225665   0.587   6.361   6.456
 8256SOL     OW25666   2.018   5.943   3.089
 8256SOL    HW125667   1.964   5.865   3.120
 8256SOL    HW225668   1.963   6.000   3.028
 8257SOL     OW25669   5.014   3.772   3.687
 8257SOL    HW125670   4.975   3.760   3.596
 8257SOL    HW225671   5.105   3.815   3.680
 8258SOL     OW25672   6.583   3.295   2.126
 8258SOL    HW125673   6.679   3.306   2.151
 8258SOL    HW225674   6.573   3.304   2.027
 8259SOL     OW25675   4.281   1.638   4.040
 8259SOL    HW125676   4.242   1.579   3.970
 8259SOL    HW225677   4.380   1.626   4.043
 8260SOL     OW25678   3.885   1.189   1.538
 8260SOL    HW125679   3.947   1.252   1.492
 8260SOL    HW225680   3.859   1.227   1.627
 8261SOL     OW25681   5.213   0.088   3.234
 8261SOL    HW125682   5.299   0.136   3.247
 8261SOL    HW225683   5.179   0.054   3.321
 8262SOL     OW25684   6.628   4.185   1.985
 8262SOL    HW125685   6.703   4.148   2.039
 8262SOL    HW225686   6.572   4.110   1.950
 8263SOL     OW25687   0.504   2.302   6.285
 8263SOL    HW125688   0.544   2.331   6.198
 8263SOL    HW225689   0.575   2.260   6.342
 8264SOL     OW25690   2.511   6.631   2.804
 8264SOL    HW125691   2.505   6.647   2.706
 8264SOL    HW225692   2.462   6.704   2.853
 8265SOL     OW25693   5.612   0.838   0.310
 8265SOL    HW125694   5.525   0.884   0.291
 8265SOL    HW225695   5.642   0.861   0.402
 8266SOL     OW25696   2.531   0.531   3.236
 8266SOL    HW125697   2.515   0.626   3.210
 8266SOL    HW225698   2.605   0.493   3.181
 8267SOL     OW25699   1.416   4.082   3.057
 8267SOL    HW125700   1.516   4.088   3.053
 8267SOL    HW225701   1.376   4.134   2.982
 8268SOL     OW25702   3.315   4.965   6.410
 8268SOL    HW125703   3.404   5.009   6.412
 8268SOL    HW225704   3.314   4.888   6.474
 8269SOL     OW25705   5.084   2.269   3.384
 8269SOL    HW125706   4.986   2.284   3.373
 8269SOL    HW225707   5.104   2.250   3.480
 8270SOL     OW25708   3.387   0.569   6.000
 8270SOL    HW125709   3.480   0.576   5.964
 8270SOL    HW225710   3.352   0.478   5.983
 8271SOL     OW25711   3.840   6.537   5.723
 8271SOL    HW125712   3.902   6.616   5.719
 8271SOL    HW225713   3.750   6.567   5.753
 8272SOL     OW25714   1.025   0.078   1.555
 8272SOL    HW125715   1.118   0.041   1.560
 8272SOL    HW225716   0.999   0.116   1.644
 8273SOL     OW25717   2.877   0.196   0.045
 8273SOL    HW125718   2.855   0.101   0.024
 8273SOL    HW225719   2.933   0.200   0.127
 8274SOL     OW25720   5.407   6.325   6.265
 8274SOL    HW125721   5.355   6.328   6.350
 8274SOL    HW225722   5.383   6.242   6.215
 8275SOL     OW25723   5.803   0.722   4.281
 8275SOL    HW125724   5.834   0.794   4.344
 8275SOL    HW225725   5.755   0.764   4.204
 8276SOL     OW25726   6.814   2.441   6.141
 8276SOL    HW125727   6.756   2.362   6.121
 8276SOL    HW225728   6.772   2.495   6.214
 8277SOL     OW25729   1.231   5.835   6.159
 8277SOL    HW125730   1.274   5.750   6.127
 8277SOL    HW225731   1.301   5.899   6.189
 8278SOL     OW25732   3.793   1.147   0.661
 8278SOL    HW125733   3.801   1.089   0.580
 8278SOL    HW225734   3.834   1.236   0.642
 8279SOL     OW25735   4.937   5.211   5.664
 8279SOL    HW125736   4.922   5.202   5.763
 8279SOL    HW225737   4.867   5.272   5.626
 8280SOL     OW25738   5.366   3.041   6.953
 8280SOL    HW125739   5.296   2.993   7.006
 8280SOL    HW225740   5.457   3.020   6.990
 8281SOL     OW25741   2.378   5.034   6.832
 8281SOL    HW125742   2.476   5.039   6.813
 8281SOL    HW225743   2.363   4.977   6.914
 8282SOL     OW25744   3.208   2.389   0.939
 8282SOL    HW125745   3.221   2.351   1.030
 8282SOL    HW225746   3.111   2.385   0.914
 8283SOL     OW25747   0.584   5.236   2.983
 8283SOL    HW125748   0.591   5.192   2.894
 8283SOL    HW225749   0.663   5.297   2.997
 8284SOL     OW25750   2.637   2.134   2.634
 8284SOL    HW125751   2.553   2.149   2.687
 8284SOL    HW225752   2.714   2.175   2.683
 8285SOL     OW25753   3.704   4.420   6.055
 8285SOL    HW125754   3.795   4.421   6.013
 8285SOL    HW225755   3.680   4.512   6.084
 8286SOL     OW25756   5.166   1.157   5.602
 8286SOL    HW125757   5.186   1.071   5.648
 8286SOL    HW225758   5.177   1.147   5.504
 8287SOL     OW25759   1.842   0.497   3.233
 8287SOL    HW125760   1.829   0.552   3.315
 8287SOL    HW225761   1.936   0.507   3.201
 8288SOL     OW25762   1.244   1.188   2.897
 8288SOL    HW125763   1.307   1.132   2.951
 8288SOL    HW225764   1.222   1.272   2.947
 8289SOL     OW25765   6.349   1.221   5.534
 8289SOL    HW125766   6.329   1.317   5.518
 8289SOL    HW225767   6.424   1.213   5.600
 8290SOL     OW25768   4.116   2.323   1.755
 8290SOL    HW125769   4.201   2.335   1.703
 8290SOL    HW225770   4.040   2.308   1.692
 8291SOL     OW25771   5.375   5.503   6.023
 8291SOL    HW125772   5.355   5.535   5.931
 8291SOL    HW225773   5.299   5.528   6.084
 8292SOL     OW25774   0.945   4.004   4.274
 8292SOL    HW125775   0.911   3.920   4.315
 8292SOL    HW225776   0.901   4.083   4.318
 8293SOL     OW25777   3.167   5.334   3.701
 8293SOL    HW125778   3.127   5.406   3.645
 8293SOL    HW225779   3.196   5.372   3.788
 8294SOL     OW25780   5.582   3.666   5.871
 8294SOL    HW125781   5.512   3.707   5.814
 8294SOL    HW225782   5.575   3.567   5.868
 8295SOL     OW25783   4.763   4.361   1.932
 8295SOL    HW125784   4.669   4.327   1.930
 8295SOL    HW225785   4.817   4.314   1.862
 8296SOL     OW25786   3.807   6.636   1.461
 8296SOL    HW125787   3.738   6.614   1.392
 8296SOL    HW225788   3.776   6.603   1.550
 8297SOL     OW25789   5.868   4.189   2.861
 8297SOL    HW125790   5.966   4.201   2.878
 8297SOL    HW225791   5.819   4.270   2.893
 8298SOL     OW25792   6.028   0.539   6.074
 8298SOL    HW125793   5.954   0.584   6.023
 8298SOL    HW225794   5.991   0.464   6.129
 8299SOL     OW25795   1.308   3.503   1.314
 8299SOL    HW125796   1.267   3.423   1.272
 8299SOL    HW225797   1.263   3.586   1.281
 8300SOL     OW25798   5.658   5.154   3.156
 8300SOL    HW125799   5.751   5.141   3.123
 8300SOL    HW225800   5.604   5.071   3.137
 8301SOL     OW25801   4.276   6.562   0.394
 8301SOL    HW125802   4.211   6.534   0.324
 8301SOL    HW225803   4.228   6.618   0.463
 8302SOL     OW25804   3.798   6.537   5.306
 8302SOL    HW125805   3.850   6.536   5.221
 8302SOL    HW225806   3.789   6.631   5.339
 8303SOL     OW25807   0.079   5.991   3.094
 8303SOL    HW125808   0.109   5.940   3.175
 8303SOL    HW225809   0.157   6.011   3.036
 8304SOL     OW25810   5.583   3.567   3.365
 8304SOL    HW125811   5.542   3.498   3.306
 8304SOL    HW225812   5.618   3.643   3.309
 8305SOL     OW25813   5.255   5.603   4.455
 8305SOL    HW125814   5.181   5.538   4.470
 8305SOL    HW225815   5.336   5.554   4.423
 8306SOL     OW25816   6.848   0.687   2.097
 8306SOL    HW125817   6.759   0.718   2.133
 8306SOL    HW225818   6.921   0.740   2.140
 8307SOL     OW25819   1.972   4.697   2.993
 8307SOL    HW125820   2.068   4.724   2.998
 8307SOL    HW225821   1.955   4.646   2.909
 8308SOL     OW25822   1.134   5.168   0.219
 8308SOL    HW125823   1.062   5.207   0.162
 8308SOL    HW225824   1.170   5.086   0.175
 8309SOL     OW25825   6.177   4.406   4.421
 8309SOL    HW125826   6.114   4.466   4.470
 8309SOL    HW225827   6.195   4.325   4.477
 8310SOL     OW25828   1.000   6.761   0.082
 8310SOL    HW125829   1.095   6.764   0.113
 8310SOL    HW225830   0.997   6.758   7.010
 8311SOL     OW25831   5.457   0.231   3.273
 8311SOL    HW125832   5.520   0.204   3.345
 8311SOL    HW225833   5.509   0.261   3.193
 8312SOL     OW25834   5.375   1.747   6.329
 8312SOL    HW125835   5.294   1.801   6.304
 8312SOL    HW225836   5.438   1.803   6.383
 8313SOL     OW25837   4.770   1.885   4.860
 8313SOL    HW125838   4.757   1.982   4.841
 8313SOL    HW225839   4.842   1.849   4.801
 8314SOL     OW25840   4.719   5.899   5.365
 8314SOL    HW125841   4.622   5.923   5.367
 8314SOL    HW225842   4.729   5.801   5.352
 8315SOL     OW25843   3.833   3.966   4.939
 8315SOL    HW125844   3.759   3.928   4.994
 8315SOL    HW225845   3.909   3.902   4.935
 8316SOL     OW25846   1.725   2.771   6.653
 8316SOL    HW125847   1.727   2.709   6.575
 8316SOL    HW225848   1.817   2.782   6.690
 8317SOL     OW25849   2.188   1.143   3.421
 8317SOL    HW125850   2.154   1.172   3.510
 8317SOL    HW225851   2.218   1.048   3.427
 8318SOL     OW25852   3.814   6.935   6.581
 8318SOL    HW125853   3.769   6.989   6.510
 8318SOL    HW225854   3.823   6.841   6.550
 8319SOL     OW25855   1.177   0.037   6.672
 8319SOL    HW125856   1.187   6.965   6.676
 8319SOL    HW225857   1.229   0.079   6.747
 8320SOL     OW25858   2.927   3.553   4.726
 8320SOL    HW125859   2.833   3.561   4.695
 8320SOL    HW225860   2.959   3.641   4.761
 8321SOL     OW25861   6.750   6.703   0.630
 8321SOL    HW125862   6.782   6.609   0.626
 8321SOL    HW225863   6.657   6.707   0.665
 8322SOL     OW25864   0.841   0.413   6.771
 8322SOL    HW125865   0.803   0.350   6.839
 8322SOL    HW225866   0.906   0.475   6.816
 8323SOL     OW25867   4.886   4.789   1.311
 8323SOL    HW125868   4.793   4.757   1.329
 8323SOL    HW225869   4.929   4.729   1.243
 8324SOL     OW25870   5.023   6.481   6.615
 8324SOL    HW125871   5.011   6.569   6.568
 8324SOL    HW225872   4.942   6.424   6.599
 8325SOL     OW25873   1.272   5.939   5.665
 8325SOL    HW125874   1.244   5.929   5.569
 8325SOL    HW225875   1.372   5.931   5.672
 8326SOL     OW25876   1.612   3.967   1.760
 8326SOL    HW125877   1.672   3.888   1.747
 8326SOL    HW225878   1.564   3.958   1.848
 8327SOL     OW25879   1.213   6.978   4.373
 8327SOL    HW125880   1.256   6.973   4.463
 8327SOL    HW225881   1.154   0.031   4.369
 8328SOL     OW25882   1.778   0.333   6.671
 8328SOL    HW125883   1.856   0.396   6.661
 8328SOL    HW225884   1.767   0.309   6.767
 8329SOL     OW25885   1.440   2.851   5.196
 8329SOL    HW125886   1.525   2.894   5.227
 8329SOL    HW225887   1.447   2.752   5.208
 8330SOL     OW25888   3.208   1.485   6.379
 8330SOL    HW125889   3.229   1.423   6.303
 8330SOL    HW225890   3.184   1.432   6.460
 8331SOL     OW25891   1.949   2.528   7.025
 8331SOL    HW125892   1.868   2.500   6.973
 8331SOL    HW225893   1.984   2.449   0.048
 8332SOL     OW25894   5.948   5.431   1.809
 8332SOL    HW125895   5.982   5.368   1.878
 8332SOL    HW225896   5.857   5.464   1.835
 8333SOL     OW25897   2.437   5.177   1.292
 8333SOL    HW125898   2.357   5.141   1.339
 8333SOL    HW225899   2.518   5.124   1.318
 8334SOL     OW25900   4.085   2.051   6.133
 8334SOL    HW125901   4.038   1.971   6.093
 8334SOL    HW225902   4.182   2.028   6.147
 8335SOL     OW25903   5.005   3.946   6.051
 8335SOL    HW125904   4.989   3.857   6.009
 8335SOL    HW225905   4.978   3.942   6.148
 8336SOL     OW25906   1.032   3.644   3.427
 8336SOL    HW125907   1.121   3.652   3.472
 8336SOL    HW225908   0.960   3.645   3.496
 8337SOL     OW25909   0.829   1.491   4.439
 8337SOL    HW125910   0.909   1.486   4.500
 8337SOL    HW225911   0.818   1.584   4.405
 8338SOL     OW25912   4.755   5.439   2.710
 8338SOL    HW125913   4.683   5.383   2.752
 8338SOL    HW225914   4.781   5.512   2.773
 8339SOL     OW25915   6.105   0.158   0.905
 8339SOL    HW125916   6.134   0.166   0.809
 8339SOL    HW225917   6.172   0.104   0.956
 8340SOL     OW25918   6.183   2.750   0.259
 8340SOL    HW125919   6.100   2.708   0.295
 8340SOL    HW225920   6.219   2.695   0.184
 8341SOL     OW25921   3.343   1.406   0.741
 8341SOL    HW125922   3.372   1.501   0.755
 8341SOL    HW225923   3.409   1.360   0.682
 8342SOL     OW25924   4.835   0.326   0.232
 8342SOL    HW125925   4.768   0.343   0.159
 8342SOL    HW225926   4.854   0.228   0.238
 8343SOL     OW25927   6.148   3.930   3.717
 8343SOL    HW125928   6.217   3.886   3.774
 8343SOL    HW225929   6.060   3.930   3.765
 8344SOL     OW25930   1.175   4.808   5.146
 8344SOL    HW125931   1.166   4.709   5.161
 8344SOL    HW225932   1.185   4.854   5.235
 8345SOL     OW25933   4.272   0.751   3.010
 8345SOL    HW125934   4.355   0.704   2.980
 8345SOL    HW225935   4.261   0.836   2.959
 8346SOL     OW25936   5.330   3.045   5.138
 8346SOL    HW125937   5.308   3.082   5.228
 8346SOL    HW225938   5.275   3.091   5.068
 8347SOL     OW25939   2.501   0.101   6.399
 8347SOL    HW125940   2.579   0.038   6.394
 8347SOL    HW225941   2.516   0.167   6.473
 8348SOL     OW25942   3.410   6.952   1.978
 8348SOL    HW125943   3.332   6.963   2.041
 8348SOL    HW225944   3.423   0.009   1.926
 8349SOL     OW25945   0.883   6.339   1.634
 8349SOL    HW125946   0.802   6.322   1.579
 8349SOL    HW225947   0.938   6.256   1.641
 8350SOL     OW25948   2.502   6.984   0.291
 8350SOL    HW125949   2.537   6.931   0.368
 8350SOL    HW225950   2.571   0.023   0.262
 8351SOL     OW25951   6.887   4.008   3.100
 8351SOL    HW125952   6.867   3.956   3.017
 8351SOL    HW225953   6.970   3.973   3.142
 8352SOL     OW25954   2.505   5.634   1.736
 8352SOL    HW125955   2.476   5.555   1.790
 8352SOL    HW225956   2.577   5.607   1.673
 8353SOL     OW25957   1.678   3.989   2.166
 8353SOL    HW125958   1.713   3.897   2.186
 8353SOL    HW225959   1.646   4.032   2.250
 8354SOL     OW25960   3.606   0.510   3.754
 8354SOL    HW125961   3.508   0.504   3.735
 8354SOL    HW225962   3.655   0.446   3.694
 8355SOL     OW25963   2.116   5.922   6.076
 8355SOL    HW125964   2.115   5.826   6.104
 8355SOL    HW225965   2.200   5.940   6.024
 8356SOL     OW25966   2.003   5.692   1.116
 8356SOL    HW125967   2.025   5.634   1.195
 8356SOL    HW225968   1.904   5.698   1.105
 8357SOL     OW25969   4.352   6.068   5.880
 8357SOL    HW125970   4.397   6.001   5.820
 8357SOL    HW225971   4.375   6.160   5.849
 8358SOL     OW25972   0.950   2.279   5.100
 8358SOL    HW125973   1.044   2.248   5.111
 8358SOL    HW225974   0.948   2.359   5.041
 8359SOL     OW25975   2.786   2.157   5.281
 8359SOL    HW125976   2.700   2.107   5.283
 8359SOL    HW225977   2.818   2.164   5.186
 8360SOL     OW25978   4.828   0.641   0.924
 8360SOL    HW125979   4.894   0.712   0.897
 8360SOL    HW225980   4.755   0.682   0.979
 8361SOL     OW25981   3.197   0.393   0.367
 8361SOL    HW125982   3.179   0.458   0.440
 8361SOL    HW225983   3.293   0.364   0.370
 8362SOL     OW25984   6.903   4.068   1.623
 8362SOL    HW125985   6.969   4.107   1.688
 8362SOL    HW225986   6.907   4.119   1.537
 8363SOL     OW25987   2.395   2.919   6.815
 8363SOL    HW125988   2.407   2.820   6.822
 8363SOL    HW225989   2.478   2.960   6.776
 8364SOL     OW25990   6.955   2.956   4.429
 8364SOL    HW125991   0.012   2.908   4.452
 8364SOL    HW225992   6.904   2.904   4.361
 8365SOL     OW25993   1.991   2.593   2.800
 8365SOL    HW125994   1.895   2.568   2.792
 8365SOL    HW225995   2.041   2.522   2.850
 8366SOL     OW25996   5.270   5.809   1.981
 8366SOL    HW125997   5.231   5.812   1.889
 8366SOL    HW225998   5.213   5.863   2.044
 8367SOL     OW25999   4.100   4.803   4.588
 8367SOL    HW126000   4.082   4.707   4.609
 8367SOL    HW226001   4.167   4.809   4.514
 8368SOL     OW26002   6.997   6.649   0.482
 8368SOL    HW126003   6.905   6.687   0.484
 8368SOL    HW226004   0.003   6.648   0.388
 8369SOL     OW26005   2.163   1.020   0.193
 8369SOL    HW126006   2.140   1.004   0.097
 8369SOL    HW226007   2.079   1.026   0.247
 8370SOL     OW26008   2.824   2.904   0.408
 8370SOL    HW126009   2.783   2.877   0.321
 8370SOL    HW226010   2.924   2.897   0.401
 8371SOL     OW26011   2.113   4.560   6.178
 8371SOL    HW126012   2.025   4.595   6.144
 8371SOL    HW226013   2.101   4.525   6.271
 8372SOL     OW26014   2.066   5.736   2.559
 8372SOL    HW126015   2.146   5.761   2.505
 8372SOL    HW226016   2.078   5.769   2.653
 8373SOL     OW26017   6.871   0.794   4.287
 8373SOL    HW126018   6.965   0.810   4.257
 8373SOL    HW226019   6.855   0.841   4.374
 8374SOL     OW26020   1.623   0.375   4.362
 8374SOL    HW126021   1.608   0.434   4.442
 8374SOL    HW226022   1.714   0.334   4.368
 8375SOL     OW26023   3.953   1.065   4.352
 8375SOL    HW126024   3.861   1.038   4.382
 8375SOL    HW226025   3.969   1.030   4.259
 8376SOL     OW26026   1.817   0.861   3.065
 8376SOL    HW126027   1.840   0.823   3.155
 8376SOL    HW226028   1.757   0.941   3.077
 8377SOL     OW26029   4.701   5.791   6.963
 8377SOL    HW126030   4.731   5.878   7.002
 8377SOL    HW226031   4.623   5.756   7.016
 8378SOL     OW26032   6.208   5.783   3.699
 8378SOL    HW126033   6.252   5.736   3.622
 8378SOL    HW226034   6.237   5.740   3.784
 8379SOL     OW26035   6.065   1.420   1.683
 8379SOL    HW126036   5.975   1.418   1.640
 8379SOL    HW226037   6.055   1.430   1.782
 8380SOL     OW26038   6.502   5.380   0.160
 8380SOL    HW126039   6.494   5.413   0.066
 8380SOL    HW226040   6.589   5.410   0.199
 8381SOL     OW26041   6.958   1.434   2.401
 8381SOL    HW126042   6.903   1.373   2.345
 8381SOL    HW226043   6.979   1.517   2.350
 8382SOL     OW26044   2.309   0.599   0.803
 8382SOL    HW126045   2.226   0.597   0.747
 8382SOL    HW226046   2.300   0.670   0.872
 8383SOL     OW26047   2.295   6.057   5.932
 8383SOL    HW126048   2.211   6.108   5.914
 8383SOL    HW226049   2.366   6.119   5.965
 8384SOL     OW26050   0.843   2.731   0.648
 8384SOL    HW126051   0.903   2.651   0.640
 8384SOL    HW226052   0.748   2.702   0.648
 8385SOL     OW26053   4.176   3.875   0.880
 8385SOL    HW126054   4.103   3.834   0.934
 8385SOL    HW226055   4.136   3.938   0.813
 8386SOL     OW26056   1.866   5.478   1.806
 8386SOL    HW126057   1.801   5.528   1.748
 8386SOL    HW226058   1.824   5.462   1.895
 8387SOL     OW26059   1.388   1.218   2.312
 8387SOL    HW126060   1.355   1.268   2.391
 8387SOL    HW226061   1.468   1.163   2.338
 8388SOL     OW26062   3.489   6.961   1.081
 8388SOL    HW126063   3.543   6.992   1.159
 8388SOL    HW226064   3.429   6.886   1.111
 8389SOL     OW26065   0.795   2.501   4.056
 8389SOL    HW126066   0.712   2.531   4.102
 8389SOL    HW226067   0.780   2.411   4.015
 8390SOL     OW26068   2.319   0.841   5.595
 8390SOL    HW126069   2.289   0.841   5.691
 8390SOL    HW226070   2.364   0.754   5.574
 8391SOL     OW26071   5.004   5.616   1.573
 8391SOL    HW126072   5.099   5.614   1.542
 8391SOL    HW226073   4.967   5.523   1.573
 8392SOL     OW26074   5.513   6.462   5.621
 8392SOL    HW126075   5.538   6.557   5.639
 8392SOL    HW226076   5.587   6.402   5.652
 8393SOL     OW26077   0.317   6.187   3.046
 8393SOL    HW126078   0.416   6.205   3.050
 8393SOL    HW226079   0.283   6.167   3.138
 8394SOL     OW26080   0.958   1.811   2.968
 8394SOL    HW126081   0.896   1.753   2.915
 8394SOL    HW226082   0.932   1.906   2.957
 8395SOL     OW26083   6.925   6.086   5.384
 8395SOL    HW126084   6.833   6.121   5.401
 8395SOL    HW226085   6.979   6.155   5.335
 8396SOL     OW26086   4.903   4.160   2.678
 8396SOL    HW126087   4.990   4.111   2.681
 8396SOL    HW226088   4.878   4.176   2.582
 8397SOL     OW26089   2.236   6.177   3.213
 8397SOL    HW126090   2.172   6.196   3.138
 8397SOL    HW226091   2.248   6.078   3.223
 8398SOL     OW26092   4.363   1.239   0.309
 8398SOL    HW126093   4.303   1.209   0.235
 8398SOL    HW226094   4.457   1.216   0.287
 8399SOL     OW26095   5.659   6.005   0.285
 8399SOL    HW126096   5.731   5.949   0.326
 8399SOL    HW226097   5.632   6.077   0.349
 8400SOL     OW26098   0.115   0.020   2.624
 8400SOL    HW126099   0.092   0.109   2.664
 8400SOL    HW226100   0.153   6.988   2.695
 8401SOL     OW26101   3.684   3.928   6.128
 8401SOL    HW126102   3.779   3.926   6.099
 8401SOL    HW226103   3.678   3.917   6.227
 8402SOL     OW26104   4.367   1.812   6.578
 8402SOL    HW126105   4.298   1.798   6.506
 8402SOL    HW226106   4.343   1.892   6.632
 8403SOL     OW26107   1.522   1.364   4.625
 8403SOL    HW126108   1.487   1.451   4.660
 8403SOL    HW226109   1.575   1.319   4.696
 8404SOL     OW26110   4.881   5.624   5.627
 8404SOL    HW126111   4.829   5.540   5.610
 8404SOL    HW226112   4.978   5.607   5.615
 8405SOL     OW26113   0.234   2.303   6.235
 8405SOL    HW126114   0.253   2.354   6.151
 8405SOL    HW226115   0.315   2.303   6.293
 8406SOL     OW26116   5.188   2.383   1.316
 8406SOL    HW126117   5.105   2.407   1.367
 8406SOL    HW226118   5.205   2.285   1.325
 8407SOL     OW26119   5.016   4.125   3.513
 8407SOL    HW126120   5.032   4.051   3.448
 8407SOL    HW226121   5.001   4.210   3.464
 8408SOL     OW26122   4.869   2.056   3.646
 8408SOL    HW126123   4.915   2.082   3.732
 8408SOL    HW226124   4.825   2.136   3.607
 8409SOL     OW26125   1.659   1.491   4.357
 8409SOL    HW126126   1.602   1.512   4.437
 8409SOL    HW226127   1.657   1.567   4.293
 8410SOL     OW26128   4.261   6.830   1.272
 8410SOL    HW126129   4.181   6.820   1.331
 8410SOL    HW226130   4.232   6.845   1.178
 8411SOL     OW26131   2.182   4.435   4.390
 8411SOL    HW126132   2.199   4.424   4.489
 8411SOL    HW226133   2.084   4.447   4.374
 8412SOL     OW26134   5.074   2.375   2.345
 8412SOL    HW126135   5.036   2.364   2.254
 8412SOL    HW226136   5.160   2.326   2.352
 8413SOL     OW26137   3.694   4.795   0.625
 8413SOL    HW126138   3.731   4.756   0.710
 8413SOL    HW226139   3.766   4.798   0.556
 8414SOL     OW26140   4.304   6.468   3.223
 8414SOL    HW126141   4.248   6.493   3.143
 8414SOL    HW226142   4.249   6.414   3.286
 8415SOL     OW26143   6.418   4.328   3.110
 8415SOL    HW126144   6.461   4.245   3.073
 8415SOL    HW226145   6.466   4.357   3.192
 8416SOL     OW26146   5.213   3.791   2.467
 8416SOL    HW126147   5.255   3.718   2.413
 8416SOL    HW226148   5.114   3.776   2.469
 8417SOL     OW26149   2.073   6.367   6.413
 8417SOL    HW126150   2.108   6.436   6.476
 8417SOL    HW226151   1.975   6.381   6.399
 8418SOL     OW26152   6.763   5.624   2.535
 8418SOL    HW126153   6.818   5.629   2.618
 8418SOL    HW226154   6.675   5.581   2.555
 8419SOL     OW26155   4.507   0.571   2.467
 8419SOL    HW126156   4.593   0.584   2.517
 8419SOL    HW226157   4.466   0.484   2.492
 8420SOL     OW26158   3.669   0.570   6.071
 8420SOL    HW126159   3.672   0.607   5.978
 8420SOL    HW226160   3.574   0.569   6.104
 8421SOL     OW26161   1.907   6.479   2.181
 8421SOL    HW126162   1.958   6.549   2.232
 8421SOL    HW226163   1.873   6.410   2.245
 8422SOL     OW26164   4.600   6.942   0.445
 8422SOL    HW126165   4.647   6.863   0.406
 8422SOL    HW226166   4.656   6.981   0.519
 8423SOL     OW26167   3.349   4.683   0.556
 8423SOL    HW126168   3.368   4.765   0.502
 8423SOL    HW226169   3.422   4.616   0.540
 8424SOL     OW26170   3.510   1.691   3.136
 8424SOL    HW126171   3.585   1.725   3.080
 8424SOL    HW226172   3.488   1.597   3.110
 8425SOL     OW26173   5.895   5.289   1.331
 8425SOL    HW126174   5.862   5.235   1.409
 8425SOL    HW226175   5.914   5.227   1.255
 8426SOL     OW26176   3.772   3.229   3.647
 8426SOL    HW126177   3.841   3.201   3.714
 8426SOL    HW226178   3.781   3.327   3.629
 8427SOL     OW26179   2.431   4.102   6.598
 8427SOL    HW126180   2.432   4.114   6.498
 8427SOL    HW226181   2.389   4.014   6.621
 8428SOL     OW26182   0.584   4.115   2.082
 8428SOL    HW126183   0.648   4.090   2.154
 8428SOL    HW226184   0.607   4.067   1.997
 8429SOL     OW26185   2.036   5.882   3.721
 8429SOL    HW126186   2.119   5.934   3.698
 8429SOL    HW226187   1.968   5.944   3.758
 8430SOL     OW26188   4.342   4.628   2.903
 8430SOL    HW126189   4.359   4.646   2.806
 8430SOL    HW226190   4.378   4.538   2.927
 8431SOL     OW26191   3.551   4.823   1.438
 8431SOL    HW126192   3.503   4.763   1.503
 8431SOL    HW226193   3.529   4.795   1.344
 8432SOL     OW26194   3.699   5.777   6.346
 8432SOL    HW126195   3.713   5.704   6.279
 8432SOL    HW226196   3.760   5.854   6.325
 8433SOL     OW26197   1.275   2.671   5.962
 8433SOL    HW126198   1.374   2.656   5.953
 8433SOL    HW226199   1.237   2.604   6.025
 8434SOL     OW26200   4.843   6.092   5.517
 8434SOL    HW126201   4.823   6.070   5.613
 8434SOL    HW226202   4.808   6.020   5.458
 8435SOL     OW26203   4.846   2.198   1.579
 8435SOL    HW126204   4.870   2.208   1.675
 8435SOL    HW226205   4.789   2.117   1.567
 8436SOL     OW26206   4.433   4.554   2.142
 8436SOL    HW126207   4.343   4.593   2.157
 8436SOL    HW226208   4.426   4.480   2.075
 8437SOL     OW26209   0.689   1.609   0.672
 8437SOL    HW126210   0.642   1.581   0.756
 8437SOL    HW226211   0.719   1.529   0.621
 8438SOL     OW26212   2.176   4.779   2.347
 8438SOL    HW126213   2.248   4.748   2.410
 8438SOL    HW226214   2.163   4.710   2.276
 8439SOL     OW26215   6.948   5.559   2.326
 8439SOL    HW126216   6.880   5.600   2.387
 8439SOL    HW226217   7.011   5.503   2.379
 8440SOL     OW26218   0.502   0.649   1.713
 8440SOL    HW126219   0.581   0.679   1.660
 8440SOL    HW226220   0.430   0.717   1.707
 8441SOL     OW26221   4.829   5.623   6.274
 8441SOL    HW126222   4.871   5.619   6.183
 8441SOL    HW226223   4.753   5.558   6.278
 8442SOL     OW26224   2.314   4.334   0.186
 8442SOL    HW126225   2.215   4.333   0.201
 8442SOL    HW226226   2.333   4.309   0.091
 8443SOL     OW26227   1.216   0.480   2.860
 8443SOL    HW126228   1.150   0.413   2.825
 8443SOL    HW226229   1.211   0.481   2.960
 8444SOL     OW26230   3.852   6.594   3.802
 8444SOL    HW126231   3.806   6.682   3.792
 8444SOL    HW226232   3.888   6.564   3.714
 8445SOL     OW26233   3.745   5.175   2.654
 8445SOL    HW126234   3.813   5.133   2.714
 8445SOL    HW226235   3.716   5.262   2.694
 8446SOL     OW26236   5.234   4.960   2.701
 8446SOL    HW126237   5.187   4.949   2.789
 8446SOL    HW226238   5.331   4.977   2.717
 8447SOL     OW26239   5.101   2.363   1.764
 8447SOL    HW126240   5.090   2.283   1.823
 8447SOL    HW226241   5.118   2.444   1.821
 8448SOL     OW26242   0.510   3.560   6.600
 8448SOL    HW126243   0.430   3.584   6.654
 8448SOL    HW226244   0.504   3.464   6.572
 8449SOL     OW26245   0.605   3.273   4.888
 8449SOL    HW126246   0.523   3.305   4.840
 8449SOL    HW226247   0.684   3.281   4.828
 8450SOL     OW26248   1.852   6.366   2.969
 8450SOL    HW126249   1.865   6.270   2.994
 8450SOL    HW226250   1.819   6.417   3.049
 8451SOL     OW26251   3.990   2.933   1.253
 8451SOL    HW126252   3.946   2.938   1.164
 8451SOL    HW226253   3.962   3.011   1.309
 8452SOL     OW26254   6.650   0.382   0.971
 8452SOL    HW126255   6.586   0.459   0.973
 8452SOL    HW226256   6.743   0.416   0.979
 8453SOL     OW26257   6.507   4.180   6.201
 8453SOL    HW126258   6.463   4.210   6.117
 8453SOL    HW226259   6.486   4.084   6.218
 8454SOL     OW26260   1.459   6.855   3.664
 8454SOL    HW126261   1.365   6.851   3.630
 8454SOL    HW226262   1.479   6.947   3.699
 8455SOL     OW26263   4.776   1.893   0.892
 8455SOL    HW126264   4.685   1.932   0.880
 8455SOL    HW226265   4.771   1.793   0.883
 8456SOL     OW26266   5.431   5.327   3.551
 8456SOL    HW126267   5.389   5.416   3.569
 8456SOL    HW226268   5.490   5.334   3.471
 8457SOL     OW26269   0.110   6.747   5.748
 8457SOL    HW126270   0.030   6.775   5.802
 8457SOL    HW226271   0.171   6.693   5.805
 8458SOL     OW26272   1.625   2.323   0.477
 8458SOL    HW126273   1.588   2.267   0.402
 8458SOL    HW226274   1.704   2.375   0.444
 8459SOL     OW26275   3.551   5.417   2.144
 8459SOL    HW126276   3.599   5.492   2.189
 8459SOL    HW226277   3.453   5.438   2.142
 8460SOL     OW26278   4.535   2.038   0.146
 8460SOL    HW126279   4.454   1.980   0.152
 8460SOL    HW226280   4.558   2.073   0.237
 8461SOL     OW26281   0.272   3.920   1.346
 8461SOL    HW126282   0.362   3.893   1.380
 8461SOL    HW226283   0.203   3.905   1.418
 8462SOL     OW26284   3.373   4.091   6.510
 8462SOL    HW126285   3.367   4.064   6.414
 8462SOL    HW226286   3.468   4.111   6.534
 8463SOL     OW26287   0.148   1.791   0.080
 8463SOL    HW126288   0.140   1.807   0.178
 8463SOL    HW226289   0.108   1.868   0.030
 8464SOL     OW26290   0.352   3.082   0.023
 8464SOL    HW126291   0.379   3.135   0.103
 8464SOL    HW226292   0.382   3.130   6.967
 8465SOL     OW26293   3.832   2.371   1.175
 8465SOL    HW126294   3.888   2.450   1.198
 8465SOL    HW226295   3.750   2.369   1.233
 8466SOL     OW26296   5.622   0.849   4.971
 8466SOL    HW126297   5.704   0.793   4.986
 8466SOL    HW226298   5.648   0.934   4.924
 8467SOL     OW26299   3.178   1.000   0.940
 8467SOL    HW126300   3.177   1.081   0.881
 8467SOL    HW226301   3.247   0.936   0.906
 8468SOL     OW26302   6.304   3.732   6.765
 8468SOL    HW126303   6.269   3.649   6.721
 8468SOL    HW226304   6.400   3.718   6.791
 8469SOL     OW26305   4.022   2.632   5.827
 8469SOL    HW126306   3.969   2.717   5.820
 8469SOL    HW226307   4.093   2.632   5.757
 8470SOL     OW26308   0.602   4.780   0.937
 8470SOL    HW126309   0.514   4.818   0.907
 8470SOL    HW226310   0.675   4.845   0.915
 8471SOL     OW26311   2.961   0.837   5.324
 8471SOL    HW126312   2.871   0.877   5.308
 8471SOL    HW226313   2.980   0.768   5.254
 8472SOL     OW26314   5.435   1.491   6.388
 8472SOL    HW126315   5.431   1.589   6.366
 8472SOL    HW226316   5.530   1.463   6.398
 8473SOL     OW26317   4.921   4.826   6.828
 8473SOL    HW126318   4.967   4.831   6.740
 8473SOL    HW226319   4.988   4.827   6.902
 8474SOL     OW26320   2.875   3.362   2.324
 8474SOL    HW126321   2.910   3.408   2.243
 8474SOL    HW226322   2.895   3.418   2.405
 8475SOL     OW26323   0.064   3.110   1.519
 8475SOL    HW126324   0.020   3.088   1.432
 8475SOL    HW226325   7.027   3.155   1.580
 8476SOL     OW26326   6.093   6.959   1.480
 8476SOL    HW126327   6.073   0.021   1.520
 8476SOL    HW226328   6.148   6.906   1.543
 8477SOL     OW26329   4.998   6.643   1.103
 8477SOL    HW126330   4.933   6.567   1.106
 8477SOL    HW226331   5.076   6.623   1.162
 8478SOL     OW26332   0.697   0.044   5.632
 8478SOL    HW126333   0.619   0.002   5.584
 8478SOL    HW226334   0.772   0.058   5.566
 8479SOL     OW26335   1.821   2.105   1.447
 8479SOL    HW126336   1.799   2.016   1.408
 8479SOL    HW226337   1.737   2.154   1.470
 8480SOL     OW26338   4.679   3.585   0.312
 8480SOL    HW126339   4.762   3.596   0.366
 8480SOL    HW226340   4.608   3.540   0.368
 8481SOL     OW26341   3.779   2.127   4.102
 8481SOL    HW126342   3.811   2.202   4.160
 8481SOL    HW226343   3.679   2.127   4.099
 8482SOL     OW26344   4.615   1.200   0.239
 8482SOL    HW126345   4.590   1.103   0.247
 8482SOL    HW226346   4.714   1.210   0.250
 8483SOL     OW26347   3.399   6.027   3.958
 8483SOL    HW126348   3.349   6.111   3.942
 8483SOL    HW226349   3.496   6.047   3.972
 8484SOL     OW26350   6.486   5.995   4.382
 8484SOL    HW126351   6.551   5.976   4.456
 8484SOL    HW226352   6.424   6.068   4.410
 8485SOL     OW26353   3.204   2.373   0.286
 8485SOL    HW126354   3.120   2.319   0.290
 8485SOL    HW226355   3.245   2.365   0.195
 8486SOL     OW26356   1.270   1.314   2.537
 8486SOL    HW126357   1.215   1.243   2.581
 8486SOL    HW226358   1.214   1.395   2.521
 8487SOL     OW26359   5.687   2.047   5.804
 8487SOL    HW126360   5.736   1.960   5.812
 8487SOL    HW226361   5.744   2.121   5.842
 8488SOL     OW26362   5.359   6.004   2.294
 8488SOL    HW126363   5.437   5.942   2.295
 8488SOL    HW226364   5.388   6.095   2.322
 8489SOL     OW26365   5.503   1.161   1.111
 8489SOL    HW126366   5.537   1.109   1.190
 8489SOL    HW226367   5.555   1.137   1.030
 8490SOL     OW26368   2.207   6.849   6.803
 8490SOL    HW126369   2.279   6.875   6.739
 8490SOL    HW226370   2.187   6.925   6.865
 8491SOL     OW26371   2.327   5.898   2.399
 8491SOL    HW126372   2.309   5.996   2.396
 8491SOL    HW226373   2.411   5.878   2.348
 8492SOL     OW26374   6.146   4.306   4.781
 8492SOL    HW126375   6.172   4.349   4.867
 8492SOL    HW226376   6.228   4.278   4.732
 8493SOL     OW26377   3.421   0.807   0.522
 8493SOL    HW126378   3.385   0.900   0.531
 8493SOL    HW226379   3.355   0.749   0.475
 8494SOL     OW26380   5.844   4.939   2.098
 8494SOL    HW126381   5.944   4.938   2.094
 8494SOL    HW226382   5.812   5.034   2.108
 8495SOL     OW26383   6.213   5.516   0.473
 8495SOL    HW126384   6.221   5.534   0.571
 8495SOL    HW226385   6.245   5.424   0.453
 8496SOL     OW26386   5.229   1.466   1.867
 8496SOL    HW126387   5.231   1.494   1.771
 8496SOL    HW226388   5.167   1.525   1.918
 8497SOL     OW26389   0.050   0.608   3.712
 8497SOL    HW126390   0.032   0.701   3.680
 8497SOL    HW226391   0.110   0.561   3.647
 8498SOL     OW26392   4.988   6.970   4.555
 8498SOL    HW126393   5.006   6.991   4.651
 8498SOL    HW226394   5.043   6.890   4.528
 8499SOL     OW26395   7.015   5.869   7.027
 8499SOL    HW126396   0.079   5.834   7.011
 8499SOL    HW226397   6.955   5.839   6.953
 8500SOL     OW26398   1.547   0.956   5.709
 8500SOL    HW126399   1.632   0.987   5.751
 8500SOL    HW226400   1.514   0.874   5.758
 8501SOL     OW26401   0.569   1.492   0.232
 8501SOL    HW126402   0.605   1.401   0.213
 8501SOL    HW226403   0.546   1.500   0.329
 8502SOL     OW26404   0.515   3.020   6.558
 8502SOL    HW126405   0.419   3.004   6.538
 8502SOL    HW226406   0.528   3.025   6.657
 8503SOL     OW26407   6.539   6.425   4.374
 8503SOL    HW126408   6.440   6.429   4.391
 8503SOL    HW226409   6.569   6.511   4.332
 8504SOL     OW26410   2.384   5.400   2.498
 8504SOL    HW126411   2.476   5.361   2.494
 8504SOL    HW226412   2.355   5.428   2.407
 8505SOL     OW26413   5.179   3.765   2.775
 8505SOL    HW126414   5.132   3.682   2.744
 8505SOL    HW226415   5.271   3.741   2.806
 8506SOL     OW26416   2.252   0.742   0.288
 8506SOL    HW126417   2.189   0.801   0.238
 8506SOL    HW226418   2.280   0.666   0.230
 8507SOL     OW26419   4.818   0.004   5.539
 8507SOL    HW126420   4.890   6.966   5.514
 8507SOL    HW226421   4.806   0.069   5.464
 8508SOL     OW26422   4.427   2.024   6.817
 8508SOL    HW126423   4.379   1.961   6.878
 8508SOL    HW226424   4.464   2.101   6.869
 8509SOL     OW26425   5.917   0.222   3.461
 8509SOL    HW126426   5.948   0.128   3.469
 8509SOL    HW226427   5.931   0.269   3.549
 8510SOL     OW26428   5.383   2.619   4.384
 8510SOL    HW126429   5.371   2.530   4.429
 8510SOL    HW226430   5.451   2.610   4.311
 8511SOL     OW26431   5.774   3.024   2.049
 8511SOL    HW126432   5.852   3.063   2.000
 8511SOL    HW226433   5.767   3.067   2.139
 8512SOL     OW26434   2.178   0.043   3.810
 8512SOL    HW126435   2.194   0.065   3.713
 8512SOL    HW226436   2.169   6.972   3.821
 8513SOL     OW26437   6.268   6.259   0.188
 8513SOL    HW126438   6.224   6.314   0.259
 8513SOL    HW226439   6.208   6.182   0.164
 8514SOL     OW26440   2.898   6.296   3.689
 8514SOL    HW126441   2.933   6.380   3.646
 8514SOL    HW226442   2.915   6.300   3.788
 8515SOL     OW26443   5.485   1.962   0.787
 8515SOL    HW126444   5.403   2.013   0.810
 8515SOL    HW226445   5.562   1.995   0.842
 8516SOL     OW26446   6.514   2.256   2.200
 8516SOL    HW126447   6.463   2.341   2.188
 8516SOL    HW226448   6.573   2.263   2.280
 8517SOL     OW26449   1.432   2.889   6.335
 8517SOL    HW126450   1.400   2.909   6.243
 8517SOL    HW226451   1.441   2.790   6.347
 8518SOL     OW26452   3.177   5.535   0.071
 8518SOL    HW126453   3.201   5.595   0.147
 8518SOL    HW226454   3.219   5.568   7.015
 8519SOL     OW26455   1.367   5.436   2.141
 8519SOL    HW126456   1.391   5.361   2.203
 8519SOL    HW226457   1.277   5.419   2.101
 8520SOL     OW26458   4.159   0.753   0.377
 8520SOL    HW126459   4.097   0.698   0.432
 8520SOL    HW226460   4.247   0.707   0.368
 8521SOL     OW26461   1.198   6.295   5.905
 8521SOL    HW126462   1.199   6.328   5.811
 8521SOL    HW226463   1.231   6.201   5.908
 8522SOL     OW26464   1.338   6.103   4.527
 8522SOL    HW126465   1.436   6.122   4.530
 8522SOL    HW226466   1.299   6.147   4.446
 8523SOL     OW26467   1.396   6.775   6.764
 8523SOL    HW126468   1.396   6.856   6.822
 8523SOL    HW226469   1.435   6.698   6.814
 8524SOL     OW26470   1.452   3.544   6.091
 8524SOL    HW126471   1.419   3.482   6.161
 8524SOL    HW226472   1.539   3.512   6.055
 8525SOL     OW26473   5.969   3.414   2.537
 8525SOL    HW126474   5.908   3.351   2.490
 8525SOL    HW226475   5.925   3.449   2.619
 8526SOL     OW26476   2.418   2.726   2.363
 8526SOL    HW126477   2.473   2.685   2.436
 8526SOL    HW226478   2.438   2.679   2.277
 8527SOL     OW26479   4.595   0.889   4.329
 8527SOL    HW126480   4.656   0.941   4.389
 8527SOL    HW226481   4.560   0.809   4.378
 8528SOL     OW26482   4.329   2.986   6.081
 8528SOL    HW126483   4.423   2.964   6.105
 8528SOL    HW226484   4.271   2.977   6.162
 8529SOL     OW26485   1.688   4.923   6.834
 8529SOL    HW126486   1.628   4.853   6.793
 8529SOL    HW226487   1.690   5.003   6.775
 8530SOL     OW26488   1.468   3.970   5.024
 8530SOL    HW126489   1.561   3.936   5.012
 8530SOL    HW226490   1.470   4.070   5.037
 8531SOL     OW26491   5.249   4.965   2.428
 8531SOL    HW126492   5.261   4.927   2.520
 8531SOL    HW226493   5.264   4.894   2.360
 8532SOL     OW26494   3.214   4.332   5.578
 8532SOL    HW126495   3.146   4.324   5.650
 8532SOL    HW226496   3.303   4.356   5.617
 8533SOL     OW26497   3.295   0.957   4.689
 8533SOL    HW126498   3.320   0.931   4.782
 8533SOL    HW226499   3.377   0.985   4.639
 8534SOL     OW26500   1.270   3.126   2.521
 8534SOL    HW126501   1.311   3.074   2.446
 8534SOL    HW226502   1.206   3.193   2.484
 8535SOL     OW26503   0.291   1.942   4.433
 8535SOL    HW126504   0.251   2.013   4.374
 8535SOL    HW226505   0.312   1.862   4.378
 8536SOL     OW26506   0.088   1.294   5.486
 8536SOL    HW126507   0.091   1.351   5.567
 8536SOL    HW226508   0.087   1.352   5.404
 8537SOL     OW26509   5.441   0.673   1.419
 8537SOL    HW126510   5.513   0.690   1.351
 8537SOL    HW226511   5.387   0.757   1.431
 8538SOL     OW26512   6.556   0.530   4.884
 8538SOL    HW126513   6.543   0.622   4.920
 8538SOL    HW226514   6.584   0.535   4.789
 8539SOL     OW26515   0.415   2.853   1.765
 8539SOL    HW126516   0.514   2.838   1.766
 8539SOL    HW226517   0.368   2.765   1.757
 8540SOL     OW26518   3.510   0.510   0.498
 8540SOL    HW126519   3.444   0.485   0.568
 8540SOL    HW226520   3.462   0.537   0.414
 8541SOL     OW26521   2.908   1.170   4.318
 8541SOL    HW126522   2.935   1.265   4.300
 8541SOL    HW226523   2.959   1.136   4.397
 8542SOL     OW26524   2.255   5.047   6.400
 8542SOL    HW126525   2.212   5.081   6.484
 8542SOL    HW226526   2.340   5.000   6.424
 8543SOL     OW26527   1.654   2.387   5.638
 8543SOL    HW126528   1.715   2.360   5.712
 8543SOL    HW226529   1.699   2.455   5.580
 8544SOL     OW26530   5.124   3.877   5.452
 8544SOL    HW126531   5.163   3.897   5.542
 8544SOL    HW226532   5.045   3.936   5.436
 8545SOL     OW26533   3.182   0.088   5.978
 8545SOL    HW126534   3.278   0.063   5.988
 8545SOL    HW226535   3.150   0.128   6.064
 8546SOL     OW26536   5.577   0.587   1.634
 8546SOL    HW126537   5.498   0.599   1.574
 8546SOL    HW226538   5.656   0.633   1.595
 8547SOL     OW26539   6.133   6.467   5.805
 8547SOL    HW126540   6.172   6.391   5.754
 8547SOL    HW226541   6.184   6.550   5.785
 8548SOL     OW26542   0.454   3.209   5.463
 8548SOL    HW126543   0.413   3.163   5.542
 8548SOL    HW226544   0.544   3.170   5.445
 8549SOL     OW26545   1.795   0.944   3.332
 8549SOL    HW126546   1.726   0.966   3.401
 8549SOL    HW226547   1.847   0.863   3.361
 8550SOL     OW26548   0.961   4.321   6.862
 8550SOL    HW126549   0.982   4.273   6.777
 8550SOL    HW226550   1.022   4.399   6.873
 8551SOL     OW26551   2.100   1.955   5.848
 8551SOL    HW126552   2.060   1.867   5.822
 8551SOL    HW226553   2.091   2.020   5.772
 8552SOL     OW26554   2.353   1.376   2.930
 8552SOL    HW126555   2.338   1.470   2.899
 8552SOL    HW226556   2.445   1.347   2.905
 8553SOL     OW26557   5.125   3.005   0.749
 8553SOL    HW126558   5.094   2.920   0.708
 8553SOL    HW226559   5.048   3.050   0.795
 8554SOL     OW26560   0.925   6.775   0.352
 8554SOL    HW126561   0.964   6.788   0.261
 8554SOL    HW226562   0.988   6.812   0.420
 8555SOL     OW26563   4.855   0.969   3.764
 8555SOL    HW126564   4.906   0.998   3.683
 8555SOL    HW226565   4.803   1.047   3.800
 8556SOL     OW26566   1.817   6.284   0.375
 8556SOL    HW126567   1.789   6.200   0.328
 8556SOL    HW226568   1.778   6.363   0.327
 8557SOL     OW26569   0.522   0.837   0.021
 8557SOL    HW126570   0.589   0.767   7.022
 8557SOL    HW226571   0.524   0.911   6.981
 8558SOL     OW26572   3.081   4.954   3.404
 8558SOL    HW126573   3.046   4.969   3.312
 8558SOL    HW226574   3.111   5.042   3.443
 8559SOL     OW26575   0.899   5.301   2.548
 8559SOL    HW126576   0.926   5.205   2.548
 8559SOL    HW226577   0.966   5.354   2.496
 8560SOL     OW26578   2.807   4.143   1.754
 8560SOL    HW126579   2.719   4.119   1.713
 8560SOL    HW226580   2.815   4.243   1.760
 8561SOL     OW26581   4.760   6.772   2.162
 8561SOL    HW126582   4.831   6.723   2.213
 8561SOL    HW226583   4.802   6.846   2.110
 8562SOL     OW26584   4.191   0.886   7.009
 8562SOL    HW126585   4.251   0.823   6.961
 8562SOL    HW226586   4.241   0.927   0.058
 8563SOL     OW26587   1.698   5.758   2.827
 8563SOL    HW126588   1.663   5.851   2.818
 8563SOL    HW226589   1.677   5.706   2.744
 8564SOL     OW26590   4.309   0.674   6.910
 8564SOL    HW126591   4.377   0.627   6.853
 8564SOL    HW226592   4.272   0.610   6.977
 8565SOL     OW26593   2.944   5.437   1.480
 8565SOL    HW126594   3.044   5.430   1.480
 8565SOL    HW226595   2.906   5.365   1.537
 8566SOL     OW26596   3.312   1.196   2.958
 8566SOL    HW126597   3.370   1.138   3.015
 8566SOL    HW226598   3.216   1.178   2.980
 8567SOL     OW26599   1.809   2.162   1.854
 8567SOL    HW126600   1.857   2.081   1.820
 8567SOL    HW226601   1.779   2.145   1.948
 8568SOL     OW26602   0.178   1.344   6.884
 8568SOL    HW126603   0.199   1.402   6.806
 8568SOL    HW226604   0.203   1.391   6.969
 8569SOL     OW26605   5.005   2.419   6.481
 8569SOL    HW126606   5.081   2.356   6.462
 8569SOL    HW226607   4.963   2.448   6.395
 8570SOL     OW26608   1.442   3.293   3.954
 8570SOL    HW126609   1.536   3.280   3.986
 8570SOL    HW226610   1.444   3.337   3.864
 8571SOL     OW26611   1.701   0.634   3.711
 8571SOL    HW126612   1.641   0.583   3.773
 8571SOL    HW226613   1.654   0.649   3.624
 8572SOL     OW26614   2.916   3.887   5.756
 8572SOL    HW126615   3.014   3.906   5.763
 8572SOL    HW226616   2.880   3.928   5.672
 8573SOL     OW26617   3.522   6.192   0.731
 8573SOL    HW126618   3.471   6.109   0.754
 8573SOL    HW226619   3.496   6.223   0.640
 8574SOL     OW26620   6.261   6.189   5.418
 8574SOL    HW126621   6.334   6.121   5.406
 8574SOL    HW226622   6.297   6.280   5.400
 8575SOL     OW26623   3.256   6.244   2.828
 8575SOL    HW126624   3.218   6.180   2.760
 8575SOL    HW226625   3.260   6.199   2.917
 8576SOL     OW26626   1.045   4.018   3.400
 8576SOL    HW126627   1.014   3.976   3.486
 8576SOL    HW226628   0.982   3.993   3.327
 8577SOL     OW26629   2.068   1.607   6.762
 8577SOL    HW126630   2.128   1.554   6.821
 8577SOL    HW226631   2.079   1.577   6.667
 8578SOL     OW26632   6.442   0.030   5.220
 8578SOL    HW126633   6.501   6.977   5.216
 8578SOL    HW226634   6.380   0.030   5.141
 8579SOL     OW26635   3.231   6.052   2.363
 8579SOL    HW126636   3.329   6.052   2.380
 8579SOL    HW226637   3.187   6.124   2.416
 8580SOL     OW26638   1.452   0.184   1.371
 8580SOL    HW126639   1.379   0.251   1.358
 8580SOL    HW226640   1.478   0.145   1.283
 8581SOL     OW26641   3.710   5.009   1.303
 8581SOL    HW126642   3.653   4.934   1.336
 8581SOL    HW226643   3.777   4.974   1.238
 8582SOL     OW26644   3.943   4.308   5.417
 8582SOL    HW126645   3.900   4.233   5.468
 8582SOL    HW226646   4.020   4.272   5.365
 8583SOL     OW26647   4.234   0.970   2.822
 8583SOL    HW126648   4.304   0.994   2.754
 8583SOL    HW226649   4.145   0.967   2.778
 8584SOL     OW26650   6.571   0.971   4.574
 8584SOL    HW126651   6.591   1.068   4.562
 8584SOL    HW226652   6.639   0.916   4.523
 8585SOL     OW26653   5.409   2.002   1.711
 8585SOL    HW126654   5.412   1.912   1.667
 8585SOL    HW226655   5.327   2.051   1.682
 8586SOL     OW26656   5.756   6.162   1.006
 8586SOL    HW126657   5.739   6.220   1.086
 8586SOL    HW226658   5.839   6.109   1.020
 8587SOL     OW26659   1.466   1.337   5.751
 8587SOL    HW126660   1.450   1.392   5.668
 8587SOL    HW226661   1.449   1.241   5.731
 8588SOL     OW26662   3.090   1.603   6.899
 8588SOL    HW126663   3.118   1.658   6.820
 8588SOL    HW226664   3.169   1.558   6.939
 8589SOL     OW26665   0.438   3.045   5.698
 8589SOL    HW126666   0.371   2.982   5.738
 8589SOL    HW226667   0.530   3.011   5.717
 8590SOL     OW26668   1.225   1.843   2.623
 8590SOL    HW126669   1.187   1.935   2.619
 8590SOL    HW226670   1.199   1.800   2.710
 8591SOL     OW26671   6.669   4.830   0.084
 8591SOL    HW126672   6.727   4.886   0.025
 8591SOL    HW226673   6.574   4.840   0.056
 8592SOL     OW26674   1.536   2.442   6.120
 8592SOL    HW126675   1.557   2.496   6.038
 8592SOL    HW226676   1.473   2.368   6.096
 8593SOL     OW26677   3.252   0.770   6.645
 8593SOL    HW126678   3.296   0.726   6.723
 8593SOL    HW226679   3.201   0.850   6.676
 8594SOL     OW26680   6.507   2.592   5.921
 8594SOL    HW126681   6.428   2.653   5.915
 8594SOL    HW226682   6.509   2.549   6.011
 8595SOL     OW26683   5.190   6.471   2.469
 8595SOL    HW126684   5.118   6.478   2.538
 8595SOL    HW226685   5.243   6.556   2.467
 8596SOL     OW26686   0.525   2.917   3.391
 8596SOL    HW126687   0.618   2.939   3.360
 8596SOL    HW226688   0.521   2.925   3.491
 8597SOL     OW26689   5.599   3.204   1.230
 8597SOL    HW126690   5.565   3.297   1.221
 8597SOL    HW226691   5.677   3.202   1.293
 8598SOL     OW26692   5.255   0.362   4.557
 8598SOL    HW126693   5.341   0.333   4.598
 8598SOL    HW226694   5.251   0.331   4.462
 8599SOL     OW26695   1.604   2.950   3.888
 8599SOL    HW126696   1.513   2.926   3.921
 8599SOL    HW226697   1.626   3.043   3.916
 8600SOL     OW26698   4.251   2.843   1.225
 8600SOL    HW126699   4.177   2.910   1.231
 8600SOL    HW226700   4.313   2.855   1.303
 8601SOL     OW26701   0.661   0.650   3.471
 8601SOL    HW126702   0.567   0.619   3.483
 8601SOL    HW226703   0.664   0.750   3.471
 8602SOL     OW26704   2.685   6.846   4.371
 8602SOL    HW126705   2.661   6.754   4.340
 8602SOL    HW226706   2.743   6.840   4.453
 8603SOL     OW26707   6.862   1.087   0.493
 8603SOL    HW126708   6.899   1.008   0.444
 8603SOL    HW226709   6.766   1.071   0.516
 8604SOL     OW26710   1.075   3.985   6.190
 8604SOL    HW126711   1.070   3.931   6.106
 8604SOL    HW226712   1.054   3.927   6.268
 8605SOL     OW26713   0.056   4.936   4.315
 8605SOL    HW126714   7.019   4.886   4.256
 8605SOL    HW226715   0.004   4.991   4.381
 8606SOL     OW26716   2.002   2.253   6.741
 8606SOL    HW126717   2.051   2.341   6.741
 8606SOL    HW226718   1.914   2.264   6.696
 8607SOL     OW26719   2.378   4.789   1.289
 8607SOL    HW126720   2.455   4.745   1.335
 8607SOL    HW226721   2.384   4.774   1.191
 8608SOL     OW26722   2.609   5.046   3.458
 8608SOL    HW126723   2.530   4.992   3.486
 8608SOL    HW226724   2.662   4.996   3.390
 8609SOL     OW26725   4.681   1.209   3.792
 8609SOL    HW126726   4.737   1.286   3.761
 8609SOL    HW226727   4.600   1.202   3.733
 8610SOL     OW26728   0.511   6.521   3.070
 8610SOL    HW126729   0.433   6.582   3.084
 8610SOL    HW226730   0.534   6.517   2.973
 8611SOL     OW26731   3.009   1.675   4.077
 8611SOL    HW126732   2.915   1.679   4.044
 8611SOL    HW226733   3.044   1.768   4.091
 8612SOL     OW26734   4.029   3.102   3.476
 8612SOL    HW126735   4.075   3.108   3.564
 8612SOL    HW226736   3.935   3.070   3.490
 8613SOL     OW26737   3.275   2.809   0.984
 8613SOL    HW126738   3.305   2.785   1.076
 8613SOL    HW226739   3.280   2.728   0.925
 8614SOL     OW26740   1.400   2.409   1.769
 8614SOL    HW126741   1.378   2.498   1.807
 8614SOL    HW226742   1.343   2.391   1.689
 8615SOL     OW26743   4.053   1.404   3.567
 8615SOL    HW126744   4.073   1.495   3.528
 8615SOL    HW226745   4.139   1.355   3.582
 8616SOL     OW26746   4.280   4.991   2.712
 8616SOL    HW126747   4.253   5.078   2.753
 8616SOL    HW226748   4.380   4.987   2.707
 8617SOL     OW26749   4.598   0.498   4.443
 8617SOL    HW126750   4.593   0.508   4.344
 8617SOL    HW226751   4.564   0.407   4.469
 8618SOL     OW26752   5.481   3.736   1.227
 8618SOL    HW126753   5.438   3.720   1.316
 8618SOL    HW226754   5.461   3.830   1.197
 8619SOL     OW26755   5.771   4.519   1.760
 8619SOL    HW126756   5.690   4.572   1.734
 8619SOL    HW226757   5.828   4.504   1.679
 8620SOL     OW26758   1.874   1.017   4.575
 8620SOL    HW126759   1.917   1.000   4.486
 8620SOL    HW226760   1.844   0.930   4.615
 8621SOL     OW26761   5.105   2.588   1.928
 8621SOL    HW126762   5.028   2.555   1.982
 8621SOL    HW226763   5.073   2.660   1.866
 8622SOL     OW26764   6.747   5.199   2.982
 8622SOL    HW126765   6.769   5.112   3.026
 8622SOL    HW226766   6.807   5.271   3.018
 8623SOL     OW26767   6.355   3.265   5.268
 8623SOL    HW126768   6.421   3.339   5.254
 8623SOL    HW226769   6.380   3.186   5.212
 8624SOL     OW26770   2.892   3.649   6.176
 8624SOL    HW126771   2.797   3.634   6.203
 8624SOL    HW226772   2.948   3.661   6.258
 8625SOL     OW26773   3.607   1.629   5.431
 8625SOL    HW126774   3.703   1.629   5.402
 8625SOL    HW226775   3.552   1.580   5.363
 8626SOL     OW26776   4.797   3.997   0.644
 8626SOL    HW126777   4.798   3.983   0.743
 8626SOL    HW226778   4.740   3.927   0.600
 8627SOL     OW26779   1.571   1.019   2.729
 8627SOL    HW126780   1.508   0.986   2.658
 8627SOL    HW226781   1.662   0.983   2.713
 8628SOL     OW26782   0.562   6.395   0.329
 8628SOL    HW126783   0.560   6.492   0.303
 8628SOL    HW226784   0.527   6.385   0.422
 8629SOL     OW26785   0.351   6.992   4.473
 8629SOL    HW126786   0.298   6.976   4.556
 8629SOL    HW226787   0.297   0.019   4.408
 8630SOL     OW26788   4.874   3.098   2.711
 8630SOL    HW126789   4.807   3.130   2.778
 8630SOL    HW226790   4.942   3.041   2.756
 8631SOL     OW26791   3.006   6.124   6.773
 8631SOL    HW126792   3.090   6.110   6.721
 8631SOL    HW226793   2.957   6.037   6.783
 8632SOL     OW26794   4.747   4.618   5.222
 8632SOL    HW126795   4.780   4.551   5.288
 8632SOL    HW226796   4.783   4.709   5.246
 8633SOL     OW26797   5.755   3.857   5.755
 8633SOL    HW126798   5.692   3.919   5.707
 8633SOL    HW226799   5.703   3.782   5.795
 8634SOL     OW26800   5.338   4.990   0.996
 8634SOL    HW126801   5.434   4.990   1.025
 8634SOL    HW226802   5.291   4.911   1.036
 8635SOL     OW26803   6.015   2.815   6.816
 8635SOL    HW126804   6.020   2.914   6.803
 8635SOL    HW226805   5.962   2.775   6.741
 8636SOL     OW26806   4.875   6.404   1.101
 8636SOL    HW126807   4.920   6.355   1.175
 8636SOL    HW226808   4.798   6.457   1.137
 8637SOL     OW26809   2.250   1.811   6.316
 8637SOL    HW126810   2.260   1.872   6.237
 8637SOL    HW226811   2.206   1.861   6.391
 8638SOL     OW26812   4.393   3.106   5.383
 8638SOL    HW126813   4.453   3.054   5.323
 8638SOL    HW226814   4.303   3.063   5.385
 8639SOL     OW26815   4.211   3.086   6.611
 8639SOL    HW126816   4.250   3.062   6.522
 8639SOL    HW226817   4.252   3.171   6.644
 8640SOL     OW26818   2.622   3.436   1.358
 8640SOL    HW126819   2.629   3.383   1.443
 8640SOL    HW226820   2.697   3.412   1.297
 8641SOL     OW26821   4.596   5.870   2.509
 8641SOL    HW126822   4.687   5.860   2.551
 8641SOL    HW226823   4.606   5.873   2.410
 8642SOL     OW26824   1.391   6.645   4.539
 8642SOL    HW126825   1.431   6.734   4.561
 8642SOL    HW226826   1.435   6.574   4.594
 8643SOL     OW26827   2.759   0.121   0.517
 8643SOL    HW126828   2.839   0.125   0.577
 8643SOL    HW226829   2.728   0.026   0.509
 8644SOL     OW26830   6.158   1.585   6.860
 8644SOL    HW126831   6.167   1.485   6.858
 8644SOL    HW226832   6.077   1.609   6.914
 8645SOL     OW26833   6.002   4.257   1.887
 8645SOL    HW126834   5.933   4.330   1.887
 8645SOL    HW226835   6.077   4.282   1.948
 8646SOL     OW26836   0.177   1.930   5.580
 8646SOL    HW126837   0.222   1.902   5.665
 8646SOL    HW226838   0.100   1.870   5.562
 8647SOL     OW26839   2.330   4.655   1.613
 8647SOL    HW126840   2.400   4.726   1.624
 8647SOL    HW226841   2.299   4.653   1.518
 8648SOL     OW26842   6.074   5.404   1.020
 8648SOL    HW126843   6.126   5.375   1.100
 8648SOL    HW226844   6.109   5.492   0.988
 8649SOL     OW26845   4.182   6.707   0.596
 8649SOL    HW126846   4.187   6.736   0.692
 8649SOL    HW226847   4.117   6.764   0.547
 8650SOL     OW26848   2.132   6.954   4.260
 8650SOL    HW126849   2.047   6.920   4.219
 8650SOL    HW226850   2.194   6.985   4.188
 8651SOL     OW26851   3.008   1.352   1.115
 8651SOL    HW126852   2.974   1.385   1.027
 8651SOL    HW226853   2.938   1.294   1.157
 8652SOL     OW26854   1.748   4.047   4.141
 8652SOL    HW126855   1.804   4.127   4.119
 8652SOL    HW226856   1.804   3.964   4.132
 8653SOL     OW26857   0.020   1.504   5.998
 8653SOL    HW126858   6.981   1.447   6.046
 8653SOL    HW226859   7.013   1.598   5.992
 8654SOL     OW26860   1.194   4.988   1.760
 8654SOL    HW126861   1.208   4.966   1.663
 8654SOL    HW226862   1.100   4.968   1.786
 8655SOL     OW26863   0.115   1.187   5.120
 8655SOL    HW126864   0.027   1.143   5.104
 8655SOL    HW226865   0.147   1.164   5.212
 8656SOL     OW26866   5.053   0.187   1.309
 8656SOL    HW126867   5.021   0.133   1.387
 8656SOL    HW226868   5.121   0.253   1.340
 8657SOL     OW26869   5.356   0.791   2.493
 8657SOL    HW126870   5.283   0.793   2.425
 8657SOL    HW226871   5.421   0.718   2.472
 8658SOL     OW26872   6.526   5.283   0.776
 8658SOL    HW126873   6.509   5.185   0.767
 8658SOL    HW226874   6.607   5.307   0.722
 8659SOL     OW26875   5.053   1.717   1.943
 8659SOL    HW126876   4.974   1.682   1.892
 8659SOL    HW226877   5.033   1.715   2.041
 8660SOL     OW26878   0.725   3.023   1.232
 8660SOL    HW126879   0.660   2.951   1.208
 8660SOL    HW226880   0.683   3.112   1.217
 8661SOL     OW26881   6.126   3.546   2.933
 8661SOL    HW126882   6.151   3.468   2.875
 8661SOL    HW226883   6.062   3.516   3.004
 8662SOL     OW26884   3.100   5.601   2.871
 8662SOL    HW126885   3.068   5.532   2.806
 8662SOL    HW226886   3.179   5.565   2.921
 8663SOL     OW26887   3.730   5.626   3.189
 8663SOL    HW126888   3.691   5.538   3.162
 8663SOL    HW226889   3.823   5.612   3.223
 8664SOL     OW26890   2.658   5.656   3.198
 8664SOL    HW126891   2.718   5.594   3.147
 8664SOL    HW226892   2.693   5.749   3.192
 8665SOL     OW26893   6.001   3.808   6.059
 8665SOL    HW126894   5.989   3.900   6.021
 8665SOL    HW226895   6.098   3.791   6.076
 8666SOL     OW26896   5.173   6.990   3.472
 8666SOL    HW126897   5.088   6.956   3.513
 8666SOL    HW226898   5.238   7.011   3.545
 8667SOL     OW26899   4.870   1.824   4.192
 8667SOL    HW126900   4.963   1.818   4.227
 8667SOL    HW226901   4.811   1.867   4.261
 8668SOL     OW26902   5.067   2.957   5.030
 8668SOL    HW126903   5.055   2.936   5.127
 8668SOL    HW226904   5.044   2.876   4.975
 8669SOL     OW26905   5.973   6.458   6.305
 8669SOL    HW126906   6.003   6.467   6.210
 8669SOL    HW226907   5.881   6.494   6.315
 8670SOL     OW26908   6.242   4.434   5.964
 8670SOL    HW126909   6.292   4.489   5.896
 8670SOL    HW226910   6.149   4.469   5.972
 8671SOL     OW26911   0.207   2.099   2.532
 8671SOL    HW126912   0.168   2.104   2.440
 8671SOL    HW226913   0.244   2.188   2.558
 8672SOL     OW26914   6.774   0.889   3.559
 8672SOL    HW126915   6.817   0.803   3.533
 8672SOL    HW226916   6.824   0.930   3.636
 8673SOL     OW26917   1.211   2.119   0.773
 8673SOL    HW126918   1.146   2.159   0.708
 8673SOL    HW226919   1.288   2.080   0.723
 8674SOL     OW26920   0.257   4.868   3.032
 8674SOL    HW126921   0.326   4.909   3.092
 8674SOL    HW226922   0.294   4.863   2.939
 8675SOL     OW26923   4.009   1.945   5.793
 8675SOL    HW126924   3.963   1.923   5.707
 8675SOL    HW226925   3.964   1.897   5.868
 8676SOL     OW26926   5.787   0.733   0.967
 8676SOL    HW126927   5.868   0.781   0.933
 8676SOL    HW226928   5.750   0.674   0.896
 8677SOL     OW26929   1.286   6.761   5.493
 8677SOL    HW126930   1.250   6.730   5.581
 8677SOL    HW226931   1.318   6.682   5.440
 8678SOL     OW26932   1.673   0.871   1.181
 8678SOL    HW126933   1.710   0.795   1.127
 8678SOL    HW226934   1.584   0.898   1.143
 8679SOL     OW26935   2.197   1.298   4.311
 8679SOL    HW126936   2.206   1.208   4.353
 8679SOL    HW226937   2.101   1.313   4.285
 8680SOL     OW26938   6.618   2.280   6.323
 8680SOL    HW126939   6.668   2.366   6.322
 8680SOL    HW226940   6.521   2.297   6.341
 8681SOL     OW26941   5.877   5.726   0.953
 8681SOL    HW126942   5.847   5.736   1.048
 8681SOL    HW226943   5.907   5.815   0.918
 8682SOL     OW26944   0.416   0.342   0.943
 8682SOL    HW126945   0.400   0.440   0.927
 8682SOL    HW226946   0.508   0.318   0.912
 8683SOL     OW26947   2.093   4.283   4.700
 8683SOL    HW126948   2.161   4.334   4.754
 8683SOL    HW226949   2.103   4.186   4.718
 8684SOL     OW26950   0.667   4.006   4.598
 8684SOL    HW126951   0.643   4.057   4.516
 8684SOL    HW226952   0.632   4.055   4.678
 8685SOL     OW26953   4.955   2.433   5.580
 8685SOL    HW126954   4.858   2.456   5.571
 8685SOL    HW226955   4.964   2.347   5.630
 8686SOL     OW26956   6.603   6.166   2.631
 8686SOL    HW126957   6.634   6.090   2.574
 8686SOL    HW226958   6.653   6.249   2.606
 8687SOL     OW26959   5.908   3.423   3.081
 8687SOL    HW126960   5.900   3.409   3.180
 8687SOL    HW226961   5.872   3.343   3.033
 8688SOL     OW26962   1.338   4.265   6.300
 8688SOL    HW126963   1.295   4.177   6.281
 8688SOL    HW226964   1.295   4.307   6.380
 8689SOL     OW26965   4.475   3.482   0.492
 8689SOL    HW126966   4.426   3.415   0.547
 8689SOL    HW226967   4.526   3.544   0.552
 8690SOL     OW26968   2.040   2.127   3.467
 8690SOL    HW126969   1.998   2.049   3.514
 8690SOL    HW226970   1.990   2.148   3.384
 8691SOL     OW26971   2.711   2.348   4.902
 8691SOL    HW126972   2.703   2.331   4.804
 8691SOL    HW226973   2.621   2.342   4.945
 8692SOL     OW26974   4.660   2.194   5.856
 8692SOL    HW126975   4.583   2.226   5.910
 8692SOL    HW226976   4.627   2.158   5.768
 8693SOL     OW26977   6.034   0.804   6.147
 8693SOL    HW126978   5.936   0.820   6.159
 8693SOL    HW226979   6.049   0.708   6.126
 8694SOL     OW26980   5.580   2.947   3.930
 8694SOL    HW126981   5.635   3.007   3.873
 8694SOL    HW226982   5.483   2.968   3.917
 8695SOL     OW26983   4.200   3.868   6.211
 8695SOL    HW126984   4.232   3.778   6.184
 8695SOL    HW226985   4.278   3.931   6.216
 8696SOL     OW26986   2.989   5.604   5.983
 8696SOL    HW126987   3.025   5.606   6.076
 8696SOL    HW226988   2.966   5.697   5.954
 8697SOL     OW26989   1.833   4.206   5.719
 8697SOL    HW126990   1.848   4.164   5.629
 8697SOL    HW226991   1.756   4.269   5.714
 8698SOL     OW26992   5.224   5.905   5.230
 8698SOL    HW126993   5.139   5.884   5.181
 8698SOL    HW226994   5.298   5.920   5.165
 8699SOL     OW26995   1.914   3.194   0.176
 8699SOL    HW126996   1.944   3.184   0.271
 8699SOL    HW226997   1.815   3.200   0.172
 8700SOL     OW26998   0.766   0.157   4.977
 8700SOL    HW126999   0.797   0.102   5.054
 8700SOL    HW227000   0.844   0.206   4.938
 8701SOL     OW27001   1.193   1.953   6.493
 8701SOL    HW127002   1.099   1.959   6.526
 8701SOL    HW227003   1.201   2.005   6.407
 8702SOL     OW27004   5.829   4.014   1.806
 8702SOL    HW127005   5.903   4.073   1.839
 8702SOL    HW227006   5.767   4.066   1.748
 8703SOL     OW27007   2.716   4.758   1.191
 8703SOL    HW127008   2.659   4.739   1.271
 8703SOL    HW227009   2.789   4.821   1.216
 8704SOL     OW27010   1.101   1.859   3.881
 8704SOL    HW127011   1.149   1.774   3.859
 8704SOL    HW227012   1.140   1.935   3.829
 8705SOL     OW27013   4.166   2.696   0.214
 8705SOL    HW127014   4.182   2.706   0.312
 8705SOL    HW227015   4.213   2.769   0.164
 8706SOL     OW27016   4.610   3.013   6.227
 8706SOL    HW127017   4.572   2.930   6.268
 8706SOL    HW227018   4.615   3.085   6.296
 8707SOL     OW27019   1.493   2.194   4.180
 8707SOL    HW127020   1.571   2.234   4.131
 8707SOL    HW227021   1.484   2.238   4.269
 8708SOL     OW27022   6.102   2.400   2.302
 8708SOL    HW127023   6.173   2.387   2.371
 8708SOL    HW227024   6.023   2.446   2.345
 8709SOL     OW27025   6.824   0.086   5.565
 8709SOL    HW127026   6.859   0.066   5.656
 8709SOL    HW227027   6.869   0.027   5.498
 8710SOL     OW27028   2.193   1.093   3.825
 8710SOL    HW127029   2.152   1.072   3.913
 8710SOL    HW227030   2.282   1.137   3.838
 8711SOL     OW27031   1.242   0.500   1.710
 8711SOL    HW127032   1.257   0.419   1.767
 8711SOL    HW227033   1.222   0.472   1.616
 8712SOL     OW27034   1.708   2.685   5.533
 8712SOL    HW127035   1.753   2.711   5.448
 8712SOL    HW227036   1.613   2.717   5.532
 8713SOL     OW27037   0.938   4.902   1.822
 8713SOL    HW127038   0.883   4.889   1.905
 8713SOL    HW227039   0.952   4.814   1.777
 8714SOL     OW27040   6.373   6.398   6.703
 8714SOL    HW127041   6.372   6.417   6.802
 8714SOL    HW227042   6.307   6.457   6.657
 8715SOL     OW27043   2.740   2.316   0.488
 8715SOL    HW127044   2.793   2.258   0.549
 8715SOL    HW227045   2.758   2.412   0.509
 8716SOL     OW27046   6.739   6.842   1.282
 8716SOL    HW127047   6.784   6.782   1.216
 8716SOL    HW227048   6.803   6.912   1.313
 8717SOL     OW27049   2.419   4.719   0.378
 8717SOL    HW127050   2.335   4.664   0.379
 8717SOL    HW227051   2.491   4.669   0.331
 8718SOL     OW27052   2.371   4.641   6.251
 8718SOL    HW127053   2.280   4.604   6.232
 8718SOL    HW227054   2.383   4.651   6.350
 8719SOL     OW27055   3.679   0.999   5.867
 8719SOL    HW127056   3.694   1.097   5.854
 8719SOL    HW227057   3.597   0.971   5.818
 8720SOL     OW27058   6.971   4.168   5.080
 8720SOL    HW127059   6.956   4.219   4.995
 8720SOL    HW227060   0.016   4.212   5.133
 8721SOL     OW27061   6.980   6.875   6.400
 8721SOL    HW127062   0.023   6.878   6.329
 8721SOL    HW227063   6.894   6.912   6.364
 8722SOL     OW27064   3.886   1.331   1.768
 8722SOL    HW127065   3.929   1.307   1.855
 8722SOL    HW227066   3.885   1.430   1.758
 8723SOL     OW27067   5.152   6.965   2.196
 8723SOL    HW127068   5.068   7.004   2.159
 8723SOL    HW227069   5.151   6.970   2.296
 8724SOL     OW27070   3.936   0.353   4.648
 8724SOL    HW127071   4.025   0.398   4.652
 8724SOL    HW227072   3.944   0.259   4.682
 8725SOL     OW27073   0.532   6.439   4.360
 8725SOL    HW127074   0.592   6.464   4.435
 8725SOL    HW227075   0.549   6.345   4.332
 8726SOL     OW27076   1.075   1.059   0.726
 8726SOL    HW127077   1.166   1.018   0.713
 8726SOL    HW227078   1.023   1.051   0.641
 8727SOL     OW27079   4.983   5.602   5.968
 8727SOL    HW127080   4.923   5.660   5.912
 8727SOL    HW227081   5.077   5.634   5.959
 8728SOL     OW27082   6.353   0.401   3.191
 8728SOL    HW127083   6.336   0.457   3.110
 8728SOL    HW227084   6.340   0.304   3.168
 8729SOL     OW27085   3.894   5.419   6.361
 8729SOL    HW127086   3.953   5.447   6.286
 8729SOL    HW227087   3.799   5.417   6.329
 8730SOL     OW27088   5.009   4.837   2.124
 8730SOL    HW127089   4.922   4.791   2.142
 8730SOL    HW227090   4.993   4.936   2.119
 8731SOL     OW27091   0.313   1.888   3.173
 8731SOL    HW127092   0.249   1.873   3.249
 8731SOL    HW227093   0.400   1.843   3.194
 8732SOL     OW27094   5.347   5.666   0.900
 8732SOL    HW127095   5.297   5.745   0.934
 8732SOL    HW227096   5.412   5.695   0.829
 8733SOL     OW27097   0.205   4.785   2.372
 8733SOL    HW127098   0.170   4.765   2.280
 8733SOL    HW227099   0.258   4.708   2.405
 8734SOL     OW27100   6.867   3.551   2.185
 8734SOL    HW127101   6.840   3.519   2.276
 8734SOL    HW227102   6.966   3.540   2.173
 8735SOL     OW27103   2.019   3.936   5.696
 8735SOL    HW127104   2.011   3.997   5.775
 8735SOL    HW227105   1.942   3.951   5.634
 8736SOL     OW27106   0.773   5.548   2.425
 8736SOL    HW127107   0.856   5.522   2.474
 8736SOL    HW227108   0.750   5.642   2.447
 8737SOL     OW27109   1.357   5.234   6.576
 8737SOL    HW127110   1.326   5.229   6.482
 8737SOL    HW227111   1.324   5.319   6.618
 8738SOL     OW27112   1.317   3.728   3.492
 8738SOL    HW127113   1.373   3.655   3.530
 8738SOL    HW227114   1.340   3.739   3.395
 8739SOL     OW27115   5.263   4.167   5.369
 8739SOL    HW127116   5.306   4.087   5.326
 8739SOL    HW227117   5.166   4.171   5.343
 8740SOL     OW27118   3.447   1.577   4.053
 8740SOL    HW127119   3.545   1.599   4.056
 8740SOL    HW227120   3.396   1.646   4.104
 8741SOL     OW27121   0.990   0.228   2.146
 8741SOL    HW127122   0.891   0.238   2.156
 8741SOL    HW227123   1.011   0.132   2.125
 8742SOL     OW27124   2.985   1.343   2.772
 8742SOL    HW127125   2.926   1.264   2.788
 8742SOL    HW227126   2.951   1.395   2.694
 8743SOL     OW27127   1.696   0.675   1.736
 8743SOL    HW127128   1.639   0.611   1.787
 8743SOL    HW227129   1.638   0.736   1.682
 8744SOL     OW27130   3.640   4.138   6.580
 8744SOL    HW127131   3.641   4.038   6.589
 8744SOL    HW227132   3.706   4.166   6.511
 8745SOL     OW27133   6.728   1.300   6.219
 8745SOL    HW127134   6.695   1.392   6.194
 8745SOL    HW227135   6.673   1.265   6.295
 8746SOL     OW27136   5.149   4.921   4.561
 8746SOL    HW127137   5.147   4.923   4.461
 8746SOL    HW227138   5.079   4.857   4.594
 8747SOL     OW27139   6.673   0.604   1.896
 8747SOL    HW127140   6.738   0.614   1.971
 8747SOL    HW227141   6.580   0.618   1.929
 8748SOL     OW27142   0.863   1.931   3.717
 8748SOL    HW127143   0.914   1.855   3.755
 8748SOL    HW227144   0.913   2.016   3.732
 8749SOL     OW27145   2.650   1.438   5.440
 8749SOL    HW127146   2.720   1.415   5.507
 8749SOL    HW227147   2.662   1.532   5.410
 8750SOL     OW27148   4.450   2.619   6.156
 8750SOL    HW127149   4.425   2.529   6.192
 8750SOL    HW227150   4.526   2.655   6.209
 8751SOL     OW27151   0.376   6.236   2.076
 8751SOL    HW127152   0.362   6.164   2.145
 8751SOL    HW227153   0.302   6.302   2.082
 8752SOL     OW27154   4.787   3.270   6.849
 8752SOL    HW127155   4.853   3.319   6.905
 8752SOL    HW227156   4.738   3.203   6.906
 8753SOL     OW27157   1.655   3.236   0.089
 8753SOL    HW127158   1.644   3.326   0.133
 8753SOL    HW227159   1.565   3.200   0.064
 8754SOL     OW27160   3.005   5.394   6.732
 8754SOL    HW127161   2.947   5.464   6.773
 8754SOL    HW227162   3.076   5.366   6.797
 8755SOL     OW27163   0.035   1.770   2.482
 8755SOL    HW127164   0.129   1.746   2.506
 8755SOL    HW227165   0.013   1.732   2.392
 8756SOL     OW27166   2.070   2.647   3.933
 8756SOL    HW127167   2.067   2.687   3.841
 8756SOL    HW227168   2.164   2.652   3.968
 8757SOL     OW27169   4.786   6.374   5.453
 8757SOL    HW127170   4.807   6.276   5.449
 8757SOL    HW227171   4.689   6.388   5.433
 8758SOL     OW27172   3.831   6.898   4.118
 8758SOL    HW127173   3.824   6.974   4.182
 8758SOL    HW227174   3.924   6.895   4.080
 8759SOL     OW27175   6.170   0.893   0.424
 8759SOL    HW127176   6.130   0.984   0.438
 8759SOL    HW227177   6.115   0.825   0.471
 8760SOL     OW27178   1.991   2.332   4.492
 8760SOL    HW127179   1.904   2.343   4.445
 8760SOL    HW227180   2.000   2.402   4.563
 8761SOL     OW27181   4.588   0.862   2.142
 8761SOL    HW127182   4.591   0.904   2.232
 8761SOL    HW227183   4.651   0.911   2.081
 8762SOL     OW27184   1.219   4.867   3.291
 8762SOL    HW127185   1.258   4.958   3.284
 8762SOL    HW227186   1.132   4.871   3.340
 8763SOL     OW27187   0.410   1.211   5.769
 8763SOL    HW127188   0.361   1.280   5.822
 8763SOL    HW227189   0.433   1.248   5.679
 8764SOL     OW27190   3.750   4.920   5.609
 8764SOL    HW127191   3.757   4.882   5.517
 8764SOL    HW227192   3.802   4.863   5.673
 8765SOL     OW27193   5.114   6.744   4.785
 8765SOL    HW127194   5.185   6.814   4.779
 8765SOL    HW227195   5.024   6.787   4.785
 8766SOL     OW27196   4.916   4.685   5.809
 8766SOL    HW127197   4.895   4.652   5.901
 8766SOL    HW227198   4.931   4.606   5.749
 8767SOL     OW27199   3.006   0.649   3.555
 8767SOL    HW127200   3.067   0.676   3.480
 8767SOL    HW227201   2.980   0.554   3.543
 8768SOL     OW27202   6.704   2.847   0.555
 8768SOL    HW127203   6.768   2.908   0.508
 8768SOL    HW227204   6.754   2.778   0.607
 8769SOL     OW27205   6.953   1.199   0.782
 8769SOL    HW127206   0.005   1.152   0.820
 8769SOL    HW227207   6.934   1.165   0.690
 8770SOL     OW27208   4.904   3.464   2.391
 8770SOL    HW127209   4.985   3.432   2.441
 8770SOL    HW227210   4.887   3.402   2.314
 8771SOL     OW27211   0.387   3.262   6.262
 8771SOL    HW127212   0.406   3.354   6.225
 8771SOL    HW227213   0.442   3.248   6.344
 8772SOL     OW27214   5.670   0.152   4.255
 8772SOL    HW127215   5.736   0.133   4.182
 8772SOL    HW227216   5.707   0.120   4.342
 8773SOL     OW27217   0.013   1.715   4.018
 8773SOL    HW127218   0.020   1.654   4.097
 8773SOL    HW227219   0.094   1.704   3.960
 8774SOL     OW27220   1.800   0.166   0.414
 8774SOL    HW127221   1.729   0.109   0.455
 8774SOL    HW227222   1.887   0.151   0.461
 8775SOL     OW27223   5.234   1.994   4.507
 8775SOL    HW127224   5.321   2.016   4.461
 8775SOL    HW227225   5.170   2.070   4.494
 8776SOL     OW27226   4.619   2.914   0.085
 8776SOL    HW127227   4.635   3.007   0.052
 8776SOL    HW227228   4.694   2.887   0.145
 8777SOL     OW27229   1.306   2.031   3.484
 8777SOL    HW127230   1.379   1.967   3.506
 8777SOL    HW227231   1.262   2.061   3.569
 8778SOL     OW27232   4.246   4.352   5.855
 8778SOL    HW127233   4.213   4.295   5.930
 8778SOL    HW227234   4.266   4.444   5.890
 8779SOL     OW27235   3.340   4.948   3.264
 8779SOL    HW127236   3.316   4.861   3.308
 8779SOL    HW227237   3.259   4.986   3.220
 8780SOL     OW27238   6.616   5.431   3.281
 8780SOL    HW127239   6.612   5.527   3.254
 8780SOL    HW227240   6.711   5.402   3.292
 8781SOL     OW27241   3.914   6.254   2.350
 8781SOL    HW127242   3.852   6.311   2.295
 8781SOL    HW227243   3.957   6.186   2.290
 8782SOL     OW27244   4.830   0.607   1.683
 8782SOL    HW127245   4.731   0.599   1.693
 8782SOL    HW227246   4.865   0.675   1.748
 8783SOL     OW27247   4.903   3.375   4.900
 8783SOL    HW127248   4.867   3.459   4.939
 8783SOL    HW227249   4.936   3.392   4.807
 8784SOL     OW27250   5.519   6.459   0.816
 8784SOL    HW127251   5.454   6.385   0.834
 8784SOL    HW227252   5.469   6.543   0.797
 8785SOL     OW27253   0.788   5.457   6.085
 8785SOL    HW127254   0.875   5.489   6.123
 8785SOL    HW227255   0.741   5.399   6.152
 8786SOL     OW27256   4.092   1.898   1.974
 8786SOL    HW127257   4.028   1.840   1.925
 8786SOL    HW227258   4.045   1.978   2.009
 8787SOL     OW27259   3.555   0.301   1.726
 8787SOL    HW127260   3.530   0.249   1.645
 8787SOL    HW227261   3.643   0.346   1.712
 8788SOL     OW27262   0.646   7.007   4.541
 8788SOL    HW127263   0.551   0.003   4.523
 8788SOL    HW227264   0.673   6.930   4.482
 8789SOL     OW27265   0.475   3.355   4.675
 8789SOL    HW127266   0.474   3.451   4.704
 8789SOL    HW227267   0.505   3.349   4.579
 8790SOL     OW27268   5.575   2.878   6.483
 8790SOL    HW127269   5.598   2.974   6.466
 8790SOL    HW227270   5.551   2.866   6.579
 8791SOL     OW27271   4.308   5.678   5.456
 8791SOL    HW127272   4.235   5.729   5.502
 8791SOL    HW227273   4.384   5.666   5.519
 8792SOL     OW27274   4.922   5.355   1.618
 8792SOL    HW127275   4.946   5.292   1.691
 8792SOL    HW227276   4.830   5.391   1.634
 8793SOL     OW27277   0.398   4.677   4.435
 8793SOL    HW127278   0.348   4.686   4.522
 8793SOL    HW227279   0.496   4.687   4.452
 8794SOL     OW27280   0.232   0.306   1.600
 8794SOL    HW127281   0.304   0.341   1.661
 8794SOL    HW227282   0.266   0.227   1.550
 8795SOL     OW27283   1.694   5.655   5.644
 8795SOL    HW127284   1.779   5.683   5.599
 8795SOL    HW227285   1.711   5.634   5.740
 8796SOL     OW27286   7.026   3.581   3.524
 8796SOL    HW127287   6.982   3.528   3.596
 8796SOL    HW227288   0.069   3.526   3.480
 8797SOL     OW27289   5.954   6.918   4.042
 8797SOL    HW127290   6.027   6.911   3.974
 8797SOL    HW227291   5.873   6.957   3.999
 8798SOL     OW27292   4.429   6.300   5.740
 8798SOL    HW127293   4.406   6.372   5.675
 8798SOL    HW227294   4.516   6.320   5.784
 8799SOL     OW27295   2.201   5.231   2.205
 8799SOL    HW127296   2.165   5.219   2.113
 8799SOL    HW227297   2.239   5.145   2.239
 8800SOL     OW27298   7.000   5.806   5.322
 8800SOL    HW127299   7.012   5.905   5.328
 8800SOL    HW227300   6.976   5.770   5.412
 8801SOL     OW27301   6.108   2.346   5.223
 8801SOL    HW127302   6.206   2.334   5.241
 8801SOL    HW227303   6.057   2.340   5.309
 8802SOL     OW27304   1.587   6.286   5.457
 8802SOL    HW127305   1.495   6.263   5.425
 8802SOL    HW227306   1.585   6.299   5.556
 8803SOL     OW27307   6.294   0.383   6.133
 8803SOL    HW127308   6.304   0.443   6.213
 8803SOL    HW227309   6.241   0.302   6.159
 8804SOL     OW27310   1.571   5.842   1.899
 8804SOL    HW127311   1.549   5.769   1.964
 8804SOL    HW227312   1.567   5.806   1.806
 8805SOL     OW27313   4.779   5.392   2.374
 8805SOL    HW127314   4.803   5.425   2.465
 8805SOL    HW227315   4.856   5.342   2.334
 8806SOL     OW27316   2.102   6.678   0.260
 8806SOL    HW127317   2.172   6.735   0.302
 8806SOL    HW227318   2.048   6.632   0.331
 8807SOL     OW27319   4.995   2.638   1.130
 8807SOL    HW127320   4.975   2.678   1.220
 8807SOL    HW227321   5.074   2.683   1.090
 8808SOL     OW27322   2.218   2.189   0.734
 8808SOL    HW127323   2.159   2.179   0.814
 8808SOL    HW227324   2.164   2.176   0.650
 8809SOL     OW27325   1.580   3.886   3.436
 8809SOL    HW127326   1.502   3.899   3.374
 8809SOL    HW227327   1.610   3.791   3.431
 8810SOL     OW27328   0.077   1.489   5.689
 8810SOL    HW127329   0.163   1.492   5.740
 8810SOL    HW227330   0.018   1.565   5.718
 8811SOL     OW27331   4.252   5.926   2.158
 8811SOL    HW127332   4.322   5.931   2.087
 8811SOL    HW227333   4.287   5.872   2.235
 8812SOL     OW27334   3.688   1.165   6.611
 8812SOL    HW127335   3.606   1.133   6.658
 8812SOL    HW227336   3.693   1.122   6.520
 8813SOL     OW27337   2.569   4.561   3.289
 8813SOL    HW127338   2.483   4.511   3.303
 8813SOL    HW227339   2.609   4.584   3.377
 8814SOL     OW27340   5.660   6.883   6.976
 8814SOL    HW127341   5.627   6.851   6.887
 8814SOL    HW227342   5.585   6.879   0.015
 8815SOL     OW27343   5.114   1.334   0.288
 8815SOL    HW127344   5.145   1.246   0.324
 8815SOL    HW227345   5.179   1.367   0.220
 8816SOL     OW27346   0.592   6.319   5.487
 8816SOL    HW127347   0.531   6.300   5.564
 8816SOL    HW227348   0.687   6.312   5.518
 8817SOL     OW27349   1.596   3.413   4.307
 8817SOL    HW127350   1.626   3.320   4.288
 8817SOL    HW227351   1.673   3.476   4.298
 8818SOL     OW27352   2.308   0.030   4.066
 8818SOL    HW127353   2.396   7.012   4.058
 8818SOL    HW227354   2.273   0.051   3.974
 8819SOL     OW27355   5.413   4.315   6.258
 8819SOL    HW127356   5.359   4.397   6.277
 8819SOL    HW227357   5.453   4.282   6.344
 8820SOL     OW27358   3.358   0.942   4.404
 8820SOL    HW127359   3.298   0.966   4.328
 8820SOL    HW227360   3.383   0.846   4.398
 8821SOL     OW27361   0.820   4.419   0.356
 8821SOL    HW127362   0.850   4.514   0.350
 8821SOL    HW227363   0.727   4.416   0.392
 8822SOL     OW27364   6.841   6.849   3.720
 8822SOL    HW127365   6.767   6.915   3.729
 8822SOL    HW227366   6.910   6.866   3.790
 8823SOL     OW27367   3.510   1.050   3.057
 8823SOL    HW127368   3.505   1.024   3.153
 8823SOL    HW227369   3.575   0.991   3.010
 8824SOL     OW27370   2.289   1.182   1.647
 8824SOL    HW127371   2.308   1.098   1.595
 8824SOL    HW227372   2.264   1.255   1.583
 8825SOL     OW27373   0.114   0.043   6.900
 8825SOL    HW127374   0.102   6.975   6.929
 8825SOL    HW227375   0.037   0.097   6.933
 8826SOL     OW27376   1.054   3.266   0.964
 8826SOL    HW127377   1.023   3.185   1.014
 8826SOL    HW227378   1.057   3.245   0.866
 8827SOL     OW27379   4.177   0.154   2.353
 8827SOL    HW127380   4.205   0.247   2.329
 8827SOL    HW227381   4.254   0.091   2.337
 8828SOL     OW27382   4.210   2.986   6.331
 8828SOL    HW127383   4.123   2.960   6.289
 8828SOL    HW227384   4.226   3.084   6.317
 8829SOL     OW27385   0.101   1.742   2.016
 8829SOL    HW127386   0.030   1.739   1.945
 8829SOL    HW227387   0.153   1.657   2.014
 8830SOL     OW27388   3.095   1.867   3.259
 8830SOL    HW127389   3.092   1.797   3.188
 8830SOL    HW227390   3.002   1.889   3.288
 8831SOL     OW27391   0.117   2.066   1.635
 8831SOL    HW127392   0.139   1.979   1.591
 8831SOL    HW227393   0.100   2.051   1.732
 8832SOL     OW27394   6.711   0.237   4.255
 8832SOL    HW127395   6.704   0.286   4.167
 8832SOL    HW227396   6.717   0.139   4.238
 8833SOL     OW27397   3.455   2.467   0.872
 8833SOL    HW127398   3.357   2.448   0.875
 8833SOL    HW227399   3.505   2.381   0.860
 8834SOL     OW27400   5.504   3.799   5.420
 8834SOL    HW127401   5.564   3.731   5.378
 8834SOL    HW227402   5.556   3.858   5.480
 8835SOL     OW27403   6.198   0.824   5.482
 8835SOL    HW127404   6.249   0.759   5.425
 8835SOL    HW227405   6.258   0.860   5.553
 8836SOL     OW27406   4.975   1.810   6.795
 8836SOL    HW127407   4.936   1.844   6.709
 8836SOL    HW227408   5.019   1.886   6.843
 8837SOL     OW27409   5.824   0.038   1.635
 8837SOL    HW127410   5.768   0.060   1.555
 8837SOL    HW227411   5.906   7.017   1.606
 8838SOL     OW27412   0.194   4.155   3.076
 8838SOL    HW127413   0.172   4.058   3.066
 8838SOL    HW227414   0.206   4.177   3.173
 8839SOL     OW27415   5.154   6.259   3.178
 8839SOL    HW127416   5.251   6.280   3.166
 8839SOL    HW227417   5.125   6.289   3.269
 8840SOL     OW27418   0.216   0.926   1.353
 8840SOL    HW127419   0.136   0.939   1.295
 8840SOL    HW227420   0.281   0.865   1.308
 8841SOL     OW27421   3.536   1.689   1.900
 8841SOL    HW127422   3.514   1.737   1.985
 8841SOL    HW227423   3.504   1.595   1.905
 8842SOL     OW27424   3.869   3.048   4.108
 8842SOL    HW127425   3.836   2.989   4.182
 8842SOL    HW227426   3.953   3.094   4.137
 8843SOL     OW27427   2.085   4.118   5.353
 8843SOL    HW127428   1.988   4.095   5.350
 8843SOL    HW227429   2.138   4.040   5.385
 8844SOL     OW27430   5.097   1.533   4.936
 8844SOL    HW127431   5.012   1.529   4.883
 8844SOL    HW227432   5.075   1.547   5.032
 8845SOL     OW27433   1.134   5.471   1.742
 8845SOL    HW127434   1.117   5.531   1.819
 8845SOL    HW227435   1.190   5.393   1.772
 8846SOL     OW27436   5.501   4.943   3.147
 8846SOL    HW127437   5.589   4.898   3.163
 8846SOL    HW227438   5.429   4.891   3.192
 8847SOL     OW27439   2.458   2.134   2.849
 8847SOL    HW127440   2.379   2.193   2.829
 8847SOL    HW227441   2.525   2.186   2.901
 8848SOL     OW27442   3.589   1.653   1.192
 8848SOL    HW127443   3.630   1.724   1.250
 8848SOL    HW227444   3.501   1.686   1.157
 8849SOL     OW27445   3.302   5.736   4.716
 8849SOL    HW127446   3.267   5.657   4.665
 8849SOL    HW227447   3.401   5.744   4.700
 8850SOL     OW27448   3.020   1.915   0.648
 8850SOL    HW127449   3.110   1.953   0.667
 8850SOL    HW227450   3.021   1.868   0.560
 8851SOL     OW27451   0.655   4.981   3.472
 8851SOL    HW127452   0.654   4.893   3.427
 8851SOL    HW227453   0.563   5.020   3.471
 8852SOL     OW27454   5.761   2.652   5.745
 8852SOL    HW127455   5.706   2.589   5.691
 8852SOL    HW227456   5.701   2.723   5.783
 8853SOL     OW27457   4.195   1.024   5.404
 8853SOL    HW127458   4.292   1.011   5.388
 8853SOL    HW227459   4.150   0.934   5.406
 8854SOL     OW27460   1.689   2.054   5.990
 8854SOL    HW127461   1.739   2.128   6.034
 8854SOL    HW227462   1.725   2.039   5.898
 8855SOL     OW27463   6.415   5.894   6.537
 8855SOL    HW127464   6.343   5.958   6.514
 8855SOL    HW227465   6.411   5.872   6.635
 8856SOL     OW27466   5.917   1.056   4.982
 8856SOL    HW127467   5.826   1.057   5.024
 8856SOL    HW227468   5.964   0.972   5.007
 8857SOL     OW27469   6.149   1.955   3.702
 8857SOL    HW127470   6.067   1.945   3.647
 8857SOL    HW227471   6.124   1.974   3.797
 8858SOL     OW27472   0.990   3.820   5.975
 8858SOL    HW127473   0.920   3.874   5.927
 8858SOL    HW227474   1.067   3.804   5.914
 8859SOL     OW27475   1.227   5.969   5.380
 8859SOL    HW127476   1.225   5.878   5.338
 8859SOL    HW227477   1.146   6.021   5.352
 8860SOL     OW27478   1.080   2.071   2.598
 8860SOL    HW127479   1.064   2.169   2.584
 8860SOL    HW227480   1.032   2.041   2.680
 8861SOL     OW27481   4.119   3.479   0.298
 8861SOL    HW127482   4.184   3.554   0.293
 8861SOL    HW227483   4.045   3.494   0.233
 8862SOL     OW27484   5.781   1.438   4.842
 8862SOL    HW127485   5.831   1.416   4.926
 8862SOL    HW227486   5.840   1.421   4.763
 8863SOL     OW27487   1.850   5.836   4.776
 8863SOL    HW127488   1.912   5.816   4.701
 8863SOL    HW227489   1.903   5.864   4.856
 8864SOL     OW27490   1.867   3.232   6.284
 8864SOL    HW127491   1.838   3.272   6.372
 8864SOL    HW227492   1.936   3.292   6.242
 8865SOL     OW27493   2.378   1.923   5.592
 8865SOL    HW127494   2.360   2.002   5.650
 8865SOL    HW227495   2.299   1.904   5.534
 8866SOL     OW27496   3.570   6.568   3.471
 8866SOL    HW127497   3.544   6.549   3.565
 8866SOL    HW227498   3.623   6.653   3.467
 8867SOL     OW27499   5.887   2.176   3.112
 8867SOL    HW127500   5.797   2.139   3.090
 8867SOL    HW227501   5.880   2.275   3.127
 8868SOL     OW27502   4.994   4.222   0.840
 8868SOL    HW127503   4.999   4.163   0.760
 8868SOL    HW227504   4.907   4.208   0.887
 8869SOL     OW27505   4.897   3.771   3.130
 8869SOL    HW127506   4.870   3.827   3.052
 8869SOL    HW227507   4.924   3.680   3.099
 8870SOL     OW27508   4.018   1.549   0.851
 8870SOL    HW127509   3.971   1.618   0.797
 8870SOL    HW227510   4.098   1.590   0.896
 8871SOL     OW27511   2.205   1.823   3.402
 8871SOL    HW127512   2.210   1.905   3.344
 8871SOL    HW227513   2.113   1.784   3.395
 8872SOL     OW27514   1.832   4.077   4.597
 8872SOL    HW127515   1.813   4.053   4.693
 8872SOL    HW227516   1.747   4.104   4.552
 8873SOL     OW27517   0.489   5.435   4.404
 8873SOL    HW127518   0.583   5.413   4.381
 8873SOL    HW227519   0.428   5.366   4.365
 8874SOL     OW27520   2.696   0.807   0.855
 8874SOL    HW127521   2.700   0.735   0.785
 8874SOL    HW227522   2.788   0.822   0.892
 8875SOL     OW27523   1.223   2.986   4.304
 8875SOL    HW127524   1.296   2.987   4.236
 8875SOL    HW227525   1.245   3.049   4.378
 8876SOL     OW27526   0.836   1.184   4.581
 8876SOL    HW127527   0.825   1.214   4.676
 8876SOL    HW227528   0.900   1.107   4.577
 8877SOL     OW27529   3.084   0.837   4.320
 8877SOL    HW127530   3.092   0.923   4.270
 8877SOL    HW227531   3.054   0.765   4.257
 8878SOL     OW27532   7.020   4.036   0.167
 8878SOL    HW127533   7.004   3.938   0.157
 8878SOL    HW227534   0.021   4.074   0.079
 8879SOL     OW27535   5.660   6.441   0.281
 8879SOL    HW127536   5.579   6.406   0.234
 8879SOL    HW227537   5.632   6.492   0.362
 8880SOL     OW27538   6.805   4.445   4.520
 8880SOL    HW127539   6.884   4.387   4.542
 8880SOL    HW227540   6.829   4.508   4.446
 8881SOL     OW27541   0.239   1.314   1.874
 8881SOL    HW127542   0.260   1.400   1.921
 8881SOL    HW227543   0.236   1.239   1.941
 8882SOL     OW27544   5.219   2.245   6.430
 8882SOL    HW127545   5.266   2.185   6.365
 8882SOL    HW227546   5.286   2.287   6.491
 8883SOL     OW27547   5.984   0.689   5.649
 8883SOL    HW127548   6.042   0.743   5.588
 8883SOL    HW227549   6.041   0.625   5.701
 8884SOL     OW27550   5.702   6.934   5.948
 8884SOL    HW127551   5.701   6.956   5.851
 8884SOL    HW227552   5.794   6.952   5.985
 8885SOL     OW27553   5.673   3.604   1.631
 8885SOL    HW127554   5.693   3.696   1.597
 8885SOL    HW227555   5.714   3.592   1.721
 8886SOL     OW27556   2.705   6.571   5.971
 8886SOL    HW127557   2.676   6.584   6.066
 8886SOL    HW227558   2.754   6.653   5.940
 8887SOL     OW27559   2.956   0.987   1.317
 8887SOL    HW127560   2.988   1.071   1.272
 8887SOL    HW227561   2.996   0.982   1.409
 8888SOL     OW27562   2.195   1.410   1.527
 8888SOL    HW127563   2.114   1.467   1.546
 8888SOL    HW227564   2.214   1.410   1.429
 8889SOL     OW27565   4.639   0.045   4.582
 8889SOL    HW127566   4.620   6.988   4.531
 8889SOL    HW227567   4.725   0.035   4.632
 8890SOL     OW27568   0.227   5.534   4.908
 8890SOL    HW127569   0.238   5.447   4.957
 8890SOL    HW227570   0.283   5.533   4.826
 8891SOL     OW27571   5.315   3.076   6.326
 8891SOL    HW127572   5.294   3.040   6.417
 8891SOL    HW227573   5.322   3.000   6.261
 8892SOL     OW27574   1.854   0.670   3.449
 8892SOL    HW127575   1.954   0.676   3.456
 8892SOL    HW227576   1.813   0.708   3.532
 8893SOL     OW27577   0.255   1.466   0.827
 8893SOL    HW127578   0.248   1.432   0.734
 8893SOL    HW227579   0.191   1.542   0.840
 8894SOL     OW27580   4.373   2.369   6.258
 8894SOL    HW127581   4.307   2.417   6.316
 8894SOL    HW227582   4.453   2.343   6.313
 8895SOL     OW27583   0.873   6.596   1.735
 8895SOL    HW127584   0.883   6.498   1.719
 8895SOL    HW227585   0.963   6.640   1.733
 8896SOL     OW27586   1.925   4.149   4.947
 8896SOL    HW127587   1.917   4.080   5.019
 8896SOL    HW227588   2.017   4.145   4.908
 8897SOL     OW27589   1.352   1.472   1.514
 8897SOL    HW127590   1.338   1.571   1.519
 8897SOL    HW227591   1.431   1.447   1.571
 8898SOL     OW27592   5.982   3.449   4.262
 8898SOL    HW127593   5.947   3.536   4.229
 8898SOL    HW227594   6.062   3.422   4.208
 8899SOL     OW27595   1.807   4.556   0.238
 8899SOL    HW127596   1.761   4.545   0.326
 8899SOL    HW227597   1.865   4.637   0.241
 8900SOL     OW27598   4.614   2.287   3.084
 8900SOL    HW127599   4.568   2.209   3.041
 8900SOL    HW227600   4.560   2.370   3.070
 8901SOL     OW27601   1.319   0.462   2.606
 8901SOL    HW127602   1.271   0.408   2.537
 8901SOL    HW227603   1.269   0.457   2.693
 8902SOL     OW27604   1.563   5.605   6.109
 8902SOL    HW127605   1.649   5.625   6.156
 8902SOL    HW227606   1.560   5.508   6.086
 8903SOL     OW27607   1.750   1.817   3.850
 8903SOL    HW127608   1.667   1.762   3.859
 8903SOL    HW227609   1.744   1.896   3.911
 8904SOL     OW27610   6.980   5.595   3.945
 8904SOL    HW127611   6.884   5.571   3.929
 8904SOL    HW227612   6.992   5.693   3.935
 8905SOL     OW27613   2.508   3.373   5.583
 8905SOL    HW127614   2.550   3.443   5.640
 8905SOL    HW227615   2.505   3.286   5.632
 8906SOL     OW27616   6.829   6.091   6.097
 8906SOL    HW127617   6.882   6.063   6.017
 8906SOL    HW227618   6.888   6.089   6.178
 8907SOL     OW27619   3.264   2.694   5.325
 8907SOL    HW127620   3.231   2.602   5.301
 8907SOL    HW227621   3.274   2.700   5.424
 8908SOL     OW27622   1.356   2.010   1.538
 8908SOL    HW127623   1.428   2.076   1.522
 8908SOL    HW227624   1.345   1.995   1.637
 8909SOL     OW27625   2.568   0.929   5.985
 8909SOL    HW127626   2.518   0.845   5.966
 8909SOL    HW227627   2.666   0.910   5.988
 8910SOL     OW27628   2.824   2.887   6.718
 8910SOL    HW127629   2.815   2.911   6.815
 8910SOL    HW227630   2.904   2.933   6.679
 8911SOL     OW27631   3.381   2.054   4.654
 8911SOL    HW127632   3.452   2.050   4.583
 8911SOL    HW227633   3.423   2.076   4.742
 8912SOL     OW27634   4.412   1.759   6.191
 8912SOL    HW127635   4.316   1.738   6.208
 8912SOL    HW227636   4.423   1.859   6.185
 8913SOL     OW27637   4.853   4.406   1.571
 8913SOL    HW127638   4.901   4.339   1.628
 8913SOL    HW227639   4.759   4.416   1.604
 8914SOL     OW27640   3.694   1.604   4.975
 8914SOL    HW127641   3.629   1.555   4.916
 8914SOL    HW227642   3.779   1.620   4.925
 8915SOL     OW27643   2.024   3.195   3.233
 8915SOL    HW127644   1.941   3.140   3.222
 8915SOL    HW227645   2.104   3.134   3.233
 8916SOL     OW27646   7.001   4.635   2.977
 8916SOL    HW127647   6.910   4.594   2.981
 8916SOL    HW227648   7.011   4.702   3.050
 8917SOL     OW27649   6.019   6.367   6.989
 8917SOL    HW127650   6.058   6.456   7.012
 8917SOL    HW227651   6.056   6.336   6.901
 8918SOL     OW27652   5.163   5.973   6.334
 8918SOL    HW127653   5.070   5.996   6.365
 8918SOL    HW227654   5.225   5.975   6.412
 8919SOL     OW27655   3.533   4.746   1.171
 8919SOL    HW127656   3.606   4.796   1.124
 8919SOL    HW227657   3.452   4.743   1.113
 8920SOL     OW27658   6.182   5.037   5.798
 8920SOL    HW127659   6.117   5.104   5.834
 8920SOL    HW227660   6.274   5.076   5.798
 8921SOL     OW27661   1.135   0.702   3.871
 8921SOL    HW127662   1.132   0.764   3.793
 8921SOL    HW227663   1.090   0.744   3.950
 8922SOL     OW27664   1.665   4.761   1.085
 8922SOL    HW127665   1.693   4.848   1.046
 8922SOL    HW227666   1.587   4.725   1.033
 8923SOL     OW27667   1.890   4.071   6.528
 8923SOL    HW127668   1.827   4.118   6.590
 8923SOL    HW227669   1.979   4.063   6.572
 8924SOL     OW27670   3.295   5.034   4.992
 8924SOL    HW127671   3.208   5.031   4.943
 8924SOL    HW227672   3.331   5.127   4.991
 8925SOL     OW27673   6.691   6.942   1.929
 8925SOL    HW127674   6.765   6.906   1.985
 8925SOL    HW227675   6.670   0.008   1.959
 8926SOL     OW27676   5.493   2.154   1.984
 8926SOL    HW127677   5.575   2.122   2.033
 8926SOL    HW227678   5.481   2.101   1.901
 8927SOL     OW27679   2.230   2.779   5.051
 8927SOL    HW127680   2.193   2.747   4.964
 8927SOL    HW227681   2.287   2.859   5.036
 8928SOL     OW27682   0.676   0.434   5.882
 8928SOL    HW127683   0.607   0.366   5.858
 8928SOL    HW227684   0.632   0.511   5.929
 8929SOL     OW27685   6.940   3.615   4.147
 8929SOL    HW127686   6.861   3.651   4.196
 8929SOL    HW227687   6.930   3.517   4.134
 8930SOL     OW27688   1.338   5.111   4.785
 8930SOL    HW127689   1.271   5.155   4.846
 8930SOL    HW227690   1.306   5.117   4.691
 8931SOL     OW27691   4.902   1.555   1.134
 8931SOL    HW127692   4.979   1.492   1.136
 8931SOL    HW227693   4.821   1.510   1.169
 8932SOL     OW27694   5.822   0.540   6.441
 8932SOL    HW127695   5.837   0.582   6.352
 8932SOL    HW227696   5.883   0.462   6.452
 8933SOL     OW27697   1.799   0.752   4.583
 8933SOL    HW127698   1.724   0.686   4.571
 8933SOL    HW227699   1.857   0.752   4.501
 8934SOL     OW27700   3.430   5.966   2.821
 8934SOL    HW127701   3.458   5.987   2.727
 8934SOL    HW227702   3.427   5.867   2.833
 8935SOL     OW27703   4.268   2.269   2.676
 8935SOL    HW127704   4.292   2.267   2.579
 8935SOL    HW227705   4.212   2.190   2.699
 8936SOL     OW27706   0.773   4.994   1.302
 8936SOL    HW127707   0.792   5.092   1.297
 8936SOL    HW227708   0.770   4.966   1.398
 8937SOL     OW27709   7.001   6.530   3.909
 8937SOL    HW127710   6.982   6.620   3.947
 8937SOL    HW227711   6.951   6.518   3.824
 8938SOL     OW27712   6.446   0.936   0.594
 8938SOL    HW127713   6.506   0.977   0.661
 8938SOL    HW227714   6.352   0.935   0.629
 8939SOL     OW27715   6.930   2.425   4.147
 8939SOL    HW127716   6.947   2.521   4.122
 8939SOL    HW227717   6.984   2.402   4.228
 8940SOL     OW27718   6.873   3.125   1.037
 8940SOL    HW127719   6.777   3.097   1.033
 8940SOL    HW227720   6.930   3.044   1.044
 8941SOL     OW27721   5.313   2.286   2.157
 8941SOL    HW127722   5.385   2.247   2.099
 8941SOL    HW227723   5.333   2.382   2.175
 8942SOL     OW27724   6.510   4.326   3.528
 8942SOL    HW127725   6.531   4.255   3.595
 8942SOL    HW227726   6.489   4.411   3.576
 8943SOL     OW27727   4.586   3.933   0.066
 8943SOL    HW127728   4.651   3.941   7.018
 8943SOL    HW227729   4.606   3.850   0.118
 8944SOL     OW27730   4.890   4.979   4.251
 8944SOL    HW127731   4.986   4.955   4.265
 8944SOL    HW227732   4.834   4.939   4.324
 8945SOL     OW27733   6.441   4.183   5.232
 8945SOL    HW127734   6.432   4.112   5.161
 8945SOL    HW227735   6.371   4.170   5.301
 8946SOL     OW27736   5.249   1.288   4.162
 8946SOL    HW127737   5.190   1.368   4.147
 8946SOL    HW227738   5.200   1.206   4.133
 8947SOL     OW27739   1.443   5.134   6.045
 8947SOL    HW127740   1.462   5.072   6.122
 8947SOL    HW227741   1.403   5.082   5.970
 8948SOL     OW27742   6.793   0.365   3.365
 8948SOL    HW127743   6.842   0.278   3.362
 8948SOL    HW227744   6.694   0.347   3.357
 8949SOL     OW27745   2.936   6.251   0.091
 8949SOL    HW127746   2.942   6.173   0.153
 8949SOL    HW227747   3.026   6.270   0.053
 8950SOL     OW27748   5.025   4.422   1.332
 8950SOL    HW127749   5.108   4.382   1.370
 8950SOL    HW227750   4.967   4.456   1.406
 8951SOL     OW27751   1.936   1.501   4.330
 8951SOL    HW127752   1.961   1.580   4.386
 8951SOL    HW227753   1.838   1.484   4.339
 8952SOL     OW27754   1.817   4.890   3.743
 8952SOL    HW127755   1.777   4.812   3.790
 8952SOL    HW227756   1.785   4.975   3.785
 8953SOL     OW27757   2.327   5.001   2.284
 8953SOL    HW127758   2.361   5.033   2.372
 8953SOL    HW227759   2.252   4.937   2.298
 8954SOL     OW27760   1.314   5.208   5.075
 8954SOL    HW127761   1.371   5.130   5.049
 8954SOL    HW227762   1.276   5.193   5.166
 8955SOL     OW27763   4.946   2.515   3.586
 8955SOL    HW127764   5.031   2.534   3.536
 8955SOL    HW227765   4.965   2.454   3.662
 8956SOL     OW27766   1.262   6.031   5.925
 8956SOL    HW127767   1.255   6.011   5.827
 8956SOL    HW227768   1.251   5.946   5.977
 8957SOL     OW27769   1.066   5.439   2.067
 8957SOL    HW127770   0.999   5.491   2.014
 8957SOL    HW227771   1.031   5.347   2.085
 8958SOL     OW27772   1.654   3.907   5.264
 8958SOL    HW127773   1.688   3.840   5.198
 8958SOL    HW227774   1.658   3.869   5.356
 8959SOL     OW27775   0.399   3.066   2.574
 8959SOL    HW127776   0.317   3.104   2.533
 8959SOL    HW227777   0.480   3.103   2.528
 8960SOL     OW27778   5.792   4.228   4.487
 8960SOL    HW127779   5.759   4.322   4.478
 8960SOL    HW227780   5.737   4.167   4.430
 8961SOL     OW27781   3.434   0.048   4.895
 8961SOL    HW127782   3.352   7.027   4.925
 8961SOL    HW227783   3.411   0.108   4.818
 8962SOL     OW27784   0.833   5.620   1.362
 8962SOL    HW127785   0.762   5.555   1.332
 8962SOL    HW227786   0.812   5.711   1.326
 8963SOL     OW27787   3.412   5.975   4.366
 8963SOL    HW127788   3.492   6.026   4.335
 8963SOL    HW227789   3.331   6.008   4.318
 8964SOL     OW27790   6.977   3.204   4.311
 8964SOL    HW127791   0.006   3.281   4.343
 8964SOL    HW227792   6.979   3.131   4.379
 8965SOL     OW27793   4.478   5.063   0.231
 8965SOL    HW127794   4.568   5.074   0.189
 8965SOL    HW227795   4.411   5.119   0.182
 8966SOL     OW27796   4.980   5.330   5.978
 8966SOL    HW127797   4.986   5.430   5.975
 8966SOL    HW227798   4.968   5.300   6.073
 8967SOL     OW27799   3.691   0.074   3.020
 8967SOL    HW127800   3.632   0.003   3.058
 8967SOL    HW227801   3.755   0.105   3.090
 8968SOL     OW27802   3.442   4.957   2.092
 8968SOL    HW127803   3.359   4.932   2.043
 8968SOL    HW227804   3.514   4.891   2.072
 8969SOL     OW27805   6.911   0.896   3.131
 8969SOL    HW127806   6.868   0.951   3.060
 8969SOL    HW227807   6.909   0.946   3.218
 8970SOL     OW27808   1.897   1.104   6.043
 8970SOL    HW127809   1.863   1.192   6.077
 8970SOL    HW227810   1.970   1.072   6.105
 8971SOL     OW27811   4.358   5.649   0.512
 8971SOL    HW127812   4.446   5.606   0.492
 8971SOL    HW227813   4.372   5.728   0.572
 8972SOL     OW27814   6.214   4.183   0.721
 8972SOL    HW127815   6.264   4.186   0.807
 8972SOL    HW227816   6.168   4.271   0.706
 8973SOL     OW27817   0.419   2.364   2.233
 8973SOL    HW127818   0.372   2.339   2.148
 8973SOL    HW227819   0.398   2.459   2.256
 8974SOL     OW27820   2.283   4.087   4.505
 8974SOL    HW127821   2.195   4.131   4.488
 8974SOL    HW227822   2.269   3.989   4.520
 8975SOL     OW27823   0.371   6.928   6.326
 8975SOL    HW127824   0.346   6.975   6.410
 8975SOL    HW227825   0.297   6.937   6.259
 8976SOL     OW27826   6.680   6.474   1.825
 8976SOL    HW127827   6.754   6.409   1.804
 8976SOL    HW227828   6.671   6.539   1.750
 8977SOL     OW27829   0.356   4.808   6.122
 8977SOL    HW127830   0.391   4.853   6.204
 8977SOL    HW227831   0.404   4.843   6.041
 8978SOL     OW27832   5.679   5.222   5.519
 8978SOL    HW127833   5.742   5.284   5.565
 8978SOL    HW227834   5.608   5.274   5.472
 8979SOL     OW27835   1.118   5.183   5.676
 8979SOL    HW127836   1.045   5.157   5.613
 8979SOL    HW227837   1.087   5.171   5.771
 8980SOL     OW27838   3.752   0.393   5.230
 8980SOL    HW127839   3.711   0.320   5.286
 8980SOL    HW227840   3.710   0.392   5.139
 8981SOL     OW27841   4.427   3.057   6.859
 8981SOL    HW127842   4.397   3.074   6.766
 8981SOL    HW227843   4.357   3.005   6.908
 8982SOL     OW27844   0.529   1.204   1.324
 8982SOL    HW127845   0.436   1.223   1.291
 8982SOL    HW227846   0.567   1.287   1.366
 8983SOL     OW27847   1.126   6.665   2.909
 8983SOL    HW127848   1.207   6.692   2.961
 8983SOL    HW227849   1.068   6.606   2.966
 8984SOL     OW27850   5.824   0.179   4.028
 8984SOL    HW127851   5.818   0.176   3.928
 8984SOL    HW227852   5.920   0.169   4.055
 8985SOL     OW27853   4.511   2.581   0.836
 8985SOL    HW127854   4.475   2.661   0.789
 8985SOL    HW227855   4.608   2.593   0.854
 8986SOL     OW27856   6.663   4.772   0.539
 8986SOL    HW127857   6.705   4.682   0.543
 8986SOL    HW227858   6.666   4.814   0.630
 8987SOL     OW27859   2.154   0.015   1.452
 8987SOL    HW127860   2.200   0.017   1.541
 8987SOL    HW227861   2.056   0.000   1.465
 8988SOL     OW27862   1.034   5.321   1.133
 8988SOL    HW127863   1.035   5.365   1.043
 8988SOL    HW227864   1.121   5.339   1.180
 8989SOL     OW27865   5.649   1.682   1.821
 8989SOL    HW127866   5.644   1.755   1.889
 8989SOL    HW227867   5.723   1.701   1.757
 8990SOL     OW27868   3.308   0.061   2.323
 8990SOL    HW127869   3.399   0.044   2.361
 8990SOL    HW227870   3.312   0.136   2.258
 8991SOL     OW27871   2.425   2.651   0.797
 8991SOL    HW127872   2.402   2.694   0.885
 8991SOL    HW227873   2.524   2.653   0.783
 8992SOL     OW27874   0.464   3.216   0.227
 8992SOL    HW127875   0.494   3.164   0.307
 8992SOL    HW227876   0.535   3.213   0.157
 8993SOL     OW27877   5.611   2.314   3.665
 8993SOL    HW127878   5.623   2.382   3.738
 8993SOL    HW227879   5.701   2.290   3.628
 8994SOL     OW27880   0.899   5.027   3.292
 8994SOL    HW127881   0.960   4.993   3.364
 8994SOL    HW227882   0.817   5.067   3.333
 8995SOL     OW27883   1.935   3.919   5.082
 8995SOL    HW127884   2.035   3.929   5.078
 8995SOL    HW227885   1.912   3.822   5.084
 8996SOL     OW27886   0.449   3.905   2.762
 8996SOL    HW127887   0.393   3.866   2.835
 8996SOL    HW227888   0.390   3.932   2.686
 8997SOL     OW27889   4.408   1.664   5.071
 8997SOL    HW127890   4.463   1.586   5.038
 8997SOL    HW227891   4.343   1.691   5.000
 8998SOL     OW27892   1.249   1.966   5.753
 8998SOL    HW127893   1.273   2.053   5.709
 8998SOL    HW227894   1.281   1.890   5.696
 8999SOL     OW27895   6.168   1.283   4.771
 8999SOL    HW127896   6.221   1.199   4.774
 8999SOL    HW227897   6.094   1.274   4.704
 9000SOL     OW27898   2.770   4.275   0.492
 9000SOL    HW127899   2.707   4.352   0.501
 9000SOL    HW227900   2.718   4.192   0.474
 9001SOL     OW27901   1.838   5.211   3.772
 9001SOL    HW127902   1.848   5.291   3.831
 9001SOL    HW227903   1.927   5.166   3.761
 9002SOL     OW27904   5.999   4.578   6.127
 9002SOL    HW127905   5.914   4.551   6.171
 9002SOL    HW227906   6.068   4.507   6.141
 9003SOL     OW27907   5.798   2.754   6.945
 9003SOL    HW127908   5.885   2.773   6.900
 9003SOL    HW227909   5.809   2.761   0.016
 9004SOL     OW27910   4.510   6.780   0.906
 9004SOL    HW127911   4.515   6.871   0.864
 9004SOL    HW227912   4.437   6.727   0.864
 9005SOL     OW27913   4.949   2.025   3.369
 9005SOL    HW127914   4.918   2.006   3.462
 9005SOL    HW227915   5.012   2.103   3.369
 9006SOL     OW27916   1.224   5.369   1.329
 9006SOL    HW127917   1.321   5.364   1.352
 9006SOL    HW227918   1.183   5.446   1.379
 9007SOL     OW27919   3.177   6.492   4.000
 9007SOL    HW127920   3.227   6.407   3.984
 9007SOL    HW227921   3.202   6.560   3.932
 9008SOL     OW27922   0.409   4.574   2.415
 9008SOL    HW127923   0.440   4.532   2.329
 9008SOL    HW227924   0.488   4.603   2.469
 9009SOL     OW27925   2.723   6.669   0.187
 9009SOL    HW127926   2.664   6.626   0.255
 9009SOL    HW227927   2.707   6.768   0.186
 9010SOL     OW27928   1.143   6.266   5.189
 9010SOL    HW127929   1.227   6.237   5.142
 9010SOL    HW227930   1.086   6.187   5.207
 9011SOL     OW27931   4.507   1.823   0.826
 9011SOL    HW127932   4.516   1.725   0.845
 9011SOL    HW227933   4.532   1.841   0.731
 9012SOL     OW27934   0.456   4.921   1.543
 9012SOL    HW127935   0.527   4.990   1.532
 9012SOL    HW227936   0.375   4.962   1.585
 9013SOL     OW27937   6.585   6.126   3.287
 9013SOL    HW127938   6.630   6.174   3.211
 9013SOL    HW227939   6.491   6.157   3.295
 9014SOL     OW27940   1.734   0.649   1.042
 9014SOL    HW127941   1.796   0.618   0.969
 9014SOL    HW227942   1.738   0.585   1.119
 9015SOL     OW27943   0.361   1.033   6.200
 9015SOL    HW127944   0.261   1.024   6.202
 9015SOL    HW227945   0.393   1.023   6.106
 9016SOL     OW27946   6.224   6.360   6.382
 9016SOL    HW127947   6.305   6.396   6.335
 9016SOL    HW227948   6.143   6.383   6.329
 9017SOL     OW27949   6.468   2.155   3.846
 9017SOL    HW127950   6.406   2.168   3.924
 9017SOL    HW227951   6.498   2.059   3.843
 9018SOL     OW27952   3.847   2.327   5.594
 9018SOL    HW127953   3.772   2.262   5.604
 9018SOL    HW227954   3.857   2.380   5.678
 9019SOL     OW27955   2.362   0.072   0.616
 9019SOL    HW127956   2.398   7.007   0.623
 9019SOL    HW227957   2.400   0.129   0.688
 9020SOL     OW27958   1.326   4.305   2.760
 9020SOL    HW127959   1.412   4.332   2.716
 9020SOL    HW227960   1.256   4.290   2.690
 9021SOL     OW27961   6.635   5.637   5.081
 9021SOL    HW127962   6.603   5.547   5.054
 9021SOL    HW227963   6.671   5.685   5.002
 9022SOL     OW27964   2.620   1.002   0.184
 9022SOL    HW127965   2.563   1.058   0.125
 9022SOL    HW227966   2.616   0.907   0.155
 9023SOL     OW27967   3.729   2.899   3.678
 9023SOL    HW127968   3.753   2.814   3.632
 9023SOL    HW227969   3.632   2.919   3.662
 9024SOL     OW27970   1.948   6.696   6.791
 9024SOL    HW127971   1.972   6.636   6.867
 9024SOL    HW227972   2.017   6.767   6.781
 9025SOL     OW27973   6.065   5.161   1.597
 9025SOL    HW127974   6.077   5.139   1.694
 9025SOL    HW227975   5.968   5.165   1.575
 9026SOL     OW27976   3.472   2.957   5.021
 9026SOL    HW127977   3.480   2.880   5.084
 9026SOL    HW227978   3.377   2.964   4.989
 9027SOL     OW27979   2.824   2.271   3.223
 9027SOL    HW127980   2.906   2.225   3.189
 9027SOL    HW227981   2.805   2.351   3.167
 9028SOL     OW27982   2.822   4.711   5.328
 9028SOL    HW127983   2.896   4.680   5.388
 9028SOL    HW227984   2.837   4.677   5.235
 9029SOL     OW27985   4.754   6.457   3.471
 9029SOL    HW127986   4.775   6.396   3.395
 9029SOL    HW227987   4.685   6.524   3.443
 9030SOL     OW27988   2.033   0.777   2.320
 9030SOL    HW127989   2.074   0.868   2.328
 9030SOL    HW227990   1.938   0.780   2.352
 9031SOL     OW27991   2.492   6.212   5.994
 9031SOL    HW127992   2.545   6.260   5.924
 9031SOL    HW227993   2.545   6.207   6.079
 9032SOL     OW27994   2.478   1.723   1.607
 9032SOL    HW127995   2.559   1.676   1.642
 9032SOL    HW227996   2.424   1.758   1.683
 9033SOL     OW27997   2.097   3.443   3.160
 9033SOL    HW127998   2.086   3.488   3.249
 9033SOL    HW227999   2.099   3.344   3.174
 9034SOL     OW28000   3.253   6.444   5.927
 9034SOL    HW128001   3.158   6.416   5.939
 9034SOL    HW228002   3.257   6.540   5.900
 9035SOL     OW28003   0.172   1.080   4.351
 9035SOL    HW128004   0.130   0.998   4.314
 9035SOL    HW228005   0.202   1.140   4.277
 9036SOL     OW28006   0.860   2.829   5.726
 9036SOL    HW128007   0.901   2.773   5.799
 9036SOL    HW228008   0.841   2.921   5.761
 9037SOL     OW28009   2.776   4.407   6.411
 9037SOL    HW128010   2.843   4.471   6.449
 9037SOL    HW228011   2.712   4.380   6.483
 9038SOL     OW28012   4.511   6.381   5.355
 9038SOL    HW128013   4.471   6.296   5.387
 9038SOL    HW228014   4.444   6.429   5.297
 9039SOL     OW28015   1.976   5.231   4.792
 9039SOL    HW128016   1.962   5.177   4.710
 9039SOL    HW228017   1.968   5.173   4.873
 9040SOL     OW28018   1.578   1.709   2.696
 9040SOL    HW128019   1.485   1.705   2.659
 9040SOL    HW228020   1.622   1.620   2.685
 9041SOL     OW28021   1.384   3.329   0.835
 9041SOL    HW128022   1.307   3.294   0.889
 9041SOL    HW228023   1.437   3.394   0.890
 9042SOL     OW28024   2.827   4.893   3.305
 9042SOL    HW128025   2.819   4.844   3.218
 9042SOL    HW228026   2.831   4.827   3.380
 9043SOL     OW28027   0.513   2.579   5.894
 9043SOL    HW128028   0.472   2.648   5.953
 9043SOL    HW228029   0.506   2.608   5.799
 9044SOL     OW28030   6.324   0.859   0.907
 9044SOL    HW128031   6.250   0.793   0.923
 9044SOL    HW228032   6.408   0.825   0.950
 9045SOL     OW28033   2.947   0.126   3.392
 9045SOL    HW128034   2.909   0.136   3.300
 9045SOL    HW228035   2.872   0.115   3.458
 9046SOL     OW28036   3.464   4.087   5.159
 9046SOL    HW128037   3.387   4.102   5.098
 9046SOL    HW228038   3.432   4.087   5.254
 9047SOL     OW28039   1.226   4.312   4.297
 9047SOL    HW128040   1.204   4.345   4.389
 9047SOL    HW228041   1.324   4.321   4.282
 9048SOL     OW28042   0.890   3.877   4.726
 9048SOL    HW128043   0.882   3.867   4.825
 9048SOL    HW228044   0.800   3.898   4.687
 9049SOL     OW28045   5.709   6.811   6.189
 9049SOL    HW128046   5.719   6.843   6.095
 9049SOL    HW228047   5.639   6.866   6.235
 9050SOL     OW28048   0.064   4.668   6.682
 9050SOL    HW128049   6.995   4.659   6.708
 9050SOL    HW228050   0.122   4.638   6.757
 9051SOL     OW28051   5.852   5.849   0.070
 9051SOL    HW128052   5.839   5.910   7.019
 9051SOL    HW228053   5.766   5.844   0.122
 9052SOL     OW28054   2.468   4.970   4.471
 9052SOL    HW128055   2.463   4.913   4.553
 9052SOL    HW228056   2.519   4.922   4.400
 9053SOL     OW28057   2.332   2.708   4.096
 9053SOL    HW128058   2.306   2.797   4.133
 9053SOL    HW228059   2.413   2.674   4.143
 9054SOL     OW28060   2.096   0.281   1.885
 9054SOL    HW128061   2.070   0.209   1.820
 9054SOL    HW228062   2.089   0.370   1.841
 9055SOL     OW28063   0.602   2.284   3.695
 9055SOL    HW128064   0.613   2.276   3.596
 9055SOL    HW228065   0.568   2.375   3.718
 9056SOL     OW28066   4.933   0.231   2.955
 9056SOL    HW128067   4.902   0.137   2.944
 9056SOL    HW228068   5.029   0.232   2.983
 9057SOL     OW28069   6.294   6.148   6.582
 9057SOL    HW128070   6.384   6.191   6.589
 9057SOL    HW228071   6.241   6.193   6.510
 9058SOL     OW28072   1.814   2.921   5.120
 9058SOL    HW128073   1.829   2.943   5.023
 9058SOL    HW228074   1.755   2.991   5.161
 9059SOL     OW28075   6.352   1.924   2.927
 9059SOL    HW128076   6.424   1.954   2.863
 9059SOL    HW228077   6.320   1.834   2.901
 9060SOL     OW28078   0.542   3.476   1.836
 9060SOL    HW128079   0.498   3.386   1.844
 9060SOL    HW228080   0.479   3.539   1.791
 9061SOL     OW28081   5.073   5.786   1.794
 9061SOL    HW128082   5.057   5.732   1.711
 9061SOL    HW228083   5.040   5.879   1.780
 9062SOL     OW28084   0.559   4.579   3.531
 9062SOL    HW128085   0.481   4.591   3.593
 9062SOL    HW228086   0.578   4.481   3.521
 9063SOL     OW28087   2.941   0.850   2.282
 9063SOL    HW128088   3.001   0.874   2.359
 9063SOL    HW228089   2.955   0.754   2.257
 9064SOL     OW28090   0.679   4.073   3.497
 9064SOL    HW128091   0.642   4.002   3.558
 9064SOL    HW228092   0.753   4.121   3.543
 9065SOL     OW28093   2.592   5.601   4.939
 9065SOL    HW128094   2.598   5.649   5.027
 9065SOL    HW228095   2.596   5.502   4.956
 9066SOL     OW28096   5.246   5.142   6.218
 9066SOL    HW128097   5.339   5.112   6.240
 9066SOL    HW228098   5.232   5.137   6.119
 9067SOL     OW28099   6.393   0.283   4.885
 9067SOL    HW128100   6.446   0.366   4.868
 9067SOL    HW228101   6.435   0.206   4.836
 9068SOL     OW28102   4.903   0.280   4.825
 9068SOL    HW128103   4.995   0.278   4.863
 9068SOL    HW228104   4.908   0.298   4.727
 9069SOL     OW28105   4.625   1.962   2.113
 9069SOL    HW128106   4.666   1.875   2.088
 9069SOL    HW228107   4.526   1.959   2.095
 9070SOL     OW28108   1.110   1.925   5.435
 9070SOL    HW128109   1.162   1.866   5.496
 9070SOL    HW228110   1.017   1.936   5.470
 9071SOL     OW28111   4.715   1.515   5.719
 9071SOL    HW128112   4.703   1.614   5.728
 9071SOL    HW228113   4.812   1.493   5.724
 9072SOL     OW28114   5.613   0.318   2.252
 9072SOL    HW128115   5.585   0.304   2.157
 9072SOL    HW228116   5.626   0.416   2.269
 9073SOL     OW28117   3.840   0.723   6.787
 9073SOL    HW128118   3.822   0.670   6.869
 9073SOL    HW228119   3.938   0.727   6.770
 9074SOL     OW28120   1.344   6.888   1.269
 9074SOL    HW128121   1.283   6.967   1.260
 9074SOL    HW228122   1.290   6.806   1.285
 9075SOL     OW28123   6.614   0.688   1.418
 9075SOL    HW128124   6.587   0.774   1.462
 9075SOL    HW228125   6.700   0.701   1.368
 9076SOL     OW28126   5.872   6.732   2.503
 9076SOL    HW128127   5.774   6.739   2.519
 9076SOL    HW228128   5.903   6.810   2.449
 9077SOL     OW28129   5.693   1.427   5.998
 9077SOL    HW128130   5.744   1.376   5.929
 9077SOL    HW228131   5.620   1.479   5.954
 9078SOL     OW28132   4.822   6.012   0.032
 9078SOL    HW128133   4.884   6.070   7.005
 9078SOL    HW228134   4.873   5.973   0.109
 9079SOL     OW28135   1.223   0.335   5.886
 9079SOL    HW128136   1.285   0.364   5.813
 9079SOL    HW228137   1.227   0.235   5.894
 9080SOL     OW28138   6.340   3.426   1.149
 9080SOL    HW128139   6.424   3.480   1.142
 9080SOL    HW228140   6.261   3.488   1.150
 9081SOL     OW28141   3.731   1.896   1.268
 9081SOL    HW128142   3.811   1.839   1.246
 9081SOL    HW228143   3.713   1.958   1.192
 9082SOL     OW28144   2.967   6.072   6.098
 9082SOL    HW128145   2.999   6.077   6.004
 9082SOL    HW228146   3.040   6.038   6.157
 9083SOL     OW28147   4.884   4.561   6.090
 9083SOL    HW128148   4.875   4.645   6.144
 9083SOL    HW228149   4.841   4.485   6.139
 9084SOL     OW28150   0.638   2.716   5.625
 9084SOL    HW128151   0.651   2.684   5.531
 9084SOL    HW228152   0.726   2.742   5.664
 9085SOL     OW28153   3.207   5.301   6.923
 9085SOL    HW128154   3.174   5.324   7.014
 9085SOL    HW228155   3.306   5.290   6.924
 9086SOL     OW28156   6.645   4.432   0.595
 9086SOL    HW128157   6.734   4.449   0.638
 9086SOL    HW228158   6.639   4.336   0.567
 9087SOL     OW28159   6.133   2.080   1.633
 9087SOL    HW128160   6.174   2.049   1.547
 9087SOL    HW228161   6.090   2.002   1.679
 9088SOL     OW28162   6.323   0.757   1.763
 9088SOL    HW128163   6.268   0.719   1.689
 9088SOL    HW228164   6.268   0.825   1.813
 9089SOL     OW28165   4.241   5.467   3.460
 9089SOL    HW128166   4.220   5.558   3.497
 9089SOL    HW228167   4.279   5.410   3.532
 9090SOL     OW28168   6.085   6.338   4.585
 9090SOL    HW128169   6.075   6.268   4.656
 9090SOL    HW228170   6.057   6.301   4.497
 9091SOL     OW28171   2.970   2.233   0.333
 9091SOL    HW128172   2.904   2.280   0.393
 9091SOL    HW228173   2.921   2.190   0.258
 9092SOL     OW28174   1.603   6.569   5.486
 9092SOL    HW128175   1.669   6.561   5.560
 9092SOL    HW228176   1.596   6.482   5.438
 9093SOL     OW28177   1.528   5.788   0.567
 9093SOL    HW128178   1.621   5.795   0.530
 9093SOL    HW228179   1.507   5.692   0.585
 9094SOL     OW28180   0.139   5.790   2.085
 9094SOL    HW128181   0.139   5.809   2.183
 9094SOL    HW228182   0.144   5.876   2.034
 9095SOL     OW28183   4.981   3.293   6.581
 9095SOL    HW128184   4.965   3.379   6.532
 9095SOL    HW228185   4.917   3.286   6.658
 9096SOL     OW28186   5.800   3.253   2.861
 9096SOL    HW128187   5.722   3.217   2.810
 9096SOL    HW228188   5.814   3.197   2.943
 9097SOL     OW28189   0.842   4.009   6.868
 9097SOL    HW128190   0.910   3.952   6.823
 9097SOL    HW228191   0.886   4.068   6.936
 9098SOL     OW28192   3.659   3.798   2.230
 9098SOL    HW128193   3.584   3.832   2.287
 9098SOL    HW228194   3.732   3.763   2.289
 9099SOL     OW28195   2.995   3.487   0.946
 9099SOL    HW128196   2.939   3.507   0.866
 9099SOL    HW228197   3.042   3.400   0.933
 9100SOL     OW28198   0.661   3.281   1.252
 9100SOL    HW128199   0.758   3.284   1.226
 9100SOL    HW228200   0.608   3.341   1.193
 9101SOL     OW28201   1.731   2.753   2.707
 9101SOL    HW128202   1.716   2.731   2.804
 9101SOL    HW228203   1.715   2.851   2.693
 9102SOL     OW28204   3.706   5.622   2.247
 9102SOL    HW128205   3.791   5.576   2.274
 9102SOL    HW228206   3.728   5.708   2.200
 9103SOL     OW28207   0.169   3.746   1.160
 9103SOL    HW128208   0.207   3.827   1.204
 9103SOL    HW228209   0.204   3.741   1.066
 9104SOL     OW28210   4.399   6.209   1.788
 9104SOL    HW128211   4.331   6.211   1.861
 9104SOL    HW228212   4.490   6.200   1.828
 9105SOL     OW28213   1.525   0.402   6.635
 9105SOL    HW128214   1.622   0.380   6.627
 9105SOL    HW228215   1.512   0.465   6.712
 9106SOL     OW28216   5.821   4.396   0.674
 9106SOL    HW128217   5.750   4.394   0.604
 9106SOL    HW228218   5.851   4.302   0.693
 9107SOL     OW28219   4.096   6.962   6.612
 9107SOL    HW128220   4.027   0.005   6.596
 9107SOL    HW228221   4.067   6.903   6.688
 9108SOL     OW28222   4.949   4.377   5.149
 9108SOL    HW128223   4.930   4.310   5.077
 9108SOL    HW228224   4.982   4.461   5.107
 9109SOL     OW28225   2.478   1.955   3.184
 9109SOL    HW128226   2.488   1.857   3.204
 9109SOL    HW228227   2.385   1.984   3.207
 9110SOL     OW28228   2.617   4.813   3.809
 9110SOL    HW128229   2.702   4.860   3.832
 9110SOL    HW228230   2.591   4.837   3.715
 9111SOL     OW28231   3.464   4.208   1.569
 9111SOL    HW128232   3.442   4.209   1.666
 9111SOL    HW228233   3.532   4.137   1.551
 9112SOL     OW28234   0.846   3.344   3.431
 9112SOL    HW128235   0.847   3.249   3.462
 9112SOL    HW228236   0.754   3.368   3.400
 9113SOL     OW28237   4.831   0.937   0.118
 9113SOL    HW128238   4.907   0.924   0.054
 9113SOL    HW228239   4.857   1.004   0.188
 9114SOL     OW28240   2.327   4.457   2.094
 9114SOL    HW128241   2.394   4.480   2.023
 9114SOL    HW228242   2.276   4.539   2.120
 9115SOL     OW28243   1.133   5.335   3.989
 9115SOL    HW128244   1.181   5.248   3.976
 9115SOL    HW228245   1.190   5.410   3.957
 9116SOL     OW28246   6.869   1.699   6.489
 9116SOL    HW128247   6.955   1.751   6.486
 9116SOL    HW228248   6.884   1.612   6.536
 9117SOL     OW28249   6.335   3.016   6.576
 9117SOL    HW128250   6.257   3.079   6.574
 9117SOL    HW228251   6.352   2.988   6.670
 9118SOL     OW28252   6.305   7.026   1.054
 9118SOL    HW128253   6.333   0.006   1.150
 9118SOL    HW228254   6.381   6.987   1.000
 9119SOL     OW28255   5.880   1.161   2.138
 9119SOL    HW128256   5.793   1.201   2.165
 9119SOL    HW228257   5.875   1.061   2.147
 9120SOL     OW28258   5.822   2.681   6.054
 9120SOL    HW128259   5.741   2.676   6.112
 9120SOL    HW228260   5.802   2.642   5.965
 9121SOL     OW28261   0.257   3.324   5.332
 9121SOL    HW128262   0.292   3.351   5.243
 9121SOL    HW228263   0.330   3.280   5.384
 9122SOL     OW28264   1.824   2.638   1.913
 9122SOL    HW128265   1.754   2.688   1.863
 9122SOL    HW228266   1.904   2.697   1.928
 9123SOL     OW28267   3.301   6.432   5.260
 9123SOL    HW128268   3.384   6.452   5.207
 9123SOL    HW228269   3.296   6.494   5.338
 9124SOL     OW28270   6.131   5.743   5.360
 9124SOL    HW128271   6.047   5.722   5.308
 9124SOL    HW228272   6.210   5.730   5.301
 9125SOL     OW28273   4.786   4.199   3.948
 9125SOL    HW128274   4.816   4.125   3.887
 9125SOL    HW228275   4.811   4.176   4.042
 9126SOL     OW28276   6.096   1.286   2.346
 9126SOL    HW128277   6.003   1.289   2.383
 9126SOL    HW228278   6.097   1.327   2.254
 9127SOL     OW28279   5.945   0.053   5.688
 9127SOL    HW128280   6.015   0.013   5.628
 9127SOL    HW228281   5.989   0.105   5.761
 9128SOL     OW28282   4.123   1.638   5.183
 9128SOL    HW128283   4.082   1.567   5.125
 9128SOL    HW228284   4.219   1.649   5.158
 9129SOL     OW28285   1.897   3.534   0.887
 9129SOL    HW128286   1.978   3.476   0.896
 9129SOL    HW228287   1.836   3.518   0.965
 9130SOL     OW28288   0.114   4.433   6.559
 9130SOL    HW128289   0.088   4.516   6.610
 9130SOL    HW228290   0.156   4.459   6.473
 9131SOL     OW28291   0.334   4.128   5.031
 9131SOL    HW128292   0.295   4.209   5.074
 9131SOL    HW228293   0.378   4.071   5.100
 9132SOL     OW28294   6.870   4.001   3.458
 9132SOL    HW128295   6.807   3.923   3.463
 9132SOL    HW228296   6.826   4.077   3.412
 9133SOL     OW28297   3.023   5.030   0.961
 9133SOL    HW128298   2.959   5.107   0.960
 9133SOL    HW228299   3.115   5.063   0.938
 9134SOL     OW28300   3.266   0.100   0.627
 9134SOL    HW128301   3.284   0.042   0.706
 9134SOL    HW228302   3.343   0.095   0.563
 9135SOL     OW28303   0.183   6.427   2.099
 9135SOL    HW128304   0.128   6.490   2.045
 9135SOL    HW228305   0.126   6.354   2.135
 9136SOL     OW28306   4.698   5.026   5.516
 9136SOL    HW128307   4.798   5.028   5.509
 9136SOL    HW228308   4.658   5.080   5.442
 9137SOL     OW28309   5.533   1.332   0.793
 9137SOL    HW128310   5.588   1.415   0.778
 9137SOL    HW228311   5.594   1.257   0.819
 9138SOL     OW28312   6.520   4.916   5.914
 9138SOL    HW128313   6.572   4.834   5.893
 9138SOL    HW228314   6.499   4.918   6.012
 9139SOL     OW28315   2.444   1.267   4.658
 9139SOL    HW128316   2.444   1.236   4.563
 9139SOL    HW228317   2.424   1.366   4.660
 9140SOL     OW28318   6.639   2.478   2.972
 9140SOL    HW128319   6.598   2.548   2.912
 9140SOL    HW228320   6.719   2.517   3.018
 9141SOL     OW28321   5.632   6.805   6.682
 9141SOL    HW128322   5.554   6.815   6.620
 9141SOL    HW228323   5.689   6.729   6.650
 9142SOL     OW28324   0.225   2.533   5.472
 9142SOL    HW128325   0.157   2.580   5.417
 9142SOL    HW228326   0.242   2.442   5.435
 9143SOL     OW28327   4.779   4.046   6.933
 9143SOL    HW128328   4.774   4.136   6.978
 9143SOL    HW228329   4.875   4.026   6.910
 9144SOL     OW28330   2.073   5.393   6.238
 9144SOL    HW128331   2.167   5.398   6.204
 9144SOL    HW228332   2.075   5.367   6.335
 9145SOL     OW28333   6.895   5.113   0.900
 9145SOL    HW128334   6.892   5.174   0.979
 9145SOL    HW228335   6.980   5.127   0.850
 9146SOL     OW28336   5.157   1.784   1.430
 9146SOL    HW128337   5.229   1.743   1.375
 9146SOL    HW228338   5.197   1.827   1.511
 9147SOL     OW28339   5.743   0.071   4.510
 9147SOL    HW128340   5.813   0.020   4.460
 9147SOL    HW228341   5.750   0.049   4.608
 9148SOL     OW28342   5.500   0.087   1.199
 9148SOL    HW128343   5.517   7.023   1.237
 9148SOL    HW228344   5.429   0.080   1.128
 9149SOL     OW28345   4.887   2.635   4.358
 9149SOL    HW128346   4.985   2.652   4.349
 9149SOL    HW228347   4.839   2.676   4.281
 9150SOL     OW28348   3.846   5.558   3.560
 9150SOL    HW128349   3.746   5.551   3.562
 9150SOL    HW228350   3.877   5.555   3.465
 9151SOL     OW28351   1.228   4.345   3.040
 9151SOL    HW128352   1.295   4.378   3.105
 9151SOL    HW228353   1.250   4.377   2.948
 9152SOL     OW28354   2.494   5.287   4.646
 9152SOL    HW128355   2.552   5.205   4.647
 9152SOL    HW228356   2.456   5.302   4.738
 9153SOL     OW28357   1.469   3.550   0.970
 9153SOL    HW128358   1.534   3.585   0.903
 9153SOL    HW228359   1.501   3.571   1.062
 9154SOL     OW28360   2.864   5.033   6.912
 9154SOL    HW128361   2.862   4.933   6.921
 9154SOL    HW228362   2.937   5.059   6.849
 9155SOL     OW28363   2.018   3.503   0.613
 9155SOL    HW128364   1.945   3.515   0.680
 9155SOL    HW228365   2.039   3.592   0.571
 9156SOL     OW28366   3.059   2.985   1.178
 9156SOL    HW128367   3.123   2.946   1.111
 9156SOL    HW228368   3.054   3.084   1.165
 9157SOL     OW28369   6.144   4.899   5.553
 9157SOL    HW128370   6.149   4.981   5.609
 9157SOL    HW228371   6.093   4.918   5.469
 9158SOL     OW28372   6.343   3.497   5.041
 9158SOL    HW128373   6.269   3.551   5.081
 9158SOL    HW228374   6.422   3.497   5.103
 9159SOL     OW28375   1.109   6.533   3.953
 9159SOL    HW128376   1.182   6.599   3.934
 9159SOL    HW228377   1.149   6.450   3.990
 9160SOL     OW28378   6.313   0.400   5.429
 9160SOL    HW128379   6.375   0.431   5.502
 9160SOL    HW228380   6.244   0.339   5.468
 9161SOL     OW28381   4.815   4.068   4.217
 9161SOL    HW128382   4.774   4.099   4.303
 9161SOL    HW228383   4.912   4.094   4.215
 9162SOL     OW28384   4.834   1.792   3.722
 9162SOL    HW128385   4.865   1.886   3.710
 9162SOL    HW228386   4.859   1.738   3.641
 9163SOL     OW28387   2.097   3.193   3.716
 9163SOL    HW128388   2.021   3.198   3.651
 9163SOL    HW228389   2.138   3.284   3.724
 9164SOL     OW28390   3.080   0.845   6.917
 9164SOL    HW128391   3.150   0.773   6.921
 9164SOL    HW228392   3.124   0.934   6.927
 9165SOL     OW28393   6.472   1.048   5.342
 9165SOL    HW128394   6.422   1.081   5.423
 9165SOL    HW228395   6.420   0.974   5.299
 9166SOL     OW28396   4.801   6.202   0.937
 9166SOL    HW128397   4.713   6.170   0.974
 9166SOL    HW228398   4.828   6.286   0.984
 9167SOL     OW28399   1.624   3.028   6.715
 9167SOL    HW128400   1.700   3.042   6.779
 9167SOL    HW228401   1.633   2.937   6.673
 9168SOL     OW28402   0.827   6.929   5.898
 9168SOL    HW128403   0.766   6.855   5.870
 9168SOL    HW228404   0.856   6.981   5.818
 9169SOL     OW28405   6.922   1.395   4.903
 9169SOL    HW128406   6.989   1.342   4.850
 9169SOL    HW228407   6.954   1.489   4.912
 9170SOL     OW28408   0.520   4.838   0.512
 9170SOL    HW128409   0.510   4.897   0.592
 9170SOL    HW228410   0.457   4.867   0.441
 9171SOL     OW28411   2.838   5.455   0.276
 9171SOL    HW128412   2.770   5.403   0.327
 9171SOL    HW228413   2.841   5.422   0.181
 9172SOL     OW28414   3.129   0.665   5.105
 9172SOL    HW128415   3.167   0.651   5.014
 9172SOL    HW228416   3.060   0.595   5.124
 9173SOL     OW28417   6.092   4.096   4.951
 9173SOL    HW128418   6.081   4.030   4.877
 9173SOL    HW228419   6.093   4.189   4.914
 9174SOL     OW28420   6.482   4.177   1.153
 9174SOL    HW128421   6.401   4.191   1.211
 9174SOL    HW228422   6.477   4.238   1.074
 9175SOL     OW28423   1.646   6.854   4.939
 9175SOL    HW128424   1.740   6.822   4.929
 9175SOL    HW228425   1.599   6.799   5.009
 9176SOL     OW28426   2.888   0.913   4.873
 9176SOL    HW128427   2.946   0.994   4.863
 9176SOL    HW228428   2.944   0.835   4.902
 9177SOL     OW28429   1.629   5.233   4.628
 9177SOL    HW128430   1.652   5.330   4.627
 9177SOL    HW228431   1.530   5.222   4.636
 9178SOL     OW28432   2.069   5.740   0.735
 9178SOL    HW128433   2.064   5.799   0.816
 9178SOL    HW228434   2.095   5.795   0.656
 9179SOL     OW28435   3.545   5.407   3.772
 9179SOL    HW128436   3.553   5.468   3.851
 9179SOL    HW228437   3.482   5.332   3.794
 9180SOL     OW28438   5.627   2.089   3.049
 9180SOL    HW128439   5.573   2.065   2.969
 9180SOL    HW228440   5.627   2.014   3.114
 9181SOL     OW28441   3.898   2.164   3.639
 9181SOL    HW128442   3.828   2.188   3.707
 9181SOL    HW228443   3.905   2.065   3.631
 9182SOL     OW28444   2.396   6.488   2.346
 9182SOL    HW128445   2.361   6.468   2.438
 9182SOL    HW228446   2.476   6.430   2.328
 9183SOL     OW28447   4.837   6.744   0.332
 9183SOL    HW128448   4.818   6.673   0.401
 9183SOL    HW228449   4.929   6.780   0.346
 9184SOL     OW28450   5.277   1.795   6.772
 9184SOL    HW128451   5.342   1.867   6.797
 9184SOL    HW228452   5.235   1.757   6.854
 9185SOL     OW28453   4.333   6.502   5.169
 9185SOL    HW128454   4.339   6.601   5.161
 9185SOL    HW228455   4.262   6.468   5.107
 9186SOL     OW28456   5.993   0.481   3.864
 9186SOL    HW128457   6.025   0.556   3.923
 9186SOL    HW228458   5.999   0.509   3.768
 9187SOL     OW28459   2.600   0.949   1.232
 9187SOL    HW128460   2.654   0.888   1.290
 9187SOL    HW228461   2.603   1.042   1.271
 9188SOL     OW28462   2.199   6.571   2.140
 9188SOL    HW128463   2.165   6.486   2.100
 9188SOL    HW228464   2.270   6.551   2.207
 9189SOL     OW28465   5.620   6.112   1.466
 9189SOL    HW128466   5.711   6.071   1.473
 9189SOL    HW228467   5.619   6.178   1.391
 9190SOL     OW28468   1.903   5.052   0.129
 9190SOL    HW128469   1.912   4.989   0.207
 9190SOL    HW228470   1.955   5.135   0.147
 9191SOL     OW28471   5.728   0.674   5.999
 9191SOL    HW128472   5.714   0.717   6.088
 9191SOL    HW228473   5.775   0.738   5.938
 9192SOL     OW28474   0.433   4.247   5.875
 9192SOL    HW128475   0.459   4.232   5.971
 9192SOL    HW228476   0.464   4.338   5.846
 9193SOL     OW28477   4.605   4.755   0.552
 9193SOL    HW128478   4.566   4.843   0.524
 9193SOL    HW228479   4.669   4.723   0.481
 9194SOL     OW28480   2.731   0.396   3.090
 9194SOL    HW128481   2.697   0.379   2.998
 9194SOL    HW228482   2.775   0.486   3.093
 9195SOL     OW28483   1.738   2.320   4.388
 9195SOL    HW128484   1.757   2.222   4.398
 9195SOL    HW228485   1.639   2.335   4.388
 9196SOL     OW28486   4.477   0.246   4.050
 9196SOL    HW128487   4.451   0.181   4.121
 9196SOL    HW228488   4.557   0.211   4.001
 9197SOL     OW28489   2.058   4.568   1.625
 9197SOL    HW128490   2.033   4.553   1.530
 9197SOL    HW228491   2.111   4.489   1.658
 9198SOL     OW28492   6.391   4.945   6.167
 9198SOL    HW128493   6.333   5.027   6.161
 9198SOL    HW228494   6.333   4.864   6.162
 9199SOL     OW28495   1.468   3.815   6.016
 9199SOL    HW128496   1.470   3.716   6.009
 9199SOL    HW228497   1.546   3.853   5.966
 9200SOL     OW28498   2.636   0.212   0.762
 9200SOL    HW128499   2.700   0.170   0.698
 9200SOL    HW228500   2.625   0.309   0.739
 9201SOL     OW28501   0.571   2.701   0.667
 9201SOL    HW128502   0.530   2.761   0.735
 9201SOL    HW228503   0.568   2.744   0.577
 9202SOL     OW28504   1.585   6.596   2.869
 9202SOL    HW128505   1.592   6.593   2.969
 9202SOL    HW228506   1.530   6.675   2.842
 9203SOL     OW28507   0.412   5.007   0.104
 9203SOL    HW128508   0.349   5.034   0.177
 9203SOL    HW228509   0.396   4.912   0.079
 9204SOL     OW28510   4.047   2.437   6.916
 9204SOL    HW128511   4.039   2.353   6.863
 9204SOL    HW228512   4.123   2.429   6.980
 9205SOL     OW28513   5.911   5.035   2.666
 9205SOL    HW128514   5.857   5.000   2.590
 9205SOL    HW228515   5.871   5.120   2.700
 9206SOL     OW28516   4.012   5.547   1.842
 9206SOL    HW128517   4.004   5.539   1.742
 9206SOL    HW228518   3.974   5.466   1.885
 9207SOL     OW28519   4.243   4.959   6.807
 9207SOL    HW128520   4.261   4.865   6.781
 9207SOL    HW228521   4.299   5.021   6.751
 9208SOL     OW28522   5.959   3.925   3.938
 9208SOL    HW128523   5.926   3.972   4.020
 9208SOL    HW228524   6.018   3.848   3.964
 9209SOL     OW28525   2.912   1.073   0.160
 9209SOL    HW128526   2.915   1.161   0.206
 9209SOL    HW228527   2.828   1.025   0.186
 9210SOL     OW28528   6.602   1.001   3.080
 9210SOL    HW128529   6.506   0.992   3.054
 9210SOL    HW228530   6.608   1.016   3.179
 9211SOL     OW28531   6.273   3.281   4.657
 9211SOL    HW128532   6.289   3.185   4.636
 9211SOL    HW228533   6.236   3.288   4.750
 9212SOL     OW28534   4.043   5.113   4.276
 9212SOL    HW128535   4.010   5.018   4.273
 9212SOL    HW228536   4.039   5.147   4.370
 9213SOL     OW28537   5.202   3.730   6.052
 9213SOL    HW128538   5.215   3.808   6.113
 9213SOL    HW228539   5.277   3.665   6.063
 9214SOL     OW28540   0.273   5.565   5.858
 9214SOL    HW128541   0.359   5.535   5.898
 9214SOL    HW228542   0.215   5.604   5.929
 9215SOL     OW28543   1.518   2.374   0.042
 9215SOL    HW128544   1.545   2.320   0.121
 9215SOL    HW228545   1.594   2.431   0.013
 9216SOL     OW28546   2.663   0.363   2.828
 9216SOL    HW128547   2.627   0.449   2.793
 9216SOL    HW228548   2.749   0.341   2.781
 9217SOL     OW28549   0.723   1.068   6.453
 9217SOL    HW128550   0.767   1.052   6.365
 9217SOL    HW228551   0.629   1.034   6.449
 9218SOL     OW28552   3.569   6.473   0.835
 9218SOL    HW128553   3.540   6.421   0.755
 9218SOL    HW228554   3.655   6.520   0.814
 9219SOL     OW28555   0.191   2.750   1.198
 9219SOL    HW128556   0.174   2.686   1.123
 9219SOL    HW228557   0.276   2.725   1.244
 9220SOL     OW28558   2.093   6.625   0.803
 9220SOL    HW128559   2.052   6.689   0.738
 9220SOL    HW228560   2.023   6.590   0.865
 9221SOL     OW28561   2.991   1.066   4.068
 9221SOL    HW128562   2.989   1.118   4.154
 9221SOL    HW228563   2.905   1.018   4.056
 9222SOL     OW28564   2.119   0.137   6.610
 9222SOL    HW128565   2.165   0.222   6.582
 9222SOL    HW228566   2.119   0.130   6.710
 9223SOL     OW28567   1.690   1.721   4.200
 9223SOL    HW128568   1.780   1.765   4.192
 9223SOL    HW228569   1.656   1.698   4.109
 9224SOL     OW28570   2.575   5.261   5.293
 9224SOL    HW128571   2.484   5.254   5.333
 9224SOL    HW228572   2.636   5.195   5.337
 9225SOL     OW28573   4.096   0.139   5.959
 9225SOL    HW128574   4.191   0.167   5.951
 9225SOL    HW228575   4.055   0.182   6.039
 9226SOL     OW28576   5.565   6.995   1.873
 9226SOL    HW128577   5.559   6.965   1.968
 9226SOL    HW228578   5.645   6.955   1.830
 9227SOL     OW28579   0.850   5.268   1.327
 9227SOL    HW128580   0.891   5.292   1.415
 9227SOL    HW228581   0.906   5.303   1.252
 9228SOL     OW28582   1.819   0.969   5.819
 9228SOL    HW128583   1.840   1.002   5.911
 9228SOL    HW228584   1.798   0.871   5.823
 9229SOL     OW28585   1.384   5.486   4.639
 9229SOL    HW128586   1.382   5.462   4.737
 9229SOL    HW228587   1.426   5.576   4.628
 9230SOL     OW28588   5.865   0.944   3.405
 9230SOL    HW128589   5.781   0.992   3.432
 9230SOL    HW228590   5.924   0.934   3.485
 9231SOL     OW28591   1.450   4.882   4.648
 9231SOL    HW128592   1.387   4.902   4.573
 9231SOL    HW228593   1.400   4.881   4.735
 9232SOL     OW28594   3.155   5.321   0.530
 9232SOL    HW128595   3.176   5.341   0.435
 9232SOL    HW228596   3.236   5.282   0.574
 9233SOL     OW28597   5.292   5.619   1.536
 9233SOL    HW128598   5.289   5.669   1.450
 9233SOL    HW228599   5.347   5.536   1.525
 9234SOL     OW28600   3.858   5.526   5.117
 9234SOL    HW128601   3.927   5.496   5.051
 9234SOL    HW228602   3.805   5.601   5.078
 9235SOL     OW28603   1.488   2.632   3.737
 9235SOL    HW128604   1.428   2.632   3.657
 9235SOL    HW228605   1.457   2.701   3.803
 9236SOL     OW28606   2.802   4.309   5.614
 9236SOL    HW128607   2.840   4.218   5.629
 9236SOL    HW228608   2.758   4.312   5.524
 9237SOL     OW28609   2.316   4.892   5.156
 9237SOL    HW128610   2.404   4.873   5.199
 9237SOL    HW228611   2.249   4.823   5.184
 9238SOL     OW28612   4.161   1.701   6.204
 9238SOL    HW128613   4.138   1.772   6.271
 9238SOL    HW228614   4.156   1.611   6.247
 9239SOL     OW28615   0.531   3.966   1.173
 9239SOL    HW128616   0.473   4.002   1.100
 9239SOL    HW228617   0.604   3.911   1.133
 9240SOL     OW28618   5.439   1.746   0.440
 9240SOL    HW128619   5.476   1.707   0.524
 9240SOL    HW228620   5.370   1.814   0.462
 9241SOL     OW28621   0.956   5.286   6.578
 9241SOL    HW128622   0.979   5.284   6.481
 9241SOL    HW228623   0.858   5.270   6.589
 9242SOL     OW28624   6.585   5.537   0.901
 9242SOL    HW128625   6.541   5.448   0.907
 9242SOL    HW228626   6.639   5.553   0.984
 9243SOL     OW28627   5.948   6.198   2.663
 9243SOL    HW128628   5.910   6.275   2.713
 9243SOL    HW228629   6.002   6.141   2.725
 9244SOL     OW28630   4.631   5.320   6.013
 9244SOL    HW128631   4.714   5.302   5.960
 9244SOL    HW228632   4.554   5.334   5.950
 9245SOL     OW28633   1.367   5.647   3.008
 9245SOL    HW128634   1.317   5.717   2.957
 9245SOL    HW228635   1.455   5.684   3.039
 9246SOL     OW28636   0.048   4.797   3.184
 9246SOL    HW128637   0.054   4.826   3.279
 9246SOL    HW228638   0.137   4.810   3.140
 9247SOL     OW28639   0.897   0.292   3.378
 9247SOL    HW128640   0.940   0.234   3.309
 9247SOL    HW228641   0.806   0.258   3.399
 9248SOL     OW28642   2.019   2.987   6.300
 9248SOL    HW128643   2.091   2.941   6.351
 9248SOL    HW228644   2.018   3.084   6.324
 9249SOL     OW28645   5.396   3.351   6.310
 9249SOL    HW128646   5.367   3.258   6.287
 9249SOL    HW228647   5.377   3.369   6.406
 9250SOL     OW28648   5.202   3.341   4.937
 9250SOL    HW128649   5.123   3.393   4.907
 9250SOL    HW228650   5.206   3.255   4.887
 9251SOL     OW28651   3.662   2.143   3.142
 9251SOL    HW128652   3.597   2.136   3.217
 9251SOL    HW228653   3.755   2.134   3.177
 9252SOL     OW28654   6.321   0.147   4.285
 9252SOL    HW128655   6.244   0.147   4.349
 9252SOL    HW228656   6.403   0.179   4.332
 9253SOL     OW28657   4.781   5.764   5.863
 9253SOL    HW128658   4.712   5.722   5.923
 9253SOL    HW228659   4.782   5.716   5.775
 9254SOL     OW28660   6.161   4.787   1.578
 9254SOL    HW128661   6.102   4.841   1.519
 9254SOL    HW228662   6.106   4.719   1.627
 9255SOL     OW28663   5.568   2.835   0.315
 9255SOL    HW128664   5.475   2.864   0.337
 9255SOL    HW228665   5.626   2.916   0.302
 9256SOL     OW28666   3.860   5.084   2.912
 9256SOL    HW128667   3.880   5.116   3.004
 9256SOL    HW228668   3.910   4.999   2.894
 9257SOL     OW28669   0.855   3.723   2.781
 9257SOL    HW128670   0.905   3.769   2.855
 9257SOL    HW228671   0.812   3.791   2.723
 9258SOL     OW28672   4.088   3.209   4.186
 9258SOL    HW128673   4.138   3.207   4.273
 9258SOL    HW228674   4.115   3.290   4.134
 9259SOL     OW28675   1.796   2.202   1.142
 9259SOL    HW128676   1.819   2.185   1.238
 9259SOL    HW228677   1.845   2.136   1.085
 9260SOL     OW28678   4.993   1.494   5.462
 9260SOL    HW128679   4.933   1.432   5.512
 9260SOL    HW228680   5.025   1.449   5.378
 9261SOL     OW28681   4.843   0.696   6.543
 9261SOL    HW128682   4.766   0.760   6.539
 9261SOL    HW228683   4.821   0.613   6.492
 9262SOL     OW28684   6.411   3.267   5.572
 9262SOL    HW128685   6.464   3.329   5.629
 9262SOL    HW228686   6.461   3.181   5.562
 9263SOL     OW28687   6.158   3.895   1.010
 9263SOL    HW128688   6.187   3.981   1.052
 9263SOL    HW228689   6.058   3.891   1.010
 9264SOL     OW28690   5.518   4.221   0.332
 9264SOL    HW128691   5.480   4.194   0.243
 9264SOL    HW228692   5.605   4.267   0.318
 9265SOL     OW28693   3.013   1.468   0.552
 9265SOL    HW128694   2.937   1.428   0.602
 9265SOL    HW228695   3.095   1.467   0.609
 9266SOL     OW28696   1.612   6.109   1.979
 9266SOL    HW128697   1.618   6.010   1.971
 9266SOL    HW228698   1.626   6.136   2.074
 9267SOL     OW28699   6.754   4.228   5.969
 9267SOL    HW128700   6.809   4.238   6.052
 9267SOL    HW228701   6.657   4.235   5.993
 9268SOL     OW28702   1.181   5.846   1.202
 9268SOL    HW128703   1.204   5.943   1.193
 9268SOL    HW228704   1.125   5.832   1.284
 9269SOL     OW28705   3.399   2.604   6.244
 9269SOL    HW128706   3.368   2.588   6.150
 9269SOL    HW228707   3.459   2.685   6.246
 9270SOL     OW28708   5.367   0.105   5.747
 9270SOL    HW128709   5.367   0.080   5.651
 9270SOL    HW228710   5.460   0.102   5.783
 9271SOL     OW28711   1.599   5.731   6.782
 9271SOL    HW128712   1.655   5.798   6.734
 9271SOL    HW228713   1.543   5.680   6.716
 9272SOL     OW28714   3.050   5.214   5.617
 9272SOL    HW128715   2.968   5.162   5.640
 9272SOL    HW228716   3.061   5.289   5.681
 9273SOL     OW28717   5.145   5.796   3.970
 9273SOL    HW128718   5.217   5.792   3.900
 9273SOL    HW228719   5.159   5.722   4.036
 9274SOL     OW28720   6.525   2.764   0.167
 9274SOL    HW128721   6.458   2.705   0.123
 9274SOL    HW228722   6.527   2.745   0.265
 9275SOL     OW28723   0.304   1.705   6.884
 9275SOL    HW128724   0.401   1.730   6.887
 9275SOL    HW228725   0.257   1.745   6.962
 9276SOL     OW28726   2.745   4.830   4.144
 9276SOL    HW128727   2.737   4.743   4.193
 9276SOL    HW228728   2.655   4.873   4.137
 9277SOL     OW28729   3.900   3.645   0.360
 9277SOL    HW128730   3.976   3.588   0.391
 9277SOL    HW228731   3.846   3.673   0.439
 9278SOL     OW28732   1.928   1.173   4.151
 9278SOL    HW128733   1.901   1.077   4.142
 9278SOL    HW228734   2.028   1.179   4.159
 9279SOL     OW28735   4.526   0.413   1.774
 9279SOL    HW128736   4.437   0.413   1.819
 9279SOL    HW228737   4.569   0.503   1.785
 9280SOL     OW28738   1.809   0.329   3.511
 9280SOL    HW128739   1.876   0.351   3.583
 9280SOL    HW228740   1.850   0.349   3.422
 9281SOL     OW28741   3.318   3.964   1.173
 9281SOL    HW128742   3.261   4.035   1.213
 9281SOL    HW228743   3.281   3.874   1.197
 9282SOL     OW28744   4.281   2.077   4.440
 9282SOL    HW128745   4.256   2.049   4.532
 9282SOL    HW228746   4.306   2.174   4.440
 9283SOL     OW28747   5.869   0.818   3.140
 9283SOL    HW128748   5.915   0.736   3.106
 9283SOL    HW228749   5.884   0.827   3.239
 9284SOL     OW28750   3.669   5.295   6.795
 9284SOL    HW128751   3.655   5.298   6.894
 9284SOL    HW228752   3.666   5.388   6.758
 9285SOL     OW28753   5.367   3.463   0.318
 9285SOL    HW128754   5.331   3.544   0.272
 9285SOL    HW228755   5.315   3.446   0.402
 9286SOL     OW28756   5.135   0.201   5.878
 9286SOL    HW128757   5.060   0.207   5.812
 9286SOL    HW228758   5.219   0.174   5.830
 9287SOL     OW28759   2.910   5.804   0.450
 9287SOL    HW128760   2.934   5.865   0.526
 9287SOL    HW228761   2.960   5.718   0.460
 9288SOL     OW28762   2.651   1.736   5.283
 9288SOL    HW128763   2.579   1.735   5.214
 9288SOL    HW228764   2.735   1.701   5.243
 9289SOL     OW28765   3.727   1.833   2.251
 9289SOL    HW128766   3.786   1.753   2.264
 9289SOL    HW228767   3.640   1.803   2.213
 9290SOL     OW28768   4.802   2.046   3.980
 9290SOL    HW128769   4.760   2.136   3.972
 9290SOL    HW228770   4.734   1.976   3.957
 9291SOL     OW28771   2.623   0.311   5.046
 9291SOL    HW128772   2.545   0.253   5.019
 9291SOL    HW228773   2.604   0.406   5.019
 9292SOL     OW28774   6.855   3.376   6.236
 9292SOL    HW128775   6.948   3.402   6.261
 9292SOL    HW228776   6.796   3.457   6.241
 9293SOL     OW28777   6.527   3.894   1.109
 9293SOL    HW128778   6.505   3.991   1.124
 9293SOL    HW228779   6.532   3.847   1.197
 9294SOL     OW28780   3.457   6.347   5.778
 9294SOL    HW128781   3.385   6.398   5.825
 9294SOL    HW228782   3.544   6.361   5.827
 9295SOL     OW28783   5.072   2.054   3.854
 9295SOL    HW128784   5.011   2.062   3.932
 9295SOL    HW228785   5.111   1.962   3.851
 9296SOL     OW28786   0.329   6.102   6.551
 9296SOL    HW128787   0.273   6.109   6.633
 9296SOL    HW228788   0.425   6.093   6.578
 9297SOL     OW28789   6.898   0.540   0.975
 9297SOL    HW128790   6.972   0.481   0.944
 9297SOL    HW228791   6.905   0.630   0.931
 9298SOL     OW28792   2.078   6.670   5.717
 9298SOL    HW128793   2.004   6.737   5.721
 9298SOL    HW228794   2.105   6.656   5.622
 9299SOL     OW28795   0.839   2.617   4.445
 9299SOL    HW128796   0.832   2.517   4.441
 9299SOL    HW228797   0.756   2.658   4.408
 9300SOL     OW28798   0.300   4.922   4.823
 9300SOL    HW128799   0.232   4.994   4.810
 9300SOL    HW228800   0.317   4.876   4.736
 9301SOL     OW28801   4.758   4.422   3.544
 9301SOL    HW128802   4.751   4.337   3.491
 9301SOL    HW228803   4.716   4.497   3.492
 9302SOL     OW28804   2.196   3.155   4.353
 9302SOL    HW128805   2.151   3.142   4.442
 9302SOL    HW228806   2.276   3.213   4.364
 9303SOL     OW28807   3.740   6.233   0.889
 9303SOL    HW128808   3.817   6.273   0.840
 9303SOL    HW228809   3.663   6.222   0.827
 9304SOL     OW28810   4.283   4.120   1.099
 9304SOL    HW128811   4.285   4.073   1.188
 9304SOL    HW228812   4.244   4.058   1.031
 9305SOL     OW28813   4.026   1.611   1.650
 9305SOL    HW128814   4.083   1.680   1.605
 9305SOL    HW228815   3.956   1.578   1.586
 9306SOL     OW28816   0.559   4.931   4.852
 9306SOL    HW128817   0.463   4.905   4.859
 9306SOL    HW228818   0.616   4.859   4.894
 9307SOL     OW28819   1.430   3.567   1.548
 9307SOL    HW128820   1.388   3.549   1.459
 9307SOL    HW228821   1.467   3.660   1.550
 9308SOL     OW28822   1.155   4.087   1.071
 9308SOL    HW128823   1.131   4.064   0.976
 9308SOL    HW228824   1.252   4.111   1.076
 9309SOL     OW28825   3.536   5.041   5.412
 9309SOL    HW128826   3.543   4.991   5.326
 9309SOL    HW228827   3.503   4.979   5.483
 9310SOL     OW28828   4.426   5.751   6.222
 9310SOL    HW128829   4.469   5.735   6.311
 9310SOL    HW228830   4.497   5.764   6.153
 9311SOL     OW28831   5.877   4.928   1.822
 9311SOL    HW128832   5.914   5.020   1.836
 9311SOL    HW228833   5.838   4.894   1.907
 9312SOL     OW28834   1.464   4.154   1.601
 9312SOL    HW128835   1.483   4.248   1.627
 9312SOL    HW228836   1.521   4.092   1.655
 9313SOL     OW28837   0.404   0.608   0.884
 9313SOL    HW128838   0.427   0.652   0.798
 9313SOL    HW228839   0.464   0.642   0.956
 9314SOL     OW28840   3.895   5.295   5.818
 9314SOL    HW128841   3.850   5.327   5.735
 9314SOL    HW228842   3.843   5.220   5.857
 9315SOL     OW28843   6.745   0.635   5.214
 9315SOL    HW128844   6.786   0.572   5.148
 9315SOL    HW228845   6.806   0.646   5.292
 9316SOL     OW28846   4.183   5.187   5.150
 9316SOL    HW128847   4.163   5.197   5.248
 9316SOL    HW228848   4.128   5.112   5.113
 9317SOL     OW28849   6.612   5.695   3.243
 9317SOL    HW128850   6.592   5.760   3.317
 9317SOL    HW228851   6.542   5.705   3.172
 9318SOL     OW28852   6.620   1.076   5.024
 9318SOL    HW128853   6.534   1.109   5.064
 9318SOL    HW228854   6.648   1.136   4.950
 9319SOL     OW28855   0.342   2.665   5.664
 9319SOL    HW128856   0.289   2.612   5.598
 9319SOL    HW228857   0.429   2.692   5.623
 9320SOL     OW28858   4.627   1.706   6.548
 9320SOL    HW128859   4.633   1.723   6.450
 9320SOL    HW228860   4.538   1.736   6.582
 9321SOL     OW28861   6.225   6.839   2.667
 9321SOL    HW128862   6.252   6.848   2.571
 9321SOL    HW228863   6.180   6.923   2.697
 9322SOL     OW28864   0.001   6.151   6.304
 9322SOL    HW128865   6.966   6.146   6.382
 9322SOL    HW228866   0.087   6.192   6.334
 9323SOL     OW28867   1.803   0.116   5.761
 9323SOL    HW128868   1.830   0.143   5.853
 9323SOL    HW228869   1.848   0.176   5.695
 9324SOL     OW28870   1.747   5.107   0.459
 9324SOL    HW128871   1.688   5.187   0.444
 9324SOL    HW228872   1.692   5.024   0.458
 9325SOL     OW28873   5.287   2.048   7.022
 9325SOL    HW128874   5.198   2.015   0.027
 9325SOL    HW228875   5.352   2.048   0.070
 9326SOL     OW28876   2.330   0.024   0.945
 9326SOL    HW128877   2.269   0.072   0.881
 9326SOL    HW228878   2.283   0.011   1.032
 9327SOL     OW28879   4.983   6.474   2.644
 9327SOL    HW128880   4.890   6.474   2.610
 9327SOL    HW228881   4.982   6.483   2.744
 9328SOL     OW28882   3.545   0.721   6.422
 9328SOL    HW128883   3.476   0.793   6.432
 9328SOL    HW228884   3.601   0.740   6.341
 9329SOL     OW28885   0.043   3.975   2.173
 9329SOL    HW128886   0.064   3.885   2.133
 9329SOL    HW228887   0.124   4.034   2.165
 9330SOL     OW28888   0.388   5.985   0.034
 9330SOL    HW128889   0.402   5.994   0.133
 9330SOL    HW228890   0.364   6.074   7.023
 9331SOL     OW28891   1.329   1.511   5.900
 9331SOL    HW128892   1.340   1.500   5.999
 9331SOL    HW228893   1.419   1.503   5.856
 9332SOL     OW28894   3.678   4.119   2.931
 9332SOL    HW128895   3.601   4.083   2.982
 9332SOL    HW228896   3.686   4.218   2.948
 9333SOL     OW28897   4.654   4.060   1.452
 9333SOL    HW128898   4.742   4.107   1.445
 9333SOL    HW228899   4.617   4.071   1.544
 9334SOL     OW28900   4.107   6.830   4.034
 9334SOL    HW128901   4.187   6.836   4.094
 9334SOL    HW228902   4.134   6.851   3.940
 9335SOL     OW28903   1.063   0.999   6.185
 9335SOL    HW128904   1.140   1.062   6.178
 9335SOL    HW228905   1.096   0.905   6.178
 9336SOL     OW28906   3.338   5.641   6.379
 9336SOL    HW128907   3.381   5.722   6.416
 9336SOL    HW228908   3.329   5.571   6.450
 9337SOL     OW28909   4.900   0.667   3.554
 9337SOL    HW128910   4.990   0.635   3.584
 9337SOL    HW228911   4.907   0.760   3.519
 9338SOL     OW28912   4.352   0.869   1.901
 9338SOL    HW128913   4.268   0.819   1.880
 9338SOL    HW228914   4.379   0.925   1.822
 9339SOL     OW28915   5.388   6.896   0.777
 9339SOL    HW128916   5.466   6.931   0.725
 9339SOL    HW228917   5.310   6.883   0.716
 9340SOL     OW28918   5.088   3.637   5.081
 9340SOL    HW128919   4.988   3.640   5.080
 9340SOL    HW228920   5.123   3.678   4.997
 9341SOL     OW28921   0.535   5.687   6.260
 9341SOL    HW128922   0.459   5.741   6.296
 9341SOL    HW228923   0.605   5.748   6.224
 9342SOL     OW28924   2.413   0.830   3.914
 9342SOL    HW128925   2.429   0.927   3.896
 9342SOL    HW228926   2.476   0.799   3.985
 9343SOL     OW28927   5.988   4.607   3.003
 9343SOL    HW128928   6.030   4.607   2.912
 9343SOL    HW228929   6.021   4.529   3.055
 9344SOL     OW28930   4.486   5.866   1.534
 9344SOL    HW128931   4.553   5.941   1.533
 9344SOL    HW228932   4.488   5.819   1.445
 9345SOL     OW28933   6.452   3.978   1.684
 9345SOL    HW128934   6.506   3.953   1.764
 9345SOL    HW228935   6.512   3.985   1.604
 9346SOL     OW28936   6.210   1.127   1.176
 9346SOL    HW128937   6.200   1.157   1.081
 9346SOL    HW228938   6.188   1.030   1.183
 9347SOL     OW28939   1.369   5.487   0.862
 9347SOL    HW128940   1.320   5.400   0.853
 9347SOL    HW228941   1.439   5.479   0.933
 9348SOL     OW28942   4.075   5.501   1.441
 9348SOL    HW128943   4.009   5.433   1.409
 9348SOL    HW228944   4.084   5.573   1.373
 9349SOL     OW28945   0.607   0.050   2.465
 9349SOL    HW128946   0.697   0.069   2.504
 9349SOL    HW228947   0.617   0.004   2.377
 9350SOL     OW28948   0.478   3.020   5.190
 9350SOL    HW128949   0.546   3.029   5.263
 9350SOL    HW228950   0.511   2.955   5.122
 9351SOL     OW28951   3.304   1.243   6.262
 9351SOL    HW128952   3.217   1.201   6.238
 9351SOL    HW228953   3.378   1.195   6.213
 9352SOL     OW28954   2.898   3.428   0.578
 9352SOL    HW128955   2.937   3.336   0.578
 9352SOL    HW228956   2.825   3.433   0.647
 9353SOL     OW28957   0.852   5.359   1.616
 9353SOL    HW128958   0.948   5.349   1.642
 9353SOL    HW228959   0.820   5.451   1.639
 9354SOL     OW28960   6.804   2.257   6.729
 9354SOL    HW128961   6.746   2.218   6.657
 9354SOL    HW228962   6.900   2.247   6.703
 9355SOL     OW28963   0.643   2.485   4.932
 9355SOL    HW128964   0.659   2.412   4.865
 9355SOL    HW228965   0.625   2.445   5.022
 9356SOL     OW28966   3.747   6.970   1.533
 9356SOL    HW128967   3.730   6.881   1.575
 9356SOL    HW228968   3.843   6.995   1.544
 9357SOL     OW28969   1.238   3.235   6.105
 9357SOL    HW128970   1.302   3.281   6.168
 9357SOL    HW228971   1.261   3.138   6.101
 9358SOL     OW28972   0.750   4.061   2.296
 9358SOL    HW128973   0.758   4.158   2.319
 9358SOL    HW228974   0.840   4.023   2.275
 9359SOL     OW28975   1.534   5.210   6.321
 9359SOL    HW128976   1.631   5.213   6.344
 9359SOL    HW228977   1.508   5.115   6.300
 9360SOL     OW28978   1.408   6.290   6.586
 9360SOL    HW128979   1.349   6.214   6.613
 9360SOL    HW228980   1.437   6.341   6.667
 9361SOL     OW28981   2.041   5.695   3.424
 9361SOL    HW128982   2.030   5.740   3.512
 9361SOL    HW228983   2.138   5.684   3.403
 9362SOL     OW28984   1.452   1.582   2.434
 9362SOL    HW128985   1.352   1.583   2.443
 9362SOL    HW228986   1.489   1.498   2.473
 9363SOL     OW28987   3.471   5.208   1.719
 9363SOL    HW128988   3.490   5.296   1.677
 9363SOL    HW228989   3.373   5.189   1.713
 9364SOL     OW28990   2.497   2.686   1.802
 9364SOL    HW128991   2.534   2.595   1.816
 9364SOL    HW228992   2.439   2.711   1.880
 9365SOL     OW28993   2.839   1.961   4.307
 9365SOL    HW128994   2.782   2.020   4.250
 9365SOL    HW228995   2.781   1.918   4.377
 9366SOL     OW28996   2.981   6.026   0.277
 9366SOL    HW128997   3.073   5.994   0.298
 9366SOL    HW228998   2.916   5.984   0.340
 9367SOL     OW28999   5.960   0.635   1.294
 9367SOL    HW129000   5.878   0.603   1.247
 9367SOL    HW229001   5.990   0.722   1.254
 9368SOL     OW29002   3.847   6.874   2.600
 9368SOL    HW129003   3.804   6.944   2.658
 9368SOL    HW229004   3.870   6.914   2.511
 9369SOL     OW29005   0.512   5.682   4.975
 9369SOL    HW129006   0.600   5.696   5.022
 9369SOL    HW229007   0.493   5.584   4.969
 9370SOL     OW29008   4.900   0.972   3.458
 9370SOL    HW129009   4.861   1.025   3.382
 9370SOL    HW229010   4.990   0.939   3.432
 9371SOL     OW29011   3.508   5.353   1.425
 9371SOL    HW129012   3.490   5.256   1.411
 9371SOL    HW229013   3.457   5.407   1.358
 9372SOL     OW29014   4.360   0.160   1.523
 9372SOL    HW129015   4.440   0.111   1.489
 9372SOL    HW229016   4.310   0.103   1.587
 9373SOL     OW29017   6.509   2.716   0.441
 9373SOL    HW129018   6.590   2.767   0.471
 9373SOL    HW229019   6.428   2.772   0.457
 9374SOL     OW29020   0.575   4.057   5.730
 9374SOL    HW129021   0.541   4.142   5.771
 9374SOL    HW229022   0.508   4.021   5.666
 9375SOL     OW29023   6.985   1.903   0.313
 9375SOL    HW129024   6.891   1.905   0.279
 9375SOL    HW229025   0.012   1.971   0.264
 9376SOL     OW29026   2.087   3.532   2.211
 9376SOL    HW129027   2.143   3.480   2.147
 9376SOL    HW229028   2.070   3.624   2.174
 9377SOL     OW29029   2.807   5.324   2.835
 9377SOL    HW129030   2.884   5.341   2.773
 9377SOL    HW229031   2.801   5.399   2.901
 9378SOL     OW29032   3.534   0.952   3.613
 9378SOL    HW129033   3.625   0.917   3.636
 9378SOL    HW229034   3.541   1.019   3.540
 9379SOL     OW29035   4.610   6.484   4.660
 9379SOL    HW129036   4.665   6.527   4.589
 9379SOL    HW229037   4.626   6.385   4.659
 9380SOL     OW29038   3.339   5.413   5.843
 9380SOL    HW129039   3.241   5.407   5.823
 9380SOL    HW229040   3.379   5.486   5.788
 9381SOL     OW29041   4.851   1.716   4.503
 9381SOL    HW129042   4.792   1.644   4.465
 9381SOL    HW229043   4.811   1.805   4.482
 9382SOL     OW29044   3.715   0.899   3.972
 9382SOL    HW129045   3.654   0.832   4.016
 9382SOL    HW229046   3.685   0.913   3.877
 9383SOL     OW29047   4.862   4.010   3.759
 9383SOL    HW129048   4.907   3.921   3.769
 9383SOL    HW229049   4.906   4.061   3.686
 9384SOL     OW29050   2.002   6.753   2.032
 9384SOL    HW129051   2.089   6.715   2.065
 9384SOL    HW229052   1.974   6.704   1.949
 9385SOL     OW29053   3.955   1.367   4.150
 9385SOL    HW129054   3.872   1.314   4.131
 9385SOL    HW229055   4.027   1.306   4.182
 9386SOL     OW29056   3.611   5.969   5.346
 9386SOL    HW129057   3.547   6.029   5.298
 9386SOL    HW229058   3.574   5.876   5.348
 9387SOL     OW29059   3.999   2.165   0.300
 9387SOL    HW129060   4.047   2.187   0.215
 9387SOL    HW229061   3.948   2.080   0.289
 9388SOL     OW29062   1.869   6.937   4.156
 9388SOL    HW129063   1.826   6.987   4.232
 9388SOL    HW229064   1.829   6.846   4.150
 9389SOL     OW29065   3.395   5.374   2.639
 9389SOL    HW129066   3.351   5.312   2.705
 9389SOL    HW229067   3.378   5.340   2.546
 9390SOL     OW29068   5.329   4.629   5.361
 9390SOL    HW129069   5.388   4.549   5.354
 9390SOL    HW229070   5.357   4.686   5.438
 9391SOL     OW29071   0.938   6.879   4.968
 9391SOL    HW129072   0.920   6.872   5.066
 9391SOL    HW229073   0.857   6.915   4.922
 9392SOL     OW29074   5.270   4.571   3.571
 9392SOL    HW129075   5.202   4.641   3.549
 9392SOL    HW229076   5.357   4.615   3.594
 9393SOL     OW29077   3.247   6.241   6.185
 9393SOL    HW129078   3.168   6.260   6.243
 9393SOL    HW229079   3.218   6.188   6.105
 9394SOL     OW29080   5.790   0.702   1.517
 9394SOL    HW129081   5.744   0.735   1.434
 9394SOL    HW229082   5.841   0.777   1.558
 9395SOL     OW29083   3.062   1.675   0.878
 9395SOL    HW129084   3.136   1.654   0.814
 9395SOL    HW229085   2.985   1.714   0.827
 9396SOL     OW29086   1.803   6.114   6.303
 9396SOL    HW129087   1.814   6.061   6.219
 9396SOL    HW229088   1.774   6.207   6.280
 9397SOL     OW29089   3.727   6.942   6.065
 9397SOL    HW129090   3.764   6.850   6.077
 9397SOL    HW229091   3.673   6.967   6.146
 9398SOL     OW29092   6.347   1.063   6.410
 9398SOL    HW129093   6.336   1.020   6.321
 9398SOL    HW229094   6.433   1.034   6.451
 9399SOL     OW29095   1.635   3.150   4.243
 9399SOL    HW129096   1.710   3.114   4.188
 9399SOL    HW229097   1.638   3.109   4.334
 9400SOL     OW29098   5.454   1.518   0.050
 9400SOL    HW129099   5.449   1.544   6.981
 9400SOL    HW229100   5.402   1.434   0.065
 9401SOL     OW29101   0.902   2.596   2.732
 9401SOL    HW129102   0.810   2.608   2.694
 9401SOL    HW229103   0.942   2.511   2.696
 9402SOL     OW29104   1.639   5.658   3.066
 9402SOL    HW129105   1.680   5.705   2.988
 9402SOL    HW229106   1.658   5.708   3.150
 9403SOL     OW29107   6.800   1.101   2.148
 9403SOL    HW129108   6.800   1.122   2.050
 9403SOL    HW229109   6.726   1.036   2.168
 9404SOL     OW29110   1.215   3.251   1.170
 9404SOL    HW129111   1.246   3.157   1.183
 9404SOL    HW229112   1.157   3.256   1.089
 9405SOL     OW29113   0.235   4.756   5.076
 9405SOL    HW129114   0.162   4.688   5.078
 9405SOL    HW229115   0.244   4.792   4.983
 9406SOL     OW29116   0.726   2.950   6.394
 9406SOL    HW129117   0.643   2.951   6.449
 9406SOL    HW229118   0.775   3.037   6.405
 9407SOL     OW29119   2.356   5.191   4.880
 9407SOL    HW129120   2.333   5.242   4.963
 9407SOL    HW229121   2.281   5.129   4.857
 9408SOL     OW29122   6.784   3.918   5.575
 9408SOL    HW129123   6.732   3.895   5.657
 9408SOL    HW229124   6.837   4.001   5.591
 9409SOL     OW29125   6.666   5.473   2.199
 9409SOL    HW129126   6.666   5.466   2.298
 9409SOL    HW229127   6.758   5.494   2.166
 9410SOL     OW29128   4.289   0.404   1.942
 9410SOL    HW129129   4.303   0.485   1.999
 9410SOL    HW229130   4.283   0.323   2.000
 9411SOL     OW29131   3.945   3.052   3.828
 9411SOL    HW129132   3.914   3.032   3.921
 9411SOL    HW229133   3.890   3.000   3.763
 9412SOL     OW29134   0.213   0.721   1.083
 9412SOL    HW129135   0.246   0.661   1.010
 9412SOL    HW229136   0.250   0.813   1.069
 9413SOL     OW29137   4.376   4.955   4.194
 9413SOL    HW129138   4.386   5.046   4.233
 9413SOL    HW229139   4.467   4.919   4.170
 9414SOL     OW29140   2.151   2.312   4.961
 9414SOL    HW129141   2.181   2.305   5.056
 9414SOL    HW229142   2.105   2.227   4.935
 9415SOL     OW29143   3.776   0.108   2.417
 9415SOL    HW129144   3.875   0.092   2.418
 9415SOL    HW229145   3.757   0.199   2.453
 9416SOL     OW29146   0.381   6.090   6.207
 9416SOL    HW129147   0.474   6.123   6.188
 9416SOL    HW229148   0.326   6.164   6.243
 9417SOL     OW29149   2.879   6.422   1.005
 9417SOL    HW129150   2.863   6.338   1.056
 9417SOL    HW229151   2.977   6.437   0.995
 9418SOL     OW29152   3.074   1.898   4.202
 9418SOL    HW129153   2.989   1.913   4.251
 9418SOL    HW229154   3.143   1.962   4.234
 9419SOL     OW29155   3.155   2.357   6.793
 9419SOL    HW129156   3.093   2.338   6.717
 9419SOL    HW229157   3.247   2.328   6.768
 9420SOL     OW29158   5.630   3.385   0.374
 9420SOL    HW129159   5.610   3.287   0.382
 9420SOL    HW229160   5.545   3.436   0.364
 9421SOL     OW29161   3.776   6.245   5.682
 9421SOL    HW129162   3.752   6.148   5.693
 9421SOL    HW229163   3.742   6.297   5.760
 9422SOL     OW29164   2.690   5.950   4.246
 9422SOL    HW129165   2.604   5.945   4.196
 9422SOL    HW229166   2.675   5.992   4.335
 9423SOL     OW29167   4.084   6.000   3.088
 9423SOL    HW129168   4.161   6.027   3.030
 9423SOL    HW229169   4.103   5.911   3.129
 9424SOL     OW29170   5.334   1.233   4.431
 9424SOL    HW129171   5.318   1.303   4.500
 9424SOL    HW229172   5.317   1.271   4.340
 9425SOL     OW29173   6.387   4.879   0.902
 9425SOL    HW129174   6.361   4.888   0.806
 9425SOL    HW229175   6.309   4.845   0.954
 9426SOL     OW29176   0.577   1.912   6.269
 9426SOL    HW129177   0.590   1.976   6.193
 9426SOL    HW229178   0.620   1.825   6.248
 9427SOL     OW29179   3.786   5.824   2.985
 9427SOL    HW129180   3.779   5.781   3.075
 9427SOL    HW229181   3.868   5.789   2.938
 9428SOL     OW29182   6.329   6.829   6.879
 9428SOL    HW129183   6.328   6.824   6.779
 9428SOL    HW229184   6.422   6.811   6.912
 9429SOL     OW29185   1.138   2.253   4.016
 9429SOL    HW129186   1.189   2.313   3.955
 9429SOL    HW229187   1.201   2.192   4.065
 9430SOL     OW29188   0.240   2.083   4.212
 9430SOL    HW129189   0.301   2.070   4.134
 9430SOL    HW229190   0.146   2.059   4.185
 9431SOL     OW29191   6.833   4.652   6.828
 9431SOL    HW129192   6.751   4.597   6.843
 9431SOL    HW229193   6.884   4.660   6.913
 9432SOL     OW29194   6.683   1.501   3.449
 9432SOL    HW129195   6.774   1.524   3.413
 9432SOL    HW229196   6.631   1.585   3.462
 9433SOL     OW29197   4.223   6.178   2.665
 9433SOL    HW129198   4.277   6.134   2.593
 9433SOL    HW229199   4.252   6.273   2.675
 9434SOL     OW29200   4.652   5.758   3.973
 9434SOL    HW129201   4.733   5.747   3.916
 9434SOL    HW229202   4.659   5.843   4.025
 9435SOL     OW29203   0.743   2.606   2.101
 9435SOL    HW129204   0.652   2.647   2.092
 9435SOL    HW229205   0.743   2.545   2.181
 9436SOL     OW29206   0.379   0.977   2.735
 9436SOL    HW129207   0.289   1.017   2.757
 9436SOL    HW229208   0.390   0.971   2.636
 9437SOL     OW29209   0.187   5.270   4.496
 9437SOL    HW129210   0.214   5.363   4.471
 9437SOL    HW229211   0.191   5.211   4.415
 9438SOL     OW29212   2.291   6.289   1.671
 9438SOL    HW129213   2.269   6.192   1.677
 9438SOL    HW229214   2.355   6.304   1.596
 9439SOL     OW29215   0.850   2.940   0.056
 9439SOL    HW129216   0.921   2.936   7.014
 9439SOL    HW229217   0.796   2.856   0.054
 9440SOL     OW29218   3.253   4.892   3.662
 9440SOL    HW129219   3.341   4.853   3.636
 9440SOL    HW229220   3.218   4.949   3.588
 9441SOL     OW29221   6.608   5.632   4.395
 9441SOL    HW129222   6.591   5.676   4.307
 9441SOL    HW229223   6.700   5.655   4.427
 9442SOL     OW29224   4.710   3.568   0.693
 9442SOL    HW129225   4.700   3.475   0.728
 9442SOL    HW229226   4.797   3.576   0.644
 9443SOL     OW29227   2.751   4.799   2.538
 9443SOL    HW129228   2.730   4.773   2.444
 9443SOL    HW229229   2.728   4.724   2.599
 9444SOL     OW29230   2.088   3.751   0.534
 9444SOL    HW129231   2.125   3.830   0.583
 9444SOL    HW229232   2.147   3.730   0.455
 9445SOL     OW29233   0.611   1.435   3.755
 9445SOL    HW129234   0.597   1.339   3.733
 9445SOL    HW229235   0.584   1.452   3.850
 9446SOL     OW29236   6.461   4.602   3.619
 9446SOL    HW129237   6.379   4.656   3.601
 9446SOL    HW229238   6.537   4.663   3.641
 9447SOL     OW29239   5.646   5.366   2.930
 9447SOL    HW129240   5.649   5.385   3.028
 9447SOL    HW229241   5.729   5.317   2.903
 9448SOL     OW29242   5.689   0.519   5.769
 9448SOL    HW129243   5.702   0.557   5.861
 9448SOL    HW229244   5.704   0.591   5.702
 9449SOL     OW29245   5.726   6.837   1.015
 9449SOL    HW129246   5.768   6.747   1.026
 9449SOL    HW229247   5.790   6.898   0.969
 9450SOL     OW29248   1.412   5.650   4.124
 9450SOL    HW129249   1.402   5.749   4.137
 9450SOL    HW229250   1.442   5.608   4.210
 9451SOL     OW29251   3.959   5.433   6.052
 9451SOL    HW129252   4.057   5.452   6.049
 9451SOL    HW229253   3.933   5.377   5.974
 9452SOL     OW29254   0.250   4.273   1.061
 9452SOL    HW129255   0.152   4.274   1.042
 9452SOL    HW229256   0.290   4.189   1.024
 9453SOL     OW29257   3.702   5.369   3.083
 9453SOL    HW129258   3.789   5.343   3.042
 9453SOL    HW229259   3.683   5.311   3.162
 9454SOL     OW29260   4.337   4.405   0.767
 9454SOL    HW129261   4.398   4.483   0.774
 9454SOL    HW229262   4.389   4.321   0.782
 9455SOL     OW29263   2.753   2.286   2.323
 9455SOL    HW129264   2.681   2.219   2.310
 9455SOL    HW229265   2.823   2.275   2.252
 9456SOL     OW29266   6.125   3.154   2.277
 9456SOL    HW129267   6.114   3.111   2.367
 9456SOL    HW229268   6.126   3.083   2.207
 9457SOL     OW29269   1.043   4.740   3.910
 9457SOL    HW129270   0.965   4.732   3.848
 9457SOL    HW229271   1.018   4.701   3.999
 9458SOL     OW29272   6.711   4.070   0.445
 9458SOL    HW129273   6.648   4.136   0.402
 9458SOL    HW229274   6.658   3.999   0.491
 9459SOL     OW29275   5.324   4.673   4.503
 9459SOL    HW129276   5.410   4.678   4.554
 9459SOL    HW229277   5.286   4.765   4.493
 9460SOL     OW29278   1.089   2.824   3.117
 9460SOL    HW129279   1.161   2.891   3.136
 9460SOL    HW229280   1.074   2.817   3.019
 9461SOL     OW29281   1.589   2.252   1.470
 9461SOL    HW129282   1.614   2.300   1.554
 9461SOL    HW229283   1.530   2.311   1.415
 9462SOL     OW29284   2.182   1.849   4.181
 9462SOL    HW129285   2.191   1.876   4.277
 9462SOL    HW229286   2.253   1.782   4.159
 9463SOL     OW29287   5.172   6.690   0.909
 9463SOL    HW129288   5.107   6.722   0.979
 9463SOL    HW229289   5.180   6.759   0.837
 9464SOL     OW29290   0.250   0.789   1.629
 9464SOL    HW129291   0.233   0.836   1.543
 9464SOL    HW229292   0.171   0.732   1.653
 9465SOL     OW29293   0.501   4.158   1.523
 9465SOL    HW129294   0.557   4.144   1.441
 9465SOL    HW229295   0.422   4.215   1.500
 9466SOL     OW29296   4.024   5.304   6.835
 9466SOL    HW129297   4.102   5.305   6.772
 9466SOL    HW229298   3.959   5.234   6.806
 9467SOL     OW29299   2.114   3.403   0.908
 9467SOL    HW129300   2.193   3.427   0.964
 9467SOL    HW229301   2.090   3.307   0.923
 9468SOL     OW29302   6.513   3.241   0.549
 9468SOL    HW129303   6.518   3.212   0.453
 9468SOL    HW229304   6.580   3.191   0.603
 9469SOL     OW29305   0.157   6.053   0.737
 9469SOL    HW129306   0.171   5.978   0.672
 9469SOL    HW229307   0.060   6.074   0.744
 9470SOL     OW29308   5.095   3.879   0.691
 9470SOL    HW129309   5.118   3.893   0.595
 9470SOL    HW229310   5.000   3.906   0.706
 9471SOL     OW29311   6.048   2.155   5.015
 9471SOL    HW129312   6.118   2.084   5.025
 9471SOL    HW229313   6.036   2.203   5.101
 9472SOL     OW29314   1.530   4.177   6.014
 9472SOL    HW129315   1.510   4.134   6.102
 9472SOL    HW229316   1.480   4.263   6.007
 9473SOL     OW29317   2.810   4.568   0.339
 9473SOL    HW129318   2.712   4.551   0.350
 9473SOL    HW229319   2.854   4.566   0.429
 9474SOL     OW29320   5.800   3.538   1.865
 9474SOL    HW129321   5.896   3.512   1.850
 9474SOL    HW229322   5.743   3.456   1.861
 9475SOL     OW29323   4.910   3.640   5.690
 9475SOL    HW129324   4.898   3.568   5.622
 9475SOL    HW229325   4.861   3.722   5.661
 9476SOL     OW29326   3.660   4.214   5.716
 9476SOL    HW129327   3.581   4.275   5.714
 9476SOL    HW229328   3.633   4.126   5.756
 9477SOL     OW29329   1.926   3.966   1.495
 9477SOL    HW129330   1.946   4.063   1.484
 9477SOL    HW229331   1.916   3.945   1.593
 9478SOL     OW29332   5.180   2.689   0.475
 9478SOL    HW129333   5.125   2.672   0.393
 9478SOL    HW229334   5.228   2.776   0.465
 9479SOL     OW29335   4.363   1.039   1.708
 9479SOL    HW129336   4.422   1.016   1.631
 9479SOL    HW229337   4.367   1.137   1.725
 9480SOL     OW29338   6.067   6.292   6.710
 9480SOL    HW129339   6.054   6.375   6.657
 9480SOL    HW229340   6.153   6.248   6.684
 9481SOL     OW29341   4.592   1.746   3.471
 9481SOL    HW129342   4.611   1.822   3.533
 9481SOL    HW229343   4.508   1.699   3.499
 9482SOL     OW29344   5.851   1.013   0.694
 9482SOL    HW129345   5.908   1.095   0.704
 9482SOL    HW229346   5.887   0.956   0.620
 9483SOL     OW29347   0.827   0.500   0.399
 9483SOL    HW129348   0.782   0.580   0.360
 9483SOL    HW229349   0.798   0.488   0.494
 9484SOL     OW29350   2.783   6.176   4.510
 9484SOL    HW129351   2.866   6.232   4.510
 9484SOL    HW229352   2.807   6.082   4.531
 9485SOL     OW29353   6.573   1.309   0.037
 9485SOL    HW129354   6.481   1.276   0.015
 9485SOL    HW229355   6.617   1.245   0.101
 9486SOL     OW29356   4.519   5.572   0.038
 9486SOL    HW129357   4.527   5.600   0.134
 9486SOL    HW229358   4.431   5.603   0.002
 9487SOL     OW29359   2.902   3.499   4.228
 9487SOL    HW129360   2.905   3.529   4.133
 9487SOL    HW229361   2.939   3.406   4.235
 9488SOL     OW29362   1.506   1.272   0.899
 9488SOL    HW129363   1.425   1.302   0.848
 9488SOL    HW229364   1.487   1.275   0.997
 9489SOL     OW29365   5.329   4.023   0.774
 9489SOL    HW129366   5.232   4.012   0.798
 9489SOL    HW229367   5.344   3.988   0.681
 9490SOL     OW29368   6.196   4.419   3.793
 9490SOL    HW129369   6.103   4.437   3.824
 9490SOL    HW229370   6.201   4.430   3.694
 9491SOL     OW29371   5.157   6.594   3.565
 9491SOL    HW129372   5.173   6.618   3.469
 9491SOL    HW229373   5.244   6.577   3.611
 9492SOL     OW29374   4.847   3.061   4.344
 9492SOL    HW129375   4.866   3.114   4.427
 9492SOL    HW229376   4.769   3.000   4.361
 9493SOL     OW29377   4.202   6.233   4.119
 9493SOL    HW129378   4.178   6.319   4.074
 9493SOL    HW229379   4.127   6.168   4.109
 9494SOL     OW29380   5.123   2.936   2.185
 9494SOL    HW129381   5.075   3.011   2.230
 9494SOL    HW229382   5.068   2.902   2.109
 9495SOL     OW29383   0.610   0.346   1.848
 9495SOL    HW129384   0.693   0.377   1.802
 9495SOL    HW229385   0.537   0.412   1.833
 9496SOL     OW29386   4.319   1.963   2.287
 9496SOL    HW129387   4.333   1.930   2.194
 9496SOL    HW229388   4.246   2.031   2.288
 9497SOL     OW29389   5.700   5.616   4.733
 9497SOL    HW129390   5.608   5.577   4.736
 9497SOL    HW229391   5.694   5.715   4.716
 9498SOL     OW29392   6.865   5.134   4.439
 9498SOL    HW129393   6.824   5.126   4.348
 9498SOL    HW229394   6.839   5.222   4.480
 9499SOL     OW29395   6.116   5.572   5.576
 9499SOL    HW129396   6.133   5.631   5.498
 9499SOL    HW229397   6.203   5.536   5.611
 9500SOL     OW29398   4.092   0.272   1.013
 9500SOL    HW129399   4.145   0.289   1.096
 9500SOL    HW229400   4.154   0.247   0.938
 9501SOL     OW29401   1.309   1.712   4.490
 9501SOL    HW129402   1.311   1.619   4.454
 9501SOL    HW229403   1.369   1.770   4.434
 9502SOL     OW29404   5.452   4.729   5.875
 9502SOL    HW129405   5.441   4.741   5.776
 9502SOL    HW229406   5.412   4.642   5.903
 9503SOL     OW29407   0.630   1.928   0.216
 9503SOL    HW129408   0.591   1.959   0.129
 9503SOL    HW229409   0.704   1.990   0.243
 9504SOL     OW29410   6.789   4.673   1.341
 9504SOL    HW129411   6.805   4.581   1.305
 9504SOL    HW229412   6.779   4.738   1.265
 9505SOL     OW29413   4.456   4.433   5.509
 9505SOL    HW129414   4.537   4.396   5.464
 9505SOL    HW229415   4.484   4.478   5.594
 9506SOL     OW29416   2.663   2.253   1.377
 9506SOL    HW129417   2.579   2.266   1.325
 9506SOL    HW229418   2.709   2.169   1.347
 9507SOL     OW29419   6.085   0.168   1.616
 9507SOL    HW129420   6.140   0.211   1.544
 9507SOL    HW229421   6.102   0.214   1.703
 9508SOL     OW29422   4.672   1.311   2.578
 9508SOL    HW129423   4.731   1.252   2.523
 9508SOL    HW229424   4.719   1.397   2.597
 9509SOL     OW29425   6.471   0.423   2.655
 9509SOL    HW129426   6.544   0.456   2.715
 9509SOL    HW229427   6.395   0.488   2.658
 9510SOL     OW29428   0.172   3.040   3.911
 9510SOL    HW129429   0.270   3.057   3.906
 9510SOL    HW229430   0.153   2.946   3.884
 9511SOL     OW29431   0.899   1.029   0.975
 9511SOL    HW129432   0.970   1.021   1.045
 9511SOL    HW229433   0.936   1.080   0.897
 9512SOL     OW29434   6.625   3.037   1.036
 9512SOL    HW129435   6.536   3.083   1.036
 9512SOL    HW229436   6.615   2.945   1.076
 9513SOL     OW29437   4.441   4.646   6.374
 9513SOL    HW129438   4.381   4.723   6.392
 9513SOL    HW229439   4.395   4.561   6.399
 9514SOL     OW29440   3.054   3.055   6.684
 9514SOL    HW129441   2.974   3.099   6.725
 9514SOL    HW229442   3.115   3.124   6.646
 9515SOL     OW29443   2.719   5.175   3.978
 9515SOL    HW129444   2.736   5.140   3.886
 9515SOL    HW229445   2.754   5.268   3.986
 9516SOL     OW29446   5.970   4.117   0.018
 9516SOL    HW129447   5.894   4.053   0.015
 9516SOL    HW229448   6.007   4.119   0.111
 9517SOL     OW29449   0.964   4.216   1.185
 9517SOL    HW129450   1.054   4.179   1.161
 9517SOL    HW229451   0.916   4.244   1.102
 9518SOL     OW29452   2.468   1.447   0.664
 9518SOL    HW129453   2.533   1.483   0.731
 9518SOL    HW229454   2.473   1.347   0.663
 9519SOL     OW29455   0.656   3.002   5.392
 9519SOL    HW129456   0.742   3.034   5.431
 9519SOL    HW229457   0.660   2.904   5.376
 9520SOL     OW29458   2.368   0.172   2.826
 9520SOL    HW129459   2.431   0.220   2.766
 9520SOL    HW229460   2.420   0.111   2.887
 9521SOL     OW29461   5.707   5.920   3.932
 9521SOL    HW129462   5.648   5.972   3.994
 9521SOL    HW229463   5.760   5.853   3.985
 9522SOL     OW29464   3.440   6.006   1.162
 9522SOL    HW129465   3.342   6.022   1.168
 9522SOL    HW229466   3.489   6.082   1.204
 9523SOL     OW29467   3.491   5.339   4.518
 9523SOL    HW129468   3.435   5.283   4.457
 9523SOL    HW229469   3.504   5.429   4.478
 9524SOL     OW29470   3.603   3.248   1.408
 9524SOL    HW129471   3.670   3.178   1.433
 9524SOL    HW229472   3.576   3.298   1.490
 9525SOL     OW29473   2.003   1.087   5.666
 9525SOL    HW129474   2.089   1.106   5.713
 9525SOL    HW229475   1.939   1.043   5.730
 9526SOL     OW29476   4.861   6.236   3.305
 9526SOL    HW129477   4.818   6.175   3.238
 9526SOL    HW229478   4.911   6.182   3.373
 9527SOL     OW29479   1.051   1.203   1.920
 9527SOL    HW129480   1.047   1.247   1.831
 9527SOL    HW229481   1.009   1.264   1.989
 9528SOL     OW29482   6.288   0.287   1.471
 9528SOL    HW129483   6.308   0.203   1.420
 9528SOL    HW229484   6.253   0.357   1.408
 9529SOL     OW29485   0.876   3.188   6.384
 9529SOL    HW129486   0.888   3.186   6.285
 9529SOL    HW229487   0.962   3.164   6.429
 9530SOL     OW29488   1.665   2.628   2.983
 9530SOL    HW129489   1.642   2.567   2.906
 9530SOL    HW229490   1.627   2.591   3.067
 9531SOL     OW29491   3.423   0.319   3.274
 9531SOL    HW129492   3.340   0.264   3.263
 9531SOL    HW229493   3.499   0.259   3.298
 9532SOL     OW29494   1.887   6.957   1.461
 9532SOL    HW129495   1.869   6.910   1.547
 9532SOL    HW229496   1.801   6.994   1.425
 9533SOL     OW29497   1.365   1.120   5.589
 9533SOL    HW129498   1.443   1.060   5.611
 9533SOL    HW229499   1.296   1.113   5.661
 9534SOL     OW29500   5.085   2.127   4.912
 9534SOL    HW129501   5.015   2.089   4.972
 9534SOL    HW229502   5.083   2.227   4.919
 9535SOL     OW29503   2.472   1.262   5.529
 9535SOL    HW129504   2.511   1.336   5.473
 9535SOL    HW229505   2.451   1.297   5.620
 9536SOL     OW29506   1.927   5.735   5.536
 9536SOL    HW129507   1.971   5.807   5.482
 9536SOL    HW229508   1.990   5.658   5.547
 9537SOL     OW29509   3.078   0.543   2.202
 9537SOL    HW129510   2.998   0.486   2.222
 9537SOL    HW229511   3.064   0.590   2.115
 9538SOL     OW29512   6.679   2.262   4.464
 9538SOL    HW129513   6.758   2.210   4.497
 9538SOL    HW229514   6.595   2.222   4.500
 9539SOL     OW29515   0.751   5.776   0.141
 9539SOL    HW129516   0.835   5.747   0.189
 9539SOL    HW229517   0.709   5.852   0.190
 9540SOL     OW29518   4.490   5.066   4.888
 9540SOL    HW129519   4.486   4.991   4.822
 9540SOL    HW229520   4.459   5.034   4.977
 9541SOL     OW29521   1.833   2.773   4.384
 9541SOL    HW129522   1.877   2.836   4.448
 9541SOL    HW229523   1.827   2.816   4.294
 9542SOL     OW29524   4.925   3.168   4.572
 9542SOL    HW129525   4.928   3.235   4.646
 9542SOL    HW229526   4.988   3.094   4.592
 9543SOL     OW29527   4.559   1.182   3.191
 9543SOL    HW129528   4.531   1.272   3.157
 9543SOL    HW229529   4.654   1.186   3.222
 9544SOL     OW29530   5.118   1.299   2.209
 9544SOL    HW129531   5.202   1.276   2.159
 9544SOL    HW229532   5.126   1.269   2.304
 9545SOL     OW29533   6.964   0.347   3.145
 9545SOL    HW129534   6.902   0.396   3.207
 9545SOL    HW229535   6.915   0.323   3.062
 9546SOL     OW29536   2.727   5.704   6.680
 9546SOL    HW129537   2.660   5.753   6.736
 9546SOL    HW229538   2.804   5.675   6.737
 9547SOL     OW29539   0.851   6.032   4.625
 9547SOL    HW129540   0.775   6.007   4.685
 9547SOL    HW229541   0.934   6.043   4.680
 9548SOL     OW29542   5.473   5.784   4.174
 9548SOL    HW129543   5.455   5.694   4.135
 9548SOL    HW229544   5.477   5.852   4.101
 9549SOL     OW29545   2.373   5.680   0.471
 9549SOL    HW129546   2.343   5.589   0.500
 9549SOL    HW229547   2.300   5.724   0.418
 9550SOL     OW29548   1.299   1.739   0.289
 9550SOL    HW129549   1.265   1.752   0.382
 9550SOL    HW229550   1.387   1.690   0.292
 9551SOL     OW29551   0.609   6.699   4.771
 9551SOL    HW129552   0.612   6.638   4.850
 9551SOL    HW229553   0.649   6.788   4.797
 9552SOL     OW29554   1.858   6.135   3.266
 9552SOL    HW129555   1.825   6.104   3.177
 9552SOL    HW229556   1.920   6.066   3.304
 9553SOL     OW29557   5.906   4.646   5.848
 9553SOL    HW129558   5.861   4.735   5.860
 9553SOL    HW229559   5.972   4.632   5.921
 9554SOL     OW29560   2.512   1.492   1.930
 9554SOL    HW129561   2.558   1.474   1.842
 9554SOL    HW229562   2.441   1.424   1.945
 9555SOL     OW29563   6.729   2.154   0.530
 9555SOL    HW129564   6.811   2.169   0.474
 9555SOL    HW229565   6.669   2.088   0.485
 9556SOL     OW29566   2.728   1.159   1.501
 9556SOL    HW129567   2.671   1.129   1.578
 9556SOL    HW229568   2.702   1.251   1.473
 9557SOL     OW29569   5.560   0.067   2.381
 9557SOL    HW129570   5.566   0.057   2.282
 9557SOL    HW229571   5.513   0.153   2.403
 9558SOL     OW29572   6.679   4.893   2.805
 9558SOL    HW129573   6.588   4.879   2.768
 9558SOL    HW229574   6.728   4.806   2.810
 9559SOL     OW29575   6.749   2.988   1.721
 9559SOL    HW129576   6.768   3.029   1.811
 9559SOL    HW229577   6.805   3.033   1.652
 9560SOL     OW29578   2.653   1.134   3.298
 9560SOL    HW129579   2.578   1.199   3.311
 9560SOL    HW229580   2.740   1.184   3.293
 9561SOL     OW29581   4.237   6.970   0.939
 9561SOL    HW129582   4.234   6.875   0.907
 9561SOL    HW229583   4.150   6.994   0.982
 9562SOL     OW29584   4.990   5.142   2.603
 9562SOL    HW129585   4.925   5.147   2.679
 9562SOL    HW229586   5.075   5.100   2.634
 9563SOL     OW29587   6.706   5.923   6.417
 9563SOL    HW129588   6.614   5.885   6.412
 9563SOL    HW229589   6.768   5.870   6.358
 9564SOL     OW29590   3.084   6.803   6.983
 9564SOL    HW129591   3.122   6.851   0.034
 9564SOL    HW229592   2.994   6.841   6.961
 9565SOL     OW29593   3.411   6.019   4.620
 9565SOL    HW129594   3.368   6.108   4.636
 9565SOL    HW229595   3.402   5.994   4.524
 9566SOL     OW29596   3.078   4.698   5.543
 9566SOL    HW129597   3.025   4.635   5.601
 9566SOL    HW229598   3.098   4.781   5.595
 9567SOL     OW29599   5.927   5.836   5.880
 9567SOL    HW129600   5.949   5.743   5.910
 9567SOL    HW229601   6.008   5.878   5.840
 9568SOL     OW29602   4.849   3.815   6.563
 9568SOL    HW129603   4.922   3.771   6.616
 9568SOL    HW229604   4.812   3.891   6.616
 9569SOL     OW29605   6.098   0.688   6.937
 9569SOL    HW129606   6.017   0.729   6.896
 9569SOL    HW229607   6.139   0.752   7.001
 9570SOL     OW29608   1.331   1.158   0.293
 9570SOL    HW129609   1.405   1.103   0.254
 9570SOL    HW229610   1.275   1.196   0.220
 9571SOL     OW29611   2.248   3.586   0.283
 9571SOL    HW129612   2.335   3.608   0.329
 9571SOL    HW229613   2.231   3.488   0.290
 9572SOL     OW29614   1.372   4.279   1.921
 9572SOL    HW129615   1.311   4.254   1.846
 9572SOL    HW229616   1.467   4.270   1.891
 9573SOL     OW29617   1.828   1.693   0.320
 9573SOL    HW129618   1.925   1.717   0.328
 9573SOL    HW229619   1.804   1.684   0.224
 9574SOL     OW29620   2.717   3.089   5.951
 9574SOL    HW129621   2.672   3.044   5.874
 9574SOL    HW229622   2.773   3.022   6.000
 9575SOL     OW29623   5.180   0.801   2.269
 9575SOL    HW129624   5.095   0.801   2.217
 9575SOL    HW229625   5.254   0.766   2.212
 9576SOL     OW29626   3.038   1.125   4.832
 9576SOL    HW129627   3.084   1.114   4.920
 9576SOL    HW229628   3.044   1.221   4.803
 9577SOL     OW29629   1.008   6.257   2.779
 9577SOL    HW129630   0.925   6.284   2.730
 9577SOL    HW229631   1.074   6.219   2.714
 9578SOL     OW29632   6.338   2.784   2.216
 9578SOL    HW129633   6.260   2.777   2.277
 9578SOL    HW229634   6.379   2.874   2.224
 9579SOL     OW29635   0.852   6.780   2.484
 9579SOL    HW129636   0.852   6.878   2.504
 9579SOL    HW229637   0.760   6.752   2.457
 9580SOL     OW29638   4.113   3.641   6.450
 9580SOL    HW129639   4.046   3.579   6.409
 9580SOL    HW229640   4.115   3.727   6.398
 9581SOL     OW29641   1.360   4.392   6.054
 9581SOL    HW129642   1.284   4.359   5.997
 9581SOL    HW229643   1.348   4.359   6.148
 9582SOL     OW29644   4.256   4.802   4.369
 9582SOL    HW129645   4.288   4.707   4.378
 9582SOL    HW229646   4.310   4.849   4.300
 9583SOL     OW29647   2.162   4.081   1.935
 9583SOL    HW129648   2.200   4.078   2.028
 9583SOL    HW229649   2.236   4.079   1.869
 9584SOL     OW29650   6.351   5.561   6.786
 9584SOL    HW129651   6.417   5.491   6.811
 9584SOL    HW229652   6.382   5.651   6.819
 9585SOL     OW29653   6.163   0.172   4.490
 9585SOL    HW129654   6.067   0.190   4.467
 9585SOL    HW229655   6.185   0.219   4.576
 9586SOL     OW29656   5.700   3.288   3.455
 9586SOL    HW129657   5.609   3.322   3.432
 9586SOL    HW229658   5.769   3.354   3.427
 9587SOL     OW29659   5.317   0.213   2.509
 9587SOL    HW129660   5.358   0.302   2.528
 9587SOL    HW229661   5.218   0.219   2.519
 9588SOL     OW29662   0.715   0.764   1.626
 9588SOL    HW129663   0.798   0.798   1.670
 9588SOL    HW229664   0.687   0.827   1.554
 9589SOL     OW29665   2.729   1.028   6.904
 9589SOL    HW129666   2.788   1.089   6.956
 9589SOL    HW229667   2.784   0.956   6.862
 9590SOL     OW29668   0.412   3.976   3.318
 9590SOL    HW129669   0.362   3.968   3.232
 9590SOL    HW229670   0.510   3.971   3.301
 9591SOL     OW29671   1.645   5.171   1.171
 9591SOL    HW129672   1.696   5.244   1.125
 9591SOL    HW229673   1.584   5.126   1.106
 9592SOL     OW29674   4.983   5.575   1.962
 9592SOL    HW129675   5.005   5.666   1.927
 9592SOL    HW229676   5.035   5.507   1.910
 9593SOL     OW29677   6.783   2.391   4.707
 9593SOL    HW129678   6.830   2.431   4.629
 9593SOL    HW229679   6.684   2.397   4.693
 9594SOL     OW29680   6.319   6.832   2.386
 9594SOL    HW129681   6.287   6.738   2.391
 9594SOL    HW229682   6.313   6.864   2.292
 9595SOL     OW29683   1.362   5.484   3.918
 9595SOL    HW129684   1.392   5.563   3.971
 9595SOL    HW229685   1.441   5.440   3.876
 9596SOL     OW29686   5.782   6.084   5.005
 9596SOL    HW129687   5.728   6.114   5.084
 9596SOL    HW229688   5.765   5.987   4.987
 9597SOL     OW29689   1.931   4.263   1.424
 9597SOL    HW129690   1.954   4.347   1.374
 9597SOL    HW229691   1.928   4.282   1.522
 9598SOL     OW29692   0.022   5.288   5.849
 9598SOL    HW129693   0.092   5.242   5.904
 9598SOL    HW229694   0.004   5.378   5.887
 9599SOL     OW29695   4.757   1.785   5.709
 9599SOL    HW129696   4.823   1.785   5.634
 9599SOL    HW229697   4.690   1.858   5.694
 9600SOL     OW29698   1.434   0.542   6.824
 9600SOL    HW129699   1.428   0.481   6.903
 9600SOL    HW229700   1.363   0.611   6.830
 9601SOL     OW29701   0.342   5.486   5.267
 9601SOL    HW129702   0.267   5.436   5.224
 9601SOL    HW229703   0.344   5.580   5.233
 9602SOL     OW29704   1.068   5.648   0.060
 9602SOL    HW129705   1.086   5.565   0.008
 9602SOL    HW229706   1.029   5.718   0.000
 9603SOL     OW29707   1.816   6.033   4.488
 9603SOL    HW129708   1.895   6.071   4.536
 9603SOL    HW229709   1.835   5.939   4.460
 9604SOL     OW29710   5.879   1.672   6.910
 9604SOL    HW129711   5.807   1.709   6.970
 9604SOL    HW229712   5.856   1.691   6.815
 9605SOL     OW29713   1.770   5.831   6.572
 9605SOL    HW129714   1.843   5.826   6.640
 9605SOL    HW229715   1.740   5.926   6.563
 9606SOL     OW29716   6.914   6.057   4.431
 9606SOL    HW129717   6.984   6.103   4.375
 9606SOL    HW229718   6.836   6.033   4.373
 9607SOL     OW29719   1.084   2.370   2.133
 9607SOL    HW129720   1.078   2.366   2.033
 9607SOL    HW229721   1.137   2.292   2.166
 9608SOL     OW29722   0.614   6.984   2.201
 9608SOL    HW129723   0.709   6.968   2.173
 9608SOL    HW229724   0.570   0.017   2.135
 9609SOL     OW29725   1.626   4.137   4.391
 9609SOL    HW129726   1.685   4.088   4.328
 9609SOL    HW229727   1.534   4.098   4.389
 9610SOL     OW29728   2.139   1.676   6.116
 9610SOL    HW129729   2.176   1.717   6.198
 9610SOL    HW229730   2.133   1.745   6.043
 9611SOL     OW29731   6.201   0.501   1.319
 9611SOL    HW129732   6.283   0.540   1.278
 9611SOL    HW229733   6.120   0.543   1.279
 9612SOL     OW29734   5.885   2.623   1.807
 9612SOL    HW129735   5.968   2.625   1.863
 9612SOL    HW229736   5.899   2.681   1.726
 9613SOL     OW29737   6.164   6.542   5.024
 9613SOL    HW129738   6.132   6.634   5.001
 9613SOL    HW229739   6.090   6.491   5.068
 9614SOL     OW29740   3.855   3.665   2.410
 9614SOL    HW129741   3.795   3.671   2.490
 9614SOL    HW229742   3.930   3.730   2.420
 9615SOL     OW29743   1.174   5.825   2.898
 9615SOL    HW129744   1.102   5.865   2.954
 9615SOL    HW229745   1.226   5.898   2.853
 9616SOL     OW29746   3.950   3.230   0.681
 9616SOL    HW129747   3.976   3.157   0.744
 9616SOL    HW229748   3.870   3.278   0.717
 9617SOL     OW29749   1.132   3.399   3.968
 9617SOL    HW129750   1.070   3.337   4.017
 9617SOL    HW229751   1.154   3.477   4.027
 9618SOL     OW29752   4.083   6.247   6.764
 9618SOL    HW129753   4.054   6.265   6.858
 9618SOL    HW229754   4.014   6.191   6.718
 9619SOL     OW29755   2.628   6.525   0.422
 9619SOL    HW129756   2.693   6.493   0.490
 9619SOL    HW229757   2.545   6.559   0.467
 9620SOL     OW29758   3.044   1.578   6.034
 9620SOL    HW129759   3.078   1.621   6.118
 9620SOL    HW229760   2.996   1.493   6.058
 9621SOL     OW29761   0.647   0.567   1.204
 9621SOL    HW129762   0.705   0.636   1.161
 9621SOL    HW229763   0.685   0.476   1.186
 9622SOL     OW29764   5.919   0.342   6.225
 9622SOL    HW129765   5.917   0.288   6.309
 9622SOL    HW229766   5.838   0.323   6.171
 9623SOL     OW29767   4.295   6.193   6.173
 9623SOL    HW129768   4.392   6.195   6.199
 9623SOL    HW229769   4.287   6.168   6.077
 9624SOL     OW29770   4.046   4.988   5.051
 9624SOL    HW129771   4.086   4.928   4.982
 9624SOL    HW229772   3.946   4.989   5.041
 9625SOL     OW29773   5.227   4.556   5.754
 9625SOL    HW129774   5.167   4.570   5.832
 9625SOL    HW229775   5.199   4.474   5.704
 9626SOL     OW29776   2.663   4.296   6.037
 9626SOL    HW129777   2.607   4.269   5.959
 9626SOL    HW229778   2.605   4.336   6.108
 9627SOL     OW29779   0.589   5.204   0.148
 9627SOL    HW129780   0.550   5.240   0.233
 9627SOL    HW229781   0.533   5.128   0.115
 9628SOL     OW29782   5.688   3.121   6.481
 9628SOL    HW129783   5.664   3.219   6.485
 9628SOL    HW229784   5.751   3.106   6.405
 9629SOL     OW29785   0.259   5.469   3.460
 9629SOL    HW129786   0.263   5.418   3.374
 9629SOL    HW229787   0.323   5.429   3.525
 9630SOL     OW29788   6.478   5.769   6.307
 9630SOL    HW129789   6.452   5.840   6.241
 9630SOL    HW229790   6.443   5.793   6.397
 9631SOL     OW29791   4.124   1.001   0.761
 9631SOL    HW129792   4.062   0.924   0.749
 9631SOL    HW229793   4.091   1.060   0.834
 9632SOL     OW29794   3.474   6.375   1.483
 9632SOL    HW129795   3.491   6.304   1.551
 9632SOL    HW229796   3.387   6.420   1.502
 9633SOL     OW29797   3.119   3.085   2.496
 9633SOL    HW129798   3.086   3.165   2.546
 9633SOL    HW229799   3.089   3.090   2.401
 9634SOL     OW29800   5.225   4.292   2.187
 9634SOL    HW129801   5.191   4.330   2.272
 9634SOL    HW229802   5.267   4.203   2.205
 9635SOL     OW29803   0.911   3.891   3.681
 9635SOL    HW129804   1.008   3.897   3.707
 9635SOL    HW229805   0.884   3.795   3.678
 9636SOL     OW29806   4.633   2.622   4.622
 9636SOL    HW129807   4.675   2.711   4.640
 9636SOL    HW229808   4.704   2.553   4.613
 9637SOL     OW29809   2.628   3.144   0.398
 9637SOL    HW129810   2.636   3.062   0.454
 9637SOL    HW229811   2.706   3.150   0.335
 9638SOL     OW29812   0.154   4.385   5.620
 9638SOL    HW129813   0.137   4.292   5.654
 9638SOL    HW229814   0.172   4.446   5.697
 9639SOL     OW29815   4.314   1.844   2.558
 9639SOL    HW129816   4.215   1.827   2.563
 9639SOL    HW229817   4.335   1.891   2.472
 9640SOL     OW29818   3.469   0.328   2.405
 9640SOL    HW129819   3.551   0.384   2.392
 9640SOL    HW229820   3.438   0.293   2.317
 9641SOL     OW29821   6.092   4.333   2.508
 9641SOL    HW129822   6.180   4.303   2.546
 9641SOL    HW229823   6.109   4.398   2.434
 9642SOL     OW29824   2.046   0.405   3.674
 9642SOL    HW129825   2.127   0.380   3.727
 9642SOL    HW229826   2.070   0.479   3.611
 9643SOL     OW29827   5.654   4.456   4.423
 9643SOL    HW129828   5.580   4.414   4.370
 9643SOL    HW229829   5.615   4.506   4.501
 9644SOL     OW29830   1.298   5.465   4.936
 9644SOL    HW129831   1.305   5.372   4.972
 9644SOL    HW229832   1.218   5.510   4.975
 9645SOL     OW29833   0.656   5.606   6.984
 9645SOL    HW129834   0.703   5.674   0.012
 9645SOL    HW229835   0.718   5.529   6.966
 9646SOL     OW29836   3.319   6.109   5.682
 9646SOL    HW129837   3.387   6.165   5.729
 9646SOL    HW229838   3.272   6.164   5.613
 9647SOL     OW29839   6.138   6.688   3.611
 9647SOL    HW129840   6.198   6.609   3.624
 9647SOL    HW229841   6.177   6.749   3.541
 9648SOL     OW29842   4.591   2.306   1.249
 9648SOL    HW129843   4.514   2.351   1.204
 9648SOL    HW229844   4.651   2.265   1.180
 9649SOL     OW29845   2.001   4.232   0.380
 9649SOL    HW129846   1.931   4.161   0.374
 9649SOL    HW229847   1.999   4.288   0.297
 9650SOL     OW29848   0.009   4.731   4.735
 9650SOL    HW129849   6.984   4.804   4.691
 9650SOL    HW229850   6.979   4.686   4.804
 9651SOL     OW29851   3.294   1.059   0.554
 9651SOL    HW129852   3.240   1.075   0.637
 9651SOL    HW229853   3.233   1.056   0.475
 9652SOL     OW29854   6.894   3.730   0.497
 9652SOL    HW129855   6.875   3.637   0.527
 9652SOL    HW229856   6.976   3.731   0.440
 9653SOL     OW29857   4.619   3.742   6.198
 9653SOL    HW129858   4.699   3.683   6.186
 9653SOL    HW229859   4.536   3.688   6.190
 9654SOL     OW29860   3.286   3.356   4.022
 9654SOL    HW129861   3.252   3.437   4.069
 9654SOL    HW229862   3.371   3.378   3.974
 9655SOL     OW29863   4.772   1.294   1.776
 9655SOL    HW129864   4.782   1.198   1.748
 9655SOL    HW229865   4.719   1.343   1.707
 9656SOL     OW29866   5.597   4.112   1.501
 9656SOL    HW129867   5.541   4.152   1.428
 9656SOL    HW229868   5.654   4.183   1.541
 9657SOL     OW29869   5.891   3.460   3.394
 9657SOL    HW129870   5.904   3.534   3.460
 9657SOL    HW229871   5.959   3.389   3.410
 9658SOL     OW29872   4.936   1.998   2.064
 9658SOL    HW129873   4.838   1.989   2.049
 9658SOL    HW229874   4.968   1.925   2.124
 9659SOL     OW29875   3.201   3.258   0.691
 9659SOL    HW129876   3.252   3.344   0.692
 9659SOL    HW229877   3.223   3.205   0.773
 9660SOL     OW29878   0.345   5.557   1.194
 9660SOL    HW129879   0.329   5.510   1.107
 9660SOL    HW229880   0.266   5.545   1.254
 9661SOL     OW29881   4.600   4.815   0.820
 9661SOL    HW129882   4.609   4.787   0.724
 9661SOL    HW229883   4.538   4.752   0.867
 9662SOL     OW29884   5.116   4.488   6.653
 9662SOL    HW129885   5.170   4.436   6.720
 9662SOL    HW229886   5.041   4.535   6.701
 9663SOL     OW29887   0.832   4.760   3.655
 9663SOL    HW129888   0.863   4.685   3.596
 9663SOL    HW229889   0.745   4.796   3.620
 9664SOL     OW29890   5.745   4.104   3.223
 9664SOL    HW129891   5.812   4.102   3.149
 9664SOL    HW229892   5.791   4.092   3.311
 9665SOL     OW29893   5.269   6.081   6.564
 9665SOL    HW129894   5.197   6.047   6.625
 9665SOL    HW229895   5.260   6.180   6.555
 9666SOL     OW29896   5.922   3.831   0.538
 9666SOL    HW129897   5.928   3.801   0.633
 9666SOL    HW229898   5.888   3.755   0.482
 9667SOL     OW29899   5.314   5.548   0.254
 9667SOL    HW129900   5.351   5.546   0.161
 9667SOL    HW229901   5.389   5.543   0.320
 9668SOL     OW29902   1.077   0.014   6.055
 9668SOL    HW129903   1.064   0.060   6.143
 9668SOL    HW229904   0.988   7.011   6.020
 9669SOL     OW29905   3.426   0.200   0.299
 9669SOL    HW129906   3.439   0.124   0.363
 9669SOL    HW229907   3.428   0.165   0.205
 9670SOL     OW29908   0.372   0.442   6.003
 9670SOL    HW129909   0.417   0.532   5.999
 9670SOL    HW229910   0.428   0.380   6.058
 9671SOL     OW29911   1.369   4.959   6.541
 9671SOL    HW129912   1.381   5.059   6.541
 9671SOL    HW229913   1.271   4.937   6.543
 9672SOL     OW29914   0.404   3.884   4.841
 9672SOL    HW129915   0.342   3.948   4.795
 9672SOL    HW229916   0.362   3.853   4.927
 9673SOL     OW29917   2.361   4.021   1.400
 9673SOL    HW129918   2.414   4.009   1.317
 9673SOL    HW229919   2.292   3.948   1.407
 9674SOL     OW29920   3.472   6.415   3.683
 9674SOL    HW129921   3.473   6.410   3.783
 9674SOL    HW229922   3.468   6.323   3.645
 9675SOL     OW29923   4.551   3.998   1.707
 9675SOL    HW129924   4.634   3.980   1.761
 9675SOL    HW229925   4.500   4.074   1.748
 9676SOL     OW29926   1.429   3.189   5.417
 9676SOL    HW129927   1.436   3.289   5.410
 9676SOL    HW229928   1.384   3.165   5.503
 9677SOL     OW29929   6.276   4.899   0.483
 9677SOL    HW129930   6.194   4.843   0.473
 9677SOL    HW229931   6.351   4.857   0.433
 9678SOL     OW29932   3.490   3.693   4.944
 9678SOL    HW129933   3.444   3.617   4.991
 9678SOL    HW229934   3.539   3.748   5.011
 9679SOL     OW29935   1.833   1.483   5.057
 9679SOL    HW129936   1.825   1.442   4.966
 9679SOL    HW229937   1.884   1.569   5.050
 9680SOL     OW29938   4.268   6.036   2.888
 9680SOL    HW129939   4.223   6.078   2.810
 9680SOL    HW229940   4.323   5.958   2.857
 9681SOL     OW29941   1.841   1.585   2.269
 9681SOL    HW129942   1.781   1.640   2.327
 9681SOL    HW229943   1.871   1.504   2.320
 9682SOL     OW29944   5.642   5.915   4.747
 9682SOL    HW129945   5.552   5.923   4.704
 9682SOL    HW229946   5.709   5.968   4.694
 9683SOL     OW29947   2.890   6.704   1.059
 9683SOL    HW129948   2.938   6.769   1.118
 9683SOL    HW229949   2.881   6.617   1.106
 9684SOL     OW29950   1.647   4.378   5.674
 9684SOL    HW129951   1.682   4.469   5.697
 9684SOL    HW229952   1.634   4.372   5.575
 9685SOL     OW29953   3.825   4.764   1.616
 9685SOL    HW129954   3.764   4.753   1.538
 9685SOL    HW229955   3.895   4.692   1.613
 9686SOL     OW29956   6.583   1.680   5.738
 9686SOL    HW129957   6.491   1.688   5.701
 9686SOL    HW229958   6.586   1.716   5.831
 9687SOL     OW29959   6.030   0.392   2.245
 9687SOL    HW129960   6.046   0.481   2.288
 9687SOL    HW229961   6.096   0.326   2.281
 9688SOL     OW29962   1.157   4.757   1.435
 9688SOL    HW129963   1.135   4.853   1.451
 9688SOL    HW229964   1.106   4.723   1.357
 9689SOL     OW29965   1.095   6.317   0.572
 9689SOL    HW129966   1.180   6.265   0.563
 9689SOL    HW229967   1.116   6.414   0.580
 9690SOL     OW29968   5.729   5.602   5.350
 9690SOL    HW129969   5.672   5.664   5.296
 9690SOL    HW229970   5.779   5.655   5.419
 9691SOL     OW29971   3.235   3.345   2.188
 9691SOL    HW129972   3.236   3.291   2.104
 9691SOL    HW229973   3.327   3.346   2.228
 9692SOL     OW29974   4.492   4.981   0.516
 9692SOL    HW129975   4.467   5.021   0.427
 9692SOL    HW229976   4.411   4.976   0.574
 9693SOL     OW29977   5.533   4.101   3.923
 9693SOL    HW129978   5.550   4.040   3.845
 9693SOL    HW229979   5.513   4.193   3.889
 9694SOL     OW29980   3.455   6.530   1.830
 9694SOL    HW129981   3.404   6.613   1.808
 9694SOL    HW229982   3.492   6.538   1.923
 9695SOL     OW29983   0.460   2.734   3.754
 9695SOL    HW129984   0.468   2.665   3.682
 9695SOL    HW229985   0.510   2.816   3.726
 9696SOL     OW29986   5.902   1.865   2.899
 9696SOL    HW129987   5.871   1.897   2.810
 9696SOL    HW229988   5.974   1.926   2.933
 9697SOL     OW29989   6.894   5.936   0.225
 9697SOL    HW129990   6.946   5.879   0.162
 9697SOL    HW229991   6.906   6.032   0.200
 9698SOL     OW29992   5.228   3.708   0.206
 9698SOL    HW129993   5.225   3.798   0.163
 9698SOL    HW229994   5.143   3.692   0.257
 9699SOL     OW29995   1.072   5.097   0.477
 9699SOL    HW129996   1.151   5.040   0.501
 9699SOL    HW229997   1.088   5.140   0.388
 9700SOL     OW29998   5.659   6.539   4.403
 9700SOL    HW129999   5.671   6.440   4.412
 9700SOL    HW230000   5.742   6.586   4.435
 9701SOL     OW30001   5.035   3.127   6.354
 9701SOL    HW130002   5.011   3.188   6.430
 9701SOL    HW230003   5.134   3.132   6.339
 9702SOL     OW30004   3.130   3.257   1.077
 9702SOL    HW130005   3.201   3.201   1.033
 9702SOL    HW230006   3.167   3.298   1.161
 9703SOL     OW30007   6.281   3.971   5.137
 9703SOL    HW130008   6.239   4.037   5.075
 9703SOL    HW230009   6.253   3.879   5.112
 9704SOL     OW30010   2.831   4.812   3.016
 9704SOL    HW130011   2.743   4.764   3.006
 9704SOL    HW230012   2.880   4.809   2.929
 9705SOL     OW30013   5.870   4.309   5.731
 9705SOL    HW130014   5.818   4.264   5.803
 9705SOL    HW230015   5.830   4.288   5.642
 9706SOL     OW30016   1.174   1.571   2.496
 9706SOL    HW130017   1.108   1.579   2.422
 9706SOL    HW230018   1.159   1.646   2.561
 9707SOL     OW30019   6.267   4.858   2.242
 9707SOL    HW130020   6.199   4.806   2.295
 9707SOL    HW230021   6.343   4.883   2.302
 9708SOL     OW30022   1.967   0.575   2.128
 9708SOL    HW130023   2.014   0.634   2.194
 9708SOL    HW230024   1.933   0.630   2.052
 9709SOL     OW30025   5.761   2.728   2.440
 9709SOL    HW130026   5.782   2.726   2.343
 9709SOL    HW230027   5.664   2.750   2.453
 9710SOL     OW30028   6.188   5.854   5.025
 9710SOL    HW130029   6.255   5.805   5.081
 9710SOL    HW230030   6.097   5.842   5.064
 9711SOL     OW30031   3.996   6.650   6.572
 9711SOL    HW130032   3.930   6.672   6.500
 9711SOL    HW230033   4.031   6.558   6.558
 9712SOL     OW30034   6.389   2.469   0.733
 9712SOL    HW130035   6.465   2.409   0.707
 9712SOL    HW230036   6.305   2.437   0.688
 9713SOL     OW30037   1.660   6.289   3.703
 9713SOL    HW130038   1.624   6.285   3.609
 9713SOL    HW230039   1.586   6.316   3.765
 9714SOL     OW30040   3.452   4.994   4.758
 9714SOL    HW130041   3.381   4.970   4.691
 9714SOL    HW230042   3.409   5.034   4.839
 9715SOL     OW30043   5.967   4.332   1.251
 9715SOL    HW130044   6.017   4.378   1.177
 9715SOL    HW230045   5.868   4.341   1.234
 9716SOL     OW30046   3.203   4.820   6.836
 9716SOL    HW130047   3.169   4.913   6.820
 9716SOL    HW230048   3.234   4.812   6.931
 9717SOL     OW30049   3.895   0.786   5.873
 9717SOL    HW130050   3.978   0.818   5.920
 9717SOL    HW230051   3.835   0.864   5.856
 9718SOL     OW30052   3.170   1.840   0.099
 9718SOL    HW130053   3.239   1.852   0.028
 9718SOL    HW230054   3.165   1.744   0.126
 9719SOL     OW30055   4.324   6.172   5.159
 9719SOL    HW130056   4.336   6.081   5.199
 9719SOL    HW230057   4.227   6.196   5.158
 9720SOL     OW30058   1.576   4.718   2.843
 9720SOL    HW130059   1.577   4.810   2.882
 9720SOL    HW230060   1.626   4.718   2.756
 9721SOL     OW30061   0.832   2.108   0.312
 9721SOL    HW130062   0.813   2.196   0.356
 9721SOL    HW230063   0.930   2.103   0.290
 9722SOL     OW30064   3.657   2.976   5.340
 9722SOL    HW130065   3.715   2.940   5.413
 9722SOL    HW230066   3.581   2.912   5.324
 9723SOL     OW30067   6.271   5.010   5.002
 9723SOL    HW130068   6.265   4.921   5.047
 9723SOL    HW230069   6.192   5.023   4.942
 9724SOL     OW30070   0.968   5.490   0.288
 9724SOL    HW130071   1.048   5.525   0.239
 9724SOL    HW230072   0.918   5.427   0.229
 9725SOL     OW30073   3.232   5.346   4.864
 9725SOL    HW130074   3.149   5.357   4.919
 9725SOL    HW230075   3.312   5.345   4.924
 9726SOL     OW30076   6.280   1.093   4.092
 9726SOL    HW130077   6.260   1.191   4.099
 9726SOL    HW230078   6.364   1.080   4.040
 9727SOL     OW30079   0.807   1.496   6.645
 9727SOL    HW130080   0.810   1.503   6.744
 9727SOL    HW230081   0.716   1.519   6.612
 9728SOL     OW30082   5.097   0.577   6.005
 9728SOL    HW130083   5.106   0.516   6.084
 9728SOL    HW230084   5.167   0.555   5.938
 9729SOL     OW30085   0.655   4.727   3.333
 9729SOL    HW130086   0.612   4.659   3.393
 9729SOL    HW230087   0.751   4.703   3.318
 9730SOL     OW30088   0.991   4.381   2.861
 9730SOL    HW130089   0.909   4.381   2.918
 9730SOL    HW230090   1.068   4.347   2.914
 9731SOL     OW30091   4.885   4.059   2.939
 9731SOL    HW130092   4.889   4.134   2.874
 9731SOL    HW230093   4.903   3.972   2.891
 9732SOL     OW30094   1.555   2.812   2.293
 9732SOL    HW130095   1.472   2.865   2.276
 9732SOL    HW230096   1.535   2.714   2.282
 9733SOL     OW30097   6.267   5.395   2.546
 9733SOL    HW130098   6.183   5.449   2.548
 9733SOL    HW230099   6.256   5.318   2.483
 9734SOL     OW30100   6.062   6.856   6.838
 9734SOL    HW130101   6.022   6.769   6.810
 9734SOL    HW230102   6.161   6.852   6.832
 9735SOL     OW30103   0.808   1.600   2.577
 9735SOL    HW130104   0.852   1.531   2.520
 9735SOL    HW230105   0.816   1.689   2.534
 9736SOL     OW30106   4.573   2.423   5.294
 9736SOL    HW130107   4.480   2.428   5.332
 9736SOL    HW230108   4.629   2.364   5.351
 9737SOL     OW30109   6.147   1.851   2.645
 9737SOL    HW130110   6.053   1.875   2.621
 9737SOL    HW230111   6.199   1.934   2.663
 9738SOL     OW30112   2.031   5.971   1.164
 9738SOL    HW130113   2.072   6.004   1.249
 9738SOL    HW230114   2.036   5.871   1.161
 9739SOL     OW30115   4.988   0.201   6.979
 9739SOL    HW130116   4.930   0.282   6.967
 9739SOL    HW230117   5.048   0.213   0.030
 9740SOL     OW30118   0.026   0.492   2.549
 9740SOL    HW130119   0.040   0.511   2.452
 9740SOL    HW230120   0.036   0.393   2.566
 9741SOL     OW30121   3.434   1.608   4.506
 9741SOL    HW130122   3.348   1.626   4.459
 9741SOL    HW230123   3.454   1.510   4.504
 9742SOL     OW30124   3.828   1.789   6.422
 9742SOL    HW130125   3.819   1.878   6.467
 9742SOL    HW230126   3.746   1.735   6.440
 9743SOL     OW30127   6.165   2.955   3.276
 9743SOL    HW130128   6.137   2.994   3.188
 9743SOL    HW230129   6.112   2.873   3.294
 9744SOL     OW30130   1.918   6.725   3.680
 9744SOL    HW130131   1.941   6.822   3.669
 9744SOL    HW230132   1.820   6.716   3.699
 9745SOL     OW30133   5.828   0.867   5.819
 9745SOL    HW130134   5.895   0.940   5.804
 9745SOL    HW230135   5.834   0.800   5.745
 9746SOL     OW30136   4.921   6.122   6.408
 9746SOL    HW130137   4.928   6.073   6.494
 9746SOL    HW230138   4.870   6.207   6.421
 9747SOL     OW30139   2.587   2.068   2.333
 9747SOL    HW130140   2.596   2.085   2.430
 9747SOL    HW230141   2.595   1.970   2.315
 9748SOL     OW30142   0.959   0.512   3.031
 9748SOL    HW130143   1.041   0.517   3.087
 9748SOL    HW230144   0.879   0.502   3.090
 9749SOL     OW30145   0.093   1.940   2.710
 9749SOL    HW130146   0.036   1.877   2.658
 9749SOL    HW230147   0.158   1.985   2.649
 9750SOL     OW30148   6.532   4.506   4.075
 9750SOL    HW130149   6.603   4.513   4.004
 9750SOL    HW230150   6.460   4.445   4.044
 9751SOL     OW30151   2.497   0.721   1.892
 9751SOL    HW130152   2.551   0.756   1.815
 9751SOL    HW230153   2.445   0.797   1.932
 9752SOL     OW30154   4.355   2.744   0.715
 9752SOL    HW130155   4.364   2.793   0.628
 9752SOL    HW230156   4.284   2.673   0.707
 9753SOL     OW30157   6.520   6.153   6.148
 9753SOL    HW130158   6.455   6.106   6.088
 9753SOL    HW230159   6.609   6.160   6.101
 9754SOL     OW30160   3.749   0.194   1.232
 9754SOL    HW130161   3.759   0.196   1.133
 9754SOL    HW230162   3.668   0.141   1.257
 9755SOL     OW30163   3.241   3.892   5.907
 9755SOL    HW130164   3.215   3.973   5.961
 9755SOL    HW230165   3.340   3.877   5.915
 9756SOL     OW30166   5.546   1.168   6.283
 9756SOL    HW130167   5.640   1.197   6.299
 9756SOL    HW230168   5.518   1.196   6.191
 9757SOL     OW30169   5.280   4.046   4.083
 9757SOL    HW130170   5.370   4.089   4.093
 9757SOL    HW230171   5.252   4.050   3.987
 9758SOL     OW30172   1.516   0.809   0.574
 9758SOL    HW130173   1.565   0.722   0.569
 9758SOL    HW230174   1.430   0.796   0.623
 9759SOL     OW30175   1.414   1.731   0.696
 9759SOL    HW130176   1.338   1.732   0.632
 9759SOL    HW230177   1.475   1.654   0.675
 9760SOL     OW30178   4.925   2.291   6.928
 9760SOL    HW130179   4.858   2.223   6.957
 9760SOL    HW230180   4.883   2.351   6.859
 9761SOL     OW30181   1.369   1.196   1.841
 9761SOL    HW130182   1.382   1.217   1.938
 9761SOL    HW230183   1.416   1.265   1.786
 9762SOL     OW30184   2.943   1.675   5.224
 9762SOL    HW130185   2.945   1.738   5.146
 9762SOL    HW230186   2.999   1.713   5.298
 9763SOL     OW30187   6.192   1.165   1.572
 9763SOL    HW130188   6.276   1.216   1.553
 9763SOL    HW230189   6.183   1.152   1.671
 9764SOL     OW30190   5.653   2.040   2.479
 9764SOL    HW130191   5.565   1.992   2.490
 9764SOL    HW230192   5.636   2.137   2.464
 9765SOL     OW30193   6.567   1.500   2.126
 9765SOL    HW130194   6.544   1.443   2.047
 9765SOL    HW230195   6.652   1.550   2.107
 9766SOL     OW30196   1.993   0.906   3.633
 9766SOL    HW130197   1.975   1.004   3.624
 9766SOL    HW230198   1.950   0.871   3.716
 9767SOL     OW30199   1.787   3.106   5.729
 9767SOL    HW130200   1.733   3.186   5.756
 9767SOL    HW230201   1.822   3.060   5.811
 9768SOL     OW30202   6.141   2.373   0.669
 9768SOL    HW130203   6.056   2.337   0.630
 9768SOL    HW230204   6.121   2.421   0.754
 9769SOL     OW30205   2.857   1.882   4.908
 9769SOL    HW130206   2.852   1.799   4.853
 9769SOL    HW230207   2.834   1.962   4.852
 9770SOL     OW30208   3.629   2.426   6.375
 9770SOL    HW130209   3.616   2.447   6.472
 9770SOL    HW230210   3.548   2.452   6.323
 9771SOL     OW30211   2.727   6.348   2.561
 9771SOL    HW130212   2.800   6.291   2.599
 9771SOL    HW230213   2.663   6.374   2.633
 9772SOL     OW30214   1.292   5.818   1.923
 9772SOL    HW130215   1.386   5.836   1.894
 9772SOL    HW230216   1.232   5.818   1.843
 9773SOL     OW30217   5.345   5.508   2.361
 9773SOL    HW130218   5.273   5.565   2.321
 9773SOL    HW230219   5.310   5.466   2.445
 9774SOL     OW30220   0.453   5.711   4.099
 9774SOL    HW130221   0.551   5.720   4.085
 9774SOL    HW230222   0.406   5.713   4.011
 9775SOL     OW30223   2.491   0.733   3.625
 9775SOL    HW130224   2.552   0.726   3.546
 9775SOL    HW230225   2.544   0.754   3.707
 9776SOL     OW30226   1.552   5.464   6.442
 9776SOL    HW130227   1.646   5.487   6.417
 9776SOL    HW230228   1.543   5.365   6.452
 9777SOL     OW30229   5.509   6.966   6.255
 9777SOL    HW130230   5.436   6.973   6.188
 9777SOL    HW230231   5.557   0.026   6.261
 9778SOL     OW30232   0.300   1.882   4.927
 9778SOL    HW130233   0.311   1.915   5.021
 9778SOL    HW230234   0.223   1.929   4.884
 9779SOL     OW30235   0.869   1.604   3.407
 9779SOL    HW130236   0.812   1.682   3.434
 9779SOL    HW230237   0.957   1.636   3.374
 9780SOL     OW30238   1.996   1.618   1.131
 9780SOL    HW130239   1.957   1.583   1.045
 9780SOL    HW230240   1.984   1.549   1.203
 9781SOL     OW30241   1.594   3.568   3.378
 9781SOL    HW130242   1.624   3.500   3.445
 9781SOL    HW230243   1.542   3.523   3.306
 9782SOL     OW30244   0.681   2.315   0.678
 9782SOL    HW130245   0.690   2.216   0.673
 9782SOL    HW230246   0.596   2.339   0.724
 9783SOL     OW30247   3.635   1.643   3.361
 9783SOL    HW130248   3.569   1.621   3.434
 9783SOL    HW230249   3.586   1.654   3.275
 9784SOL     OW30250   2.971   1.621   0.333
 9784SOL    HW130251   2.952   1.572   0.419
 9784SOL    HW230252   2.937   1.715   0.341
 9785SOL     OW30253   6.981   2.302   4.861
 9785SOL    HW130254   0.018   2.377   4.846
 9785SOL    HW230255   6.899   2.318   4.806
 9786SOL     OW30256   2.267   4.421   0.624
 9786SOL    HW130257   2.186   4.385   0.579
 9786SOL    HW230258   2.348   4.372   0.591
 9787SOL     OW30259   3.727   3.220   3.060
 9787SOL    HW130260   3.639   3.185   3.027
 9787SOL    HW230261   3.770   3.151   3.118
 9788SOL     OW30262   0.514   5.699   2.085
 9788SOL    HW130263   0.609   5.667   2.090
 9788SOL    HW230264   0.496   5.738   1.995
 9789SOL     OW30265   2.805   6.983   6.693
 9789SOL    HW130266   2.742   6.971   6.616
 9789SOL    HW230267   2.892   6.940   6.672
 9790SOL     OW30268   6.999   3.841   4.462
 9790SOL    HW130269   6.906   3.874   4.479
 9790SOL    HW230270   0.015   3.818   4.549
 9791SOL     OW30271   0.566   6.697   0.351
 9791SOL    HW130272   0.494   6.694   0.420
 9791SOL    HW230273   0.653   6.723   0.394
 9792SOL     OW30274   3.774   5.449   0.870
 9792SOL    HW130275   3.835   5.511   0.917
 9792SOL    HW230276   3.721   5.397   0.937
 9793SOL     OW30277   4.702   1.586   2.290
 9793SOL    HW130278   4.634   1.616   2.357
 9793SOL    HW230279   4.712   1.487   2.295
 9794SOL     OW30280   4.974   4.709   4.640
 9794SOL    HW130281   4.915   4.667   4.571
 9794SOL    HW230282   5.003   4.640   4.706
 9795SOL     OW30283   0.860   3.070   3.556
 9795SOL    HW130284   0.955   3.081   3.584
 9795SOL    HW230285   0.855   3.006   3.478
 9796SOL     OW30286   3.524   4.181   3.609
 9796SOL    HW130287   3.510   4.127   3.692
 9796SOL    HW230288   3.526   4.278   3.633
 9797SOL     OW30289   2.756   5.950   6.421
 9797SOL    HW130290   2.720   5.934   6.329
 9797SOL    HW230291   2.680   5.961   6.485
 9798SOL     OW30292   1.327   2.715   1.222
 9798SOL    HW130293   1.250   2.658   1.249
 9798SOL    HW230294   1.398   2.658   1.181
 9799SOL     OW30295   2.739   5.719   6.173
 9799SOL    HW130296   2.663   5.782   6.191
 9799SOL    HW230297   2.742   5.699   6.076
 9800SOL     OW30298   5.346   3.129   3.845
 9800SOL    HW130299   5.270   3.086   3.894
 9800SOL    HW230300   5.357   3.223   3.877
 9801SOL     OW30301   5.714   4.767   6.651
 9801SOL    HW130302   5.754   4.697   6.711
 9801SOL    HW230303   5.691   4.848   6.705
 9802SOL     OW30304   4.099   5.425   1.121
 9802SOL    HW130305   4.077   5.357   1.191
 9802SOL    HW230306   4.115   5.514   1.165
 9803SOL     OW30307   1.506   3.644   6.558
 9803SOL    HW130308   1.487   3.651   6.656
 9803SOL    HW230309   1.563   3.720   6.529
 9804SOL     OW30310   6.845   5.742   3.121
 9804SOL    HW130311   6.827   5.770   3.026
 9804SOL    HW230312   6.761   5.750   3.174
 9805SOL     OW30313   0.401   6.620   3.799
 9805SOL    HW130314   0.488   6.605   3.751
 9805SOL    HW230315   0.420   6.661   3.889
 9806SOL     OW30316   4.233   2.349   5.815
 9806SOL    HW130317   4.206   2.410   5.741
 9806SOL    HW230318   4.155   2.294   5.844
 9807SOL     OW30319   3.292   2.896   2.237
 9807SOL    HW130320   3.209   2.847   2.264
 9807SOL    HW230321   3.285   2.921   2.140
 9808SOL     OW30322   4.572   6.121   3.952
 9808SOL    HW130323   4.548   6.049   3.887
 9808SOL    HW230324   4.534   6.208   3.921
 9809SOL     OW30325   0.639   3.295   0.644
 9809SOL    HW130326   0.555   3.344   0.667
 9809SOL    HW230327   0.718   3.344   0.682
 9810SOL     OW30328   2.260   1.709   5.715
 9810SOL    HW130329   2.313   1.624   5.722
 9810SOL    HW230330   2.315   1.780   5.671
 9811SOL     OW30331   6.695   3.627   4.259
 9811SOL    HW130332   6.677   3.708   4.315
 9811SOL    HW230333   6.680   3.650   4.163
 9812SOL     OW30334   2.253   6.907   4.699
 9812SOL    HW130335   2.345   6.901   4.659
 9812SOL    HW230336   2.187   6.926   4.626
 9813SOL     OW30337   5.513   2.490   0.724
 9813SOL    HW130338   5.513   2.412   0.786
 9813SOL    HW230339   5.429   2.490   0.670
 9814SOL     OW30340   5.723   1.889   7.015
 9814SOL    HW130341   5.798   1.932   6.964
 9814SOL    HW230342   5.728   1.918   0.083
 9815SOL     OW30343   4.710   2.878   4.736
 9815SOL    HW130344   4.741   2.962   4.779
 9815SOL    HW230345   4.660   2.899   4.652
 9816SOL     OW30346   1.093   0.363   0.432
 9816SOL    HW130347   1.182   0.380   0.474
 9816SOL    HW230348   1.030   0.327   0.500
 9817SOL     OW30349   0.379   0.099   3.276
 9817SOL    HW130350   0.282   0.076   3.276
 9817SOL    HW230351   0.392   0.187   3.231
 9818SOL     OW30352   5.858   1.803   4.583
 9818SOL    HW130353   5.951   1.808   4.618
 9818SOL    HW230354   5.858   1.817   4.484
 9819SOL     OW30355   3.912   1.605   3.171
 9819SOL    HW130356   3.951   1.694   3.147
 9819SOL    HW230357   3.815   1.615   3.192
 9820SOL     OW30358   3.248   4.151   6.024
 9820SOL    HW130359   3.336   4.194   6.045
 9820SOL    HW230360   3.183   4.221   5.995
 9821SOL     OW30361   5.494   6.120   6.933
 9821SOL    HW130362   5.514   6.115   6.835
 9821SOL    HW230363   5.440   6.201   6.952
 9822SOL     OW30364   0.498   6.797   2.911
 9822SOL    HW130365   0.541   6.786   2.821
 9822SOL    HW230366   0.509   6.891   2.941
 9823SOL     OW30367   3.355   0.462   1.948
 9823SOL    HW130368   3.268   0.418   1.929
 9823SOL    HW230369   3.383   0.517   1.870
 9824SOL     OW30370   0.715   4.142   5.472
 9824SOL    HW130371   0.686   4.124   5.566
 9824SOL    HW230372   0.781   4.073   5.444
 9825SOL     OW30373   3.740   5.215   5.482
 9825SOL    HW130374   3.715   5.286   5.547
 9825SOL    HW230375   3.659   5.161   5.459
 9826SOL     OW30376   4.574   5.657   6.001
 9826SOL    HW130377   4.571   5.612   6.090
 9826SOL    HW230378   4.512   5.610   5.938
 9827SOL     OW30379   1.700   4.296   4.919
 9827SOL    HW130380   1.658   4.318   4.831
 9827SOL    HW230381   1.780   4.238   4.904
 9828SOL     OW30382   3.438   3.161   6.750
 9828SOL    HW130383   3.421   3.103   6.830
 9828SOL    HW230384   3.504   3.232   6.773
 9829SOL     OW30385   3.427   6.324   0.199
 9829SOL    HW130386   3.483   6.250   0.238
 9829SOL    HW230387   3.341   6.331   0.249
 9830SOL     OW30388   6.348   1.801   0.935
 9830SOL    HW130389   6.339   1.803   0.835
 9830SOL    HW230390   6.396   1.718   0.963
 9831SOL     OW30391   0.959   5.985   0.958
 9831SOL    HW130392   0.940   5.922   1.033
 9831SOL    HW230393   0.926   5.945   0.872
 9832SOL     OW30394   4.544   4.909   2.666
 9832SOL    HW130395   4.584   4.998   2.688
 9832SOL    HW230396   4.541   4.898   2.567
 9833SOL     OW30397   3.427   3.430   5.059
 9833SOL    HW130398   3.394   3.356   5.002
 9833SOL    HW230399   3.438   3.398   5.153
 9834SOL     OW30400   2.672   3.523   6.009
 9834SOL    HW130401   2.678   3.521   5.910
 9834SOL    HW230402   2.612   3.597   6.038
 9835SOL     OW30403   4.928   1.688   3.966
 9835SOL    HW130404   4.897   1.751   4.037
 9835SOL    HW230405   4.901   1.724   3.876
 9836SOL     OW30406   6.046   3.752   3.216
 9836SOL    HW130407   6.103   3.689   3.269
 9836SOL    HW230408   6.058   3.845   3.251
 9837SOL     OW30409   1.680   0.030   3.684
 9837SOL    HW130410   1.779   0.045   3.678
 9837SOL    HW230411   1.633   0.100   3.631
 9838SOL     OW30412   0.890   6.574   5.684
 9838SOL    HW130413   0.927   6.556   5.593
 9838SOL    HW230414   0.963   6.607   5.744
 9839SOL     OW30415   6.581   1.278   2.606
 9839SOL    HW130416   6.641   1.197   2.606
 9839SOL    HW230417   6.613   1.343   2.675
 9840SOL     OW30418   0.541   0.576   0.449
 9840SOL    HW130419   0.492   0.489   0.441
 9840SOL    HW230420   0.584   0.598   0.362
 9841SOL     OW30421   1.372   4.608   4.531
 9841SOL    HW130422   1.414   4.650   4.451
 9841SOL    HW230423   1.407   4.515   4.543
 9842SOL     OW30424   3.458   2.947   3.697
 9842SOL    HW130425   3.459   3.046   3.682
 9842SOL    HW230426   3.401   2.903   3.627
 9843SOL     OW30427   6.614   2.210   1.293
 9843SOL    HW130428   6.691   2.147   1.304
 9843SOL    HW230429   6.579   2.236   1.382
 9844SOL     OW30430   4.526   6.801   2.830
 9844SOL    HW130431   4.427   6.794   2.817
 9844SOL    HW230432   4.544   6.841   2.920
 9845SOL     OW30433   1.973   1.693   4.951
 9845SOL    HW130434   1.905   1.693   4.877
 9845SOL    HW230435   2.062   1.670   4.913
 9846SOL     OW30436   3.061   3.990   3.595
 9846SOL    HW130437   3.045   4.013   3.692
 9846SOL    HW230438   3.159   3.992   3.576
 9847SOL     OW30439   2.392   2.665   5.909
 9847SOL    HW130440   2.439   2.753   5.910
 9847SOL    HW230441   2.396   2.624   6.001
 9848SOL     OW30442   3.785   2.338   6.712
 9848SOL    HW130443   3.829   2.292   6.790
 9848SOL    HW230444   3.851   2.349   6.638
 9849SOL     OW30445   5.527   0.394   6.412
 9849SOL    HW130446   5.494   0.381   6.506
 9849SOL    HW230447   5.573   0.482   6.405
 9850SOL     OW30448   4.745   5.940   2.253
 9850SOL    HW130449   4.786   5.918   2.165
 9850SOL    HW230450   4.817   5.952   2.322
 9851SOL     OW30451   4.411   1.885   5.214
 9851SOL    HW130452   4.497   1.905   5.261
 9851SOL    HW230453   4.420   1.798   5.164
 9852SOL     OW30454   4.113   1.541   2.938
 9852SOL    HW130455   4.200   1.583   2.963
 9852SOL    HW230456   4.057   1.527   3.019
 9853SOL     OW30457   4.717   4.183   3.124
 9853SOL    HW130458   4.742   4.257   3.061
 9853SOL    HW230459   4.724   4.095   3.077
 9854SOL     OW30460   5.873   5.178   5.286
 9854SOL    HW130461   5.934   5.255   5.267
 9854SOL    HW230462   5.836   5.188   5.379
 9855SOL     OW30463   0.806   4.439   1.406
 9855SOL    HW130464   0.716   4.447   1.364
 9855SOL    HW230465   0.811   4.353   1.457
 9856SOL     OW30466   4.300   4.025   6.926
 9856SOL    HW130467   4.228   4.092   6.908
 9856SOL    HW230468   4.382   4.072   6.957
 9857SOL     OW30469   5.436   1.994   2.803
 9857SOL    HW130470   5.452   2.077   2.751
 9857SOL    HW230471   5.364   2.011   2.871
 9858SOL     OW30472   5.234   0.847   1.399
 9858SOL    HW130473   5.169   0.772   1.413
 9858SOL    HW230474   5.190   0.919   1.344
 9859SOL     OW30475   6.564   6.952   0.943
 9859SOL    HW130476   6.607   6.862   0.929
 9859SOL    HW230477   6.625   7.010   0.997
 9860SOL     OW30478   0.637   0.956   1.418
 9860SOL    HW130479   0.682   1.003   1.493
 9860SOL    HW230480   0.570   1.016   1.376
 9861SOL     OW30481   3.686   6.780   4.495
 9861SOL    HW130482   3.774   6.758   4.537
 9861SOL    HW230483   3.684   6.745   4.401
 9862SOL     OW30484   2.673   3.771   0.787
 9862SOL    HW130485   2.732   3.824   0.847
 9862SOL    HW230486   2.604   3.831   0.746
 9863SOL     OW30487   3.223   0.105   3.359
 9863SOL    HW130488   3.252   0.019   3.317
 9863SOL    HW230489   3.123   0.110   3.358
 9864SOL     OW30490   4.091   6.123   3.590
 9864SOL    HW130491   4.095   6.186   3.512
 9864SOL    HW230492   4.110   6.030   3.558
 9865SOL     OW30493   0.924   1.060   3.719
 9865SOL    HW130494   0.925   1.097   3.812
 9865SOL    HW230495   0.848   1.100   3.669
 9866SOL     OW30496   5.065   4.050   4.690
 9866SOL    HW130497   5.060   3.966   4.635
 9866SOL    HW230498   5.079   4.128   4.630
 9867SOL     OW30499   4.292   0.832   1.351
 9867SOL    HW130500   4.275   0.901   1.421
 9867SOL    HW230501   4.359   0.866   1.285
 9868SOL     OW30502   1.777   4.582   6.127
 9868SOL    HW130503   1.819   4.671   6.145
 9868SOL    HW230504   1.709   4.592   6.055
 9869SOL     OW30505   2.112   3.756   2.491
 9869SOL    HW130506   2.188   3.762   2.556
 9869SOL    HW230507   2.069   3.666   2.498
 9870SOL     OW30508   3.981   5.953   2.160
 9870SOL    HW130509   4.079   5.943   2.145
 9870SOL    HW230510   3.956   5.908   2.246
 9871SOL     OW30511   0.880   6.814   6.421
 9871SOL    HW130512   0.817   6.833   6.496
 9871SOL    HW230513   0.909   6.718   6.425
 9872SOL     OW30514   2.821   5.500   3.039
 9872SOL    HW130515   2.858   5.428   3.098
 9872SOL    HW230516   2.895   5.563   3.013
 9873SOL     OW30517   2.060   2.321   1.199
 9873SOL    HW130518   2.050   2.417   1.171
 9873SOL    HW230519   1.970   2.282   1.217
 9874SOL     OW30520   0.405   2.326   4.276
 9874SOL    HW130521   0.392   2.322   4.375
 9874SOL    HW230522   0.332   2.275   4.231
 9875SOL     OW30523   0.305   6.890   2.289
 9875SOL    HW130524   0.301   6.985   2.256
 9875SOL    HW230525   0.362   6.836   2.228
 9876SOL     OW30526   0.041   0.825   2.171
 9876SOL    HW130527   0.095   0.873   2.240
 9876SOL    HW230528   0.059   0.865   2.081
 9877SOL     OW30529   1.615   6.192   2.582
 9877SOL    HW130530   1.559   6.254   2.636
 9877SOL    HW230531   1.572   6.178   2.492
 9878SOL     OW30532   2.219   5.306   5.116
 9878SOL    HW130533   2.191   5.211   5.127
 9878SOL    HW230534   2.238   5.346   5.205
 9879SOL     OW30535   5.748   5.171   5.069
 9879SOL    HW130536   5.794   5.162   5.158
 9879SOL    HW230537   5.678   5.242   5.076
 9880SOL     OW30538   1.844   2.688   5.276
 9880SOL    HW130539   1.910   2.641   5.217
 9880SOL    HW230540   1.806   2.767   5.229
 9881SOL     OW30541   1.783   1.994   5.166
 9881SOL    HW130542   1.685   1.983   5.185
 9881SOL    HW230543   1.834   1.918   5.208
 9882SOL     OW30544   1.244   2.084   3.745
 9882SOL    HW130545   1.232   2.183   3.745
 9882SOL    HW230546   1.340   2.062   3.727
 9883SOL     OW30547   1.222   5.554   0.488
 9883SOL    HW130548   1.157   5.615   0.442
 9883SOL    HW230549   1.183   5.524   0.575
 9884SOL     OW30550   4.335   1.688   3.038
 9884SOL    HW130551   4.392   1.658   3.115
 9884SOL    HW230552   4.383   1.760   2.987
 9885SOL     OW30553   0.188   3.551   5.490
 9885SOL    HW130554   0.170   3.533   5.586
 9885SOL    HW230555   0.231   3.471   5.448
 9886SOL     OW30556   0.826   4.486   2.225
 9886SOL    HW130557   0.861   4.401   2.264
 9886SOL    HW230558   0.900   4.535   2.179
 9887SOL     OW30559   3.276   1.735   6.429
 9887SOL    HW130560   3.240   1.644   6.411
 9887SOL    HW230561   3.217   1.804   6.387
 9888SOL     OW30562   6.639   4.618   0.876
 9888SOL    HW130563   6.637   4.714   0.907
 9888SOL    HW230564   6.734   4.590   0.864
 9889SOL     OW30565   6.539   5.069   1.029
 9889SOL    HW130566   6.482   5.016   0.966
 9889SOL    HW230567   6.579   5.147   0.980
 9890SOL     OW30568   1.821   2.474   0.344
 9890SOL    HW130569   1.899   2.458   0.282
 9890SOL    HW230570   1.770   2.554   0.313
 9891SOL     OW30571   5.928   2.972   1.166
 9891SOL    HW130572   5.969   3.030   1.096
 9891SOL    HW230573   5.838   2.941   1.136
 9892SOL     OW30574   6.587   5.157   0.381
 9892SOL    HW130575   6.589   5.241   0.326
 9892SOL    HW230576   6.617   5.080   0.325
 9893SOL     OW30577   1.473   0.234   0.721
 9893SOL    HW130578   1.422   0.309   0.763
 9893SOL    HW230579   1.560   0.223   0.769
 9894SOL     OW30580   1.946   1.960   1.776
 9894SOL    HW130581   1.991   1.953   1.686
 9894SOL    HW230582   1.955   1.873   1.824
 9895SOL     OW30583   5.401   3.753   5.711
 9895SOL    HW130584   5.323   3.691   5.723
 9895SOL    HW230585   5.386   3.811   5.631
 9896SOL     OW30586   6.315   6.884   6.038
 9896SOL    HW130587   6.302   6.953   5.967
 9896SOL    HW230588   6.226   6.843   6.062
 9897SOL     OW30589   5.636   5.493   3.690
 9897SOL    HW130590   5.584   5.421   3.645
 9897SOL    HW230591   5.719   5.455   3.730
 9898SOL     OW30592   2.286   5.605   5.832
 9898SOL    HW130593   2.356   5.663   5.789
 9898SOL    HW230594   2.223   5.570   5.763
 9899SOL     OW30595   0.243   5.724   0.008
 9899SOL    HW130596   0.315   5.744   6.969
 9899SOL    HW230597   0.203   5.634   7.015
 9900SOL     OW30598   2.061   3.823   3.492
 9900SOL    HW130599   1.979   3.878   3.508
 9900SOL    HW230600   2.141   3.884   3.485
 9901SOL     OW30601   2.967   1.615   6.382
 9901SOL    HW130602   2.974   1.715   6.373
 9901SOL    HW230603   3.057   1.574   6.367
 9902SOL     OW30604   3.244   4.889   0.059
 9902SOL    HW130605   3.165   4.933   0.101
 9902SOL    HW230606   3.324   4.949   0.066
 9903SOL     OW30607   4.874   1.019   1.750
 9903SOL    HW130608   4.849   0.975   1.664
 9903SOL    HW230609   4.965   1.059   1.742
 9904SOL     OW30610   0.663   3.346   6.880
 9904SOL    HW130611   0.679   3.267   6.938
 9904SOL    HW230612   0.707   3.331   6.791
 9905SOL     OW30613   2.676   0.670   6.892
 9905SOL    HW130614   2.706   0.748   6.837
 9905SOL    HW230615   2.753   0.608   6.906
 9906SOL     OW30616   3.011   3.292   1.641
 9906SOL    HW130617   3.105   3.264   1.618
 9906SOL    HW230618   2.956   3.211   1.659
 9907SOL     OW30619   6.432   0.698   0.472
 9907SOL    HW130620   6.447   0.781   0.527
 9907SOL    HW230621   6.501   0.692   0.401
 9908SOL     OW30622   5.478   1.585   4.121
 9908SOL    HW130623   5.499   1.510   4.058
 9908SOL    HW230624   5.472   1.549   4.214
 9909SOL     OW30625   4.046   0.523   3.714
 9909SOL    HW130626   4.031   0.587   3.639
 9909SOL    HW230627   4.137   0.538   3.753
 9910SOL     OW30628   1.174   3.884   2.826
 9910SOL    HW130629   1.172   3.798   2.876
 9910SOL    HW230630   1.264   3.896   2.784
 9911SOL     OW30631   3.452   6.474   2.137
 9911SOL    HW130632   3.521   6.406   2.114
 9911SOL    HW230633   3.389   6.436   2.205
 9912SOL     OW30634   3.884   1.685   1.931
 9912SOL    HW130635   3.911   1.676   1.836
 9912SOL    HW230636   3.821   1.762   1.941
 9913SOL     OW30637   6.639   3.860   0.634
 9913SOL    HW130638   6.593   3.826   0.716
 9913SOL    HW230639   6.735   3.831   0.635
 9914SOL     OW30640   4.909   2.398   4.925
 9914SOL    HW130641   4.930   2.403   4.827
 9914SOL    HW230642   4.930   2.487   4.967
 9915SOL     OW30643   5.478   0.671   3.459
 9915SOL    HW130644   5.519   0.657   3.369
 9915SOL    HW230645   5.494   0.590   3.516
 9916SOL     OW30646   1.883   2.593   3.537
 9916SOL    HW130647   1.852   2.554   3.623
 9916SOL    HW230648   1.944   2.528   3.491
 9917SOL     OW30649   5.917   3.624   0.308
 9917SOL    HW130650   5.933   3.569   0.389
 9917SOL    HW230651   5.922   3.566   0.227
 9918SOL     OW30652   3.021   1.372   3.194
 9918SOL    HW130653   2.997   1.440   3.125
 9918SOL    HW230654   3.117   1.383   3.220
 9919SOL     OW30655   5.993   5.077   1.142
 9919SOL    HW130656   6.089   5.092   1.118
 9919SOL    HW230657   5.946   5.033   1.066
 9920SOL     OW30658   5.033   1.987   1.774
 9920SOL    HW130659   4.943   1.964   1.736
 9920SOL    HW230660   5.041   1.949   1.866
 9921SOL     OW30661   4.738   0.076   6.218
 9921SOL    HW130662   4.672   0.037   6.154
 9921SOL    HW230663   4.765   0.167   6.185
 9922SOL     OW30664   1.949   4.596   0.822
 9922SOL    HW130665   1.990   4.676   0.867
 9922SOL    HW230666   1.923   4.529   0.891
 9923SOL     OW30667   4.829   4.719   0.374
 9923SOL    HW130668   4.885   4.787   0.327
 9923SOL    HW230669   4.888   4.650   0.415
 9924SOL     OW30670   6.189   2.296   4.642
 9924SOL    HW130671   6.182   2.291   4.741
 9924SOL    HW230672   6.171   2.389   4.611
 9925SOL     OW30673   6.712   3.299   3.912
 9925SOL    HW130674   6.791   3.322   3.970
 9925SOL    HW230675   6.742   3.241   3.837
 9926SOL     OW30676   3.587   3.122   0.606
 9926SOL    HW130677   3.588   3.178   0.689
 9926SOL    HW230678   3.673   3.135   0.557
 9927SOL     OW30679   7.019   0.020   0.961
 9927SOL    HW130680   0.022   0.028   1.056
 9927SOL    HW230681   0.066   0.047   0.900
 9928SOL     OW30682   5.250   6.320   1.890
 9928SOL    HW130683   5.268   6.409   1.931
 9928SOL    HW230684   5.320   6.255   1.919
 9929SOL     OW30685   2.590   5.336   5.007
 9929SOL    HW130686   2.511   5.293   4.964
 9929SOL    HW230687   2.587   5.319   5.106
 9930SOL     OW30688   6.628   6.782   4.487
 9930SOL    HW130689   6.727   6.792   4.487
 9930SOL    HW230690   6.595   6.767   4.580
 9931SOL     OW30691   1.170   4.785   4.382
 9931SOL    HW130692   1.131   4.862   4.432
 9931SOL    HW230693   1.205   4.718   4.448
 9932SOL     OW30694   2.100   5.305   6.511
 9932SOL    HW130695   2.146   5.233   6.563
 9932SOL    HW230696   2.061   5.372   6.574
 9933SOL     OW30697   1.347   5.121   3.286
 9933SOL    HW130698   1.283   5.183   3.241
 9933SOL    HW230699   1.440   5.144   3.260
 9934SOL     OW30700   5.507   1.452   5.584
 9934SOL    HW130701   5.494   1.515   5.508
 9934SOL    HW230702   5.427   1.456   5.644
 9935SOL     OW30703   3.081   6.960   0.437
 9935SOL    HW130704   3.054   6.995   0.527
 9935SOL    HW230705   3.174   6.925   0.442
 9936SOL     OW30706   6.792   5.077   6.174
 9936SOL    HW130707   6.790   5.067   6.075
 9936SOL    HW230708   6.843   5.001   6.214
 9937SOL     OW30709   6.634   1.484   6.659
 9937SOL    HW130710   6.705   1.461   6.726
 9937SOL    HW230711   6.620   1.583   6.659
 9938SOL     OW30712   6.934   5.577   2.732
 9938SOL    HW130713   7.008   5.600   2.795
 9938SOL    HW230714   6.899   5.485   2.754
 9939SOL     OW30715   4.247   2.180   0.463
 9939SOL    HW130716   4.256   2.100   0.522
 9939SOL    HW230717   4.162   2.174   0.411
 9940SOL     OW30718   0.873   0.913   1.290
 9940SOL    HW130719   0.786   0.917   1.340
 9940SOL    HW230720   0.922   0.999   1.303
 9941SOL     OW30721   3.185   3.821   5.114
 9941SOL    HW130722   3.228   3.813   5.203
 9941SOL    HW230723   3.202   3.913   5.077
 9942SOL     OW30724   2.369   5.500   2.744
 9942SOL    HW130725   2.392   5.594   2.716
 9942SOL    HW230726   2.356   5.443   2.663
 9943SOL     OW30727   6.989   5.550   5.461
 9943SOL    HW130728   6.920   5.595   5.518
 9943SOL    HW230729   0.050   5.551   5.508
 9944SOL     OW30730   1.942   4.990   6.366
 9944SOL    HW130731   2.023   5.045   6.347
 9944SOL    HW230732   1.950   4.948   6.456
 9945SOL     OW30733   6.354   5.483   6.491
 9945SOL    HW130734   6.300   5.400   6.503
 9945SOL    HW230735   6.296   5.563   6.504
 9946SOL     OW30736   4.650   1.053   4.732
 9946SOL    HW130737   4.576   1.120   4.738
 9946SOL    HW230738   4.626   0.972   4.786
 9947SOL     OW30739   1.620   3.499   5.358
 9947SOL    HW130740   1.716   3.506   5.331
 9947SOL    HW230741   1.562   3.539   5.287
 9948SOL     OW30742   5.910   4.868   4.406
 9948SOL    HW130743   5.831   4.814   4.378
 9948SOL    HW230744   5.990   4.808   4.415
 9949SOL     OW30745   5.708   4.829   3.757
 9949SOL    HW130746   5.664   4.744   3.787
 9949SOL    HW230747   5.654   4.907   3.789
 9950SOL     OW30748   5.811   6.029   5.311
 9950SOL    HW130749   5.735   6.063   5.366
 9950SOL    HW230750   5.886   6.095   5.313
 9951SOL     OW30751   6.110   1.533   4.570
 9951SOL    HW130752   6.132   1.501   4.662
 9951SOL    HW230753   6.127   1.632   4.565
 9952SOL     OW30754   0.528   3.228   0.950
 9952SOL    HW130755   0.571   3.317   0.960
 9952SOL    HW230756   0.580   3.173   0.884
 9953SOL     OW30757   6.106   2.460   4.107
 9953SOL    HW130758   6.143   2.518   4.180
 9953SOL    HW230759   6.049   2.516   4.047
 9954SOL     OW30760   6.060   0.170   5.918
 9954SOL    HW130761   5.980   0.230   5.921
 9954SOL    HW230762   6.104   0.169   6.008
 9955SOL     OW30763   5.951   3.583   5.805
 9955SOL    HW130764   5.894   3.558   5.726
 9955SOL    HW230765   5.922   3.672   5.839
 9956SOL     OW30766   1.816   6.855   1.715
 9956SOL    HW130767   1.858   6.770   1.745
 9956SOL    HW230768   1.718   6.854   1.737
 9957SOL     OW30769   5.879   5.637   3.019
 9957SOL    HW130770   5.932   5.564   2.976
 9957SOL    HW230771   5.849   5.702   2.949
 9958SOL     OW30772   2.924   5.281   0.683
 9958SOL    HW130773   2.840   5.243   0.645
 9958SOL    HW230774   2.996   5.280   0.614
 9959SOL     OW30775   4.096   3.654   5.574
 9959SOL    HW130776   4.123   3.747   5.595
 9959SOL    HW230777   4.177   3.597   5.560
 9960SOL     OW30778   6.917   6.890   2.154
 9960SOL    HW130779   6.978   6.912   2.230
 9960SOL    HW230780   6.866   6.807   2.174
 9961SOL     OW30781   1.600   5.745   3.686
 9961SOL    HW130782   1.629   5.804   3.761
 9961SOL    HW230783   1.671   5.678   3.667
 9962SOL     OW30784   6.894   7.026   2.980
 9962SOL    HW130785   6.841   0.025   2.900
 9962SOL    HW230786   6.848   0.032   3.063
 9963SOL     OW30787   3.166   2.691   0.014
 9963SOL    HW130788   3.115   2.776   0.000
 9963SOL    HW230789   3.116   2.632   0.078
 9964SOL     OW30790   4.822   5.231   5.254
 9964SOL    HW130791   4.806   5.220   5.156
 9964SOL    HW230792   4.744   5.279   5.296
 9965SOL     OW30793   3.793   6.742   6.962
 9965SOL    HW130794   3.770   6.727   0.031
 9965SOL    HW230795   3.720   6.795   6.918
 9966SOL     OW30796   1.799   5.046   1.412
 9966SOL    HW130797   1.845   5.128   1.380
 9966SOL    HW230798   1.702   5.051   1.389
 9967SOL     OW30799   0.202   5.860   2.329
 9967SOL    HW130800   0.228   5.763   2.326
 9967SOL    HW230801   0.273   5.915   2.287
 9968SOL     OW30802   3.804   3.950   1.191
 9968SOL    HW130803   3.815   4.049   1.190
 9968SOL    HW230804   3.712   3.927   1.225
 9969SOL     OW30805   1.499   3.422   2.446
 9969SOL    HW130806   1.592   3.407   2.479
 9969SOL    HW230807   1.438   3.438   2.523
 9970SOL     OW30808   5.196   4.328   2.817
 9970SOL    HW130809   5.286   4.366   2.841
 9970SOL    HW230810   5.207   4.260   2.745
 9971SOL     OW30811   2.221   4.991   1.377
 9971SOL    HW130812   2.177   5.043   1.304
 9971SOL    HW230813   2.278   4.919   1.337
 9972SOL     OW30814   5.614   4.985   1.038
 9972SOL    HW130815   5.671   4.909   1.005
 9972SOL    HW230816   5.668   5.069   1.039
 9973SOL     OW30817   5.971   1.852   3.416
 9973SOL    HW130818   5.888   1.824   3.367
 9973SOL    HW230819   6.031   1.773   3.427
 9974SOL     OW30820   0.897   2.371   2.604
 9974SOL    HW130821   0.836   2.302   2.644
 9974SOL    HW230822   0.907   2.353   2.506
 9975SOL     OW30823   6.065   3.032   0.516
 9975SOL    HW130824   6.100   3.080   0.597
 9975SOL    HW230825   6.139   2.980   0.474
 9976SOL     OW30826   1.008   6.004   5.035
 9976SOL    HW130827   1.048   5.913   5.038
 9976SOL    HW230828   1.045   6.054   4.957
 9977SOL     OW30829   6.660   5.850   5.542
 9977SOL    HW130830   6.709   5.789   5.479
 9977SOL    HW230831   6.693   5.835   5.635
 9978SOL     OW30832   1.333   3.180   4.938
 9978SOL    HW130833   1.289   3.143   5.020
 9978SOL    HW230834   1.407   3.241   4.965
 9979SOL     OW30835   6.543   5.100   5.499
 9979SOL    HW130836   6.609   5.120   5.425
 9979SOL    HW230837   6.498   5.013   5.480
 9980SOL     OW30838   2.351   0.267   6.923
 9980SOL    HW130839   2.375   0.232   7.013
 9980SOL    HW230840   2.383   0.204   6.853
 9981SOL     OW30841   2.325   1.731   2.965
 9981SOL    HW130842   2.373   1.721   3.052
 9981SOL    HW230843   2.226   1.734   2.982
 9982SOL     OW30844   6.422   5.805   4.154
 9982SOL    HW130845   6.416   5.873   4.227
 9982SOL    HW230846   6.515   5.769   4.148
 9983SOL     OW30847   0.561   2.226   3.110
 9983SOL    HW130848   0.491   2.260   3.048
 9983SOL    HW230849   0.520   2.207   3.200
 9984SOL     OW30850   2.616   1.810   6.940
 9984SOL    HW130851   2.639   1.839   6.847
 9984SOL    HW230852   2.697   1.814   6.998
 9985SOL     OW30853   2.020   0.880   0.731
 9985SOL    HW130854   1.962   0.940   0.785
 9985SOL    HW230855   1.989   0.880   0.636
 9986SOL     OW30856   6.384   3.953   5.951
 9986SOL    HW130857   6.402   3.943   6.049
 9986SOL    HW230858   6.368   4.050   5.930
 9987SOL     OW30859   5.989   3.083   5.129
 9987SOL    HW130860   6.054   3.103   5.056
 9987SOL    HW230861   5.905   3.135   5.114
 9988SOL     OW30862   0.629   5.755   4.517
 9988SOL    HW130863   0.568   5.688   4.475
 9988SOL    HW230864   0.599   5.773   4.611
 9989SOL     OW30865   6.794   3.196   3.666
 9989SOL    HW130866   6.848   3.112   3.675
 9989SOL    HW230867   6.729   3.186   3.591
 9990SOL     OW30868   1.970   4.885   3.202
 9990SOL    HW130869   1.941   4.839   3.118
 9990SOL    HW230870   2.049   4.836   3.241
 9991SOL     OW30871   2.858   2.196   4.493
 9991SOL    HW130872   2.950   2.164   4.516
 9991SOL    HW230873   2.820   2.139   4.420
 9992SOL     OW30874   5.677   4.801   0.022
 9992SOL    HW130875   5.587   4.830   0.056
 9992SOL    HW230876   5.732   4.881   7.027
 9993SOL     OW30877   2.826   1.190   0.931
 9993SOL    HW130878   2.848   1.287   0.917
 9993SOL    HW230879   2.764   1.181   1.009
 9994SOL     OW30880   6.439   4.537   2.909
 9994SOL    HW130881   6.493   4.508   2.830
 9994SOL    HW230882   6.404   4.457   2.958
 9995SOL     OW30883   4.704   1.458   3.336
 9995SOL    HW130884   4.605   1.455   3.329
 9995SOL    HW230885   4.731   1.448   3.432
 9996SOL     OW30886   3.113   3.879   0.086
 9996SOL    HW130887   3.065   3.804   0.130
 9996SOL    HW230888   3.109   3.960   0.144
 9997SOL     OW30889   2.784   1.898   5.607
 9997SOL    HW130890   2.881   1.904   5.632
 9997SOL    HW230891   2.760   1.975   5.548
 9998SOL     OW30892   5.788   4.788   5.477
 9998SOL    HW130893   5.728   4.869   5.477
 9998SOL    HW230894   5.859   4.800   5.407
 9999SOL     OW30895   6.240   3.024   6.055
 9999SOL    HW130896   6.272   2.939   6.012
 9999SOL    HW230897   6.314   3.091   6.057
10000SOL     OW30898   6.625   3.975   0.085
10000SOL    HW130899   6.535   3.939   0.060
10000SOL    HW230900   6.614   4.056   0.142
10001SOL     OW30901   4.927   0.178   2.274
10001SOL    HW130902   4.923   0.128   2.360
10001SOL    HW230903   4.875   0.128   2.204
10002SOL     OW30904   1.485   6.882   1.899
10002SOL    HW130905   1.495   6.969   1.947
10002SOL    HW230906   1.401   6.837   1.928
10003SOL     OW30907   3.232   2.108   4.002
10003SOL    HW130908   3.146   2.151   4.029
10003SOL    HW230909   3.216   2.048   3.924
10004SOL     OW30910   6.975   2.860   4.812
10004SOL    HW130911   6.899   2.924   4.825
10004SOL    HW230912   6.965   2.814   4.723
10005SOL     OW30913   5.676   0.504   3.653
10005SOL    HW130914   5.667   0.590   3.703
10005SOL    HW230915   5.769   0.496   3.616
10006SOL     OW30916   4.720   6.662   4.297
10006SOL    HW130917   4.752   6.756   4.293
10006SOL    HW230918   4.671   6.640   4.212
10007SOL     OW30919   0.317   3.759   5.076
10007SOL    HW130920   0.315   3.755   5.175
10007SOL    HW230921   0.274   3.677   5.038
10008SOL     OW30922   3.878   1.102   4.917
10008SOL    HW130923   3.935   1.061   4.988
10008SOL    HW230924   3.937   1.131   4.841
10009SOL     OW30925   1.815   3.766   2.271
10009SOL    HW130926   1.909   3.768   2.235
10009SOL    HW230927   1.810   3.824   2.352
10010SOL     OW30928   2.028   0.814   6.527
10010SOL    HW130929   2.034   0.860   6.438
10010SOL    HW230930   2.118   0.778   6.552
10011SOL     OW30931   6.831   0.346   5.465
10011SOL    HW130932   6.869   0.333   5.373
10011SOL    HW230933   6.828   0.258   5.513
10012SOL     OW30934   6.029   0.472   2.815
10012SOL    HW130935   5.953   0.424   2.772
10012SOL    HW230936   6.092   0.405   2.854
10013SOL     OW30937   0.158   1.210   3.161
10013SOL    HW130938   0.177   1.112   3.169
10013SOL    HW230939   0.137   1.232   3.066
10014SOL     OW30940   0.632   4.264   6.769
10014SOL    HW130941   0.668   4.241   6.859
10014SOL    HW230942   0.694   4.230   6.698
10015SOL     OW30943   2.413   5.161   0.515
10015SOL    HW130944   2.464   5.171   0.429
10015SOL    HW230945   2.365   5.073   0.514
10016SOL     OW30946   1.625   1.524   6.218
10016SOL    HW130947   1.590   1.603   6.167
10016SOL    HW230948   1.550   1.482   6.269
10017SOL     OW30949   3.014   2.233   4.071
10017SOL    HW130950   2.960   2.205   4.151
10017SOL    HW230951   2.955   2.241   3.991
10018SOL     OW30952   5.181   0.067   6.796
10018SOL    HW130953   5.157   0.041   6.702
10018SOL    HW230954   5.143   0.157   6.816
10019SOL     OW30955   0.989   1.490   2.792
10019SOL    HW130956   0.977   1.485   2.891
10019SOL    HW230957   0.930   1.562   2.755
10020SOL     OW30958   0.946   2.867   1.697
10020SOL    HW130959   0.997   2.786   1.670
10020SOL    HW230960   0.911   2.914   1.615
10021SOL     OW30961   6.693   3.310   1.236
10021SOL    HW130962   6.638   3.246   1.291
10021SOL    HW230963   6.633   3.361   1.175
10022SOL     OW30964   2.408   1.435   6.318
10022SOL    HW130965   2.360   1.512   6.276
10022SOL    HW230966   2.450   1.466   6.404
10023SOL     OW30967   6.506   4.218   0.356
10023SOL    HW130968   6.531   4.301   0.307
10023SOL    HW230969   6.418   4.184   0.323
10024SOL     OW30970   1.151   6.119   3.778
10024SOL    HW130971   1.247   6.109   3.806
10024SOL    HW230972   1.140   6.085   3.685
10025SOL     OW30973   1.912   0.738   1.923
10025SOL    HW130974   1.980   0.800   1.885
10025SOL    HW230975   1.830   0.738   1.866
10026SOL     OW30976   5.436   0.416   3.667
10026SOL    HW130977   5.392   0.395   3.754
10026SOL    HW230978   5.534   0.424   3.679
10027SOL     OW30979   5.422   3.652   4.262
10027SOL    HW130980   5.384   3.622   4.349
10027SOL    HW230981   5.507   3.604   4.244
10028SOL     OW30982   1.211   0.777   1.007
10028SOL    HW130983   1.134   0.759   0.945
10028SOL    HW230984   1.294   0.735   0.970
10029SOL     OW30985   5.398   1.928   3.352
10029SOL    HW130986   5.376   2.025   3.336
10029SOL    HW230987   5.428   1.917   3.447
10030SOL     OW30988   2.300   0.907   3.529
10030SOL    HW130989   2.238   0.940   3.600
10030SOL    HW230990   2.373   0.852   3.571
10031SOL     OW30991   5.404   4.750   3.871
10031SOL    HW130992   5.382   4.825   3.808
10031SOL    HW230993   5.331   4.740   3.938
10032SOL     OW30994   2.434   1.791   5.039
10032SOL    HW130995   2.390   1.706   5.068
10032SOL    HW230996   2.376   1.869   5.061
10033SOL     OW30997   6.251   3.016   4.023
10033SOL    HW130998   6.255   2.933   3.969
10033SOL    HW230999   6.338   3.065   4.015
10034SOL     OW31000   3.623   0.781   4.802
10034SOL    HW131001   3.626   0.720   4.723
10034SOL    HW231002   3.610   0.727   4.885
10035SOL     OW31003   0.026   5.137   2.066
10035SOL    HW131004   0.100   5.080   2.030
10035SOL    HW231005   0.056   5.184   2.149
10036SOL     OW31006   6.434   1.840   0.242
10036SOL    HW131007   6.356   1.810   0.297
10036SOL    HW231008   6.408   1.837   0.145
10037SOL     OW31009   6.546   0.779   6.198
10037SOL    HW131010   6.588   0.825   6.277
10037SOL    HW231011   6.468   0.833   6.166
10038SOL     OW31012   6.370   0.274   0.982
10038SOL    HW131013   6.463   0.267   1.017
10038SOL    HW231014   6.308   0.220   1.039
10039SOL     OW31015   2.975   0.415   3.383
10039SOL    HW131016   3.050   0.446   3.325
10039SOL    HW231017   2.975   0.315   3.387
10040SOL     OW31018   6.201   3.771   0.242
10040SOL    HW131019   6.231   3.758   0.337
10040SOL    HW231020   6.136   3.699   0.218
10041SOL     OW31021   3.188   6.306   7.023
10041SOL    HW131022   3.179   6.397   6.984
10041SOL    HW231023   3.263   6.303   0.061
10042SOL     OW31024   6.904   2.189   3.382
10042SOL    HW131025   6.950   2.148   3.303
10042SOL    HW231026   6.971   2.213   3.452
10043SOL     OW31027   6.852   1.689   5.699
10043SOL    HW131028   6.885   1.707   5.791
10043SOL    HW231029   6.752   1.698   5.697
10044SOL     OW31030   2.611   2.953   5.641
10044SOL    HW131031   2.535   3.015   5.662
10044SOL    HW231032   2.580   2.882   5.579
10045SOL     OW31033   4.351   1.038   1.082
10045SOL    HW131034   4.336   0.954   1.029
10045SOL    HW231035   4.262   1.080   1.101
10046SOL     OW31036   0.935   4.831   1.193
10046SOL    HW131037   0.882   4.904   1.237
10046SOL    HW231038   0.909   4.743   1.232
10047SOL     OW31039   0.789   3.121   5.855
10047SOL    HW131040   0.794   3.203   5.799
10047SOL    HW231041   0.731   3.138   5.935
10048SOL     OW31042   6.351   6.652   2.825
10048SOL    HW131043   6.295   6.720   2.778
10048SOL    HW231044   6.292   6.588   2.874
10049SOL     OW31045   0.110   2.496   5.770
10049SOL    HW131046   0.149   2.450   5.690
10049SOL    HW231047   0.088   2.590   5.747
10050SOL     OW31048   5.439   3.382   5.070
10050SOL    HW131049   5.345   3.367   5.040
10050SOL    HW231050   5.446   3.365   5.168
10051SOL     OW31051   0.966   4.172   4.728
10051SOL    HW131052   0.980   4.075   4.708
10051SOL    HW231053   0.931   4.218   4.647
10052SOL     OW31054   0.740   0.893   3.445
10052SOL    HW131055   0.823   0.847   3.413
10052SOL    HW231056   0.766   0.979   3.490
10053SOL     OW31057   5.021   5.373   4.403
10053SOL    HW131058   4.930   5.412   4.393
10053SOL    HW231059   5.018   5.299   4.470
10054SOL     OW31060   5.396   3.900   4.617
10054SOL    HW131061   5.326   3.844   4.662
10054SOL    HW231062   5.486   3.859   4.632
10055SOL     OW31063   6.700   2.098   6.517
10055SOL    HW131064   6.649   2.012   6.519
10055SOL    HW231065   6.666   2.155   6.442
10056SOL     OW31066   5.142   2.944   2.971
10056SOL    HW131067   5.064   2.998   3.001
10056SOL    HW231068   5.115   2.887   2.893
10057SOL     OW31069   5.199   4.467   6.393
10057SOL    HW131070   5.170   4.480   6.488
10057SOL    HW231071   5.196   4.555   6.346
10058SOL     OW31072   5.919   3.236   4.864
10058SOL    HW131073   5.937   3.154   4.809
10058SOL    HW231074   5.834   3.224   4.915
10059SOL     OW31075   6.783   1.445   6.891
10059SOL    HW131076   6.831   1.525   6.929
10059SOL    HW231077   6.722   1.407   6.961
10060SOL     OW31078   2.336   1.886   2.740
10060SOL    HW131079   2.325   1.835   2.825
10060SOL    HW231080   2.370   1.978   2.760
10061SOL     OW31081   3.703   0.694   3.424
10061SOL    HW131082   3.697   0.645   3.338
10061SOL    HW231083   3.672   0.636   3.499
10062SOL     OW31084   0.469   0.246   4.221
10062SOL    HW131085   0.381   0.223   4.263
10062SOL    HW231086   0.492   0.341   4.242
10063SOL     OW31087   1.702   3.025   4.878
10063SOL    HW131088   1.660   3.096   4.823
10063SOL    HW231089   1.635   2.952   4.896
10064SOL     OW31090   2.936   6.768   0.761
10064SOL    HW131091   2.881   6.754   0.679
10064SOL    HW231092   2.933   6.686   0.818
10065SOL     OW31093   0.664   0.883   2.052
10065SOL    HW131094   0.685   0.787   2.032
10065SOL    HW231095   0.748   0.932   2.072
10066SOL     OW31096   6.865   3.575   4.842
10066SOL    HW131097   6.880   3.520   4.760
10066SOL    HW231098   6.793   3.642   4.824
10067SOL     OW31099   6.719   2.511   5.360
10067SOL    HW131100   6.672   2.582   5.308
10067SOL    HW231101   6.691   2.516   5.456
10068SOL     OW31102   2.704   2.413   2.725
10068SOL    HW131103   2.798   2.414   2.690
10068SOL    HW231104   2.645   2.466   2.665
10069SOL     OW31105   3.541   5.377   1.024
10069SOL    HW131106   3.472   5.342   1.086
10069SOL    HW231107   3.538   5.477   1.023
10070SOL     OW31108   3.505   5.712   5.291
10070SOL    HW131109   3.421   5.759   5.265
10070SOL    HW231110   3.566   5.705   5.211
10071SOL     OW31111   6.427   0.123   3.211
10071SOL    HW131112   6.472   0.190   3.270
10071SOL    HW231113   6.488   0.046   3.195
10072SOL     OW31114   6.597   1.684   2.645
10072SOL    HW131115   6.599   1.614   2.716
10072SOL    HW231116   6.688   1.695   2.605
10073SOL     OW31117   6.224   3.720   4.418
10073SOL    HW131118   6.272   3.647   4.370
10073SOL    HW231119   6.206   3.692   4.512
10074SOL     OW31120   1.639   4.863   0.422
10074SOL    HW131121   1.618   4.814   0.337
10074SOL    HW231122   1.685   4.801   0.486
10075SOL     OW31123   1.942   3.142   1.657
10075SOL    HW131124   1.994   3.158   1.740
10075SOL    HW231125   1.987   3.187   1.580
10076SOL     OW31126   5.195   5.175   3.592
10076SOL    HW131127   5.263   5.245   3.573
10076SOL    HW231128   5.137   5.204   3.668
10077SOL     OW31129   6.336   2.887   6.839
10077SOL    HW131130   6.310   2.919   6.930
10077SOL    HW231131   6.260   2.837   6.798
10078SOL     OW31132   0.163   6.608   5.129
10078SOL    HW131133   0.172   6.558   5.043
10078SOL    HW231134   0.067   6.614   5.155
10079SOL     OW31135   4.420   2.464   3.136
10079SOL    HW131136   4.363   2.406   3.193
10079SOL    HW231137   4.388   2.461   3.041
10080SOL     OW31138   5.416   0.286   6.084
10080SOL    HW131139   5.371   0.357   6.138
10080SOL    HW231140   5.366   0.200   6.095
10081SOL     OW31141   2.034   2.668   0.554
10081SOL    HW131142   2.080   2.640   0.469
10081SOL    HW231143   2.046   2.596   0.623
10082SOL     OW31144   1.304   4.616   1.978
10082SOL    HW131145   1.288   4.635   1.881
10082SOL    HW231146   1.356   4.532   1.988
10083SOL     OW31147   3.808   5.309   3.698
10083SOL    HW131148   3.730   5.351   3.745
10083SOL    HW231149   3.875   5.379   3.676
10084SOL     OW31150   1.327   0.443   4.953
10084SOL    HW131151   1.369   0.513   5.011
10084SOL    HW231152   1.306   0.362   5.008
10085SOL     OW31153   4.325   6.944   0.452
10085SOL    HW131154   4.303   6.902   0.364
10085SOL    HW231155   4.423   6.937   0.469
10086SOL     OW31156   0.068   6.197   1.572
10086SOL    HW131157   0.005   6.122   1.551
10086SOL    HW231158   0.041   6.279   1.522
10087SOL     OW31159   1.611   6.242   4.814
10087SOL    HW131160   1.598   6.201   4.724
10087SOL    HW231161   1.684   6.195   4.862
10088SOL     OW31162   0.386   2.803   0.263
10088SOL    HW131163   0.312   2.868   0.281
10088SOL    HW231164   0.410   2.806   0.165
10089SOL     OW31165   4.021   1.812   2.255
10089SOL    HW131166   3.973   1.849   2.175
10089SOL    HW231167   4.115   1.847   2.256
10090SOL     OW31168   1.731   5.818   1.380
10090SOL    HW131169   1.754   5.915   1.371
10090SOL    HW231170   1.743   5.773   1.291
10091SOL     OW31171   6.275   4.452   5.528
10091SOL    HW131172   6.195   4.504   5.560
10091SOL    HW231173   6.272   4.360   5.566
10092SOL     OW31174   0.336   2.318   5.361
10092SOL    HW131175   0.263   2.259   5.325
10092SOL    HW231176   0.416   2.262   5.382
10093SOL     OW31177   5.509   4.456   5.704
10093SOL    HW131178   5.417   4.494   5.694
10093SOL    HW231179   5.559   4.468   5.619
10094SOL     OW31180   3.265   0.766   1.239
10094SOL    HW131181   3.254   0.734   1.333
10094SOL    HW231182   3.316   0.852   1.238
10095SOL     OW31183   4.943   2.842   5.305
10095SOL    HW131184   4.861   2.896   5.285
10095SOL    HW231185   4.992   2.883   5.382
10096SOL     OW31186   5.081   1.066   2.981
10096SOL    HW131187   5.044   0.981   2.942
10096SOL    HW231188   5.145   1.043   3.054
10097SOL     OW31189   1.256   1.502   0.131
10097SOL    HW131190   1.315   1.475   0.055
10097SOL    HW231191   1.248   1.602   0.134
10098SOL     OW31192   3.559   5.618   3.948
10098SOL    HW131193   3.512   5.624   4.036
10098SOL    HW231194   3.554   5.707   3.902
10099SOL     OW31195   0.018   4.715   1.465
10099SOL    HW131196   6.955   4.691   1.430
10099SOL    HW231197   0.025   4.687   1.561
10100SOL     OW31198   4.570   5.229   4.660
10100SOL    HW131199   4.497   5.295   4.642
10100SOL    HW231200   4.549   5.178   4.744
10101SOL     OW31201   1.034   1.985   1.954
10101SOL    HW131202   1.085   2.007   2.037
10101SOL    HW231203   0.976   2.062   1.929
10102SOL     OW31204   6.518   6.572   1.511
10102SOL    HW131205   6.570   6.640   1.563
10102SOL    HW231206   6.566   6.484   1.513
10103SOL     OW31207   6.845   6.416   6.260
10103SOL    HW131208   6.857   6.413   6.161
10103SOL    HW231209   6.852   6.323   6.297
10104SOL     OW31210   2.265   0.342   4.894
10104SOL    HW131211   2.307   0.253   4.910
10104SOL    HW231212   2.172   0.330   4.860
10105SOL     OW31213   2.625   0.629   6.297
10105SOL    HW131214   2.655   0.722   6.274
10105SOL    HW231215   2.615   0.620   6.396
10106SOL     OW31216   4.901   5.931   1.242
10106SOL    HW131217   4.913   5.952   1.145
10106SOL    HW231218   4.940   6.004   1.297
10107SOL     OW31219   4.718   4.573   7.010
10107SOL    HW131220   4.712   4.611   0.075
10107SOL    HW231221   4.740   4.476   7.016
10108SOL     OW31222   2.019   2.847   0.209
10108SOL    HW131223   2.003   2.825   0.113
10108SOL    HW231224   2.002   2.766   0.265
10109SOL     OW31225   1.125   1.972   1.397
10109SOL    HW131226   1.142   1.888   1.346
10109SOL    HW231227   1.203   1.991   1.458
10110SOL     OW31228   4.577   6.091   2.894
10110SOL    HW131229   4.564   6.190   2.887
10110SOL    HW231230   4.488   6.045   2.889
10111SOL     OW31231   0.868   1.361   2.072
10111SOL    HW131232   0.920   1.407   2.144
10111SOL    HW231233   0.872   1.414   1.988
10112SOL     OW31234   6.572   1.927   3.728
10112SOL    HW131235   6.578   1.833   3.760
10112SOL    HW231236   6.496   1.935   3.663
10113SOL     OW31237   5.993   0.993   6.389
10113SOL    HW131238   5.954   0.913   6.343
10113SOL    HW231239   6.063   0.964   6.454
10114SOL     OW31240   5.014   1.540   2.415
10114SOL    HW131241   5.002   1.619   2.475
10114SOL    HW231242   4.959   1.553   2.332
10115SOL     OW31243   3.122   2.558   5.770
10115SOL    HW131244   3.126   2.485   5.702
10115SOL    HW231245   3.143   2.645   5.727
10116SOL     OW31246   6.235   6.947   4.974
10116SOL    HW131247   6.316   6.921   4.923
10116SOL    HW231248   6.155   6.896   4.940
10117SOL     OW31249   6.327   4.321   4.020
10117SOL    HW131250   6.372   4.234   4.000
10117SOL    HW231251   6.297   4.363   3.934
10118SOL     OW31252   3.584   5.319   4.781
10118SOL    HW131253   3.555   5.346   4.689
10118SOL    HW231254   3.615   5.224   4.779
10119SOL     OW31255   0.242   5.126   5.243
10119SOL    HW131256   0.200   5.202   5.293
10119SOL    HW231257   0.266   5.157   5.151
10120SOL     OW31258   1.990   2.913   2.360
10120SOL    HW131259   2.020   2.839   2.421
10120SOL    HW231260   2.068   2.971   2.338
10121SOL     OW31261   6.500   3.744   0.880
10121SOL    HW131262   6.497   3.788   0.969
10121SOL    HW231263   6.406   3.723   0.850
10122SOL     OW31264   1.241   0.554   3.609
10122SOL    HW131265   1.192   0.578   3.692
10122SOL    HW231266   1.211   0.464   3.577
10123SOL     OW31267   5.503   5.831   6.906
10123SOL    HW131268   5.470   5.774   6.982
10123SOL    HW231269   5.479   5.927   6.923
10124SOL     OW31270   1.324   4.655   2.901
10124SOL    HW131271   1.310   4.700   2.989
10124SOL    HW231272   1.421   4.663   2.875
10125SOL     OW31273   1.256   1.167   6.156
10125SOL    HW131274   1.232   1.213   6.242
10125SOL    HW231275   1.319   1.224   6.104
10126SOL     OW31276   6.207   0.074   6.703
10126SOL    HW131277   6.255   7.018   6.678
10126SOL    HW231278   6.258   0.153   6.667
10127SOL     OW31279   1.855   5.646   5.851
10127SOL    HW131280   1.944   5.645   5.896
10127SOL    HW231281   1.783   5.621   5.916
10128SOL     OW31282   2.822   1.535   6.817
10128SOL    HW131283   2.907   1.580   6.843
10128SOL    HW231284   2.783   1.582   6.738
10129SOL     OW31285   5.817   1.065   4.023
10129SOL    HW131286   5.760   0.990   4.056
10129SOL    HW231287   5.871   1.034   3.944
10130SOL     OW31288   1.430   2.002   2.699
10130SOL    HW131289   1.413   1.971   2.605
10130SOL    HW231290   1.522   1.975   2.726
10131SOL     OW31291   2.095   0.370   4.458
10131SOL    HW131292   2.118   0.304   4.387
10131SOL    HW231293   2.173   0.430   4.475
10132SOL     OW31294   6.692   0.910   1.730
10132SOL    HW131295   6.720   0.816   1.751
10132SOL    HW231296   6.628   0.910   1.654
10133SOL     OW31297   5.533   7.003   0.376
10133SOL    HW131298   5.549   6.995   0.474
10133SOL    HW231299   5.573   0.060   0.342
10134SOL     OW31300   6.111   6.892   1.881
10134SOL    HW131301   6.122   6.838   1.965
10134SOL    HW231302   6.109   6.989   1.904
10135SOL     OW31303   6.501   6.975   2.905
10135SOL    HW131304   6.538   6.890   2.868
10135SOL    HW231305   6.488   0.014   2.832
10136SOL     OW31306   5.576   1.738   2.689
10136SOL    HW131307   5.561   1.828   2.730
10136SOL    HW231308   5.490   1.689   2.683
10137SOL     OW31309   6.311   5.315   5.647
10137SOL    HW131310   6.363   5.400   5.649
10137SOL    HW231311   6.356   5.247   5.703
10138SOL     OW31312   0.099   1.777   0.505
10138SOL    HW131313   0.102   1.823   0.594
10138SOL    HW231314   0.049   1.834   0.439
10139SOL     OW31315   3.520   2.849   6.296
10139SOL    HW131316   3.508   2.940   6.334
10139SOL    HW231317   3.613   2.817   6.315
10140SOL     OW31318   0.226   6.217   5.950
10140SOL    HW131319   0.178   6.291   5.997
10140SOL    HW231320   0.287   6.255   5.880
10141SOL     OW31321   2.193   2.696   4.788
10141SOL    HW131322   2.153   2.605   4.787
10141SOL    HW231323   2.290   2.689   4.811
10142SOL     OW31324   4.901   6.167   4.341
10142SOL    HW131325   4.850   6.082   4.336
10142SOL    HW231326   4.837   6.244   4.351
10143SOL     OW31327   4.909   3.643   6.869
10143SOL    HW131328   4.914   3.545   6.886
10143SOL    HW231329   4.995   3.675   6.829
10144SOL     OW31330   3.509   6.783   6.056
10144SOL    HW131331   3.513   6.701   6.114
10144SOL    HW231332   3.601   6.820   6.044
10145SOL     OW31333   5.581   6.032   6.624
10145SOL    HW131334   5.631   5.946   6.616
10145SOL    HW231335   5.497   6.028   6.570
10146SOL     OW31336   0.146   2.459   4.358
10146SOL    HW131337   0.220   2.420   4.412
10146SOL    HW231338   0.181   2.535   4.304
10147SOL     OW31339   4.908   5.033   5.918
10147SOL    HW131340   4.904   5.094   5.997
10147SOL    HW231341   4.990   4.976   5.925
10148SOL     OW31342   1.431   4.546   0.442
10148SOL    HW131343   1.504   4.566   0.507
10148SOL    HW231344   1.454   4.586   0.353
10149SOL     OW31345   3.816   4.477   0.042
10149SOL    HW131346   3.862   4.528   0.114
10149SOL    HW231347   3.725   4.449   0.073
10150SOL     OW31348   4.035   4.311   6.975
10150SOL    HW131349   4.027   4.216   7.004
10150SOL    HW231350   3.952   4.361   7.002
10151SOL     OW31351   5.414   6.831   5.660
10151SOL    HW131352   5.353   6.821   5.738
10151SOL    HW231353   5.377   6.899   5.597
10152SOL     OW31354   4.907   6.616   2.876
10152SOL    HW131355   4.888   6.553   2.952
10152SOL    HW231356   4.821   6.642   2.833
10153SOL     OW31357   4.313   4.571   3.251
10153SOL    HW131358   4.283   4.569   3.346
10153SOL    HW231359   4.246   4.620   3.195
10154SOL     OW31360   5.362   5.223   5.448
10154SOL    HW131361   5.436   5.278   5.407
10154SOL    HW231362   5.314   5.173   5.376
10155SOL     OW31363   4.170   1.185   4.878
10155SOL    HW131364   4.134   1.124   4.949
10155SOL    HW231365   4.265   1.160   4.859
10156SOL     OW31366   5.052   2.062   6.576
10156SOL    HW131367   5.080   2.065   6.672
10156SOL    HW231368   5.093   2.140   6.528
10157SOL     OW31369   0.795   2.746   0.911
10157SOL    HW131370   0.707   2.700   0.899
10157SOL    HW231371   0.844   2.747   0.824
10158SOL     OW31372   5.713   5.003   0.719
10158SOL    HW131373   5.621   5.042   0.713
10158SOL    HW231374   5.779   5.069   0.682
10159SOL     OW31375   3.386   3.486   3.043
10159SOL    HW131376   3.374   3.393   3.010
10159SOL    HW231377   3.303   3.516   3.090
10160SOL     OW31378   1.130   5.279   3.224
10160SOL    HW131379   1.075   5.358   3.251
10160SOL    HW231380   1.196   5.308   3.154
10161SOL     OW31381   5.413   3.330   5.639
10161SOL    HW131382   5.325   3.295   5.671
10161SOL    HW231383   5.454   3.386   5.711
10162SOL     OW31384   1.432   3.015   2.728
10162SOL    HW131385   1.359   3.056   2.673
10162SOL    HW231386   1.514   3.008   2.672
10163SOL     OW31387   1.550   5.951   5.172
10163SOL    HW131388   1.586   5.858   5.173
10163SOL    HW231389   1.454   5.949   5.146
10164SOL     OW31390   1.074   2.480   3.298
10164SOL    HW131391   1.031   2.453   3.213
10164SOL    HW231392   1.009   2.472   3.373
10165SOL     OW31393   0.308   3.693   4.569
10165SOL    HW131394   0.369   3.682   4.648
10165SOL    HW231395   0.230   3.750   4.594
10166SOL     OW31396   2.309   0.969   1.444
10166SOL    HW131397   2.363   0.885   1.441
10166SOL    HW231398   2.211   0.947   1.439
10167SOL     OW31399   2.217   0.485   6.836
10167SOL    HW131400   2.282   0.556   6.810
10167SOL    HW231401   2.264   0.396   6.838
10168SOL     OW31402   0.062   1.249   0.425
10168SOL    HW131403   7.022   1.178   0.447
10168SOL    HW231404   0.034   1.335   0.467
10169SOL     OW31405   6.139   2.574   3.509
10169SOL    HW131406   6.151   2.481   3.544
10169SOL    HW231407   6.095   2.630   3.579
10170SOL     OW31408   5.638   5.688   6.425
10170SOL    HW131409   5.657   5.682   6.523
10170SOL    HW231410   5.681   5.770   6.387
10171SOL     OW31411   2.258   3.830   5.969
10171SOL    HW131412   2.251   3.807   5.872
10171SOL    HW231413   2.216   3.919   5.986
10172SOL     OW31414   6.591   6.743   2.781
10172SOL    HW131415   6.650   6.732   2.861
10172SOL    HW231416   6.499   6.713   2.803
10173SOL     OW31417   3.018   4.184   5.171
10173SOL    HW131418   2.992   4.153   5.262
10173SOL    HW231419   2.980   4.276   5.155
10174SOL     OW31420   4.564   6.016   3.246
10174SOL    HW131421   4.501   6.087   3.217
10174SOL    HW231422   4.654   6.032   3.204
10175SOL     OW31423   0.303   1.293   3.545
10175SOL    HW131424   0.309   1.302   3.644
10175SOL    HW231425   0.207   1.294   3.517
10176SOL     OW31426   6.420   1.603   6.103
10176SOL    HW131427   6.417   1.584   6.201
10176SOL    HW231428   6.415   1.516   6.053
10177SOL     OW31429   2.324   0.568   2.994
10177SOL    HW131430   2.388   0.637   3.028
10177SOL    HW231431   2.354   0.535   2.905
10178SOL     OW31432   1.932   2.281   0.777
10178SOL    HW131433   1.993   2.235   0.841
10178SOL    HW231434   1.895   2.215   0.712
10179SOL     OW31435   0.617   4.583   1.097
10179SOL    HW131436   0.607   4.674   1.057
10179SOL    HW231437   0.588   4.514   1.030
10180SOL     OW31438   4.142   0.322   5.698
10180SOL    HW131439   4.080   0.298   5.624
10180SOL    HW231440   4.096   0.381   5.764
10181SOL     OW31441   6.659   3.286   1.847
10181SOL    HW131442   6.738   3.225   1.853
10181SOL    HW231443   6.688   3.376   1.814
10182SOL     OW31444   6.029   2.120   0.215
10182SOL    HW131445   6.086   2.074   0.147
10182SOL    HW231446   6.077   2.200   0.250
10183SOL     OW31447   5.930   1.981   6.869
10183SOL    HW131448   5.962   2.076   6.877
10183SOL    HW231449   5.984   1.934   6.798
10184SOL     OW31450   5.731   3.047   6.054
10184SOL    HW131451   5.667   2.982   6.096
10184SOL    HW231452   5.702   3.064   5.959
10185SOL     OW31453   3.782   5.695   1.959
10185SOL    HW131454   3.880   5.710   1.944
10185SOL    HW231455   3.758   5.603   1.929
10186SOL     OW31456   3.719   3.279   5.824
10186SOL    HW131457   3.700   3.194   5.873
10186SOL    HW231458   3.632   3.321   5.796
10187SOL     OW31459   1.846   5.696   6.162
10187SOL    HW131460   1.841   5.796   6.158
10187SOL    HW231461   1.939   5.667   6.139
10188SOL     OW31462   3.022   0.420   6.679
10188SOL    HW131463   3.099   0.362   6.652
10188SOL    HW231464   2.988   0.469   6.598
10189SOL     OW31465   1.161   2.262   6.393
10189SOL    HW131466   1.226   2.199   6.351
10189SOL    HW231467   1.210   2.326   6.451
10190SOL     OW31468   3.188   5.279   2.187
10190SOL    HW131469   3.212   5.305   2.093
10190SOL    HW231470   3.121   5.205   2.185
10191SOL     OW31471   5.816   5.852   6.616
10191SOL    HW131472   5.845   5.910   6.540
10191SOL    HW231473   5.897   5.813   6.660
10192SOL     OW31474   1.906   1.869   4.223
10192SOL    HW131475   1.997   1.828   4.229
10192SOL    HW231476   1.910   1.948   4.161
10193SOL     OW31477   3.523   3.796   3.564
10193SOL    HW131478   3.574   3.744   3.495
10193SOL    HW231479   3.580   3.807   3.646
10194SOL     OW31480   3.248   0.433   2.883
10194SOL    HW131481   3.173   0.474   2.830
10194SOL    HW231482   3.285   0.501   2.946
10195SOL     OW31483   4.071   6.257   1.854
10195SOL    HW131484   4.095   6.199   1.776
10195SOL    HW231485   4.124   6.230   1.934
10196SOL     OW31486   6.371   1.997   3.562
10196SOL    HW131487   6.287   1.980   3.613
10196SOL    HW231488   6.357   2.071   3.497
10197SOL     OW31489   5.805   0.274   1.808
10197SOL    HW131490   5.879   0.290   1.874
10197SOL    HW231491   5.834   0.205   1.742
10198SOL     OW31492   2.717   6.562   0.839
10198SOL    HW131493   2.773   6.532   0.917
10198SOL    HW231494   2.644   6.621   0.872
10199SOL     OW31495   1.287   1.314   0.510
10199SOL    HW131496   1.192   1.341   0.524
10199SOL    HW231497   1.293   1.254   0.430
10200SOL     OW31498   5.052   4.441   4.828
10200SOL    HW131499   5.123   4.482   4.885
10200SOL    HW231500   5.095   4.381   4.760
10201SOL     OW31501   1.431   4.943   2.246
10201SOL    HW131502   1.363   4.919   2.315
10201SOL    HW231503   1.391   4.937   2.155
10202SOL     OW31504   1.354   3.903   2.628
10202SOL    HW131505   1.394   3.970   2.566
10202SOL    HW231506   1.279   3.855   2.582
10203SOL     OW31507   1.873   3.115   2.531
10203SOL    HW131508   1.919   3.115   2.620
10203SOL    HW231509   1.908   3.039   2.476
10204SOL     OW31510   3.150   4.664   5.264
10204SOL    HW131511   3.134   4.671   5.362
10204SOL    HW231512   3.085   4.598   5.224
10205SOL     OW31513   5.125   2.285   2.908
10205SOL    HW131514   5.029   2.299   2.933
10205SOL    HW231515   5.178   2.264   2.990
10206SOL     OW31516   5.442   6.827   5.958
10206SOL    HW131517   5.432   6.733   5.991
10206SOL    HW231518   5.537   6.855   5.966
10207SOL     OW31519   3.966   0.691   2.604
10207SOL    HW131520   3.998   0.769   2.551
10207SOL    HW231521   3.992   0.702   2.699
10208SOL     OW31522   6.530   4.286   5.497
10208SOL    HW131523   6.522   4.301   5.398
10208SOL    HW231524   6.466   4.214   5.525
10209SOL     OW31525   6.218   6.980   6.329
10209SOL    HW131526   6.258   6.890   6.312
10209SOL    HW231527   6.231   7.004   6.425
10210SOL     OW31528   4.955   6.184   2.141
10210SOL    HW131529   5.001   6.263   2.183
10210SOL    HW231530   4.871   6.165   2.191
10211SOL     OW31531   3.742   5.997   5.009
10211SOL    HW131532   3.696   5.991   4.921
10211SOL    HW231533   3.730   6.089   5.047
10212SOL     OW31534   0.186   0.451   5.145
10212SOL    HW131535   0.228   0.434   5.234
10212SOL    HW231536   0.154   0.545   5.140
10213SOL     OW31537   6.169   1.387   2.867
10213SOL    HW131538   6.111   1.404   2.947
10213SOL    HW231539   6.243   1.324   2.893
10214SOL     OW31540   6.950   0.981   1.704
10214SOL    HW131541   6.995   0.945   1.786
10214SOL    HW231542   6.855   0.951   1.703
10215SOL     OW31543   3.952   4.013   6.626
10215SOL    HW131544   3.961   3.991   6.529
10215SOL    HW231545   3.957   3.929   6.679
10216SOL     OW31546   5.014   0.673   1.451
10216SOL    HW131547   4.978   0.629   1.533
10216SOL    HW231548   4.982   0.624   1.370
10217SOL     OW31549   2.052   2.074   4.735
10217SOL    HW131550   2.147   2.045   4.719
10217SOL    HW231551   2.034   2.155   4.680
10218SOL     OW31552   2.185   1.376   0.989
10218SOL    HW131553   2.155   1.283   0.971
10218SOL    HW231554   2.122   1.441   0.946
10219SOL     OW31555   1.005   3.218   1.370
10219SOL    HW131556   1.089   3.245   1.323
10219SOL    HW231557   1.012   3.244   1.466
10220SOL     OW31558   4.751   2.316   0.936
10220SOL    HW131559   4.767   2.219   0.952
10220SOL    HW231560   4.767   2.337   0.840
10221SOL     OW31561   2.988   0.029   5.053
10221SOL    HW131562   2.979   6.979   4.990
10221SOL    HW231563   3.037   0.103   5.007
10222SOL     OW31564   2.044   5.264   5.589
10222SOL    HW131565   2.027   5.275   5.491
10222SOL    HW231566   1.982   5.195   5.627
10223SOL     OW31567   1.147   4.366   0.205
10223SOL    HW131568   1.125   4.462   0.219
10223SOL    HW231569   1.063   4.316   0.182
10224SOL     OW31570   1.506   0.076   3.950
10224SOL    HW131571   1.526   0.157   4.005
10224SOL    HW231572   1.567   0.074   3.871
10225SOL     OW31573   6.570   5.407   4.565
10225SOL    HW131574   6.663   5.388   4.533
10225SOL    HW231575   6.559   5.505   4.580
10226SOL     OW31576   1.902   1.457   0.011
10226SOL    HW131577   1.838   1.533   0.027
10226SOL    HW231578   1.950   1.437   0.096
10227SOL     OW31579   5.097   4.863   0.026
10227SOL    HW131580   5.178   4.805   0.040
10227SOL    HW231581   5.091   4.930   0.100
10228SOL     OW31582   1.137   5.710   3.184
10228SOL    HW131583   1.184   5.780   3.238
10228SOL    HW231584   1.192   5.687   3.104
10229SOL     OW31585   1.011   0.199   3.138
10229SOL    HW131586   1.008   0.132   3.063
10229SOL    HW231587   1.101   0.243   3.138
10230SOL     OW31588   6.673   0.630   3.929
10230SOL    HW131589   6.732   0.703   3.962
10230SOL    HW231590   6.586   0.669   3.898
10231SOL     OW31591   5.726   6.795   4.867
10231SOL    HW131592   5.631   6.821   4.884
10231SOL    HW231593   5.730   6.696   4.848
10232SOL     OW31594   3.128   2.143   4.840
10232SOL    HW131595   3.142   2.195   4.756
10232SOL    HW231596   3.144   2.202   4.919
10233SOL     OW31597   4.906   1.776   5.955
10233SOL    HW131598   4.887   1.769   5.857
10233SOL    HW231599   4.890   1.688   5.999
10234SOL     OW31600   5.479   0.036   1.609
10234SOL    HW131601   5.525   0.125   1.608
10234SOL    HW231602   5.488   7.021   1.699
10235SOL     OW31603   5.532   1.133   6.599
10235SOL    HW131604   5.451   1.189   6.620
10235SOL    HW231605   5.550   1.139   6.500
10236SOL     OW31606   2.423   5.434   1.907
10236SOL    HW131607   2.373   5.358   1.865
10236SOL    HW231608   2.359   5.499   1.946
10237SOL     OW31609   6.009   3.434   2.254
10237SOL    HW131610   6.000   3.469   2.347
10237SOL    HW231611   6.062   3.349   2.256
10238SOL     OW31612   4.466   4.862   4.716
10238SOL    HW131613   4.503   4.773   4.689
10238SOL    HW231614   4.447   4.916   4.634
10239SOL     OW31615   0.098   3.812   4.086
10239SOL    HW131616   0.014   3.758   4.091
10239SOL    HW231617   0.169   3.760   4.040
10240SOL     OW31618   0.802   3.750   3.985
10240SOL    HW131619   0.866   3.821   3.954
10240SOL    HW231620   0.727   3.743   3.919
10241SOL     OW31621   1.150   1.510   2.075
10241SOL    HW131622   1.096   1.587   2.108
10241SOL    HW231623   1.216   1.542   2.007
10242SOL     OW31624   0.131   0.660   6.334
10242SOL    HW131625   0.195   0.650   6.410
10242SOL    HW231626   0.151   0.592   6.264
10243SOL     OW31627   1.179   5.855   1.597
10243SOL    HW131628   1.219   5.947   1.597
10243SOL    HW231629   1.251   5.787   1.581
10244SOL     OW31630   1.984   6.046   6.668
10244SOL    HW131631   2.074   6.005   6.680
10244SOL    HW231632   1.986   6.141   6.699
10245SOL     OW31633   2.196   2.445   5.820
10245SOL    HW131634   2.229   2.385   5.747
10245SOL    HW231635   2.272   2.471   5.879
10246SOL     OW31636   3.252   4.115   4.996
10246SOL    HW131637   3.269   4.148   4.903
10246SOL    HW231638   3.171   4.160   5.032
10247SOL     OW31639   0.070   4.763   6.063
10247SOL    HW131640   0.166   4.779   6.041
10247SOL    HW231641   0.046   4.668   6.044
10248SOL     OW31642   2.979   0.116   2.039
10248SOL    HW131643   3.012   0.046   2.102
10248SOL    HW231644   2.945   0.073   1.956
10249SOL     OW31645   4.929   1.326   5.697
10249SOL    HW131646   4.896   1.237   5.727
10249SOL    HW231647   5.009   1.314   5.638
10250SOL     OW31648   6.469   1.260   0.606
10250SOL    HW131649   6.475   1.190   0.534
10250SOL    HW231650   6.527   1.234   0.683
10251SOL     OW31651   2.623   3.530   6.745
10251SOL    HW131652   2.654   3.508   6.653
10251SOL    HW231653   2.634   3.450   6.804
10252SOL     OW31654   5.937   5.989   1.128
10252SOL    HW131655   5.887   5.912   1.169
10252SOL    HW231656   6.022   6.002   1.178
10253SOL     OW31657   4.727   5.114   0.095
10253SOL    HW131658   4.685   5.066   0.017
10253SOL    HW231659   4.703   5.211   0.091
10254SOL     OW31660   2.279   2.000   5.091
10254SOL    HW131661   2.179   2.008   5.093
10254SOL    HW231662   2.318   2.065   5.156
10255SOL     OW31663   2.769   5.828   2.402
10255SOL    HW131664   2.846   5.878   2.362
10255SOL    HW231665   2.686   5.848   2.350
10256SOL     OW31666   5.563   0.687   0.073
10256SOL    HW131667   5.466   0.664   0.063
10256SOL    HW231668   5.572   0.778   0.112
10257SOL     OW31669   1.209   5.326   5.989
10257SOL    HW131670   1.299   5.335   5.947
10257SOL    HW231671   1.218   5.333   6.089
10258SOL     OW31672   3.726   6.782   3.389
10258SOL    HW131673   3.779   6.697   3.384
10258SOL    HW231674   3.779   6.857   3.350
10259SOL     OW31675   6.895   3.438   3.727
10259SOL    HW131676   6.964   3.391   3.782
10259SOL    HW231677   6.835   3.370   3.684
10260SOL     OW31678   0.873   6.954   2.121
10260SOL    HW131679   0.960   6.940   2.170
10260SOL    HW231680   0.876   6.908   2.033
10261SOL     OW31681   1.275   5.703   2.186
10261SOL    HW131682   1.303   5.754   2.105
10261SOL    HW231683   1.301   5.607   2.176
10262SOL     OW31684   2.865   4.929   4.721
10262SOL    HW131685   2.817   4.859   4.668
10262SOL    HW231686   2.835   4.924   4.817
10263SOL     OW31687   5.833   1.665   6.034
10263SOL    HW131688   5.793   1.746   6.076
10263SOL    HW231689   5.764   1.593   6.027
10264SOL     OW31690   6.511   0.538   6.050
10264SOL    HW131691   6.423   0.491   6.059
10264SOL    HW231692   6.503   0.631   6.088
10265SOL     OW31693   3.738   1.649   2.577
10265SOL    HW131694   3.794   1.651   2.660
10265SOL    HW231695   3.684   1.565   2.575
10266SOL     OW31696   3.204   4.190   6.676
10266SOL    HW131697   3.271   4.137   6.624
10266SOL    HW231698   3.113   4.177   6.635
10267SOL     OW31699   0.390   2.004   6.643
10267SOL    HW131700   0.400   2.004   6.543
10267SOL    HW231701   0.431   1.920   6.680
10268SOL     OW31702   5.475   5.754   1.703
10268SOL    HW131703   5.436   5.846   1.713
10268SOL    HW231704   5.416   5.700   1.643
10269SOL     OW31705   2.302   2.195   6.384
10269SOL    HW131706   2.398   2.178   6.401
10269SOL    HW231707   2.288   2.213   6.286
10270SOL     OW31708   1.744   5.966   0.696
10270SOL    HW131709   1.653   5.925   0.687
10270SOL    HW231710   1.804   5.928   0.626
10271SOL     OW31711   4.106   4.376   1.484
10271SOL    HW131712   4.069   4.286   1.461
10271SOL    HW231713   4.057   4.413   1.563
10272SOL     OW31714   0.743   0.520   5.193
10272SOL    HW131715   0.664   0.574   5.162
10272SOL    HW231716   0.820   0.535   5.131
10273SOL     OW31717   3.907   5.605   4.842
10273SOL    HW131718   3.934   5.509   4.835
10273SOL    HW231719   3.822   5.620   4.792
10274SOL     OW31720   0.966   5.146   5.187
10274SOL    HW131721   0.988   5.067   5.130
10274SOL    HW231722   1.034   5.156   5.259
10275SOL     OW31723   0.747   6.747   3.065
10275SOL    HW131724   0.650   6.729   3.048
10275SOL    HW231725   0.774   6.704   3.151
10276SOL     OW31726   0.069   5.336   5.319
10276SOL    HW131727   0.028   5.394   5.389
10276SOL    HW231728   0.002   5.319   5.247
10277SOL     OW31729   2.810   6.589   4.698
10277SOL    HW131730   2.875   6.647   4.747
10277SOL    HW231731   2.800   6.502   4.747
10278SOL     OW31732   5.673   0.349   6.071
10278SOL    HW131733   5.697   0.281   6.002
10278SOL    HW231734   5.575   0.368   6.067
10279SOL     OW31735   3.466   0.541   4.349
10279SOL    HW131736   3.401   0.470   4.377
10279SOL    HW231737   3.432   0.587   4.267
10280SOL     OW31738   1.490   4.069   0.565
10280SOL    HW131739   1.479   4.007   0.642
10280SOL    HW231740   1.517   4.017   0.483
10281SOL     OW31741   4.715   0.698   3.374
10281SOL    HW131742   4.740   0.684   3.278
10281SOL    HW231743   4.790   0.668   3.433
10282SOL     OW31744   0.913   2.184   3.808
10282SOL    HW131745   0.997   2.188   3.862
10282SOL    HW231746   0.834   2.179   3.868
10283SOL     OW31747   1.132   3.322   0.440
10283SOL    HW131748   1.075   3.304   0.360
10283SOL    HW231749   1.226   3.294   0.421
10284SOL     OW31750   5.505   3.367   5.367
10284SOL    HW131751   5.592   3.318   5.370
10284SOL    HW231752   5.454   3.350   5.452
10285SOL     OW31753   5.194   0.733   0.592
10285SOL    HW131754   5.289   0.740   0.621
10285SOL    HW231755   5.189   0.726   0.493
10286SOL     OW31756   4.186   0.365   3.105
10286SOL    HW131757   4.208   0.299   3.177
10286SOL    HW231758   4.166   0.453   3.146
10287SOL     OW31759   1.933   6.617   1.784
10287SOL    HW131760   2.030   6.600   1.766
10287SOL    HW231761   1.880   6.537   1.754
10288SOL     OW31762   5.897   6.008   3.489
10288SOL    HW131763   5.967   5.997   3.559
10288SOL    HW231764   5.877   5.919   3.447
10289SOL     OW31765   3.282   1.506   1.872
10289SOL    HW131766   3.319   1.512   1.964
10289SOL    HW231767   3.185   1.481   1.876
10290SOL     OW31768   4.046   3.337   3.042
10290SOL    HW131769   4.065   3.364   3.136
10290SOL    HW231770   3.992   3.254   3.041
10291SOL     OW31771   3.333   0.650   4.822
10291SOL    HW131772   3.384   0.626   4.739
10291SOL    HW231773   3.235   0.636   4.806
10292SOL     OW31774   0.604   1.412   4.606
10292SOL    HW131775   0.691   1.451   4.576
10292SOL    HW231776   0.621   1.334   4.666
10293SOL     OW31777   2.310   6.471   3.453
10293SOL    HW131778   2.352   6.380   3.445
10293SOL    HW231779   2.382   6.540   3.461
10294SOL     OW31780   5.318   1.547   3.055
10294SOL    HW131781   5.375   1.524   2.976
10294SOL    HW231782   5.251   1.474   3.070
10295SOL     OW31783   0.550   5.209   6.395
10295SOL    HW131784   0.599   5.218   6.482
10295SOL    HW231785   0.502   5.295   6.374
10296SOL     OW31786   6.475   3.394   0.111
10296SOL    HW131787   6.515   3.442   0.189
10296SOL    HW231788   6.518   3.426   0.026
10297SOL     OW31789   0.933   5.559   4.148
10297SOL    HW131790   0.992   5.639   4.144
10297SOL    HW231791   0.981   5.480   4.110
10298SOL     OW31792   5.214   4.159   3.793
10298SOL    HW131793   5.158   4.151   3.711
10298SOL    HW231794   5.224   4.255   3.818
10299SOL     OW31795   4.620   4.906   3.272
10299SOL    HW131796   4.563   4.888   3.192
10299SOL    HW231797   4.674   4.825   3.293
10300SOL     OW31798   1.050   4.020   2.599
10300SOL    HW131799   1.050   3.966   2.683
10300SOL    HW231800   0.956   4.030   2.566
10301SOL     OW31801   6.221   1.033   2.186
10301SOL    HW131802   6.150   1.104   2.192
10301SOL    HW231803   6.310   1.076   2.174
10302SOL     OW31804   1.525   6.018   2.835
10302SOL    HW131805   1.511   6.111   2.803
10302SOL    HW231806   1.540   6.019   2.934
10303SOL     OW31807   3.947   3.766   1.374
10303SOL    HW131808   3.937   3.687   1.313
10303SOL    HW231809   3.903   3.846   1.333
10304SOL     OW31810   6.889   6.733   2.482
10304SOL    HW131811   6.808   6.785   2.510
10304SOL    HW231812   6.961   6.796   2.453
10305SOL     OW31813   1.339   5.740   0.122
10305SOL    HW131814   1.370   5.662   0.175
10305SOL    HW231815   1.270   5.711   0.056
10306SOL     OW31816   4.155   6.128   0.531
10306SOL    HW131817   4.083   6.060   0.518
10306SOL    HW231818   4.174   6.139   0.629
10307SOL     OW31819   1.606   1.376   6.605
10307SOL    HW131820   1.579   1.354   6.699
10307SOL    HW231821   1.644   1.295   6.561
10308SOL     OW31822   2.975   6.191   3.271
10308SOL    HW131823   2.990   6.173   3.174
10308SOL    HW231824   3.006   6.113   3.325
10309SOL     OW31825   6.879   6.546   2.715
10309SOL    HW131826   6.978   6.530   2.710
10309SOL    HW231827   6.857   6.631   2.668
10310SOL     OW31828   3.842   3.692   3.080
10310SOL    HW131829   3.849   3.765   3.012
10310SOL    HW231830   3.746   3.670   3.095
10311SOL     OW31831   0.556   5.439   6.808
10311SOL    HW131832   0.584   5.516   6.865
10311SOL    HW231833   0.459   5.418   6.825
10312SOL     OW31834   2.711   4.766   0.152
10312SOL    HW131835   2.619   4.782   0.187
10312SOL    HW231836   2.764   4.713   0.218
10313SOL     OW31837   5.300   0.484   2.568
10313SOL    HW131838   5.356   0.468   2.649
10313SOL    HW231839   5.207   0.506   2.595
10314SOL     OW31840   6.228   6.762   0.676
10314SOL    HW131841   6.162   6.753   0.602
10314SOL    HW231842   6.239   6.858   0.700
10315SOL     OW31843   6.099   5.714   4.728
10315SOL    HW131844   6.186   5.719   4.678
10315SOL    HW231845   6.110   5.754   4.818
10316SOL     OW31846   0.691   3.441   3.932
10316SOL    HW131847   0.698   3.421   4.030
10316SOL    HW231848   0.759   3.387   3.882
10317SOL     OW31849   4.441   5.211   6.754
10317SOL    HW131850   4.491   5.234   6.671
10317SOL    HW231851   4.505   5.177   6.823
10318SOL     OW31852   5.898   5.231   2.190
10318SOL    HW131853   5.912   5.246   2.092
10318SOL    HW231854   5.891   5.319   2.237
10319SOL     OW31855   6.235   5.935   3.280
10319SOL    HW131856   6.164   5.953   3.212
10319SOL    HW231857   6.194   5.885   3.357
10320SOL     OW31858   6.771   0.045   1.067
10320SOL    HW131859   6.782   0.119   1.133
10320SOL    HW231860   6.857   0.032   1.017
10321SOL     OW31861   4.515   5.477   4.329
10321SOL    HW131862   4.483   5.567   4.300
10321SOL    HW231863   4.614   5.481   4.345
10322SOL     OW31864   6.372   3.719   0.509
10322SOL    HW131865   6.441   3.787   0.533
10322SOL    HW231866   6.408   3.627   0.524
10323SOL     OW31867   5.209   3.211   5.768
10323SOL    HW131868   5.187   3.285   5.832
10323SOL    HW231869   5.125   3.174   5.730
10324SOL     OW31870   3.288   2.901   3.475
10324SOL    HW131871   3.244   2.985   3.508
10324SOL    HW231872   3.217   2.835   3.450
10325SOL     OW31873   0.641   2.608   2.624
10325SOL    HW131874   0.558   2.593   2.571
10325SOL    HW231875   0.632   2.693   2.676
10326SOL     OW31876   5.420   2.246   0.524
10326SOL    HW131877   5.506   2.291   0.548
10326SOL    HW231878   5.346   2.314   0.522
10327SOL     OW31879   0.200   0.926   3.154
10327SOL    HW131880   0.270   0.900   3.087
10327SOL    HW231881   0.166   0.845   3.200
10328SOL     OW31882   5.859   3.114   2.571
10328SOL    HW131883   5.785   3.113   2.504
10328SOL    HW231884   5.822   3.093   2.662
10329SOL     OW31885   3.138   6.965   2.991
10329SOL    HW131886   3.224   6.915   2.996
10329SOL    HW231887   3.150   0.020   2.937
10330SOL     OW31888   4.268   5.408   1.931
10330SOL    HW131889   4.184   5.419   1.983
10330SOL    HW231890   4.343   5.384   1.992
10331SOL     OW31891   5.582   0.634   3.220
10331SOL    HW131892   5.664   0.670   3.264
10331SOL    HW231893   5.603   0.608   3.126
10332SOL     OW31894   6.967   2.076   5.974
10332SOL    HW131895   6.867   2.084   5.971
10332SOL    HW231896   7.007   2.167   5.985
10333SOL     OW31897   5.536   5.176   4.512
10333SOL    HW131898   5.590   5.098   4.483
10333SOL    HW231899   5.567   5.258   4.465
10334SOL     OW31900   2.235   4.940   4.147
10334SOL    HW131901   2.225   4.923   4.050
10334SOL    HW231902   2.262   4.855   4.194
10335SOL     OW31903   1.610   5.356   1.640
10335SOL    HW131904   1.560   5.413   1.707
10335SOL    HW231905   1.678   5.301   1.688
10336SOL     OW31906   4.260   6.541   2.110
10336SOL    HW131907   4.229   6.599   2.034
10336SOL    HW231908   4.355   6.516   2.096
10337SOL     OW31909   0.573   4.716   5.036
10337SOL    HW131910   0.484   4.717   4.991
10337SOL    HW231911   0.625   4.636   5.007
10338SOL     OW31912   2.791   6.136   2.886
10338SOL    HW131913   2.735   6.099   2.960
10338SOL    HW231914   2.815   6.231   2.905
10339SOL     OW31915   2.421   6.188   1.427
10339SOL    HW131916   2.403   6.100   1.472
10339SOL    HW231917   2.408   6.177   1.328
10340SOL     OW31918   1.332   6.846   0.394
10340SOL    HW131919   1.276   6.887   0.466
10340SOL    HW231920   1.392   6.777   0.434
10341SOL     OW31921   1.867   1.750   2.610
10341SOL    HW131922   1.886   1.728   2.705
10341SOL    HW231923   1.771   1.731   2.589
10342SOL     OW31924   2.657   6.997   4.782
10342SOL    HW131925   2.713   0.053   4.778
10342SOL    HW231926   2.630   6.980   4.877
10343SOL     OW31927   2.491   3.762   6.057
10343SOL    HW131928   2.537   3.849   6.071
10343SOL    HW231929   2.402   3.777   6.014
10344SOL     OW31930   4.053   3.695   4.933
10344SOL    HW131931   4.019   3.602   4.946
10344SOL    HW231932   4.033   3.726   4.840
10345SOL     OW31933   2.441   1.537   6.573
10345SOL    HW131934   2.485   1.621   6.541
10345SOL    HW231935   2.347   1.556   6.600
10346SOL     OW31936   4.977   6.497   0.077
10346SOL    HW131937   4.898   6.486   0.137
10346SOL    HW231938   5.037   6.418   0.086
10347SOL     OW31939   5.827   1.711   1.628
10347SOL    HW131940   5.785   1.745   1.544
10347SOL    HW231941   5.889   1.635   1.605
10348SOL     OW31942   0.216   0.024   5.819
10348SOL    HW131943   0.178   6.970   5.776
10348SOL    HW231944   0.297   7.027   5.872
10349SOL     OW31945   6.902   1.806   1.562
10349SOL    HW131946   6.817   1.840   1.522
10349SOL    HW231947   6.946   1.742   1.499
10350SOL     OW31948   2.741   5.177   4.342
10350SOL    HW131949   2.649   5.180   4.304
10350SOL    HW231950   2.798   5.118   4.285
10351SOL     OW31951   5.777   4.615   5.106
10351SOL    HW131952   5.802   4.531   5.153
10351SOL    HW231953   5.839   4.629   5.028
10352SOL     OW31954   6.149   2.341   0.322
10352SOL    HW131955   6.210   2.382   0.390
10352SOL    HW231956   6.154   2.393   0.237
10353SOL     OW31957   6.597   2.584   3.717
10353SOL    HW131958   6.563   2.529   3.641
10353SOL    HW231959   6.558   2.551   3.803
10354SOL     OW31960   0.242   3.143   0.772
10354SOL    HW131961   0.151   3.146   0.732
10354SOL    HW231962   0.260   3.228   0.821
10355SOL     OW31963   1.012   0.742   0.817
10355SOL    HW131964   0.979   0.836   0.827
10355SOL    HW231965   1.019   0.720   0.720
10356SOL     OW31966   6.750   4.196   6.857
10356SOL    HW131967   6.785   4.186   6.764
10356SOL    HW231968   6.786   4.122   6.914
10357SOL     OW31969   1.287   2.930   6.096
10357SOL    HW131970   1.299   2.844   6.046
10357SOL    HW231971   1.190   2.953   6.098
10358SOL     OW31972   0.842   2.851   2.170
10358SOL    HW131973   0.806   2.761   2.148
10358SOL    HW231974   0.814   2.916   2.099
10359SOL     OW31975   5.939   1.889   2.242
10359SOL    HW131976   5.940   1.851   2.335
10359SOL    HW231977   5.982   1.980   2.244
10360SOL     OW31978   6.037   4.746   2.406
10360SOL    HW131979   6.071   4.677   2.342
10360SOL    HW231980   5.950   4.715   2.445
10361SOL     OW31981   0.486   1.795   1.695
10361SOL    HW131982   0.567   1.755   1.654
10361SOL    HW231983   0.425   1.829   1.623
10362SOL     OW31984   1.262   4.819   2.671
10362SOL    HW131985   1.184   4.790   2.727
10362SOL    HW231986   1.347   4.795   2.717
10363SOL     OW31987   5.034   4.458   0.718
10363SOL    HW131988   5.128   4.437   0.690
10363SOL    HW231989   5.002   4.388   0.782
10364SOL     OW31990   6.120   4.502   2.266
10364SOL    HW131991   6.218   4.482   2.278
10364SOL    HW231992   6.095   4.486   2.170
10365SOL     OW31993   6.220   5.898   0.338
10365SOL    HW131994   6.120   5.904   0.342
10365SOL    HW231995   6.246   5.815   0.288
10366SOL     OW31996   2.793   6.372   3.349
10366SOL    HW131997   2.840   6.294   3.309
10366SOL    HW231998   2.699   6.376   3.315
10367SOL     OW31999   6.377   1.870   0.670
10367SOL    HW132000   6.449   1.872   0.601
10367SOL    HW232001   6.340   1.962   0.683
10368SOL     OW32002   1.994   5.706   2.044
10368SOL    HW132003   1.953   5.629   2.092
10368SOL    HW232004   1.965   5.706   1.949
10369SOL     OW32005   3.819   0.186   5.877
10369SOL    HW132006   3.901   0.224   5.919
10369SOL    HW232007   3.802   0.095   5.913
10370SOL     OW32008   0.484   0.776   4.841
10370SOL    HW132009   0.584   0.781   4.842
10370SOL    HW232010   0.456   0.680   4.839
10371SOL     OW32011   3.109   5.599   3.604
10371SOL    HW132012   3.030   5.660   3.600
10371SOL    HW232013   3.153   5.595   3.514
10372SOL     OW32014   2.565   6.531   1.591
10372SOL    HW132015   2.572   6.586   1.674
10372SOL    HW232016   2.559   6.435   1.615
10373SOL     OW32017   0.444   1.788   5.380
10373SOL    HW132018   0.492   1.849   5.443
10373SOL    HW232019   0.366   1.836   5.339
10374SOL     OW32020   3.305   6.883   4.607
10374SOL    HW132021   3.212   6.856   4.585
10374SOL    HW232022   3.352   6.807   4.652
10375SOL     OW32023   3.381   3.587   0.459
10375SOL    HW132024   3.444   3.598   0.383
10375SOL    HW232025   3.292   3.627   0.435
10376SOL     OW32026   2.194   4.987   2.816
10376SOL    HW132027   2.185   5.052   2.891
10376SOL    HW232028   2.104   4.971   2.775
10377SOL     OW32029   1.345   0.793   3.050
10377SOL    HW132030   1.278   0.774   2.979
10377SOL    HW232031   1.396   0.876   3.027
10378SOL     OW32032   0.013   4.564   5.467
10378SOL    HW132033   0.062   4.492   5.516
10378SOL    HW232034   0.058   4.652   5.483
10379SOL     OW32035   1.795   6.800   4.588
10379SOL    HW132036   1.711   6.840   4.550
10379SOL    HW232037   1.801   6.822   4.685
10380SOL     OW32038   1.368   3.114   4.544
10380SOL    HW132039   1.315   3.043   4.590
10380SOL    HW232040   1.460   3.119   4.585
10381SOL     OW32041   4.438   4.492   1.101
10381SOL    HW132042   4.536   4.511   1.107
10381SOL    HW232043   4.394   4.512   1.188
10382SOL     OW32044   3.196   5.057   1.463
10382SOL    HW132045   3.292   5.049   1.435
10382SOL    HW232046   3.155   4.965   1.467
10383SOL     OW32047   2.080   4.725   0.563
10383SOL    HW132048   2.058   4.651   0.626
10383SOL    HW232049   2.041   4.811   0.597
10384SOL     OW32050   5.553   6.803   1.493
10384SOL    HW132051   5.630   6.822   1.432
10384SOL    HW232052   5.518   6.889   1.530
10385SOL     OW32053   3.847   4.613   6.614
10385SOL    HW132054   3.751   4.629   6.636
10385SOL    HW232055   3.873   4.522   6.646
10386SOL     OW32056   0.145   0.914   6.782
10386SOL    HW132057   0.054   0.950   6.800
10386SOL    HW232058   0.148   0.817   6.809
10387SOL     OW32059   5.001   2.798   2.801
10387SOL    HW132060   4.930   2.751   2.853
10387SOL    HW232061   5.002   2.764   2.707
10388SOL     OW32062   2.732   0.428   5.945
10388SOL    HW132063   2.652   0.440   6.004
10388SOL    HW232064   2.741   0.508   5.885
10389SOL     OW32065   0.655   3.126   0.421
10389SOL    HW132066   0.745   3.113   0.379
10389SOL    HW232067   0.660   3.199   0.490
10390SOL     OW32068   2.787   2.132   0.922
10390SOL    HW132069   2.843   2.150   0.841
10390SOL    HW232070   2.708   2.193   0.921
10391SOL     OW32071   6.804   6.725   4.139
10391SOL    HW132072   6.863   6.647   4.156
10391SOL    HW232073   6.840   6.779   4.063
10392SOL     OW32074   6.672   4.700   4.784
10392SOL    HW132075   6.657   4.709   4.685
10392SOL    HW232076   6.587   4.667   4.827
10393SOL     OW32077   1.919   3.877   3.973
10393SOL    HW132078   1.887   3.955   3.919
10393SOL    HW232079   1.986   3.825   3.919
10394SOL     OW32080   3.131   6.209   4.165
10394SOL    HW132081   3.134   6.123   4.215
10394SOL    HW232082   3.048   6.213   4.109
10395SOL     OW32083   0.237   6.980   0.488
10395SOL    HW132084   0.224   6.908   0.556
10395SOL    HW232085   0.189   0.035   0.519
10396SOL     OW32086   2.987   1.693   4.478
10396SOL    HW132087   3.073   1.674   4.527
10396SOL    HW232088   3.000   1.771   4.418
10397SOL     OW32089   3.061   2.156   2.297
10397SOL    HW132090   3.153   2.163   2.334
10397SOL    HW232091   3.057   2.202   2.208
10398SOL     OW32092   0.229   3.044   1.753
10398SOL    HW132093   0.186   3.071   1.667
10398SOL    HW232094   0.275   2.956   1.741
10399SOL     OW32095   6.059   2.396   2.032
10399SOL    HW132096   5.962   2.409   2.010
10399SOL    HW232097   6.072   2.406   2.130
10400SOL     OW32098   4.302   0.189   0.345
10400SOL    HW132099   4.400   0.191   0.364
10400SOL    HW232100   4.263   0.104   0.379
10401SOL     OW32101   6.797   0.887   4.011
10401SOL    HW132102   6.725   0.956   4.018
10401SOL    HW232103   6.832   0.865   4.102
10402SOL     OW32104   5.901   2.853   4.922
10402SOL    HW132105   5.873   2.947   4.903
10402SOL    HW232106   5.824   2.791   4.903
10403SOL     OW32107   3.451   0.531   3.116
10403SOL    HW132108   3.532   0.539   3.060
10403SOL    HW232109   3.451   0.442   3.163
10404SOL     OW32110   6.170   7.009   5.530
10404SOL    HW132111   6.189   6.912   5.512
10404SOL    HW232112   6.257   0.031   5.535
10405SOL     OW32113   0.862   1.769   5.857
10405SOL    HW132114   0.913   1.709   5.919
10405SOL    HW232115   0.858   1.727   5.766
10406SOL     OW32116   3.232   4.892   1.925
10406SOL    HW132117   3.192   4.802   1.907
10406SOL    HW232118   3.216   4.952   1.847
10407SOL     OW32119   3.410   5.660   5.764
10407SOL    HW132120   3.348   5.726   5.721
10407SOL    HW232121   3.504   5.682   5.739
10408SOL     OW32122   5.005   1.590   0.328
10408SOL    HW132123   5.057   1.585   0.413
10408SOL    HW232124   5.027   1.512   0.270
10409SOL     OW32125   6.953   4.668   0.051
10409SOL    HW132126   6.865   4.707   0.082
10409SOL    HW232127   0.000   4.723   0.087
10410SOL     OW32128   5.360   1.481   6.807
10410SOL    HW132129   5.267   1.457   6.833
10410SOL    HW232130   5.386   1.431   6.724
10411SOL     OW32131   3.285   6.052   3.024
10411SOL    HW132132   3.349   6.075   3.097
10411SOL    HW232133   3.336   6.024   2.943
10412SOL     OW32134   6.165   0.678   0.583
10412SOL    HW132135   6.118   0.602   0.538
10412SOL    HW232136   6.255   0.691   0.541
10413SOL     OW32137   0.300   2.039   1.235
10413SOL    HW132138   0.224   1.986   1.198
10413SOL    HW232139   0.270   2.133   1.251
10414SOL     OW32140   4.505   4.014   5.767
10414SOL    HW132141   4.418   4.060   5.750
10414SOL    HW232142   4.528   4.021   5.864
10415SOL     OW32143   0.487   5.014   5.887
10415SOL    HW132144   0.583   5.039   5.874
10415SOL    HW232145   0.434   5.096   5.906
10416SOL     OW32146   6.420   1.518   3.132
10416SOL    HW132147   6.355   1.589   3.160
10416SOL    HW232148   6.502   1.561   3.095
10417SOL     OW32149   3.800   5.261   4.158
10417SOL    HW132150   3.835   5.213   4.077
10417SOL    HW232151   3.874   5.275   4.223
10418SOL     OW32152   0.214   4.576   5.805
10418SOL    HW132153   0.224   4.649   5.738
10418SOL    HW232154   0.298   4.568   5.859
10419SOL     OW32155   1.420   0.461   0.295
10419SOL    HW132156   1.385   0.496   0.383
10419SOL    HW232157   1.380   0.514   0.220
10420SOL     OW32158   6.899   3.183   2.225
10420SOL    HW132159   6.859   3.162   2.314
10420SOL    HW232160   6.998   3.191   2.234
10421SOL     OW32161   1.092   1.715   3.220
10421SOL    HW132162   1.084   1.756   3.129
10421SOL    HW232163   1.188   1.714   3.248
10422SOL     OW32164   6.393   2.627   5.377
10422SOL    HW132165   6.459   2.676   5.321
10422SOL    HW232166   6.382   2.673   5.465
10423SOL     OW32167   4.753   5.043   4.597
10423SOL    HW132168   4.845   5.083   4.592
10423SOL    HW232169   4.687   5.116   4.615
10424SOL     OW32170   5.772   2.706   0.175
10424SOL    HW132171   5.823   2.784   0.211
10424SOL    HW232172   5.684   2.699   0.221
10425SOL     OW32173   2.036   6.703   2.357
10425SOL    HW132174   2.114   6.707   2.294
10425SOL    HW232175   2.030   6.788   2.408
10426SOL     OW32176   6.788   3.773   0.920
10426SOL    HW132177   6.695   3.808   0.907
10426SOL    HW232178   6.791   3.676   0.895
10427SOL     OW32179   4.389   1.456   0.575
10427SOL    HW132180   4.333   1.374   0.585
10427SOL    HW232181   4.470   1.435   0.520
10428SOL     OW32182   3.182   1.596   4.709
10428SOL    HW132183   3.276   1.583   4.678
10428SOL    HW232184   3.169   1.692   4.736
10429SOL     OW32185   6.886   5.739   1.340
10429SOL    HW132186   6.935   5.790   1.269
10429SOL    HW232187   6.805   5.791   1.368
10430SOL     OW32188   4.294   0.176   3.841
10430SOL    HW132189   4.195   0.163   3.836
10430SOL    HW232190   4.317   0.233   3.920
10431SOL     OW32191   3.492   6.705   5.550
10431SOL    HW132192   3.520   6.792   5.511
10431SOL    HW232193   3.392   6.698   5.548
10432SOL     OW32194   6.303   0.808   4.139
10432SOL    HW132195   6.301   0.908   4.138
10432SOL    HW232196   6.262   0.775   4.223
10433SOL     OW32197   1.210   6.137   1.470
10433SOL    HW132198   1.237   6.121   1.375
10433SOL    HW232199   1.124   6.090   1.489
10434SOL     OW32200   3.240   6.639   3.103
10434SOL    HW132201   3.217   6.564   3.041
10434SOL    HW232202   3.293   6.708   3.054
10435SOL     OW32203   6.168   0.392   4.647
10435SOL    HW132204   6.122   0.469   4.692
10435SOL    HW232205   6.205   0.421   4.559
10436SOL     OW32206   1.095   4.950   4.608
10436SOL    HW132207   1.064   5.045   4.609
10436SOL    HW232208   1.147   4.932   4.691
10437SOL     OW32209   6.289   5.258   5.377
10437SOL    HW132210   6.319   5.163   5.366
10437SOL    HW232211   6.307   5.288   5.471
10438SOL     OW32212   5.170   6.853   0.292
10438SOL    HW132213   5.260   6.813   0.270
10438SOL    HW232214   5.102   6.816   0.229
10439SOL     OW32215   3.275   1.556   5.888
10439SOL    HW132216   3.216   1.577   5.966
10439SOL    HW232217   3.221   1.514   5.815
10440SOL     OW32218   0.428   5.796   0.741
10440SOL    HW132219   0.361   5.811   0.813
10440SOL    HW232220   0.473   5.883   0.718
10441SOL     OW32221   4.944   1.529   6.506
10441SOL    HW132222   4.980   1.622   6.496
10441SOL    HW232223   4.870   1.529   6.573
10442SOL     OW32224   3.392   5.283   5.330
10442SOL    HW132225   3.427   5.192   5.348
10442SOL    HW232226   3.443   5.350   5.385
10443SOL     OW32227   5.031   3.422   4.676
10443SOL    HW132228   5.035   3.520   4.694
10443SOL    HW232229   5.108   3.395   4.617
10444SOL     OW32230   4.037   5.165   4.543
10444SOL    HW132231   3.956   5.107   4.545
10444SOL    HW232232   4.085   5.160   4.630
10445SOL     OW32233   0.754   4.651   4.288
10445SOL    HW132234   0.707   4.669   4.374
10445SOL    HW232235   0.714   4.708   4.216
10446SOL     OW32236   1.031   4.225   6.322
10446SOL    HW132237   1.043   4.138   6.273
10446SOL    HW232238   1.056   4.213   6.418
10447SOL     OW32239   0.379   1.144   2.115
10447SOL    HW132240   0.462   1.195   2.136
10447SOL    HW232241   0.299   1.192   2.152
10448SOL     OW32242   4.065   3.180   1.016
10448SOL    HW132243   4.165   3.170   1.008
10448SOL    HW232244   4.020   3.103   0.970
10449SOL     OW32245   2.808   5.425   3.958
10449SOL    HW132246   2.883   5.450   4.019
10449SOL    HW232247   2.835   5.440   3.863
10450SOL     OW32248   0.848   2.417   6.663
10450SOL    HW132249   0.847   2.485   6.736
10450SOL    HW232250   0.754   2.387   6.644
10451SOL     OW32251   2.931   4.805   2.736
10451SOL    HW132252   2.866   4.800   2.660
10451SOL    HW232253   3.014   4.754   2.713
10452SOL     OW32254   6.667   3.445   3.409
10452SOL    HW132255   6.754   3.429   3.363
10452SOL    HW232256   6.615   3.360   3.413
10453SOL     OW32257   5.803   5.934   1.837
10453SOL    HW132258   5.805   5.868   1.763
10453SOL    HW232259   5.749   6.013   1.810
10454SOL     OW32260   5.648   2.806   1.907
10454SOL    HW132261   5.706   2.875   1.950
10454SOL    HW232262   5.676   2.715   1.936
10455SOL     OW32263   0.049   5.114   3.451
10455SOL    HW132264   6.996   5.174   3.453
10455SOL    HW232265   0.110   5.139   3.526
10456SOL     OW32266   2.929   6.068   1.249
10456SOL    HW132267   2.932   6.050   1.347
10456SOL    HW232268   2.888   6.158   1.234
10457SOL     OW32269   3.446   3.226   4.210
10457SOL    HW132270   3.432   3.128   4.218
10457SOL    HW232271   3.376   3.264   4.149
10458SOL     OW32272   0.062   6.788   6.887
10458SOL    HW132273   0.153   6.765   6.852
10458SOL    HW232274   7.021   6.766   6.818
10459SOL     OW32275   6.023   5.533   2.550
10459SOL    HW132276   6.037   5.570   2.641
10459SOL    HW232277   5.926   5.534   2.527
10460SOL     OW32278   2.151   6.029   1.423
10460SOL    HW132279   2.130   6.021   1.520
10460SOL    HW232280   2.179   5.941   1.386
10461SOL     OW32281   1.735   6.531   6.065
10461SOL    HW132282   1.669   6.599   6.099
10461SOL    HW232283   1.769   6.560   5.976
10462SOL     OW32284   6.141   0.906   1.493
10462SOL    HW132285   6.089   0.874   1.571
10462SOL    HW232286   6.152   1.005   1.499
10463SOL     OW32287   3.152   4.088   6.292
10463SOL    HW132288   3.073   4.061   6.237
10463SOL    HW232289   3.153   4.188   6.301
10464SOL     OW32290   4.480   0.061   0.853
10464SOL    HW132291   4.530   0.118   0.919
10464SOL    HW232292   4.397   0.025   0.896
10465SOL     OW32293   0.594   0.006   6.198
10465SOL    HW132294   0.673   7.025   6.259
10465SOL    HW232295   0.514   6.994   6.242
10466SOL     OW32296   4.845   5.651   5.209
10466SOL    HW132297   4.791   5.653   5.125
10466SOL    HW232298   4.921   5.716   5.201
10467SOL     OW32299   1.637   1.701   5.345
10467SOL    HW132300   1.734   1.699   5.319
10467SOL    HW232301   1.628   1.743   5.436
10468SOL     OW32302   3.609   6.119   4.262
10468SOL    HW132303   3.638   6.214   4.255
10468SOL    HW232304   3.626   6.073   4.175
10469SOL     OW32305   2.046   3.528   1.270
10469SOL    HW132306   2.080   3.454   1.328
10469SOL    HW232307   1.981   3.584   1.322
10470SOL     OW32308   2.468   2.020   4.101
10470SOL    HW132309   2.471   1.989   4.006
10470SOL    HW232310   2.373   2.026   4.131
10471SOL     OW32311   2.416   3.898   1.748
10471SOL    HW132312   2.331   3.850   1.729
10471SOL    HW232313   2.493   3.833   1.744
10472SOL     OW32314   3.999   6.885   2.038
10472SOL    HW132315   3.916   6.930   2.071
10472SOL    HW232316   4.067   6.955   2.013
10473SOL     OW32317   5.824   6.882   0.735
10473SOL    HW132318   5.877   6.812   0.782
10473SOL    HW232319   5.882   6.929   0.669
10474SOL     OW32320   4.198   0.820   4.326
10474SOL    HW132321   4.167   0.768   4.246
10474SOL    HW232322   4.283   0.781   4.360
10475SOL     OW32323   4.286   5.949   1.011
10475SOL    HW132324   4.334   5.869   1.047
10475SOL    HW232325   4.297   6.025   1.075
10476SOL     OW32326   6.419   5.307   6.914
10476SOL    HW132327   6.355   5.231   6.930
10476SOL    HW232328   6.508   5.270   6.889
10477SOL     OW32329   5.362   3.583   4.525
10477SOL    HW132330   5.313   3.497   4.513
10477SOL    HW232331   5.320   3.635   4.599
10478SOL     OW32332   0.799   6.892   6.823
10478SOL    HW132333   0.834   6.798   6.814
10478SOL    HW232334   0.776   6.928   6.732
10479SOL     OW32335   1.339   3.351   1.962
10479SOL    HW132336   1.373   3.335   2.055
10479SOL    HW232337   1.378   3.436   1.927
10480SOL     OW32338   5.635   6.395   1.835
10480SOL    HW132339   5.624   6.428   1.929
10480SOL    HW232340   5.671   6.468   1.778
10481SOL     OW32341   2.671   0.898   5.031
10481SOL    HW132342   2.611   0.978   5.023
10481SOL    HW232343   2.751   0.911   4.972
10482SOL     OW32344   1.169   6.639   4.703
10482SOL    HW132345   1.128   6.554   4.672
10482SOL    HW232346   1.233   6.673   4.634
10483SOL     OW32347   6.284   5.650   0.220
10483SOL    HW132348   6.291   5.606   0.310
10483SOL    HW232349   6.193   5.634   0.182
10484SOL     OW32350   6.845   0.750   1.280
10484SOL    HW132351   6.896   0.664   1.283
10484SOL    HW232352   6.824   0.774   1.185
10485SOL     OW32353   2.985   3.896   2.805
10485SOL    HW132354   3.010   3.947   2.724
10485SOL    HW232355   2.969   3.800   2.781
10486SOL     OW32356   6.980   0.084   5.815
10486SOL    HW132357   6.960   0.180   5.832
10486SOL    HW232358   0.048   0.074   5.786
10487SOL     OW32359   4.670   1.476   1.578
10487SOL    HW132360   4.769   1.489   1.574
10487SOL    HW232361   4.627   1.524   1.502
10488SOL     OW32362   0.626   2.147   5.720
10488SOL    HW132363   0.539   2.196   5.730
10488SOL    HW232364   0.701   2.212   5.720
10489SOL     OW32365   6.060   5.047   3.822
10489SOL    HW132366   6.062   4.996   3.908
10489SOL    HW232367   6.068   4.983   3.745
10490SOL     OW32368   5.785   0.435   1.144
10490SOL    HW132369   5.697   0.478   1.124
10490SOL    HW232370   5.796   0.354   1.087
10491SOL     OW32371   1.578   3.292   6.801
10491SOL    HW132372   1.603   3.201   6.767
10491SOL    HW232373   1.656   3.332   6.849
10492SOL     OW32374   5.026   0.151   0.628
10492SOL    HW132375   5.120   0.125   0.609
10492SOL    HW232376   5.001   0.229   0.571
10493SOL     OW32377   4.485   5.732   1.101
10493SOL    HW132378   4.572   5.760   1.062
10493SOL    HW232379   4.500   5.696   1.193
10494SOL     OW32380   0.817   4.794   6.535
10494SOL    HW132381   0.852   4.732   6.465
10494SOL    HW232382   0.801   4.744   6.620
10495SOL     OW32383   0.472   6.214   5.736
10495SOL    HW132384   0.468   6.117   5.713
10495SOL    HW232385   0.384   6.256   5.715
10496SOL     OW32386   6.722   3.455   5.564
10496SOL    HW132387   6.779   3.455   5.482
10496SOL    HW232388   6.630   3.485   5.541
10497SOL     OW32389   2.595   6.938   2.060
10497SOL    HW132390   2.542   6.876   2.002
10497SOL    HW232391   2.614   7.022   2.010
10498SOL     OW32392   4.992   5.634   0.321
10498SOL    HW132393   4.905   5.585   0.320
10498SOL    HW232394   5.040   5.617   0.407
10499SOL     OW32395   6.046   5.700   1.953
10499SOL    HW132396   6.116   5.666   1.890
10499SOL    HW232397   5.967   5.639   1.952
10500SOL     OW32398   5.319   4.498   4.945
10500SOL    HW132399   5.407   4.488   4.899
10500SOL    HW232400   5.296   4.595   4.952
10501SOL     OW32401   2.530   5.864   2.212
10501SOL    HW132402   2.566   5.780   2.172
10501SOL    HW232403   2.479   5.915   2.143
10502SOL     OW32404   2.971   3.511   2.536
10502SOL    HW132405   2.920   3.593   2.511
10502SOL    HW232406   3.048   3.499   2.474
10503SOL     OW32407   0.086   3.613   6.527
10503SOL    HW132408   0.161   3.634   6.589
10503SOL    HW232409   0.115   3.543   6.462
10504SOL     OW32410   1.807   3.023   6.064
10504SOL    HW132411   1.866   2.981   6.133
10504SOL    HW232412   1.757   3.100   6.104
10505SOL     OW32413   5.931   6.357   1.848
10505SOL    HW132414   5.855   6.314   1.798
10505SOL    HW232415   5.896   6.398   1.932
10506SOL     OW32416   0.790   2.837   6.794
10506SOL    HW132417   0.868   2.896   6.773
10506SOL    HW232418   0.823   2.745   6.814
10507SOL     OW32419   2.652   4.954   6.762
10507SOL    HW132420   2.692   4.865   6.782
10507SOL    HW232421   2.722   5.025   6.771
10508SOL     OW32422   1.218   5.155   5.343
10508SOL    HW132423   1.244   5.200   5.428
10508SOL    HW232424   1.231   5.056   5.353
10509SOL     OW32425   4.816   3.182   3.849
10509SOL    HW132426   4.784   3.087   3.843
10509SOL    HW232427   4.859   3.196   3.938
10510SOL     OW32428   4.696   5.635   4.984
10510SOL    HW132429   4.766   5.636   4.912
10510SOL    HW232430   4.630   5.708   4.968
10511SOL     OW32431   2.900   1.591   2.067
10511SOL    HW132432   2.872   1.593   1.971
10511SOL    HW232433   2.947   1.676   2.090
10512SOL     OW32434   4.616   0.612   5.239
10512SOL    HW132435   4.548   0.637   5.308
10512SOL    HW232436   4.576   0.546   5.176
10513SOL     OW32437   5.427   2.895   2.097
10513SOL    HW132438   5.330   2.894   2.075
10513SOL    HW232439   5.481   2.873   2.016
10514SOL     OW32440   1.041   3.008   1.894
10514SOL    HW132441   1.087   2.934   1.943
10514SOL    HW232442   0.992   2.970   1.815
10515SOL     OW32443   2.167   3.361   4.912
10515SOL    HW132444   2.130   3.409   4.992
10515SOL    HW232445   2.162   3.420   4.832
10516SOL     OW32446   3.432   2.716   0.008
10516SOL    HW132447   3.488   2.660   0.069
10516SOL    HW232448   3.335   2.699   0.026
10517SOL     OW32449   1.125   3.069   3.594
10517SOL    HW132450   1.200   3.017   3.554
10517SOL    HW232451   1.150   3.099   3.686
10518SOL     OW32452   0.957   5.201   2.134
10518SOL    HW132453   1.030   5.133   2.136
10518SOL    HW232454   0.907   5.194   2.047
10519SOL     OW32455   2.210   6.288   1.019
10519SOL    HW132456   2.123   6.311   1.062
10519SOL    HW232457   2.194   6.265   0.923
10520SOL     OW32458   6.653   0.890   6.420
10520SOL    HW132459   6.711   0.965   6.452
10520SOL    HW232460   6.603   0.851   6.497
10521SOL     OW32461   6.165   3.238   1.662
10521SOL    HW132462   6.259   3.241   1.695
10521SOL    HW232463   6.142   3.325   1.618
10522SOL     OW32464   5.737   2.327   2.816
10522SOL    HW132465   5.760   2.307   2.911
10522SOL    HW232466   5.639   2.315   2.801
10523SOL     OW32467   0.540   4.143   3.886
10523SOL    HW132468   0.502   4.209   3.950
10523SOL    HW232469   0.638   4.162   3.873
10524SOL     OW32470   6.869   5.687   4.465
10524SOL    HW132471   6.915   5.698   4.377
10524SOL    HW232472   6.906   5.754   4.530
10525SOL     OW32473   4.169   1.250   4.502
10525SOL    HW132474   4.071   1.254   4.518
10525SOL    HW232475   4.188   1.205   4.415
10526SOL     OW32476   0.523   5.284   0.406
10526SOL    HW132477   0.617   5.295   0.438
10526SOL    HW232478   0.465   5.259   0.484
10527SOL     OW32479   0.916   1.455   4.961
10527SOL    HW132480   0.881   1.546   4.986
10527SOL    HW232481   1.006   1.465   4.919
10528SOL     OW32482   0.758   4.916   6.922
10528SOL    HW132483   0.748   4.960   6.832
10528SOL    HW232484   0.696   4.838   6.927
10529SOL     OW32485   1.655   6.551   6.515
10529SOL    HW132486   1.577   6.498   6.550
10529SOL    HW232487   1.626   6.645   6.498
10530SOL     OW32488   1.112   0.311   6.958
10530SOL    HW132489   1.105   0.271   0.022
10530SOL    HW232490   1.071   0.248   6.891
10531SOL     OW32491   2.903   2.507   5.300
10531SOL    HW132492   2.995   2.476   5.274
10531SOL    HW232493   2.904   2.606   5.312
10532SOL     OW32494   5.741   6.506   6.622
10532SOL    HW132495   5.737   6.534   6.526
10532SOL    HW232496   5.703   6.414   6.631
10533SOL     OW32497   3.345   5.859   3.743
10533SOL    HW132498   3.368   5.923   3.815
10533SOL    HW232499   3.410   5.868   3.668
10534SOL     OW32500   0.699   6.124   2.462
10534SOL    HW132501   0.780   6.147   2.409
10534SOL    HW232502   0.716   6.042   2.517
10535SOL     OW32503   2.586   1.497   2.634
10535SOL    HW132504   2.552   1.591   2.644
10535SOL    HW232505   2.669   1.498   2.577
10536SOL     OW32506   4.783   1.254   4.301
10536SOL    HW132507   4.794   1.176   4.362
10536SOL    HW232508   4.751   1.222   4.211
10537SOL     OW32509   5.017   6.836   3.234
10537SOL    HW132510   5.107   6.869   3.260
10537SOL    HW232511   5.018   6.736   3.227
10538SOL     OW32512   6.472   3.248   2.525
10538SOL    HW132513   6.414   3.267   2.446
10538SOL    HW232514   6.423   3.189   2.589
10539SOL     OW32515   6.093   6.664   3.020
10539SOL    HW132516   6.005   6.645   2.976
10539SOL    HW232517   6.129   6.581   3.062
10540SOL     OW32518   2.742   3.804   6.367
10540SOL    HW132519   2.673   3.863   6.324
10540SOL    HW232520   2.819   3.860   6.398
10541SOL     OW32521   3.187   2.967   4.961
10541SOL    HW132522   3.147   2.947   5.050
10541SOL    HW232523   3.132   2.926   4.889
10542SOL     OW32524   6.137   6.906   4.450
10542SOL    HW132525   6.214   6.849   4.477
10542SOL    HW232526   6.152   7.000   4.482
10543SOL     OW32527   0.060   3.046   5.757
10543SOL    HW132528   7.021   3.115   5.728
10543SOL    HW232529   0.151   3.086   5.756
10544SOL     OW32530   1.261   1.475   3.568
10544SOL    HW132531   1.171   1.430   3.564
10544SOL    HW232532   1.295   1.489   3.475
10545SOL     OW32533   2.722   2.078   3.053
10545SOL    HW132534   2.689   2.168   3.026
10545SOL    HW232535   2.645   2.023   3.087
10546SOL     OW32536   3.141   6.501   0.955
10546SOL    HW132537   3.216   6.435   0.963
10546SOL    HW232538   3.174   6.591   0.984
10547SOL     OW32539   4.340   6.772   5.149
10547SOL    HW132540   4.396   6.847   5.183
10547SOL    HW232541   4.339   6.774   5.049
10548SOL     OW32542   1.002   4.661   4.183
10548SOL    HW132543   1.068   4.696   4.249
10548SOL    HW232544   0.909   4.673   4.219
10549SOL     OW32545   0.383   1.087   0.792
10549SOL    HW132546   0.479   1.112   0.794
10549SOL    HW232547   0.352   1.079   0.697
10550SOL     OW32548   4.018   6.280   2.996
10550SOL    HW132549   3.956   6.343   3.044
10550SOL    HW232550   4.032   6.198   3.051
10551SOL     OW32551   3.091   2.153   5.916
10551SOL    HW132552   3.019   2.085   5.905
10551SOL    HW232553   3.161   2.139   5.846
10552SOL     OW32554   3.606   1.036   4.688
10552SOL    HW132555   3.630   1.114   4.745
10552SOL    HW232556   3.629   0.951   4.736
10553SOL     OW32557   0.151   5.176   0.824
10553SOL    HW132558   0.186   5.101   0.768
10553SOL    HW232559   0.216   5.195   0.898
10554SOL     OW32560   6.432   5.121   2.768
10554SOL    HW132561   6.372   5.051   2.731
10554SOL    HW232562   6.385   5.170   2.841
10555SOL     OW32563   3.294   2.172   0.541
10555SOL    HW132564   3.386   2.210   0.526
10555SOL    HW232565   3.261   2.130   0.457
10556SOL     OW32566   1.941   1.463   3.185
10556SOL    HW132567   1.915   1.461   3.089
10556SOL    HW232568   2.013   1.397   3.202
10557SOL     OW32569   2.116   3.564   3.439
10557SOL    HW132570   2.090   3.526   3.528
10557SOL    HW232571   2.095   3.662   3.438
10558SOL     OW32572   2.948   5.659   5.322
10558SOL    HW132573   2.875   5.595   5.346
10558SOL    HW232574   2.979   5.640   5.229
10559SOL     OW32575   3.367   0.307   6.866
10559SOL    HW132576   3.412   0.379   6.813
10559SOL    HW232577   3.309   0.349   6.937
10560SOL     OW32578   5.195   6.760   1.283
10560SOL    HW132579   5.259   6.695   1.243
10560SOL    HW232580   5.243   6.820   1.346
10561SOL     OW32581   5.589   3.927   0.889
10561SOL    HW132582   5.551   3.977   0.967
10561SOL    HW232583   5.530   3.849   0.867
10562SOL     OW32584   2.976   6.630   1.631
10562SOL    HW132585   3.033   6.663   1.706
10562SOL    HW232586   2.944   6.538   1.651
10563SOL     OW32587   0.527   0.078   0.651
10563SOL    HW132588   0.450   0.017   0.667
10563SOL    HW232589   0.599   0.028   0.603
10564SOL     OW32590   6.248   5.686   3.974
10564SOL    HW132591   6.267   5.589   3.991
10564SOL    HW232592   6.310   5.742   4.030
10565SOL     OW32593   6.517   6.631   5.696
10565SOL    HW132594   6.519   6.573   5.614
10565SOL    HW232595   6.423   6.665   5.710
10566SOL     OW32596   3.024   2.591   0.527
10566SOL    HW132597   3.102   2.646   0.499
10566SOL    HW232598   2.948   2.651   0.552
10567SOL     OW32599   1.724   2.560   6.474
10567SOL    HW132600   1.775   2.597   6.396
10567SOL    HW232601   1.741   2.461   6.481
10568SOL     OW32602   5.193   2.675   5.930
10568SOL    HW132603   5.220   2.675   6.026
10568SOL    HW232604   5.099   2.644   5.921
10569SOL     OW32605   5.571   0.254   1.927
10569SOL    HW132606   5.540   0.159   1.918
10569SOL    HW232607   5.666   0.260   1.897
10570SOL     OW32608   0.779   4.951   4.621
10570SOL    HW132609   0.732   5.006   4.689
10570SOL    HW232610   0.867   4.993   4.599
10571SOL     OW32611   0.001   4.518   5.954
10571SOL    HW132612   6.963   4.465   5.900
10571SOL    HW232613   0.082   4.538   5.899
10572SOL     OW32614   6.484   4.622   1.477
10572SOL    HW132615   6.478   4.705   1.533
10572SOL    HW232616   6.487   4.648   1.381
10573SOL     OW32617   6.002   0.504   3.591
10573SOL    HW132618   6.069   0.455   3.536
10573SOL    HW232619   6.015   0.603   3.580
10574SOL     OW32620   6.897   1.282   3.187
10574SOL    HW132621   6.988   1.268   3.147
10574SOL    HW232622   6.870   1.199   3.237
10575SOL     OW32623   6.462   1.123   2.158
10575SOL    HW132624   6.460   1.173   2.072
10575SOL    HW232625   6.521   1.172   2.223
10576SOL     OW32626   2.410   4.890   3.551
10576SOL    HW132627   2.370   4.800   3.532
10576SOL    HW232628   2.384   4.919   3.643
10577SOL     OW32629   4.138   6.193   1.055
10577SOL    HW132630   4.093   6.112   1.018
10577SOL    HW232631   4.093   6.221   1.140
10578SOL     OW32632   6.294   2.221   4.076
10578SOL    HW132633   6.361   2.203   4.148
10578SOL    HW232634   6.264   2.317   4.082
10579SOL     OW32635   2.612   2.971   1.092
10579SOL    HW132636   2.572   2.983   1.183
10579SOL    HW232637   2.549   3.004   1.023
10580SOL     OW32638   6.356   6.842   6.609
10580SOL    HW132639   6.305   6.787   6.544
10580SOL    HW232640   6.452   6.813   6.610
10581SOL     OW32641   5.458   0.022   3.565
10581SOL    HW132642   5.392   0.051   3.634
10581SOL    HW232643   5.535   0.085   3.563
10582SOL     OW32644   5.335   4.868   6.840
10582SOL    HW132645   5.336   4.791   6.776
10582SOL    HW232646   5.260   4.930   6.818
10583SOL     OW32647   2.621   0.416   3.482
10583SOL    HW132648   2.544   0.352   3.475
10583SOL    HW232649   2.615   0.483   3.407
10584SOL     OW32650   6.945   6.959   5.410
10584SOL    HW132651   6.955   6.960   5.310
10584SOL    HW232652   7.008   6.893   5.450
10585SOL     OW32653   0.417   1.510   5.791
10585SOL    HW132654   0.482   1.567   5.841
10585SOL    HW232655   0.349   1.473   5.854
10586SOL     OW32656   4.891   4.449   5.642
10586SOL    HW132657   4.950   4.392   5.700
10586SOL    HW232658   4.848   4.391   5.572
10587SOL     OW32659   0.923   5.618   5.636
10587SOL    HW132660   0.979   5.656   5.710
10587SOL    HW232661   0.982   5.597   5.557
10588SOL     OW32662   1.187   3.645   4.108
10588SOL    HW132663   1.115   3.662   4.175
10588SOL    HW232664   1.272   3.623   4.155
10589SOL     OW32665   5.253   6.272   3.855
10589SOL    HW132666   5.329   6.211   3.835
10589SOL    HW232667   5.233   6.270   3.953
10590SOL     OW32668   0.731   5.581   1.701
10590SOL    HW132669   0.692   5.662   1.658
10590SOL    HW232670   0.659   5.534   1.754
10591SOL     OW32671   1.116   1.592   1.388
10591SOL    HW132672   1.144   1.648   1.311
10591SOL    HW232673   1.195   1.569   1.444
10592SOL     OW32674   5.916   1.836   5.458
10592SOL    HW132675   5.994   1.871   5.405
10592SOL    HW232676   5.836   1.830   5.399
10593SOL     OW32677   2.979   6.621   1.349
10593SOL    HW132678   2.890   6.588   1.319
10593SOL    HW232679   2.974   6.650   1.445
10594SOL     OW32680   3.961   0.190   3.178
10594SOL    HW132681   4.024   0.152   3.246
10594SOL    HW232682   3.929   0.280   3.210
10595SOL     OW32683   5.882   0.716   0.507
10595SOL    HW132684   5.865   0.685   0.600
10595SOL    HW232685   5.876   0.639   0.444
10596SOL     OW32686   4.173   1.542   6.611
10596SOL    HW132687   4.254   1.567   6.664
10596SOL    HW232688   4.095   1.528   6.673
10597SOL     OW32689   2.470   0.234   6.120
10597SOL    HW132690   2.384   0.218   6.071
10597SOL    HW232691   2.476   0.171   6.198
10598SOL     OW32692   2.644   1.931   5.981
10598SOL    HW132693   2.720   1.943   5.916
10598SOL    HW232694   2.605   1.840   5.969
10599SOL     OW32695   0.048   3.726   6.243
10599SOL    HW132696   0.072   3.692   6.334
10599SOL    HW232697   6.976   3.732   6.235
10600SOL     OW32698   2.601   1.833   2.012
10600SOL    HW132699   2.560   1.808   2.100
10600SOL    HW232700   2.589   1.931   1.996
10601SOL     OW32701   6.975   6.741   6.648
10601SOL    HW132702   6.969   6.787   6.560
10601SOL    HW232703   6.891   6.689   6.665
10602SOL     OW32704   0.114   6.975   0.184
10602SOL    HW132705   0.054   6.999   0.108
10602SOL    HW232706   0.062   6.975   0.269
10603SOL     OW32707   4.708   6.665   1.784
10603SOL    HW132708   4.632   6.629   1.838
10603SOL    HW232709   4.695   6.763   1.770
10604SOL     OW32710   0.572   6.994   5.152
10604SOL    HW132711   0.509   6.992   5.230
10604SOL    HW232712   0.658   0.009   5.180
10605SOL     OW32713   2.472   1.308   0.952
10605SOL    HW132714   2.386   1.347   0.984
10605SOL    HW232715   2.455   1.218   0.910
10606SOL     OW32716   6.225   0.838   1.235
10606SOL    HW132717   6.294   0.768   1.217
10606SOL    HW232718   6.215   0.850   1.334
10607SOL     OW32719   4.190   4.218   6.081
10607SOL    HW132720   4.123   4.143   6.085
10607SOL    HW232721   4.159   4.293   6.138
10608SOL     OW32722   6.371   2.809   2.775
10608SOL    HW132723   6.280   2.770   2.761
10608SOL    HW232724   6.439   2.752   2.729
10609SOL     OW32725   3.721   0.355   0.160
10609SOL    HW132726   3.696   0.275   0.106
10609SOL    HW232727   3.722   0.332   0.257
10610SOL     OW32728   0.045   1.368   4.667
10610SOL    HW132729   6.988   1.396   4.621
10610SOL    HW232730   0.112   1.442   4.661
10611SOL     OW32731   2.345   5.698   4.817
10611SOL    HW132732   2.319   5.774   4.877
10611SOL    HW232733   2.432   5.659   4.848
10612SOL     OW32734   5.067   1.260   3.877
10612SOL    HW132735   5.076   1.193   3.951
10612SOL    HW232736   5.115   1.227   3.796
10613SOL     OW32737   6.551   6.661   4.205
10613SOL    HW132738   6.495   6.743   4.216
10613SOL    HW232739   6.638   6.685   4.163
10614SOL     OW32740   5.115   0.634   6.358
10614SOL    HW132741   5.073   0.724   6.366
10614SOL    HW232742   5.153   0.606   6.447
10615SOL     OW32743   2.599   2.176   6.386
10615SOL    HW132744   2.643   2.101   6.337
10615SOL    HW232745   2.646   2.262   6.365
10616SOL     OW32746   2.769   6.275   6.678
10616SOL    HW132747   2.840   6.212   6.708
10616SOL    HW232748   2.808   6.367   6.671
10617SOL     OW32749   2.682   2.954   1.454
10617SOL    HW132750   2.671   2.892   1.532
10617SOL    HW232751   2.778   2.960   1.429
10618SOL     OW32752   0.825   5.522   4.779
10618SOL    HW132753   0.759   5.481   4.716
10618SOL    HW232754   0.916   5.521   4.738
10619SOL     OW32755   1.075   2.124   3.027
10619SOL    HW132756   1.046   2.119   3.123
10619SOL    HW232757   1.159   2.071   3.015
10620SOL     OW32758   2.183   6.847   5.970
10620SOL    HW132759   2.164   6.856   5.872
10620SOL    HW232760   2.282   6.853   5.985
10621SOL     OW32761   1.173   3.690   3.192
10621SOL    HW132762   1.092   3.659   3.242
10621SOL    HW232763   1.171   3.652   3.100
10622SOL     OW32764   4.389   3.119   0.771
10622SOL    HW132765   4.320   3.173   0.722
10622SOL    HW232766   4.389   3.145   0.867
10623SOL     OW32767   5.723   5.933   6.312
10623SOL    HW132768   5.693   5.891   6.227
10623SOL    HW232769   5.767   6.021   6.292
10624SOL     OW32770   0.724   2.512   5.436
10624SOL    HW132771   0.720   2.473   5.528
10624SOL    HW232772   0.809   2.485   5.393
10625SOL     OW32773   6.698   3.798   6.632
10625SOL    HW132774   6.749   3.716   6.604
10625SOL    HW232775   6.746   3.844   6.706
10626SOL     OW32776   4.094   2.970   1.581
10626SOL    HW132777   4.153   3.000   1.506
10626SOL    HW232778   4.097   2.871   1.589
10627SOL     OW32779   5.714   6.583   5.933
10627SOL    HW132780   5.704   6.602   6.031
10627SOL    HW232781   5.768   6.500   5.920
10628SOL     OW32782   4.430   0.611   0.307
10628SOL    HW132783   4.411   0.550   0.230
10628SOL    HW232784   4.487   0.564   0.374
10629SOL     OW32785   3.964   5.353   4.840
10629SOL    HW132786   4.054   5.334   4.800
10629SOL    HW232787   3.928   5.270   4.882
10630SOL     OW32788   4.466   0.565   2.916
10630SOL    HW132789   4.542   0.624   2.890
10630SOL    HW232790   4.496   0.503   2.988
10631SOL     OW32791   4.460   5.901   0.184
10631SOL    HW132792   4.518   5.857   0.252
10631SOL    HW232793   4.377   5.935   0.230
10632SOL     OW32794   4.849   5.560   2.947
10632SOL    HW132795   4.919   5.492   2.972
10632SOL    HW232796   4.775   5.557   3.014
10633SOL     OW32797   2.214   3.020   1.998
10633SOL    HW132798   2.296   3.006   1.943
10633SOL    HW232799   2.241   3.032   2.094
10634SOL     OW32800   1.160   4.502   6.857
10634SOL    HW132801   1.163   4.575   6.789
10634SOL    HW232802   1.236   4.439   6.842
10635SOL     OW32803   2.514   3.588   0.507
10635SOL    HW132804   2.587   3.622   0.447
10635SOL    HW232805   2.489   3.495   0.480
10636SOL     OW32806   6.655   2.447   6.860
10636SOL    HW132807   6.722   2.377   6.836
10636SOL    HW232808   6.626   2.494   6.777
10637SOL     OW32809   2.866   6.537   6.612
10637SOL    HW132810   2.891   6.486   6.530
10637SOL    HW232811   2.946   6.587   6.646
10638SOL     OW32812   6.822   5.117   1.899
10638SOL    HW132813   6.888   5.121   1.974
10638SOL    HW232814   6.731   5.097   1.936
10639SOL     OW32815   2.287   3.487   1.583
10639SOL    HW132816   2.275   3.493   1.682
10639SOL    HW232817   2.370   3.435   1.563
10640SOL     OW32818   4.033   0.131   3.839
10640SOL    HW132819   3.990   0.218   3.863
10640SOL    HW232820   3.966   0.057   3.848
10641SOL     OW32821   1.026   0.545   3.381
10641SOL    HW132822   0.945   0.489   3.367
10641SOL    HW232823   1.042   0.557   3.479
10642SOL     OW32824   6.325   2.626   0.038
10642SOL    HW132825   6.230   2.613   0.012
10642SOL    HW232826   6.382   2.556   7.022
10643SOL     OW32827   1.573   4.954   5.328
10643SOL    HW132828   1.600   5.046   5.358
10643SOL    HW232829   1.606   4.938   5.235
10644SOL     OW32830   6.997   2.355   2.523
10644SOL    HW132831   6.957   2.440   2.489
10644SOL    HW232832   0.025   2.313   2.451
10645SOL     OW32833   2.372   2.741   3.231
10645SOL    HW132834   2.372   2.822   3.289
10645SOL    HW232835   2.321   2.760   3.146
10646SOL     OW32836   5.014   1.456   4.182
10646SOL    HW132837   4.981   1.506   4.102
10646SOL    HW232838   4.940   1.403   4.222
10647SOL     OW32839   4.429   5.064   5.171
10647SOL    HW132840   4.339   5.106   5.160
10647SOL    HW232841   4.419   4.977   5.219
10648SOL     OW32842   5.964   4.894   5.318
10648SOL    HW132843   5.946   4.990   5.297
10648SOL    HW232844   6.041   4.862   5.263
10649SOL     OW32845   0.071   3.302   3.879
10649SOL    HW132846   0.150   3.359   3.855
10649SOL    HW232847   0.099   3.206   3.881
10650SOL     OW32848   7.001   0.140   4.072
10650SOL    HW132849   7.000   0.145   3.973
10650SOL    HW232850   7.011   0.232   4.111
10651SOL     OW32851   5.013   6.185   5.820
10651SOL    HW132852   5.017   6.243   5.901
10651SOL    HW232853   5.101   6.138   5.808
10652SOL     OW32854   1.317   6.858   6.219
10652SOL    HW132855   1.316   6.958   6.224
10652SOL    HW232856   1.301   6.820   6.310
10653SOL     OW32857   3.648   6.235   5.136
10653SOL    HW132858   3.612   6.324   5.108
10653SOL    HW232859   3.572   6.170   5.143
10654SOL     OW32860   5.078   1.569   4.440
10654SOL    HW132861   5.006   1.638   4.448
10654SOL    HW232862   5.076   1.529   4.349
10655SOL     OW32863   1.284   4.908   1.099
10655SOL    HW132864   1.257   4.813   1.087
10655SOL    HW232865   1.325   4.920   1.190
10656SOL     OW32866   6.457   1.275   1.910
10656SOL    HW132867   6.367   1.237   1.888
10656SOL    HW232868   6.489   1.332   1.835
10657SOL     OW32869   6.090   0.628   4.078
10657SOL    HW132870   6.057   0.577   4.158
10657SOL    HW232871   6.188   0.644   4.087
10658SOL     OW32872   5.510   3.207   4.889
10658SOL    HW132873   5.418   3.167   4.884
10658SOL    HW232874   5.509   3.284   4.953
10659SOL     OW32875   0.758   4.541   0.812
10659SOL    HW132876   0.733   4.621   0.868
10659SOL    HW232877   0.842   4.561   0.762
10660SOL     OW32878   6.270   3.532   5.648
10660SOL    HW132879   6.249   3.621   5.608
10660SOL    HW232880   6.229   3.525   5.739
10661SOL     OW32881   1.061   4.314   0.617
10661SOL    HW132882   1.148   4.348   0.652
10661SOL    HW232883   1.014   4.387   0.568
10662SOL     OW32884   2.817   1.361   2.493
10662SOL    HW132885   2.872   1.329   2.416
10662SOL    HW232886   2.778   1.282   2.541
10663SOL     OW32887   1.288   1.098   3.548
10663SOL    HW132888   1.346   1.169   3.589
10663SOL    HW232889   1.299   1.100   3.449
10664SOL     OW32890   1.110   5.175   4.247
10664SOL    HW132891   1.135   5.251   4.187
10664SOL    HW232892   1.167   5.095   4.225
10665SOL     OW32893   2.145   3.489   6.471
10665SOL    HW132894   2.174   3.583   6.456
10665SOL    HW232895   2.209   3.444   6.533
10666SOL     OW32896   3.844   3.327   2.364
10666SOL    HW132897   3.764   3.371   2.405
10666SOL    HW232898   3.827   3.229   2.356
10667SOL     OW32899   5.202   1.778   2.746
10667SOL    HW132900   5.295   1.780   2.782
10667SOL    HW232901   5.186   1.860   2.691
10668SOL     OW32902   3.381   2.123   5.475
10668SOL    HW132903   3.304   2.072   5.437
10668SOL    HW232904   3.401   2.202   5.416
10669SOL     OW32905   5.921   0.575   0.270
10669SOL    HW132906   5.878   0.506   0.211
10669SOL    HW232907   5.918   0.664   0.225
10670SOL     OW32908   5.066   4.162   4.201
10670SOL    HW132909   5.134   4.107   4.153
10670SOL    HW232910   5.111   4.238   4.247
10671SOL     OW32911   0.855   1.750   4.382
10671SOL    HW132912   0.895   1.727   4.293
10671SOL    HW232913   0.807   1.837   4.375
10672SOL     OW32914   6.299   4.208   1.621
10672SOL    HW132915   6.345   4.128   1.660
10672SOL    HW232916   6.363   4.284   1.614
10673SOL     OW32917   2.035   0.610   0.630
10673SOL    HW132918   2.025   0.696   0.682
10673SOL    HW232919   2.129   0.603   0.595
10674SOL     OW32920   4.136   3.338   4.625
10674SOL    HW132921   4.188   3.385   4.697
10674SOL    HW232922   4.078   3.268   4.666
10675SOL     OW32923   3.209   1.044   6.772
10675SOL    HW132924   3.200   1.107   6.850
10675SOL    HW232925   3.149   1.075   6.698
10676SOL     OW32926   0.758   5.807   4.839
10676SOL    HW132927   0.734   5.808   4.936
10676SOL    HW232928   0.761   5.713   4.806
10677SOL     OW32929   1.549   1.566   1.127
10677SOL    HW132930   1.639   1.538   1.095
10677SOL    HW232931   1.506   1.492   1.178
10678SOL     OW32932   3.828   5.124   3.903
10678SOL    HW132933   3.831   5.162   3.811
10678SOL    HW232934   3.901   5.057   3.914
10679SOL     OW32935   3.875   4.849   0.432
10679SOL    HW132936   3.934   4.928   0.446
10679SOL    HW232937   3.893   4.809   0.342
10680SOL     OW32938   3.511   1.869   4.274
10680SOL    HW132939   3.585   1.827   4.221
10680SOL    HW232940   3.427   1.818   4.259
10681SOL     OW32941   0.197   3.763   0.162
10681SOL    HW132942   0.133   3.765   0.239
10681SOL    HW232943   0.290   3.777   0.196
10682SOL     OW32944   6.202   3.244   4.962
10682SOL    HW132945   6.217   3.278   5.055
10682SOL    HW232946   6.113   3.275   4.929
10683SOL     OW32947   4.325   0.357   3.361
10683SOL    HW132948   4.356   0.307   3.442
10683SOL    HW232949   4.310   0.453   3.385
10684SOL     OW32950   4.800   5.522   1.066
10684SOL    HW132951   4.802   5.537   1.165
10684SOL    HW232952   4.841   5.434   1.045
10685SOL     OW32953   6.615   5.808   1.420
10685SOL    HW132954   6.563   5.800   1.335
10685SOL    HW232955   6.639   5.904   1.436
10686SOL     OW32956   2.522   4.369   6.273
10686SOL    HW132957   2.610   4.360   6.319
10686SOL    HW232958   2.482   4.459   6.294
10687SOL     OW32959   6.264   4.908   3.332
10687SOL    HW132960   6.354   4.939   3.363
10687SOL    HW232961   6.229   4.839   3.395
10688SOL     OW32962   5.633   1.299   2.140
10688SOL    HW132963   5.622   1.267   2.234
10688SOL    HW232964   5.646   1.398   2.140
10689SOL     OW32965   0.379   6.961   1.519
10689SOL    HW132966   0.471   6.986   1.491
10689SOL    HW232967   0.337   6.904   1.449
10690SOL     OW32968   6.920   4.977   3.878
10690SOL    HW132969   6.999   4.970   3.818
10690SOL    HW232970   6.869   5.060   3.858
10691SOL     OW32971   2.070   1.664   1.794
10691SOL    HW132972   2.000   1.648   1.863
10691SOL    HW232973   2.154   1.696   1.839
10692SOL     OW32974   3.144   0.751   4.590
10692SOL    HW132975   3.120   0.781   4.498
10692SOL    HW232976   3.213   0.811   4.628
10693SOL     OW32977   0.651   6.017   1.570
10693SOL    HW132978   0.744   5.996   1.599
10693SOL    HW232979   0.587   5.950   1.607
10694SOL     OW32980   5.074   6.593   6.166
10694SOL    HW132981   5.119   6.520   6.114
10694SOL    HW232982   4.975   6.579   6.165
10695SOL     OW32983   1.313   2.871   1.591
10695SOL    HW132984   1.280   2.929   1.517
10695SOL    HW232985   1.412   2.881   1.600
10696SOL     OW32986   6.060   3.776   5.174
10696SOL    HW132987   6.044   3.678   5.161
10696SOL    HW232988   6.017   3.806   5.259
10697SOL     OW32989   0.265   6.332   5.638
10697SOL    HW132990   0.291   6.368   5.549
10697SOL    HW232991   0.166   6.334   5.648
10698SOL     OW32992   4.630   4.500   0.702
10698SOL    HW132993   4.636   4.428   0.633
10698SOL    HW232994   4.611   4.587   0.657
10699SOL     OW32995   3.926   4.215   0.906
10699SOL    HW132996   3.982   4.156   0.848
10699SOL    HW232997   3.830   4.196   0.889
10700SOL     OW32998   5.738   0.173   1.021
10700SOL    HW132999   5.807   0.101   1.017
10700SOL    HW233000   5.663   0.144   1.079
10701SOL     OW33001   3.107   0.208   6.226
10701SOL    HW133002   3.060   0.277   6.170
10701SOL    HW233003   3.183   0.251   6.275
10702SOL     OW33004   4.916   3.811   2.847
10702SOL    HW133005   4.848   3.783   2.780
10702SOL    HW233006   5.006   3.814   2.804
10703SOL     OW33007   2.187   2.951   5.563
10703SOL    HW133008   2.263   2.917   5.509
10703SOL    HW233009   2.172   3.047   5.543
10704SOL     OW33010   0.159   5.078   2.684
10704SOL    HW133011   0.159   5.133   2.767
10704SOL    HW233012   0.207   4.992   2.700
10705SOL     OW33013   5.750   5.263   0.981
10705SOL    HW133014   5.848   5.252   0.998
10705SOL    HW233015   5.734   5.352   0.939
10706SOL     OW33016   4.485   6.936   1.589
10706SOL    HW133017   4.582   6.936   1.567
10706SOL    HW233018   4.454   6.843   1.606
10707SOL     OW33019   0.442   6.697   4.059
10707SOL    HW133020   0.347   6.675   4.082
10707SOL    HW233021   0.474   6.772   4.117
10708SOL     OW33022   4.552   0.961   1.519
10708SOL    HW133023   4.652   0.950   1.524
10708SOL    HW233024   4.529   1.030   1.451
10709SOL     OW33025   5.764   5.090   4.813
10709SOL    HW133026   5.672   5.052   4.802
10709SOL    HW233027   5.782   5.105   4.910
10710SOL     OW33028   5.856   0.934   3.740
10710SOL    HW133029   5.940   0.899   3.783
10710SOL    HW233030   5.871   1.028   3.710
10711SOL     OW33031   2.545   6.692   3.965
10711SOL    HW133032   2.464   6.655   4.011
10711SOL    HW233033   2.618   6.625   3.966
10712SOL     OW33034   3.454   0.204   2.625
10712SOL    HW133035   3.494   0.243   2.707
10712SOL    HW233036   3.459   0.270   2.550
10713SOL     OW33037   1.186   2.694   0.149
10713SOL    HW133038   1.224   2.741   0.229
10713SOL    HW233039   1.182   2.596   0.167
10714SOL     OW33040   4.304   3.472   5.524
10714SOL    HW133041   4.320   3.381   5.561
10714SOL    HW233042   4.329   3.475   5.427
10715SOL     OW33043   4.326   0.378   2.314
10715SOL    HW133044   4.402   0.325   2.276
10715SOL    HW233045   4.295   0.446   2.247
10716SOL     OW33046   5.897   3.120   3.088
10716SOL    HW133047   5.932   3.051   3.025
10716SOL    HW233048   5.881   3.079   3.177
10717SOL     OW33049   1.623   3.149   1.012
10717SOL    HW133050   1.575   3.110   1.091
10717SOL    HW233051   1.560   3.157   0.935
10718SOL     OW33052   1.285   4.025   6.957
10718SOL    HW133053   1.208   3.991   7.011
10718SOL    HW233054   1.369   4.018   7.011
10719SOL     OW33055   6.558   5.885   3.439
10719SOL    HW133056   6.554   5.976   3.398
10719SOL    HW233057   6.554   5.893   3.539
10720SOL     OW33058   5.936   5.251   4.621
10720SOL    HW133059   5.849   5.222   4.661
10720SOL    HW233060   5.966   5.336   4.664
10721SOL     OW33061   5.288   3.828   5.172
10721SOL    HW133062   5.229   3.835   5.092
10721SOL    HW233063   5.373   3.880   5.156
10722SOL     OW33064   6.900   4.516   0.508
10722SOL    HW133065   6.998   4.495   0.508
10722SOL    HW233066   6.860   4.489   0.421
10723SOL     OW33067   0.291   1.917   6.362
10723SOL    HW133068   0.237   1.964   6.292
10723SOL    HW233069   0.387   1.916   6.334
10724SOL     OW33070   6.030   6.735   6.336
10724SOL    HW133071   5.943   6.784   6.328
10724SOL    HW233072   6.068   6.720   6.245
10725SOL     OW33073   2.022   5.688   5.041
10725SOL    HW133074   2.049   5.598   5.008
10725SOL    HW233075   2.038   5.756   4.969
10726SOL     OW33076   5.627   0.843   4.051
10726SOL    HW133077   5.537   0.861   4.090
10726SOL    HW233078   5.617   0.819   3.954
10727SOL     OW33079   0.379   5.283   5.951
10727SOL    HW133080   0.432   5.349   6.005
10727SOL    HW233081   0.412   5.284   5.856
10728SOL     OW33082   1.053   4.943   6.499
10728SOL    HW133083   0.962   4.911   6.526
10728SOL    HW233084   1.044   5.025   6.443
10729SOL     OW33085   5.859   1.298   2.484
10729SOL    HW133086   5.886   1.339   2.571
10729SOL    HW233087   5.763   1.320   2.465
10730SOL     OW33088   2.603   0.142   1.453
10730SOL    HW133089   2.532   0.096   1.398
10730SOL    HW233090   2.692   0.102   1.433
10731SOL     OW33091   3.205   1.260   0.188
10731SOL    HW133092   3.186   1.242   0.285
10731SOL    HW233093   3.156   1.194   0.132
10732SOL     OW33094   0.394   4.580   5.259
10732SOL    HW133095   0.395   4.603   5.356
10732SOL    HW233096   0.346   4.652   5.208
10733SOL     OW33097   6.601   1.854   6.443
10733SOL    HW133098   6.697   1.827   6.442
10733SOL    HW233099   6.552   1.801   6.512
10734SOL     OW33100   1.371   1.072   0.676
10734SOL    HW133101   1.399   1.165   0.652
10734SOL    HW233102   1.337   1.025   0.595
10735SOL     OW33103   0.471   2.887   2.301
10735SOL    HW133104   0.518   2.970   2.328
10735SOL    HW233105   0.466   2.882   2.201
10736SOL     OW33106   0.911   0.677   3.630
10736SOL    HW133107   0.914   0.701   3.727
10736SOL    HW233108   0.819   0.695   3.595
10737SOL     OW33109   1.519   1.962   0.408
10737SOL    HW133110   1.507   1.967   0.507
10737SOL    HW233111   1.522   1.866   0.380
10738SOL     OW33112   2.900   6.877   2.913
10738SOL    HW133113   2.990   6.920   2.917
10738SOL    HW233114   2.910   6.783   2.881
10739SOL     OW33115   1.983   0.992   1.811
10739SOL    HW133116   1.891   1.007   1.847
10739SOL    HW233117   2.029   1.080   1.802
10740SOL     OW33118   0.434   5.178   5.572
10740SOL    HW133119   0.493   5.235   5.628
10740SOL    HW233120   0.340   5.210   5.578
10741SOL     OW33121   4.163   1.014   1.518
10741SOL    HW133122   4.173   1.013   1.618
10741SOL    HW233123   4.072   0.981   1.494
10742SOL     OW33124   5.737   6.890   1.285
10742SOL    HW133125   5.828   6.931   1.296
10742SOL    HW233126   5.723   6.865   1.190
10743SOL     OW33127   1.255   2.756   5.680
10743SOL    HW133128   1.316   2.833   5.665
10743SOL    HW233129   1.261   2.726   5.775
10744SOL     OW33130   3.140   1.207   0.733
10744SOL    HW133131   3.052   1.232   0.774
10744SOL    HW233132   3.207   1.278   0.755
10745SOL     OW33133   6.704   5.793   5.854
10745SOL    HW133134   6.700   5.851   5.935
10745SOL    HW233135   6.634   5.722   5.861
10746SOL     OW33136   1.882   4.435   1.032
10746SOL    HW133137   1.959   4.371   1.030
10746SOL    HW233138   1.887   4.489   1.117
10747SOL     OW33139   3.618   1.122   4.965
10747SOL    HW133140   3.713   1.116   4.935
10747SOL    HW233141   3.595   1.217   4.984
10748SOL     OW33142   5.452   1.284   0.493
10748SOL    HW133143   5.424   1.364   0.441
10748SOL    HW233144   5.450   1.304   0.591
10749SOL     OW33145   0.107   5.448   3.703
10749SOL    HW133146   0.140   5.503   3.626
10749SOL    HW233147   0.059   5.507   3.768
10750SOL     OW33148   4.431   6.184   4.878
10750SOL    HW133149   4.528   6.168   4.857
10750SOL    HW233150   4.418   6.189   4.977
10751SOL     OW33151   1.481   4.739   4.287
10751SOL    HW133152   1.575   4.770   4.271
10751SOL    HW233153   1.417   4.801   4.243
10752SOL     OW33154   6.231   4.764   5.215
10752SOL    HW133155   6.326   4.734   5.208
10752SOL    HW233156   6.170   4.685   5.220
10753SOL     OW33157   6.219   4.806   4.227
10753SOL    HW133158   6.300   4.750   4.210
10753SOL    HW233159   6.222   4.842   4.320
10754SOL     OW33160   0.530   6.750   3.471
10754SOL    HW133161   0.538   6.818   3.399
10754SOL    HW233162   0.548   6.659   3.433
10755SOL     OW33163   0.058   0.538   0.709
10755SOL    HW133164   7.004   0.497   0.668
10755SOL    HW233165   0.091   0.479   0.783
10756SOL     OW33166   6.497   5.253   6.235
10756SOL    HW133167   6.400   5.278   6.232
10756SOL    HW233168   6.542   5.284   6.151
10757SOL     OW33169   1.654   2.723   0.260
10757SOL    HW133170   1.700   2.811   0.271
10757SOL    HW233171   1.598   2.726   0.177
10758SOL     OW33172   0.961   6.042   4.228
10758SOL    HW133173   0.956   6.139   4.204
10758SOL    HW233174   0.893   6.021   4.298
10759SOL     OW33175   1.637   4.216   1.362
10759SOL    HW133176   1.577   4.278   1.413
10759SOL    HW233177   1.729   4.221   1.399
10760SOL     OW33178   5.208   0.299   3.033
10760SOL    HW133179   5.226   0.389   3.070
10760SOL    HW233180   5.204   0.232   3.107
10761SOL     OW33181   0.407   5.957   5.695
10761SOL    HW133182   0.475   5.888   5.671
10761SOL    HW233183   0.317   5.927   5.664
10762SOL     OW33184   2.868   1.469   4.350
10762SOL    HW133185   2.871   1.565   4.378
10762SOL    HW233186   2.863   1.464   4.250
10763SOL     OW33187   3.784   6.606   2.630
10763SOL    HW133188   3.834   6.573   2.550
10763SOL    HW233189   3.781   6.706   2.629
10764SOL     OW33190   5.561   2.221   5.598
10764SOL    HW133191   5.561   2.145   5.664
10764SOL    HW233192   5.481   2.213   5.538
10765SOL     OW33193   4.819   2.811   0.551
10765SOL    HW133194   4.841   2.837   0.457
10765SOL    HW233195   4.721   2.826   0.568
10766SOL     OW33196   4.119   5.289   0.821
10766SOL    HW133197   4.151   5.336   0.739
10766SOL    HW233198   4.081   5.356   0.885
10767SOL     OW33199   2.111   0.279   1.317
10767SOL    HW133200   2.162   0.211   1.370
10767SOL    HW233201   2.015   0.277   1.344
10768SOL     OW33202   5.242   5.305   1.335
10768SOL    HW133203   5.147   5.278   1.353
10768SOL    HW233204   5.247   5.347   1.244
10769SOL     OW33205   2.409   4.185   5.383
10769SOL    HW133206   2.423   4.112   5.316
10769SOL    HW233207   2.361   4.148   5.462
10770SOL     OW33208   5.200   6.234   4.133
10770SOL    HW133209   5.166   6.140   4.138
10770SOL    HW233210   5.132   6.296   4.172
10771SOL     OW33211   4.711   0.141   4.322
10771SOL    HW133212   4.681   0.145   4.417
10771SOL    HW233213   4.738   0.233   4.292
10772SOL     OW33214   6.496   6.926   4.826
10772SOL    HW133215   6.516   6.829   4.812
10772SOL    HW233216   6.494   6.973   4.738
10773SOL     OW33217   5.732   5.354   6.471
10773SOL    HW133218   5.709   5.400   6.385
10773SOL    HW233219   5.651   5.348   6.529
10774SOL     OW33220   2.070   1.408   6.071
10774SOL    HW133221   2.067   1.394   5.972
10774SOL    HW233222   2.104   1.500   6.091
10775SOL     OW33223   0.512   4.586   2.972
10775SOL    HW133224   0.520   4.681   3.003
10775SOL    HW233225   0.430   4.545   3.012
10776SOL     OW33226   0.434   0.862   6.400
10776SOL    HW133227   0.516   0.830   6.353
10776SOL    HW233228   0.391   0.934   6.346
10777SOL     OW33229   3.819   5.299   1.679
10777SOL    HW133230   3.803   5.371   1.610
10777SOL    HW233231   3.841   5.213   1.633
10778SOL     OW33232   4.921   0.133   3.798
10778SOL    HW133233   4.897   0.146   3.701
10778SOL    HW233234   5.020   0.126   3.807
10779SOL     OW33235   5.821   3.071   3.343
10779SOL    HW133236   5.774   3.144   3.393
10779SOL    HW233237   5.814   2.986   3.394
10780SOL     OW33238   1.784   0.539   4.121
10780SOL    HW133239   1.859   0.552   4.057
10780SOL    HW233240   1.715   0.611   4.107
10781SOL     OW33241   4.359   0.851   3.925
10781SOL    HW133242   4.414   0.772   3.900
10781SOL    HW233243   4.327   0.897   3.842
10782SOL     OW33244   6.988   0.689   2.965
10782SOL    HW133245   6.970   0.766   3.027
10782SOL    HW233246   0.024   0.626   3.008
10783SOL     OW33247   0.631   2.203   2.550
10783SOL    HW133248   0.591   2.147   2.622
10783SOL    HW233249   0.695   2.148   2.496
10784SOL     OW33250   3.956   0.978   4.073
10784SOL    HW133251   3.880   0.939   4.022
10784SOL    HW233252   4.015   1.030   4.012
10785SOL     OW33253   1.030   4.095   0.795
10785SOL    HW133254   1.055   4.166   0.730
10785SOL    HW233255   0.992   4.016   0.746
10786SOL     OW33256   6.033   5.304   3.306
10786SOL    HW133257   5.965   5.244   3.348
10786SOL    HW233258   6.069   5.261   3.223
10787SOL     OW33259   1.475   1.302   6.045
10787SOL    HW133260   1.481   1.388   6.096
10787SOL    HW233261   1.478   1.322   5.947
10788SOL     OW33262   1.347   4.291   6.857
10788SOL    HW133263   1.446   4.300   6.848
10788SOL    HW233264   1.326   4.217   6.922
10789SOL     OW33265   6.719   3.373   6.685
10789SOL    HW133266   6.736   3.281   6.720
10789SOL    HW233267   6.621   3.388   6.675
10790SOL     OW33268   0.877   6.528   2.066
10790SOL    HW133269   0.868   6.610   2.010
10790SOL    HW233270   0.867   6.447   2.007
10791SOL     OW33271   0.474   5.769   1.827
10791SOL    HW133272   0.443   5.862   1.846
10791SOL    HW233273   0.432   5.735   1.744
10792SOL     OW33274   3.508   2.861   4.734
10792SOL    HW133275   3.593   2.828   4.694
10792SOL    HW233276   3.519   2.868   4.833
10793SOL     OW33277   6.415   3.934   6.228
10793SOL    HW133278   6.477   3.860   6.202
10793SOL    HW233279   6.364   3.907   6.310
10794SOL     OW33280   4.054   3.754   4.065
10794SOL    HW133281   4.038   3.849   4.093
10794SOL    HW233282   4.059   3.749   3.966
10795SOL     OW33283   0.297   5.400   2.904
10795SOL    HW133284   0.369   5.396   2.834
10795SOL    HW233285   0.261   5.308   2.920
10796SOL     OW33286   6.730   6.755   5.447
10796SOL    HW133287   6.795   6.830   5.456
10796SOL    HW233288   6.750   6.685   5.516
10797SOL     OW33289   2.981   2.148   1.116
10797SOL    HW133290   2.907   2.140   1.049
10797SOL    HW233291   2.946   2.132   1.208
10798SOL     OW33292   2.462   1.148   0.696
10798SOL    HW133293   2.400   1.122   0.622
10798SOL    HW233294   2.471   1.071   0.760
10799SOL     OW33295   4.133   1.061   2.137
10799SOL    HW133296   4.067   1.029   2.068
10799SOL    HW233297   4.187   0.983   2.170
10800SOL     OW33298   0.888   6.222   5.581
10800SOL    HW133299   0.968   6.224   5.641
10800SOL    HW233300   0.842   6.134   5.590
10801SOL     OW33301   0.988   0.097   6.849
10801SOL    HW133302   1.034   0.059   6.769
10801SOL    HW233303   0.939   0.023   6.897
10802SOL     OW33304   0.707   0.321   2.556
10802SOL    HW133305   0.785   0.377   2.528
10802SOL    HW233306   0.669   0.274   2.477
10803SOL     OW33307   1.479   5.715   5.393
10803SOL    HW133308   1.457   5.685   5.486
10803SOL    HW233309   1.568   5.760   5.393
10804SOL     OW33310   6.409   3.317   2.857
10804SOL    HW133311   6.474   3.392   2.873
10804SOL    HW233312   6.342   3.346   2.789
10805SOL     OW33313   5.059   0.864   4.919
10805SOL    HW133314   5.019   0.940   4.868
10805SOL    HW233315   5.154   0.885   4.942
10806SOL     OW33316   3.539   4.205   6.075
10806SOL    HW133317   3.594   4.288   6.072
10806SOL    HW233318   3.593   4.128   6.040
10807SOL     OW33319   1.232   6.349   3.566
10807SOL    HW133320   1.166   6.363   3.640
10807SOL    HW233321   1.287   6.267   3.586
10808SOL     OW33322   6.995   2.349   5.954
10808SOL    HW133323   6.955   2.416   6.017
10808SOL    HW233324   0.033   2.394   5.894
10809SOL     OW33325   2.459   4.391   3.736
10809SOL    HW133326   2.475   4.467   3.799
10809SOL    HW233327   2.504   4.308   3.771
10810SOL     OW33328   0.049   0.150   3.811
10810SOL    HW133329   0.048   0.084   3.736
10810SOL    HW233330   0.139   0.194   3.815
10811SOL     OW33331   4.349   4.829   5.329
10811SOL    HW133332   4.301   4.876   5.403
10811SOL    HW233333   4.322   4.732   5.328
10812SOL     OW33334   6.886   3.870   6.849
10812SOL    HW133335   6.911   3.825   6.935
10812SOL    HW233336   6.946   3.836   6.776
10813SOL     OW33337   0.639   3.718   6.010
10813SOL    HW133338   0.703   3.644   6.029
10813SOL    HW233339   0.603   3.755   6.096
10814SOL     OW33340   2.090   0.101   6.883
10814SOL    HW133341   1.996   0.083   6.912
10814SOL    HW233342   2.137   0.155   6.952
10815SOL     OW33343   5.227   2.905   2.640
10815SOL    HW133344   5.151   2.931   2.700
10815SOL    HW233345   5.252   2.983   2.582
10816SOL     OW33346   3.697   3.636   2.634
10816SOL    HW133347   3.759   3.608   2.706
10816SOL    HW233348   3.641   3.712   2.666
10817SOL     OW33349   3.462   0.775   3.921
10817SOL    HW133350   3.508   0.705   3.867
10817SOL    HW233351   3.406   0.832   3.860
10818SOL     OW33352   4.668   4.377   5.900
10818SOL    HW133353   4.643   4.406   5.992
10818SOL    HW233354   4.623   4.436   5.833
10819SOL     OW33355   6.045   5.443   6.322
10819SOL    HW133356   5.950   5.465   6.301
10819SOL    HW233357   6.087   5.519   6.372
10820SOL     OW33358   0.326   5.264   4.187
10820SOL    HW133359   0.248   5.275   4.125
10820SOL    HW233360   0.375   5.180   4.164
10821SOL     OW33361   4.302   6.909   2.126
10821SOL    HW133362   4.242   6.865   2.193
10821SOL    HW233363   4.383   6.853   2.111
10822SOL     OW33364   6.745   1.786   2.181
10822SOL    HW133365   6.717   1.815   2.090
10822SOL    HW233366   6.703   1.846   2.249
10823SOL     OW33367   0.207   0.435   2.864
10823SOL    HW133368   0.300   0.402   2.848
10823SOL    HW233369   0.199   0.467   2.958
10824SOL     OW33370   0.472   1.030   2.477
10824SOL    HW133371   0.407   1.006   2.406
10824SOL    HW233372   0.546   1.084   2.438
10825SOL     OW33373   1.445   2.531   0.392
10825SOL    HW133374   1.498   2.603   0.346
10825SOL    HW233375   1.504   2.484   0.458
10826SOL     OW33376   0.324   1.786   2.529
10826SOL    HW133377   0.351   1.697   2.568
10826SOL    HW233378   0.354   1.859   2.591
10827SOL     OW33379   6.935   3.429   4.619
10827SOL    HW133380   7.018   3.450   4.567
10827SOL    HW233381   6.926   3.330   4.631
10828SOL     OW33382   0.424   4.063   0.957
10828SOL    HW133383   0.382   4.034   0.871
10828SOL    HW233384   0.503   4.121   0.938
10829SOL     OW33385   4.924   3.553   0.508
10829SOL    HW133386   4.935   3.633   0.448
10829SOL    HW233387   5.014   3.522   0.540
10830SOL     OW33388   4.545   1.827   3.227
10830SOL    HW133389   4.496   1.915   3.233
10830SOL    HW233390   4.545   1.783   3.317
10831SOL     OW33391   3.064   6.491   2.170
10831SOL    HW133392   2.966   6.492   2.151
10831SOL    HW233393   3.080   6.510   2.267
10832SOL     OW33394   6.554   3.762   6.866
10832SOL    HW133395   6.614   3.772   6.946
10832SOL    HW233396   6.608   3.735   6.787
10833SOL     OW33397   0.455   2.402   0.499
10833SOL    HW133398   0.473   2.450   0.585
10833SOL    HW233399   0.508   2.317   0.497
10834SOL     OW33400   6.894   1.706   6.972
10834SOL    HW133401   6.972   1.687   6.912
10834SOL    HW233402   6.914   1.673   0.037
10835SOL     OW33403   5.640   3.108   0.308
10835SOL    HW133404   5.619   3.171   0.233
10835SOL    HW233405   5.720   3.142   0.359
10836SOL     OW33406   0.120   1.082   2.740
10836SOL    HW133407   0.130   1.125   2.650
10836SOL    HW233408   0.080   0.991   2.729
10837SOL     OW33409   6.744   4.835   2.137
10837SOL    HW133410   6.662   4.854   2.083
10837SOL    HW233411   6.765   4.915   2.194
10838SOL     OW33412   5.550   6.555   4.156
10838SOL    HW133413   5.545   6.538   4.254
10838SOL    HW233414   5.645   6.541   4.125
10839SOL     OW33415   4.649   3.276   0.808
10839SOL    HW133416   4.623   3.327   0.890
10839SOL    HW233417   4.582   3.203   0.792
10840SOL     OW33418   3.533   7.008   2.492
10840SOL    HW133419   3.618   0.026   2.466
10840SOL    HW233420   3.481   0.039   2.553
10841SOL     OW33421   6.479   5.129   5.114
10841SOL    HW133422   6.392   5.095   5.077
10841SOL    HW233423   6.464   5.213   5.166
10842SOL     OW33424   4.955   2.168   1.326
10842SOL    HW133425   4.922   2.184   1.419
10842SOL    HW233426   4.907   2.229   1.263
10843SOL     OW33427   1.760   1.493   1.408
10843SOL    HW133428   1.776   1.476   1.310
10843SOL    HW233429   1.839   1.540   1.447
10844SOL     OW33430   6.856   4.682   3.278
10844SOL    HW133431   6.836   4.689   3.376
10844SOL    HW233432   6.937   4.736   3.257
10845SOL     OW33433   4.403   5.943   5.354
10845SOL    HW133434   4.342   5.869   5.381
10845SOL    HW233435   4.383   6.024   5.410
10846SOL     OW33436   5.411   0.204   6.855
10846SOL    HW133437   5.386   0.256   6.937
10846SOL    HW233438   5.343   0.132   6.839
10847SOL     OW33439   3.031   2.087   0.057
10847SOL    HW133440   2.937   2.119   0.070
10847SOL    HW233441   3.039   1.994   0.092
10848SOL     OW33442   0.723   3.856   0.780
10848SOL    HW133443   0.696   3.851   0.684
10848SOL    HW233444   0.709   3.948   0.814
10849SOL     OW33445   2.503   4.527   4.195
10849SOL    HW133446   2.441   4.451   4.211
10849SOL    HW233447   2.519   4.538   4.097
10850SOL     OW33448   3.533   6.431   6.985
10850SOL    HW133449   3.495   6.405   0.046
10850SOL    HW233450   3.465   6.482   6.932
10851SOL     OW33451   3.242   4.276   0.923
10851SOL    HW133452   3.232   4.328   0.838
10851SOL    HW233453   3.288   4.190   0.904
10852SOL     OW33454   1.874   1.345   6.754
10852SOL    HW133455   1.927   1.427   6.773
10852SOL    HW233456   1.904   1.271   6.814
10853SOL     OW33457   2.356   3.190   6.174
10853SOL    HW133458   2.388   3.262   6.235
10853SOL    HW233459   2.432   3.161   6.115
10854SOL     OW33460   4.568   5.227   5.359
10854SOL    HW133461   4.564   5.325   5.341
10854SOL    HW233462   4.514   5.178   5.291
10855SOL     OW33463   3.851   0.831   0.742
10855SOL    HW133464   3.819   0.740   0.715
10855SOL    HW233465   3.830   0.846   0.838
10856SOL     OW33466   6.567   1.155   6.705
10856SOL    HW133467   6.612   1.203   6.629
10856SOL    HW233468   6.581   1.207   6.789
10857SOL     OW33469   0.460   2.387   2.882
10857SOL    HW133470   0.468   2.468   2.824
10857SOL    HW233471   0.368   2.348   2.872
10858SOL     OW33472   1.114   0.115   0.910
10858SOL    HW133473   1.194   0.055   0.916
10858SOL    HW233474   1.034   0.062   0.882
10859SOL     OW33475   0.035   4.341   4.541
10859SOL    HW133476   0.015   4.251   4.502
10859SOL    HW233477   0.134   4.358   4.535
10860SOL     OW33478   0.371   3.005   4.563
10860SOL    HW133479   0.281   3.045   4.581
10860SOL    HW233480   0.416   2.985   4.650
10861SOL     OW33481   3.307   2.917   2.640
10861SOL    HW133482   3.344   2.834   2.599
10861SOL    HW233483   3.228   2.949   2.586
10862SOL     OW33484   1.834   1.024   4.977
10862SOL    HW133485   1.750   0.985   4.940
10862SOL    HW233486   1.913   0.983   4.931
10863SOL     OW33487   2.356   0.467   4.503
10863SOL    HW133488   2.429   0.407   4.471
10863SOL    HW233489   2.339   0.452   4.600
10864SOL     OW33490   3.206   6.355   0.335
10864SOL    HW133491   3.183   6.281   0.399
10864SOL    HW233492   3.129   6.419   0.331
10865SOL     OW33493   6.760   1.376   0.351
10865SOL    HW133494   6.762   1.285   0.309
10865SOL    HW233495   6.785   1.369   0.447
10866SOL     OW33496   5.664   4.722   0.648
10866SOL    HW133497   5.660   4.822   0.651
10866SOL    HW233498   5.690   4.687   0.738
10867SOL     OW33499   2.763   4.641   0.754
10867SOL    HW133500   2.847   4.694   0.765
10867SOL    HW233501   2.771   4.555   0.804
10868SOL     OW33502   5.294   1.769   4.060
10868SOL    HW133503   5.257   1.760   3.968
10868SOL    HW233504   5.356   1.694   4.079
10869NA      NA33505   6.226   3.123   5.527
10870NA      NA33506   4.612   4.505   5.060
10871NA      NA33507   1.781   2.975   1.670
10872NA      NA33508   5.142   3.707   5.304
10873NA      NA33509   4.061   2.246   5.180
10874NA      NA33510   3.755   4.866   1.828
10875NA      NA33511   6.600   5.092   6.352
10876NA      NA33512   3.151   3.448   4.790
10877NA      NA33513   4.472   6.277   6.918
10878NA      NA33514   3.791   6.402   5.497
10879NA      NA33515   6.659   5.130   2.766
10880NA      NA33516   2.323   0.410   3.261
10881NA      NA33517   4.246   5.632   1.863
10882NA      NA33518   4.010   3.494   2.340
   7.02754   7.02754   7.02754
